 Entering Gaussian System, Link 0=g09
 Initial command:
 /apps/software//g09/l1.exe /scratch/matheusmaximo/79329.cluster.abaxnet/Gau-16924.inp -scrdir=/scratch/matheusmaximo/79329.cluster.abaxnet/
 Entering Link 1 = /apps/software//g09/l1.exe PID=     16925.
  
 Copyright (c) 1988,1990,1992,1993,1995,1998,2003,2009, Gaussian, Inc.
                  All Rights Reserved.
  
 This is part of the Gaussian(R) 09 program.  It is based on
 the Gaussian(R) 03 system (copyright 2003, Gaussian, Inc.),
 the Gaussian(R) 98 system (copyright 1998, Gaussian, Inc.),
 the Gaussian(R) 94 system (copyright 1995, Gaussian, Inc.),
 the Gaussian 92(TM) system (copyright 1992, Gaussian, Inc.),
 the Gaussian 90(TM) system (copyright 1990, Gaussian, Inc.),
 the Gaussian 88(TM) system (copyright 1988, Gaussian, Inc.),
 the Gaussian 86(TM) system (copyright 1986, Carnegie Mellon
 University), and the Gaussian 82(TM) system (copyright 1983,
 Carnegie Mellon University). Gaussian is a federally registered
 trademark of Gaussian, Inc.
  
 This software contains proprietary and confidential information,
 including trade secrets, belonging to Gaussian, Inc.
  
 This software is provided under written license and may be
 used, copied, transmitted, or stored only in accord with that
 written license.
  
 The following legend is applicable only to US Government
 contracts under FAR:
  
                    RESTRICTED RIGHTS LEGEND
  
 Use, reproduction and disclosure by the US Government is
 subject to restrictions as set forth in subparagraphs (a)
 and (c) of the Commercial Computer Software - Restricted
 Rights clause in FAR 52.227-19.
  
 Gaussian, Inc.
 340 Quinnipiac St., Bldg. 40, Wallingford CT 06492
  
  
 ---------------------------------------------------------------
 Warning -- This program may not be used in any manner that
 competes with the business of Gaussian, Inc. or will provide
 assistance to any competitor of Gaussian, Inc.  The licensee
 of this program is prohibited from giving any competitor of
 Gaussian, Inc. access to this program.  By using this program,
 the user acknowledges that Gaussian, Inc. is engaged in the
 business of creating and licensing software in the field of
 computational chemistry and represents and warrants to the
 licensee that it is not a competitor of Gaussian, Inc. and that
 it will not use this program in any manner prohibited above.
 ---------------------------------------------------------------
  

 Cite this work as:
 Gaussian 09, Revision A.02,
 M. J. Frisch, G. W. Trucks, H. B. Schlegel, G. E. Scuseria, 
 M. A. Robb, J. R. Cheeseman, G. Scalmani, V. Barone, B. Mennucci, 
 G. A. Petersson, H. Nakatsuji, M. Caricato, X. Li, H. P. Hratchian, 
 A. F. Izmaylov, J. Bloino, G. Zheng, J. L. Sonnenberg, M. Hada, 
 M. Ehara, K. Toyota, R. Fukuda, J. Hasegawa, M. Ishida, T. Nakajima, 
 Y. Honda, O. Kitao, H. Nakai, T. Vreven, J. A. Montgomery, Jr., 
 J. E. Peralta, F. Ogliaro, M. Bearpark, J. J. Heyd, E. Brothers, 
 K. N. Kudin, V. N. Staroverov, R. Kobayashi, J. Normand, 
 K. Raghavachari, A. Rendell, J. C. Burant, S. S. Iyengar, J. Tomasi, 
 M. Cossi, N. Rega, J. M. Millam, M. Klene, J. E. Knox, J. B. Cross, 
 V. Bakken, C. Adamo, J. Jaramillo, R. Gomperts, R. E. Stratmann, 
 O. Yazyev, A. J. Austin, R. Cammi, C. Pomelli, J. W. Ochterski, 
 R. L. Martin, K. Morokuma, V. G. Zakrzewski, G. A. Voth, 
 P. Salvador, J. J. Dannenberg, S. Dapprich, A. D. Daniels, 
 O. Farkas, J. B. Foresman, J. V. Ortiz, J. Cioslowski, 
 and D. J. Fox, Gaussian, Inc., Wallingford CT, 2009.
 
 ******************************************
 Gaussian 09:  EM64L-G09RevA.02 11-Jun-2009
                27-Mar-2023 
 ******************************************
 %chk=/home/matheusmaximo/Gaussian/solvent/aceticacid/aceticacid.chk
 ----------------------------------------------------------------------
 # opt=tight freq cam-b3lyp/gen scrf=(cpcm,solvent=AceticAcid) scf=qc g
 eom=connectivity int=ultrafine
 ----------------------------------------------------------------------
 1/7=10,14=-1,18=20,19=15,26=3,38=1,57=2/1,3;
 2/9=110,12=2,17=6,18=5,40=1/2;
 3/5=7,11=2,16=1,25=1,30=1,70=2101,71=1,72=81,74=-40,75=-5/1,2,3;
 4//1;
 5/5=2,8=3,38=5,53=81/8;
 6/7=2,8=2,9=2,10=2,28=1/1;
 7//1,2,3,16;
 1/7=10,14=-1,18=20,19=15/3(2);
 2/9=110/2;
 99//99;
 2/9=110/2;
 3/5=7,6=1,11=2,16=1,25=1,30=1,70=2105,71=1,72=81,74=-40,75=-5,82=7/1,2,3;
 4/5=5,16=3/1;
 5/5=2,8=3,38=5,53=81/8;
 7//1,2,3,16;
 1/7=10,14=-1,18=20,19=15/3(-5);
 2/9=110/2;
 6/7=2,8=2,9=2,10=2,19=2,28=1/1;
 99/9=1/99;
 ----------------------------------------------
 NA CAM-B3LYP def2-TZVPD - solvent CPCM acetone
 ----------------------------------------------
 Symbolic Z-matrix:
 Charge =  0 Multiplicity = 1
 C                     0.18939   0.18182   0. 
 C                     0.18968   0.86558  -1.21174 
 C                     0.18939   0.18182  -2.42347 
 C                     0.18939  -1.19994  -2.42212 
 C                     0.19039  -1.91472  -1.21174 
 C                     0.18939  -1.19994  -0.00136 
 H                     0.18981   0.74124   0.92693 
 H                     0.18981   0.74124  -3.35041 
 H                     0.18489  -1.73987  -3.36381 
 H                     0.18489  -1.73987   0.94034 
 N                     0.19194   2.31945  -1.21174 
 O                     0.19303   2.89519  -2.29444 
 O                     0.19303   2.89519  -0.12903 
 N                    -0.27633  -3.20653  -1.16287 
 H                    -0.38663  -3.71586  -2.02486 
 H                    -0.06897  -3.76737  -0.35227 
 

 GradGradGradGradGradGradGradGradGradGradGradGradGradGradGradGradGradGrad
 Berny optimization.
 Initialization pass.
                           ----------------------------
                           !    Initial Parameters    !
                           ! (Angstroms and Degrees)  !
 --------------------------                            --------------------------
 ! Name  Definition              Value          Derivative Info.                !
 --------------------------------------------------------------------------------
 ! R1    R(1,2)                  1.3913         estimate D2E/DX2                !
 ! R2    R(1,6)                  1.3818         estimate D2E/DX2                !
 ! R3    R(1,7)                  1.0827         estimate D2E/DX2                !
 ! R4    R(2,3)                  1.3913         estimate D2E/DX2                !
 ! R5    R(2,11)                 1.4539         estimate D2E/DX2                !
 ! R6    R(3,4)                  1.3818         estimate D2E/DX2                !
 ! R7    R(3,8)                  1.0827         estimate D2E/DX2                !
 ! R8    R(4,5)                  1.4057         estimate D2E/DX2                !
 ! R9    R(4,9)                  1.0855         estimate D2E/DX2                !
 ! R10   R(5,6)                  1.4057         estimate D2E/DX2                !
 ! R11   R(5,14)                 1.3744         estimate D2E/DX2                !
 ! R12   R(6,10)                 1.0855         estimate D2E/DX2                !
 ! R13   R(11,12)                1.2263         estimate D2E/DX2                !
 ! R14   R(11,13)                1.2263         estimate D2E/DX2                !
 ! R15   R(14,15)                1.0073         estimate D2E/DX2                !
 ! R16   R(14,16)                1.0073         estimate D2E/DX2                !
 ! A1    A(2,1,6)              119.3789         estimate D2E/DX2                !
 ! A2    A(2,1,7)              119.453          estimate D2E/DX2                !
 ! A3    A(6,1,7)              121.1681         estimate D2E/DX2                !
 ! A4    A(1,2,3)              121.1297         estimate D2E/DX2                !
 ! A5    A(1,2,11)             119.4351         estimate D2E/DX2                !
 ! A6    A(3,2,11)             119.4351         estimate D2E/DX2                !
 ! A7    A(2,3,4)              119.3789         estimate D2E/DX2                !
 ! A8    A(2,3,8)              119.453          estimate D2E/DX2                !
 ! A9    A(4,3,8)              121.1681         estimate D2E/DX2                !
 ! A10   A(3,4,5)              120.6198         estimate D2E/DX2                !
 ! A11   A(3,4,9)              119.7722         estimate D2E/DX2                !
 ! A12   A(5,4,9)              119.6076         estimate D2E/DX2                !
 ! A13   A(4,5,6)              118.8727         estimate D2E/DX2                !
 ! A14   A(4,5,14)             120.5512         estimate D2E/DX2                !
 ! A15   A(6,5,14)             116.5567         estimate D2E/DX2                !
 ! A16   A(1,6,5)              120.6198         estimate D2E/DX2                !
 ! A17   A(1,6,10)             119.7722         estimate D2E/DX2                !
 ! A18   A(5,6,10)             119.6076         estimate D2E/DX2                !
 ! A19   A(2,11,12)            118.0025         estimate D2E/DX2                !
 ! A20   A(2,11,13)            118.0025         estimate D2E/DX2                !
 ! A21   A(12,11,13)           123.995          estimate D2E/DX2                !
 ! A22   A(5,14,15)            118.818          estimate D2E/DX2                !
 ! A23   A(5,14,16)            118.818          estimate D2E/DX2                !
 ! A24   A(15,14,16)           115.4465         estimate D2E/DX2                !
 ! D1    D(6,1,2,3)              0.0277         estimate D2E/DX2                !
 ! D2    D(6,1,2,11)          -179.8976         estimate D2E/DX2                !
 ! D3    D(7,1,2,3)            179.9891         estimate D2E/DX2                !
 ! D4    D(7,1,2,11)             0.0637         estimate D2E/DX2                !
 ! D5    D(2,1,6,5)              0.0337         estimate D2E/DX2                !
 ! D6    D(2,1,6,10)          -179.7399         estimate D2E/DX2                !
 ! D7    D(7,1,6,5)           -179.927          estimate D2E/DX2                !
 ! D8    D(7,1,6,10)             0.2995         estimate D2E/DX2                !
 ! D9    D(1,2,3,4)             -0.0277         estimate D2E/DX2                !
 ! D10   D(1,2,3,8)           -179.9891         estimate D2E/DX2                !
 ! D11   D(11,2,3,4)           179.8976         estimate D2E/DX2                !
 ! D12   D(11,2,3,8)            -0.0637         estimate D2E/DX2                !
 ! D13   D(1,2,11,12)          179.9532         estimate D2E/DX2                !
 ! D14   D(1,2,11,13)           -0.0265         estimate D2E/DX2                !
 ! D15   D(3,2,11,12)            0.0265         estimate D2E/DX2                !
 ! D16   D(3,2,11,13)         -179.9532         estimate D2E/DX2                !
 ! D17   D(2,3,4,5)             -0.0337         estimate D2E/DX2                !
 ! D18   D(2,3,4,9)            179.7399         estimate D2E/DX2                !
 ! D19   D(8,3,4,5)            179.927          estimate D2E/DX2                !
 ! D20   D(8,3,4,9)             -0.2995         estimate D2E/DX2                !
 ! D21   D(3,4,5,6)              0.093          estimate D2E/DX2                !
 ! D22   D(3,4,5,14)           156.7742         estimate D2E/DX2                !
 ! D23   D(9,4,5,6)           -179.6809         estimate D2E/DX2                !
 ! D24   D(9,4,5,14)           -22.9997         estimate D2E/DX2                !
 ! D25   D(4,5,6,1)             -0.093          estimate D2E/DX2                !
 ! D26   D(4,5,6,10)           179.6809         estimate D2E/DX2                !
 ! D27   D(14,5,6,1)          -157.691          estimate D2E/DX2                !
 ! D28   D(14,5,6,10)           22.0829         estimate D2E/DX2                !
 ! D29   D(4,5,14,15)           16.1258         estimate D2E/DX2                !
 ! D30   D(4,5,14,16)          165.7128         estimate D2E/DX2                !
 ! D31   D(6,5,14,15)          173.325          estimate D2E/DX2                !
 ! D32   D(6,5,14,16)          -37.088          estimate D2E/DX2                !
 --------------------------------------------------------------------------------
 Trust Radius=3.00D-01 FncErr=1.00D-07 GrdErr=1.00D-06
 Number of steps in this run=  82 maximum allowed number of steps= 100.
 GradGradGradGradGradGradGradGradGradGradGradGradGradGradGradGradGradGrad

                          Input orientation:                          
 ---------------------------------------------------------------------
 Center     Atomic      Atomic             Coordinates (Angstroms)
 Number     Number       Type             X           Y           Z
 ---------------------------------------------------------------------
      1          6           0        0.189394    0.181818    0.000000
      2          6           0        0.189682    0.865575   -1.211735
      3          6           0        0.189394    0.181818   -2.423471
      4          6           0        0.189394   -1.199937   -2.422115
      5          6           0        0.190393   -1.914717   -1.211735
      6          6           0        0.189394   -1.199937   -0.001356
      7          1           0        0.189810    0.741243    0.926934
      8          1           0        0.189810    0.741243   -3.350405
      9          1           0        0.184892   -1.739874   -3.363808
     10          1           0        0.184892   -1.739874    0.940337
     11          7           0        0.191945    2.319446   -1.211735
     12          8           0        0.193033    2.895192   -2.294443
     13          8           0        0.193033    2.895192   -0.129027
     14          7           0       -0.276330   -3.206527   -1.162873
     15          1           0       -0.386626   -3.715865   -2.024863
     16          1           0       -0.068974   -3.767365   -0.352268
 ---------------------------------------------------------------------
                    Distance matrix (angstroms):
                    1          2          3          4          5
     1  C    0.000000
     2  C    1.391340   0.000000
     3  C    2.423471   1.391340   0.000000
     4  C    2.788528   2.394026   1.381755   0.000000
     5  C    2.421520   2.780292   2.421520   1.405678   0.000000
     6  C    1.381755   2.394026   2.788528   2.420760   1.405678
     7  H    1.082665   2.142281   3.396788   3.870958   3.409990
     8  H    3.396788   2.142281   1.082665   2.151721   3.409990
     9  H    3.874032   3.379320   2.139429   1.085513   2.159170
    10  H    2.139429   3.379320   3.874032   3.405530   2.159170
    11  N    2.457186   1.453873   2.457186   3.721704   4.234163
    12  O    3.553432   2.300351   2.716442   4.097120   4.930262
    13  O    2.716442   2.300351   3.553432   4.693436   4.930262
    14  N    3.612486   4.098972   3.645119   2.414331   1.374406
    15  H    4.429876   4.688593   3.960129   2.611418   2.058704
    16  H    3.973273   4.719081   4.466843   3.307977   2.058704
                    6          7          8          9         10
     6  C    0.000000
     7  H    2.151721   0.000000
     8  H    3.870958   4.277339   0.000000
     9  H    3.405530   4.956454   2.481159   0.000000
    10  H    1.085513   2.481159   4.956454   4.304144   0.000000
    11  N    3.721704   2.657939   2.657939   4.594513   4.594513
    12  O    4.693436   3.875149   2.398867   4.756832   5.652230
    13  O    4.097120   2.398867   3.875149   5.652230   4.756832
    14  N    2.364831   4.491044   4.537342   2.684755   2.605242
    15  H    3.279676   5.376914   4.685633   2.454373   3.608820
    16  H    2.604147   4.693706   5.420641   3.639305   2.417849
                   11         12         13         14         15
    11  N    0.000000
    12  O    1.226271   0.000000
    13  O    1.226271   2.165416   0.000000
    14  N    5.545994   6.223482   6.206458   0.000000
    15  H    6.117263   6.641894   6.901904   1.007282   0.000000
    16  H    6.152726   6.944808   6.671443   1.007282   1.703271
                   16
    16  H    0.000000
 Stoichiometry    C6H6N2O2
 Framework group  C1[X(C6H6N2O2)]
 Deg. of freedom    42
 Full point group                 C1      NOp   1
 Largest Abelian subgroup         C1      NOp   1
 Largest concise Abelian subgroup C1      NOp   1
                         Standard orientation:                         
 ---------------------------------------------------------------------
 Center     Atomic      Atomic             Coordinates (Angstroms)
 Number     Number       Type             X           Y           Z
 ---------------------------------------------------------------------
      1          6           0        0.009303   -1.206537   -0.052318
      2          6           0        0.699073    0.001467   -0.024578
      3          6           0        0.022717    1.216889   -0.058010
      4          6           0       -1.357615    1.223028   -0.120398
      5          6           0       -2.078310    0.016544   -0.150828
      6          6           0       -1.371015   -1.197688   -0.114713
      7          1           0        0.563037   -2.136490   -0.025296
      8          1           0        0.586713    2.140772   -0.035342
      9          1           0       -1.891985    2.167644   -0.142492
     10          1           0       -1.915810   -2.136423   -0.132383
     11          7           0        2.151542   -0.006424    0.038809
     12          8           0        2.732734    1.073138    0.061176
     13          8           0        2.720748   -1.092238    0.066262
     14          7           0       -3.390123   -0.024099    0.257202
     15          1           0       -3.899141    0.840924    0.342363
     16          1           0       -3.945508   -0.832186    0.026638
 ---------------------------------------------------------------------
 Rotational constants (GHZ):      3.8934928      0.8338086      0.6903421
 General basis read from cards:  (5D, 7F)
 There are   430 symmetry adapted basis functions of A   symmetry.
 Integral buffers will be    131072 words long.
 Raffenetti 2 integral format.
 Two-electron integral symmetry is turned on.
   430 basis functions,   652 primitive gaussians,   490 cartesian basis functions
    36 alpha electrons       36 beta electrons
       nuclear repulsion energy       497.1257036331 Hartrees.
 NAtoms=   16 NActive=   16 NUniq=   16 SFac= 7.50D-01 NAtFMM=   80 NAOKFM=F Big=F
 ------------------------------------------------------------------------------
 Polarizable Continuum Model (PCM)
 =================================
 Model                : C-PCM.
 Atomic radii         : UFF (Universal Force Field).
 Polarization charges : Total charges.
 Charge compensation  : None.
 Solution method      : Matrix inversion.
 Cavity type          : Scaled VdW (van der Waals Surface) (Alpha=1.100).
 Cavity algorithm     : GePol (No added spheres)
                        Default sphere list used, NSphG=   16.
                        Lebedev-Laikov grids with approx.  5.0 points / Ang**2.
                        Smoothing algorithm: Karplus/York (Gamma=1.0000).
                        Polarization charges: spherical gaussians, with
                                              point-specific exponents (IZeta= 3).
                        Self-potential: point-specific (ISelfS= 7).
                        Self-field    : sphere-specific E.n sum rule (ISelfD= 2).
 1st derivatives      : Analytical E(r).r(x)/FMM algorithm (CHGder, D1EAlg=3).
                        Cavity 1st derivative terms included.
 Solvent              : AceticAcid, Eps=   6.252800 Eps(inf)=   1.882384
 ------------------------------------------------------------------------------
 Spheres list:
 ISph  on   Nord    Re0     Alpha      Xe            Ye            Ze
    1   C      1    1.926   1.100      0.009303     -1.206537     -0.052318
    2   C      2    1.926   1.100      0.699073      0.001467     -0.024578
    3   C      3    1.926   1.100      0.022717      1.216889     -0.058010
    4   C      4    1.926   1.100     -1.357615      1.223028     -0.120398
    5   C      5    1.926   1.100     -2.078310      0.016544     -0.150828
    6   C      6    1.926   1.100     -1.371015     -1.197688     -0.114713
    7   H      7    1.443   1.100      0.563037     -2.136490     -0.025296
    8   H      8    1.443   1.100      0.586713      2.140772     -0.035342
    9   H      9    1.443   1.100     -1.891985      2.167644     -0.142492
   10   H     10    1.443   1.100     -1.915810     -2.136423     -0.132383
   11   N     11    1.830   1.100      2.151542     -0.006424      0.038809
   12   O     12    1.750   1.100      2.732734      1.073138      0.061176
   13   O     13    1.750   1.100      2.720748     -1.092238      0.066262
   14   N     14    1.830   1.100     -3.390123     -0.024099      0.257202
   15   H     15    1.443   1.100     -3.899141      0.840924      0.342363
   16   H     16    1.443   1.100     -3.945508     -0.832186      0.026638
 ------------------------------------------------------------------------------
 One-electron integrals computed using PRISM.
 NBasis=   430 RedAO= T  NBF=   430
 NBsUse=   429 1.00D-06 NBFU=   429
 Harris functional with IExCor=20419 diagonalized for initial guess.
 ExpMin= 4.85D-02 ExpMax= 2.70D+04 ExpMxC= 9.22D+02 IAcc=3 IRadAn=         5 AccDes= 0.00D+00
 HarFok:  IExCor=20419 AccDes= 0.00D+00 IRadAn=         5 IDoV= 1
 ScaDFX=  1.000000  1.000000  1.000000  1.000000
 FoFCou: FMM=F IPFlag=           0 FMFlag=      100000 FMFlg1=           0
         NFxFlg=           0 DoJE=T BraDBF=F KetDBF=T FulRan=T
         Omega=  0.000000  0.000000  1.000000  0.000000  0.000000 ICntrl=     500 IOpCl=  0
         NMat0=    1 NMatS0=    1 NMatT0=    0 NMatD0=    1 NMtDS0=    0 NMtDT0=    0
         I1Cent=           4 NGrid=           0.
 Petite list used in FoFCou.
 Initial guess orbital symmetries:
       Occupied  (A) (A) (A) (A) (A) (A) (A) (A) (A) (A) (A) (A)
                 (A) (A) (A) (A) (A) (A) (A) (A) (A) (A) (A) (A)
                 (A) (A) (A) (A) (A) (A) (A) (A) (A) (A) (A) (A)
       Virtual   (A) (A) (A) (A) (A) (A) (A) (A) (A) (A) (A) (A)
                 (A) (A) (A) (A) (A) (A) (A) (A) (A) (A) (A) (A)
                 (A) (A) (A) (A) (A) (A) (A) (A) (A) (A) (A) (A)
                 (A) (A) (A) (A) (A) (A) (A) (A) (A) (A) (A) (A)
                 (A) (A) (A) (A) (A) (A) (A) (A) (A) (A) (A) (A)
                 (A) (A) (A) (A) (A) (A) (A) (A) (A) (A) (A) (A)
                 (A) (A) (A) (A) (A) (A) (A) (A) (A) (A) (A) (A)
                 (A) (A) (A) (A) (A) (A) (A) (A) (A) (A) (A) (A)
                 (A) (A) (A) (A) (A) (A) (A) (A) (A) (A) (A) (A)
                 (A) (A) (A) (A) (A) (A) (A) (A) (A) (A) (A) (A)
                 (A) (A) (A) (A) (A) (A) (A) (A) (A) (A) (A) (A)
                 (A) (A) (A) (A) (A) (A) (A) (A) (A) (A) (A) (A)
                 (A) (A) (A) (A) (A) (A) (A) (A) (A) (A) (A) (A)
                 (A) (A) (A) (A) (A) (A) (A) (A) (A) (A) (A) (A)
                 (A) (A) (A) (A) (A) (A) (A) (A) (A) (A) (A) (A)
                 (A) (A) (A) (A) (A) (A) (A) (A) (A) (A) (A) (A)
                 (A) (A) (A) (A) (A) (A) (A) (A) (A) (A) (A) (A)
                 (A) (A) (A) (A) (A) (A) (A) (A) (A) (A) (A) (A)
                 (A) (A) (A) (A) (A) (A) (A) (A) (A) (A) (A) (A)
                 (A) (A) (A) (A) (A) (A) (A) (A) (A) (A) (A) (A)
                 (A) (A) (A) (A) (A) (A) (A) (A) (A) (A) (A) (A)
                 (A) (A) (A) (A) (A) (A) (A) (A) (A) (A) (A) (A)
                 (A) (A) (A) (A) (A) (A) (A) (A) (A) (A) (A) (A)
                 (A) (A) (A) (A) (A) (A) (A) (A) (A) (A) (A) (A)
                 (A) (A) (A) (A) (A) (A) (A) (A) (A) (A) (A) (A)
                 (A) (A) (A) (A) (A) (A) (A) (A) (A) (A) (A) (A)
                 (A) (A) (A) (A) (A) (A) (A) (A) (A) (A) (A) (A)
                 (A) (A) (A) (A) (A) (A) (A) (A) (A) (A) (A) (A)
                 (A) (A) (A) (A) (A) (A) (A) (A) (A) (A) (A) (A)
                 (A) (A) (A) (A) (A) (A) (A) (A) (A) (A) (A) (A)
                 (A) (A) (A) (A) (A) (A) (A) (A) (A) (A) (A) (A)
                 (A) (A) (A) (A) (A) (A) (A) (A) (A) (A) (A) (A)
                 (A) (A) (A) (A) (A) (A) (A) (A) (A)
 The electronic state of the initial guess is 1-A.
 FoFJK:  IHMeth= 1 ICntrl=     0 DoSepK=T KAlg= 1 I1Cent= 0 FoldK=F
 Gradient too large for Newton-Raphson -- use scaled steepest descent instead.
 FoFJK:  IHMeth= 1 ICntrl=     0 DoSepK=T KAlg= 1 I1Cent= 0 FoldK=F
 FoFJK:  IHMeth= 1 ICntrl=     0 DoSepK=T KAlg= 1 I1Cent= 0 FoldK=F
 FoFJK:  IHMeth= 1 ICntrl=     0 DoSepK=T KAlg= 1 I1Cent= 0 FoldK=F
 FoFJK:  IHMeth= 1 ICntrl=     0 DoSepK=T KAlg= 1 I1Cent= 0 FoldK=F
 Gradient too large for Newton-Raphson -- use scaled steepest descent instead.
 FoFJK:  IHMeth= 1 ICntrl=     0 DoSepK=T KAlg= 1 I1Cent= 0 FoldK=F
 FoFJK:  IHMeth= 1 ICntrl=     0 DoSepK=T KAlg= 1 I1Cent= 0 FoldK=F
 FoFJK:  IHMeth= 1 ICntrl=     0 DoSepK=T KAlg= 1 I1Cent= 0 FoldK=F
 FoFJK:  IHMeth= 1 ICntrl=     0 DoSepK=T KAlg= 1 I1Cent= 0 FoldK=F
 FoFJK:  IHMeth= 1 ICntrl=     0 DoSepK=T KAlg= 1 I1Cent= 0 FoldK=F
 Gradient too large for Newton-Raphson -- use scaled steepest descent instead.
 FoFJK:  IHMeth= 1 ICntrl=     0 DoSepK=T KAlg= 1 I1Cent= 0 FoldK=F
 FoFJK:  IHMeth= 1 ICntrl=     0 DoSepK=T KAlg= 1 I1Cent= 0 FoldK=F
 FoFJK:  IHMeth= 1 ICntrl=     0 DoSepK=T KAlg= 1 I1Cent= 0 FoldK=F
 Gradient too large for Newton-Raphson -- use scaled steepest descent instead.
 FoFJK:  IHMeth= 1 ICntrl=     0 DoSepK=T KAlg= 1 I1Cent= 0 FoldK=F
 FoFJK:  IHMeth= 1 ICntrl=     0 DoSepK=T KAlg= 1 I1Cent= 0 FoldK=F
 FoFJK:  IHMeth= 1 ICntrl=     0 DoSepK=T KAlg= 1 I1Cent= 0 FoldK=F
 FoFJK:  IHMeth= 1 ICntrl=     0 DoSepK=T KAlg= 1 I1Cent= 0 FoldK=F
 FoFJK:  IHMeth= 1 ICntrl=     0 DoSepK=T KAlg= 1 I1Cent= 0 FoldK=F
 Gradient too large for Newton-Raphson -- use scaled steepest descent instead.
 FoFJK:  IHMeth= 1 ICntrl=     0 DoSepK=T KAlg= 1 I1Cent= 0 FoldK=F
 FoFJK:  IHMeth= 1 ICntrl=     0 DoSepK=T KAlg= 1 I1Cent= 0 FoldK=F
 FoFJK:  IHMeth= 1 ICntrl=     0 DoSepK=T KAlg= 1 I1Cent= 0 FoldK=F
 LinEq1:  Iter=  0 NonCon=     1 RMS=7.45D-05 Max=6.82D-03
 AX will form     1 AO Fock derivatives at one time.
 FoFJK:  IHMeth= 1 ICntrl=     0 DoSepK=T KAlg= 1 I1Cent= 0 FoldK=F
 LinEq1:  Iter=  1 NonCon=     1 RMS=5.10D-05 Max=2.77D-03
 FoFJK:  IHMeth= 1 ICntrl=     0 DoSepK=T KAlg= 1 I1Cent= 0 FoldK=F
 LinEq1:  Iter=  2 NonCon=     1 RMS=1.06D-05 Max=4.20D-04
 FoFJK:  IHMeth= 1 ICntrl=     0 DoSepK=T KAlg= 1 I1Cent= 0 FoldK=F
 LinEq1:  Iter=  3 NonCon=     1 RMS=2.33D-06 Max=1.57D-04
 FoFJK:  IHMeth= 1 ICntrl=     0 DoSepK=T KAlg= 1 I1Cent= 0 FoldK=F
 LinEq1:  Iter=  4 NonCon=     1 RMS=2.20D-06 Max=9.67D-05
 FoFJK:  IHMeth= 1 ICntrl=     0 DoSepK=T KAlg= 1 I1Cent= 0 FoldK=F
 LinEq1:  Iter=  5 NonCon=     1 RMS=9.01D-07 Max=2.75D-05
 FoFJK:  IHMeth= 1 ICntrl=     0 DoSepK=T KAlg= 1 I1Cent= 0 FoldK=F
 LinEq1:  Iter=  6 NonCon=     1 RMS=4.06D-07 Max=2.50D-05
 FoFJK:  IHMeth= 1 ICntrl=     0 DoSepK=T KAlg= 1 I1Cent= 0 FoldK=F
 LinEq1:  Iter=  7 NonCon=     1 RMS=2.22D-07 Max=6.20D-06
 FoFJK:  IHMeth= 1 ICntrl=     0 DoSepK=T KAlg= 1 I1Cent= 0 FoldK=F
 LinEq1:  Iter=  8 NonCon=     1 RMS=4.86D-08 Max=1.60D-06
 FoFJK:  IHMeth= 1 ICntrl=     0 DoSepK=T KAlg= 1 I1Cent= 0 FoldK=F
 LinEq1:  Iter=  9 NonCon=     1 RMS=1.95D-08 Max=4.41D-07
 FoFJK:  IHMeth= 1 ICntrl=     0 DoSepK=T KAlg= 1 I1Cent= 0 FoldK=F
 LinEq1:  Iter= 10 NonCon=     1 RMS=8.29D-09 Max=2.89D-07
 FoFJK:  IHMeth= 1 ICntrl=     0 DoSepK=T KAlg= 1 I1Cent= 0 FoldK=F
 LinEq1:  Iter= 11 NonCon=     0 RMS=2.71D-09 Max=1.44D-07
 Linear equations converged to 1.682D-08 1.682D-07 after    11 iterations.
 FoFJK:  IHMeth= 1 ICntrl=     0 DoSepK=T KAlg= 1 I1Cent= 0 FoldK=F
 FoFJK:  IHMeth= 1 ICntrl=     0 DoSepK=T KAlg= 1 I1Cent= 0 FoldK=F
 FoFJK:  IHMeth= 1 ICntrl=     0 DoSepK=T KAlg= 1 I1Cent= 0 FoldK=F
 LinEq1:  Iter=  0 NonCon=     1 RMS=7.40D-07 Max=4.14D-05
 FoFJK:  IHMeth= 1 ICntrl=     0 DoSepK=T KAlg= 1 I1Cent= 0 FoldK=F
 LinEq1:  Iter=  1 NonCon=     1 RMS=1.86D-07 Max=1.00D-05
 FoFJK:  IHMeth= 1 ICntrl=     0 DoSepK=T KAlg= 1 I1Cent= 0 FoldK=F
 LinEq1:  Iter=  2 NonCon=     1 RMS=9.90D-08 Max=2.84D-06
 FoFJK:  IHMeth= 1 ICntrl=     0 DoSepK=T KAlg= 1 I1Cent= 0 FoldK=F
 LinEq1:  Iter=  3 NonCon=     1 RMS=5.22D-08 Max=3.41D-06
 FoFJK:  IHMeth= 1 ICntrl=     0 DoSepK=T KAlg= 1 I1Cent= 0 FoldK=F
 LinEq1:  Iter=  4 NonCon=     1 RMS=2.47D-08 Max=1.13D-06
 FoFJK:  IHMeth= 1 ICntrl=     0 DoSepK=T KAlg= 1 I1Cent= 0 FoldK=F
 LinEq1:  Iter=  5 NonCon=     1 RMS=9.25D-09 Max=2.81D-07
 FoFJK:  IHMeth= 1 ICntrl=     0 DoSepK=T KAlg= 1 I1Cent= 0 FoldK=F
 LinEq1:  Iter=  6 NonCon=     1 RMS=4.53D-09 Max=1.80D-07
 FoFJK:  IHMeth= 1 ICntrl=     0 DoSepK=T KAlg= 1 I1Cent= 0 FoldK=F
 LinEq1:  Iter=  7 NonCon=     1 RMS=3.13D-09 Max=1.88D-07
 FoFJK:  IHMeth= 1 ICntrl=     0 DoSepK=T KAlg= 1 I1Cent= 0 FoldK=F
 LinEq1:  Iter=  8 NonCon=     1 RMS=2.13D-09 Max=7.58D-08
 FoFJK:  IHMeth= 1 ICntrl=     0 DoSepK=T KAlg= 1 I1Cent= 0 FoldK=F
 LinEq1:  Iter=  9 NonCon=     1 RMS=1.05D-09 Max=2.90D-08
 FoFJK:  IHMeth= 1 ICntrl=     0 DoSepK=T KAlg= 1 I1Cent= 0 FoldK=F
 LinEq1:  Iter= 10 NonCon=     1 RMS=5.06D-10 Max=2.30D-08
 FoFJK:  IHMeth= 1 ICntrl=     0 DoSepK=T KAlg= 1 I1Cent= 0 FoldK=F
 LinEq1:  Iter= 11 NonCon=     0 RMS=1.89D-10 Max=5.34D-09
 Linear equations converged to 1.064D-09 1.064D-08 after    11 iterations.
 FoFJK:  IHMeth= 1 ICntrl=     0 DoSepK=T KAlg= 1 I1Cent= 0 FoldK=F
 Error on total polarization charges =  0.01203
 SCF Done:  E(RCAM-B3LYP) =  -492.089455124     a.u. after    8 cycles
            Convg  =    0.3515D-08                    47 Fock formations.
              S**2 =  0.0000                  -V/T =  2.0043

 **********************************************************************

            Population analysis using the SCF density.

 **********************************************************************

 Orbital symmetries:
       Occupied  (A) (A) (A) (A) (A) (A) (A) (A) (A) (A) (A) (A)
                 (A) (A) (A) (A) (A) (A) (A) (A) (A) (A) (A) (A)
                 (A) (A) (A) (A) (A) (A) (A) (A) (A) (A) (A) (A)
       Virtual   (A) (A) (A) (A) (A) (A) (A) (A) (A) (A) (A) (A)
                 (A) (A) (A) (A) (A) (A) (A) (A) (A) (A) (A) (A)
                 (A) (A) (A) (A) (A) (A) (A) (A) (A) (A) (A) (A)
                 (A) (A) (A) (A) (A) (A) (A) (A) (A) (A) (A) (A)
                 (A) (A) (A) (A) (A) (A) (A) (A) (A) (A) (A) (A)
                 (A) (A) (A) (A) (A) (A) (A) (A) (A) (A) (A) (A)
                 (A) (A) (A) (A) (A) (A) (A) (A) (A) (A) (A) (A)
                 (A) (A) (A) (A) (A) (A) (A) (A) (A) (A) (A) (A)
                 (A) (A) (A) (A) (A) (A) (A) (A) (A) (A) (A) (A)
                 (A) (A) (A) (A) (A) (A) (A) (A) (A) (A) (A) (A)
                 (A) (A) (A) (A) (A) (A) (A) (A) (A) (A) (A) (A)
                 (A) (A) (A) (A) (A) (A) (A) (A) (A) (A) (A) (A)
                 (A) (A) (A) (A) (A) (A) (A) (A) (A) (A) (A) (A)
                 (A) (A) (A) (A) (A) (A) (A) (A) (A) (A) (A) (A)
                 (A) (A) (A) (A) (A) (A) (A) (A) (A) (A) (A) (A)
                 (A) (A) (A) (A) (A) (A) (A) (A) (A) (A) (A) (A)
                 (A) (A) (A) (A) (A) (A) (A) (A) (A) (A) (A) (A)
                 (A) (A) (A) (A) (A) (A) (A) (A) (A) (A) (A) (A)
                 (A) (A) (A) (A) (A) (A) (A) (A) (A) (A) (A) (A)
                 (A) (A) (A) (A) (A) (A) (A) (A) (A) (A) (A) (A)
                 (A) (A) (A) (A) (A) (A) (A) (A) (A) (A) (A) (A)
                 (A) (A) (A) (A) (A) (A) (A) (A) (A) (A) (A) (A)
                 (A) (A) (A) (A) (A) (A) (A) (A) (A) (A) (A) (A)
                 (A) (A) (A) (A) (A) (A) (A) (A) (A) (A) (A) (A)
                 (A) (A) (A) (A) (A) (A) (A) (A) (A) (A) (A) (A)
                 (A) (A) (A) (A) (A) (A) (A) (A) (A) (A) (A) (A)
                 (A) (A) (A) (A) (A) (A) (A) (A) (A) (A) (A) (A)
                 (A) (A) (A) (A) (A) (A) (A) (A) (A) (A) (A) (A)
                 (A) (A) (A) (A) (A) (A) (A) (A) (A) (A) (A) (A)
                 (A) (A) (A) (A) (A) (A) (A) (A) (A) (A) (A) (A)
                 (A) (A) (A) (A) (A) (A) (A) (A) (A) (A) (A) (A)
                 (A) (A) (A) (A) (A) (A) (A) (A) (A) (A) (A) (A)
                 (A) (A) (A) (A) (A) (A) (A) (A) (A)
 The electronic state is 1-A.
 Alpha  occ. eigenvalues --  -19.23702 -19.23690 -14.63720 -14.41283 -10.31941
 Alpha  occ. eigenvalues --  -10.30147 -10.27718 -10.27595 -10.26341 -10.26262
 Alpha  occ. eigenvalues --   -1.31992  -1.14194  -1.02807  -0.96355  -0.87610
 Alpha  occ. eigenvalues --   -0.85426  -0.77109  -0.71820  -0.67579  -0.64308
 Alpha  occ. eigenvalues --   -0.61920  -0.61303  -0.60499  -0.58837  -0.53088
 Alpha  occ. eigenvalues --   -0.52508  -0.51182  -0.49553  -0.47109  -0.43033
 Alpha  occ. eigenvalues --   -0.40555  -0.39086  -0.38808  -0.37304  -0.33599
 Alpha  occ. eigenvalues --   -0.28381
 Alpha virt. eigenvalues --   -0.05167   0.01330   0.02990   0.04101   0.04793
 Alpha virt. eigenvalues --    0.05129   0.06753   0.07172   0.07365   0.09128
 Alpha virt. eigenvalues --    0.10330   0.10518   0.10778   0.12609   0.13213
 Alpha virt. eigenvalues --    0.14544   0.14920   0.15959   0.16574   0.16698
 Alpha virt. eigenvalues --    0.18159   0.18975   0.19738   0.20305   0.21085
 Alpha virt. eigenvalues --    0.21430   0.22148   0.22187   0.23099   0.23291
 Alpha virt. eigenvalues --    0.23881   0.24535   0.24917   0.25604   0.26682
 Alpha virt. eigenvalues --    0.27824   0.28214   0.28453   0.29167   0.29588
 Alpha virt. eigenvalues --    0.29894   0.30736   0.30916   0.31089   0.31745
 Alpha virt. eigenvalues --    0.32114   0.33697   0.34091   0.34322   0.35256
 Alpha virt. eigenvalues --    0.35786   0.36262   0.37082   0.37602   0.38272
 Alpha virt. eigenvalues --    0.38883   0.39081   0.39424   0.39764   0.41077
 Alpha virt. eigenvalues --    0.41587   0.42355   0.42982   0.43290   0.43568
 Alpha virt. eigenvalues --    0.44295   0.44865   0.45980   0.46567   0.47116
 Alpha virt. eigenvalues --    0.47361   0.47844   0.48048   0.48581   0.49409
 Alpha virt. eigenvalues --    0.49806   0.50393   0.50861   0.52686   0.53163
 Alpha virt. eigenvalues --    0.53655   0.53804   0.55458   0.55565   0.57166
 Alpha virt. eigenvalues --    0.58159   0.58981   0.59257   0.60510   0.60674
 Alpha virt. eigenvalues --    0.60958   0.61523   0.61868   0.62739   0.63605
 Alpha virt. eigenvalues --    0.64411   0.64935   0.65934   0.66630   0.67947
 Alpha virt. eigenvalues --    0.68202   0.68715   0.68986   0.69791   0.70289
 Alpha virt. eigenvalues --    0.70902   0.71891   0.72506   0.72807   0.73318
 Alpha virt. eigenvalues --    0.73659   0.74051   0.74486   0.75344   0.76799
 Alpha virt. eigenvalues --    0.77328   0.78363   0.78518   0.79724   0.80135
 Alpha virt. eigenvalues --    0.80294   0.80495   0.82364   0.82451   0.83446
 Alpha virt. eigenvalues --    0.84440   0.85063   0.85279   0.86981   0.87615
 Alpha virt. eigenvalues --    0.89503   0.91643   0.93521   0.95553   0.96001
 Alpha virt. eigenvalues --    0.97061   0.97544   0.98231   0.99337   0.99846
 Alpha virt. eigenvalues --    1.00548   1.02114   1.02605   1.03993   1.05048
 Alpha virt. eigenvalues --    1.05851   1.07859   1.09474   1.10342   1.10531
 Alpha virt. eigenvalues --    1.11478   1.14360   1.17437   1.19480   1.20257
 Alpha virt. eigenvalues --    1.23774   1.24966   1.27010   1.31371   1.31545
 Alpha virt. eigenvalues --    1.33775   1.34603   1.36090   1.36714   1.38409
 Alpha virt. eigenvalues --    1.40628   1.41791   1.43297   1.44125   1.47442
 Alpha virt. eigenvalues --    1.48974   1.49405   1.52145   1.53024   1.55064
 Alpha virt. eigenvalues --    1.57303   1.59392   1.60682   1.61541   1.62629
 Alpha virt. eigenvalues --    1.68451   1.70880   1.72324   1.74039   1.75904
 Alpha virt. eigenvalues --    1.77521   1.78090   1.78960   1.79614   1.83175
 Alpha virt. eigenvalues --    1.83358   1.84366   1.88106   1.89088   1.90502
 Alpha virt. eigenvalues --    1.91072   1.92783   1.94250   1.94349   1.96242
 Alpha virt. eigenvalues --    1.98351   1.99674   2.00788   2.01941   2.03370
 Alpha virt. eigenvalues --    2.05721   2.07499   2.08930   2.09185   2.14843
 Alpha virt. eigenvalues --    2.18930   2.19428   2.23493   2.25780   2.27513
 Alpha virt. eigenvalues --    2.28054   2.30300   2.32186   2.33544   2.34664
 Alpha virt. eigenvalues --    2.36336   2.39866   2.41263   2.41588   2.44198
 Alpha virt. eigenvalues --    2.46734   2.50629   2.53589   2.54121   2.56003
 Alpha virt. eigenvalues --    2.57208   2.63445   2.64053   2.67144   2.68919
 Alpha virt. eigenvalues --    2.71068   2.72193   2.73656   2.75365   2.79495
 Alpha virt. eigenvalues --    2.80761   2.82566   2.85169   2.86460   2.86857
 Alpha virt. eigenvalues --    2.87710   2.88107   2.90939   2.93050   2.93868
 Alpha virt. eigenvalues --    2.94612   2.97823   2.99888   3.00722   3.01915
 Alpha virt. eigenvalues --    3.03101   3.09523   3.09816   3.10987   3.11309
 Alpha virt. eigenvalues --    3.13534   3.14611   3.16205   3.20268   3.21521
 Alpha virt. eigenvalues --    3.23716   3.25546   3.26402   3.28058   3.30317
 Alpha virt. eigenvalues --    3.31422   3.32942   3.35086   3.36046   3.37675
 Alpha virt. eigenvalues --    3.40127   3.41068   3.42740   3.43810   3.45156
 Alpha virt. eigenvalues --    3.45791   3.47231   3.48769   3.49672   3.50431
 Alpha virt. eigenvalues --    3.52039   3.54874   3.54896   3.56794   3.59492
 Alpha virt. eigenvalues --    3.61665   3.62890   3.63287   3.67388   3.68857
 Alpha virt. eigenvalues --    3.70096   3.72070   3.73445   3.79081   3.84909
 Alpha virt. eigenvalues --    3.89417   3.90047   3.95686   3.97638   4.01040
 Alpha virt. eigenvalues --    4.04183   4.06032   4.13283   4.16146   4.18290
 Alpha virt. eigenvalues --    4.18882   4.19515   4.25445   4.26153   4.27213
 Alpha virt. eigenvalues --    4.29100   4.30530   4.30567   4.32440   4.33786
 Alpha virt. eigenvalues --    4.35669   4.41377   4.46711   4.52041   4.57287
 Alpha virt. eigenvalues --    4.62619   4.66807   4.68563   4.75284   4.76814
 Alpha virt. eigenvalues --    4.78306   4.81151   4.82054   4.83894   4.87789
 Alpha virt. eigenvalues --    4.89397   4.94111   4.98175   5.00213   5.02093
 Alpha virt. eigenvalues --    5.04531   5.06341   5.07137   5.14700   5.20074
 Alpha virt. eigenvalues --    5.20304   5.23191   5.25714   5.27921   5.29473
 Alpha virt. eigenvalues --    5.30668   5.39354   5.40377   5.43666   5.44434
 Alpha virt. eigenvalues --    5.48520   5.52427   5.56677   5.58336   5.66415
 Alpha virt. eigenvalues --    5.68306   5.69626   5.71746   5.78133   5.96161
 Alpha virt. eigenvalues --    5.98810   6.07500   6.11272   6.42006   6.43266
 Alpha virt. eigenvalues --    6.51481   6.57708   6.59690   6.62151   6.92934
 Alpha virt. eigenvalues --    6.94138   6.97116   7.10315   7.29185   7.43683
 Alpha virt. eigenvalues --    7.52174   7.80276   7.82672  22.65942  22.84482
 Alpha virt. eigenvalues --   22.94475  22.98960  23.12602  23.43357  32.42917
 Alpha virt. eigenvalues --   32.80661  44.45577  44.62030
          Condensed to atoms (all electrons):
              1          2          3          4          5          6
     1  C    6.530507   0.245181  -0.443075  -0.032755  -0.369000   0.346395
     2  C    0.245181   6.347578   0.625554  -0.346151  -0.666695  -0.240466
     3  C   -0.443075   0.625554   6.831476   0.078807  -0.759372  -0.036036
     4  C   -0.032755  -0.346151   0.078807   6.864604   0.081243  -0.438564
     5  C   -0.369000  -0.666695  -0.759372   0.081243   7.735093  -0.181125
     6  C    0.346395  -0.240466  -0.036036  -0.438564  -0.181125   6.737983
     7  H    0.250929  -0.274671  -0.005315   0.008715   0.107317  -0.021093
     8  H    0.036752  -0.170159   0.187809   0.005874   0.058227  -0.005100
     9  H    0.008021   0.048650   0.040984   0.329270  -0.295659   0.041730
    10  H    0.022739   0.096067   0.037522   0.024538  -0.460600   0.374424
    11  N   -0.162984   0.394043  -0.192675   0.010266   0.044288  -0.007948
    12  O    0.024892  -0.043344  -0.026538   0.007738  -0.009785  -0.002239
    13  O   -0.033143  -0.027398   0.027224  -0.004608  -0.011861   0.011485
    14  N    0.020995   0.042910   0.044211  -0.007722  -0.098042   0.014110
    15  H   -0.005367  -0.001784   0.000219   0.043578  -0.017337  -0.053894
    16  H    0.002212  -0.003109  -0.006885  -0.026338   0.024324   0.015361
              7          8          9         10         11         12
     1  C    0.250929   0.036752   0.008021   0.022739  -0.162984   0.024892
     2  C   -0.274671  -0.170159   0.048650   0.096067   0.394043  -0.043344
     3  C   -0.005315   0.187809   0.040984   0.037522  -0.192675  -0.026538
     4  C    0.008715   0.005874   0.329270   0.024538   0.010266   0.007738
     5  C    0.107317   0.058227  -0.295659  -0.460600   0.044288  -0.009785
     6  C   -0.021093  -0.005100   0.041730   0.374424  -0.007948  -0.002239
     7  H    0.519721   0.008982  -0.002228  -0.042467   0.041781  -0.004335
     8  H    0.008982   0.443955  -0.010773  -0.002575   0.025135  -0.006860
     9  H   -0.002228  -0.010773   0.470834   0.008915  -0.001901   0.000513
    10  H   -0.042467  -0.002575   0.008915   0.567587  -0.004891   0.000285
    11  N    0.041781   0.025135  -0.001901  -0.004891   5.742715   0.102117
    12  O   -0.004335  -0.006860   0.000513   0.000285   0.102117   8.679665
    13  O   -0.013895  -0.004423   0.000235   0.001395   0.095891  -0.105356
    14  N   -0.005855  -0.002236   0.034639   0.082975  -0.001536   0.000145
    15  H    0.000098   0.000284  -0.001566  -0.010094   0.000063   0.000013
    16  H    0.000282   0.000066  -0.008046  -0.005800   0.000048   0.000000
             13         14         15         16
     1  C   -0.033143   0.020995  -0.005367   0.002212
     2  C   -0.027398   0.042910  -0.001784  -0.003109
     3  C    0.027224   0.044211   0.000219  -0.006885
     4  C   -0.004608  -0.007722   0.043578  -0.026338
     5  C   -0.011861  -0.098042  -0.017337   0.024324
     6  C    0.011485   0.014110  -0.053894   0.015361
     7  H   -0.013895  -0.005855   0.000098   0.000282
     8  H   -0.004423  -0.002236   0.000284   0.000066
     9  H    0.000235   0.034639  -0.001566  -0.008046
    10  H    0.001395   0.082975  -0.010094  -0.005800
    11  N    0.095891  -0.001536   0.000063   0.000048
    12  O   -0.105356   0.000145   0.000013   0.000000
    13  O    8.679689   0.000249  -0.000011   0.000008
    14  N    0.000249   6.575306   0.381828   0.364226
    15  H   -0.000011   0.381828   0.475362  -0.027985
    16  H    0.000008   0.364226  -0.027985   0.431705
 Mulliken atomic charges:
              1
     1  C   -0.442299
     2  C   -0.026206
     3  C   -0.403910
     4  C   -0.598496
     5  C    0.818985
     6  C   -0.555026
     7  H    0.432034
     8  H    0.435043
     9  H    0.336381
    10  H    0.309980
    11  N    0.915588
    12  O   -0.616910
    13  O   -0.615482
    14  N   -0.446204
    15  H    0.216592
    16  H    0.239930
 Sum of Mulliken atomic charges =   0.00000
 Mulliken charges with hydrogens summed into heavy atoms:
              1
     1  C   -0.010265
     2  C   -0.026206
     3  C    0.031133
     4  C   -0.262114
     5  C    0.818985
     6  C   -0.245046
    11  N    0.915588
    12  O   -0.616910
    13  O   -0.615482
    14  N    0.010318
 Sum of Mulliken charges with hydrogens summed into heavy atoms =   0.00000
 Electronic spatial extent (au):  <R**2>=           1542.5730
 Charge=              0.0000 electrons
 Dipole moment (field-independent basis, Debye):
    X=             -9.1244    Y=              0.1169    Z=             -0.4210  Tot=              9.1348
 Quadrupole moment (field-independent basis, Debye-Ang):
   XX=            -56.9715   YY=            -52.8264   ZZ=            -60.5443
   XY=             -0.1159   XZ=              0.3432   YZ=              0.6251
 Traceless Quadrupole moment (field-independent basis, Debye-Ang):
   XX=             -0.1908   YY=              3.9543   ZZ=             -3.7635
   XY=             -0.1159   XZ=              0.3432   YZ=              0.6251
 Octapole moment (field-independent basis, Debye-Ang**2):
  XXX=           -122.9231  YYY=              0.2743  ZZZ=              1.4227  XYY=            -18.9322
  XXY=              0.3808  XXZ=             -2.9785  XZZ=             11.8844  YZZ=              0.2392
  YYZ=              0.0885  XYZ=             -2.4231
 Hexadecapole moment (field-independent basis, Debye-Ang**3):
 XXXX=          -1357.3618 YYYY=           -361.9262 ZZZZ=            -70.4633 XXXY=              0.6044
 XXXZ=             -6.4454 YYYX=              0.2681 YYYZ=              0.6436 ZZZX=              1.5843
 ZZZY=              0.5711 XXYY=           -298.8926 XXZZ=           -273.7989 YYZZ=            -84.4976
 XXYZ=              9.7445 YYXZ=             -1.3967 ZZXY=             -1.1158
 N-N= 4.971257036331D+02 E-N=-2.144121181394D+03  KE= 4.899869637356D+02
 D1PCM: C-PCM CHGder 1st derivatives, ID1Alg=3 FixD1E=F DoIter=F DoCFld=F I1PDM=0.
 Calling FoFJK, ICntrl=      2127 FMM=F ISym2X=0 I1Cent= 0 IOpClX= 0 NMat=1 NMatS=1 NMatT=0.
 FoFJK:  IHMeth= 1 ICntrl=  2127 DoSepK=T KAlg= 1 I1Cent= 0 FoldK=F
 ***** Axes restored to original set *****
 -------------------------------------------------------------------
 Center     Atomic                   Forces (Hartrees/Bohr)
 Number     Number              X              Y              Z
 -------------------------------------------------------------------
      1        6           0.005708385   -0.006613501   -0.000014426
      2        6          -0.000222904    0.001822866   -0.001812156
      3        6           0.004250198   -0.003224399    0.002704881
      4        6           0.008214670    0.002801852   -0.001027841
      5        6          -0.044023986    0.004069904    0.004844788
      6        6           0.013126181    0.012887370    0.002068597
      7        1          -0.000740404   -0.001959734   -0.001719943
      8        1          -0.000359224   -0.002062854    0.001722441
      9        1          -0.002180601    0.001075101    0.002262150
     10        1          -0.002690795    0.001154115   -0.002362050
     11        7          -0.000659216   -0.002947428   -0.000134547
     12        8           0.000000957   -0.001409786    0.011129042
     13        8           0.000006088   -0.001553339   -0.011164732
     14        7           0.016282428   -0.003657313   -0.006615508
     15        1           0.003916166   -0.000630252    0.000665735
     16        1          -0.000627942    0.000247398   -0.000546432
 -------------------------------------------------------------------
 Cartesian Forces:  Max     0.044023986 RMS     0.008110009

 GradGradGradGradGradGradGradGradGradGradGradGradGradGradGradGradGradGrad
 Berny optimization.
 Internal  Forces:  Max     0.012083978 RMS     0.004232881
 Search for a local minimum.
 Step number   1 out of a maximum of   82
 All quantities printed in internal units (Hartrees-Bohrs-Radians)
 Mixed Optimization -- RFO/linear search
 Second derivative matrix not updated -- first step.
     Eigenvalues ---    0.00979   0.00979   0.01836   0.02030   0.02053
     Eigenvalues ---    0.02151   0.02179   0.02227   0.02234   0.02273
     Eigenvalues ---    0.02277   0.02404   0.02988   0.16000   0.16000
     Eigenvalues ---    0.16000   0.16000   0.16000   0.16000   0.22000
     Eigenvalues ---    0.22701   0.23152   0.23696   0.25000   0.25000
     Eigenvalues ---    0.25000   0.35336   0.35336   0.35674   0.35674
     Eigenvalues ---    0.37742   0.41592   0.42599   0.45808   0.46149
     Eigenvalues ---    0.46431   0.46431   0.47592   0.48783   0.50139
     Eigenvalues ---    0.92658   0.926581000.000001000.000001000.00000
     Eigenvalues --- 1000.000001000.000001000.000001000.000001000.00000
     Eigenvalues --- 1000.000001000.000001000.000001000.000001000.00000
     Eigenvalues --- 1000.000001000.000001000.000001000.000001000.00000
     Eigenvalues --- 1000.000001000.000001000.000001000.000001000.00000
     Eigenvalues --- 1000.000001000.000001000.000001000.000001000.00000
     Eigenvalues --- 1000.000001000.00000
 RFO step:  Lambda=-1.55835138D-02 EMin= 9.79144978D-03
 Linear search not attempted -- first point.
 Maximum step size (   0.300) exceeded in Quadratic search.
    -- Step size scaled by   0.501
 Iteration  1 RMS(Cart)=  0.04436767 RMS(Int)=  0.00180103
 Iteration  2 RMS(Cart)=  0.00263163 RMS(Int)=  0.00083684
 Iteration  3 RMS(Cart)=  0.00000402 RMS(Int)=  0.00083684
 Iteration  4 RMS(Cart)=  0.00000000 RMS(Int)=  0.00083684
 Variable       Old X    -DE/DX   Delta X   Delta X   Delta X     New X
                                 (Linear)    (Quad)   (Total)
    R1        2.62925  -0.00286   0.00000  -0.00191  -0.00239   2.62686
    R2        2.61114  -0.01025   0.00000  -0.01016  -0.01016   2.60098
    R3        2.04594  -0.00249   0.00000  -0.00334  -0.00334   2.04260
    R4        2.62925  -0.00495   0.00000  -0.00410  -0.00457   2.62468
    R5        2.74742  -0.00591   0.00000  -0.00753  -0.00753   2.73989
    R6        2.61114  -0.00770   0.00000  -0.00769  -0.00768   2.60345
    R7        2.04594  -0.00254   0.00000  -0.00342  -0.00342   2.04252
    R8        2.65635  -0.00310   0.00000  -0.00443  -0.00396   2.65239
    R9        2.05132  -0.00249   0.00000  -0.00338  -0.00338   2.04795
   R10        2.65635   0.00219   0.00000   0.00133   0.00180   2.65815
   R11        2.59725  -0.00308   0.00000  -0.00298  -0.00298   2.59427
   R12        2.05132  -0.00261   0.00000  -0.00354  -0.00354   2.04778
   R13        2.31732  -0.01049   0.00000  -0.00557  -0.00557   2.31175
   R14        2.31732  -0.01059   0.00000  -0.00563  -0.00563   2.31169
   R15        1.90349  -0.00068   0.00000  -0.00071  -0.00071   1.90278
   R16        1.90349  -0.00070   0.00000  -0.00073  -0.00073   1.90275
    A1        2.08356  -0.00012   0.00000  -0.00072  -0.00066   2.08289
    A2        2.08485   0.00087   0.00000   0.00266   0.00262   2.08747
    A3        2.11478  -0.00074   0.00000  -0.00193  -0.00197   2.11281
    A4        2.11411  -0.00003   0.00000   0.00129   0.00087   2.11499
    A5        2.08454   0.00014   0.00000  -0.00042  -0.00022   2.08432
    A6        2.08454  -0.00010   0.00000  -0.00087  -0.00067   2.08387
    A7        2.08356   0.00070   0.00000   0.00083   0.00089   2.08445
    A8        2.08485   0.00055   0.00000   0.00214   0.00211   2.08696
    A9        2.11478  -0.00125   0.00000  -0.00297  -0.00300   2.11178
   A10        2.10521   0.00128   0.00000  -0.00214  -0.00114   2.10407
   A11        2.09042  -0.00043   0.00000   0.00167   0.00117   2.09159
   A12        2.08755  -0.00085   0.00000   0.00049  -0.00002   2.08753
   A13        2.07472  -0.00342   0.00000   0.00204  -0.00004   2.07468
   A14        2.10401  -0.00455   0.00000   0.00848   0.00415   2.10816
   A15        2.03430   0.01208   0.00000   0.04221   0.03849   2.07279
   A16        2.10521   0.00160   0.00000  -0.00126  -0.00024   2.10498
   A17        2.09042  -0.00062   0.00000   0.00116   0.00065   2.09106
   A18        2.08755  -0.00098   0.00000   0.00011  -0.00040   2.08714
   A19        2.05953   0.00316   0.00000   0.00595   0.00595   2.06548
   A20        2.05953   0.00291   0.00000   0.00548   0.00548   2.06502
   A21        2.16412  -0.00606   0.00000  -0.01143  -0.01143   2.15269
   A22        2.07376  -0.00120   0.00000  -0.00683  -0.00697   2.06680
   A23        2.07376   0.00029   0.00000  -0.00258  -0.00272   2.07104
   A24        2.01492  -0.00041   0.00000  -0.00509  -0.00526   2.00967
    D1        0.00048  -0.00124   0.00000  -0.01377  -0.01363  -0.01315
    D2       -3.13981  -0.00084   0.00000  -0.00923  -0.00912   3.13426
    D3        3.14140  -0.00050   0.00000  -0.00651  -0.00655   3.13485
    D4        0.00111  -0.00009   0.00000  -0.00197  -0.00204  -0.00093
    D5        0.00059  -0.00026   0.00000  -0.00388  -0.00403  -0.00344
    D6       -3.13705  -0.00009   0.00000  -0.00615  -0.00653   3.13960
    D7       -3.14032  -0.00102   0.00000  -0.01127  -0.01121   3.13165
    D8        0.00523  -0.00086   0.00000  -0.01354  -0.01372  -0.00849
    D9       -0.00048   0.00070   0.00000   0.01035   0.01044   0.00995
   D10       -3.14140   0.00112   0.00000   0.01125   0.01110  -3.13030
   D11        3.13981   0.00030   0.00000   0.00581   0.00593  -3.13745
   D12       -0.00111   0.00072   0.00000   0.00671   0.00659   0.00548
   D13        3.14078  -0.00020   0.00000  -0.00226  -0.00225   3.13853
   D14       -0.00046  -0.00019   0.00000  -0.00214  -0.00213  -0.00259
   D15        0.00046   0.00020   0.00000   0.00220   0.00218   0.00264
   D16       -3.14078   0.00020   0.00000   0.00232   0.00230  -3.13848
   D17       -0.00059   0.00134   0.00000   0.01073   0.01044   0.00986
   D18        3.13705   0.00194   0.00000   0.01623   0.01575  -3.13038
   D19        3.14032   0.00092   0.00000   0.00981   0.00977  -3.13310
   D20       -0.00523   0.00152   0.00000   0.01531   0.01508   0.00985
   D21        0.00162  -0.00279   0.00000  -0.02775  -0.02747  -0.02584
   D22        2.73623   0.01136   0.00000   0.12781   0.12642   2.86265
   D23       -3.13602  -0.00339   0.00000  -0.03325  -0.03277   3.11440
   D24       -0.40142   0.01075   0.00000   0.12232   0.12112  -0.28030
   D25       -0.00162   0.00224   0.00000   0.02428   0.02423   0.02261
   D26        3.13602   0.00208   0.00000   0.02655   0.02674  -3.12043
   D27       -2.75223  -0.00769   0.00000  -0.11785  -0.11883  -2.87106
   D28        0.38542  -0.00785   0.00000  -0.11558  -0.11633   0.26909
   D29        0.28145  -0.00203   0.00000  -0.03114  -0.03208   0.24937
   D30        2.89223  -0.00484   0.00000  -0.06202  -0.06288   2.82935
   D31        3.02509   0.00843   0.00000   0.11217   0.11304   3.13813
   D32       -0.64731   0.00563   0.00000   0.08129   0.08223  -0.56508
         Item               Value     Threshold  Converged?
 Maximum Force            0.012084     0.000015     NO 
 RMS     Force            0.004233     0.000010     NO 
 Maximum Displacement     0.203192     0.000060     NO 
 RMS     Displacement     0.044190     0.000040     NO 
 Predicted change in Energy=-6.580994D-03
 GradGradGradGradGradGradGradGradGradGradGradGradGradGradGradGradGradGrad

                          Input orientation:                          
 ---------------------------------------------------------------------
 Center     Atomic      Atomic             Coordinates (Angstroms)
 Number     Number       Type             X           Y           Z
 ---------------------------------------------------------------------
      1          6           0        0.181019    0.188338    0.003137
      2          6           0        0.187819    0.867451   -1.209736
      3          6           0        0.172262    0.182109   -2.417694
      4          6           0        0.137746   -1.195143   -2.414209
      5          6           0        0.106422   -1.905039   -1.203791
      6          6           0        0.142687   -1.187505    0.005525
      7          1           0        0.199831    0.747231    0.928136
      8          1           0        0.188646    0.736145   -3.345611
      9          1           0        0.135970   -1.736871   -3.352820
     10          1           0        0.139000   -1.724668    0.946647
     11          7           0        0.218916    2.316999   -1.214247
     12          8           0        0.227694    2.894367   -2.292712
     13          8           0        0.235550    2.900386   -0.139151
     14          7           0       -0.251911   -3.229969   -1.175262
     15          1           0       -0.279102   -3.737850   -2.044271
     16          1           0       -0.009414   -3.778547   -0.366503
 ---------------------------------------------------------------------
                    Distance matrix (angstroms):
                    1          2          3          4          5
     1  C    0.000000
     2  C    1.390073   0.000000
     3  C    2.420855   1.388920   0.000000
     4  C    2.785580   2.389049   1.377689   0.000000
     5  C    2.417533   2.773691   2.415385   1.403583   0.000000
     6  C    1.376379   2.387831   2.783650   2.419751   1.406633
     7  H    1.080897   2.141284   3.393332   3.866257   3.404170
     8  H    3.393267   2.139907   1.080858   2.144755   3.401471
     9  H    3.869226   3.373127   2.135008   1.083726   2.155801
    10  H    2.133441   3.372158   3.867260   3.402316   2.158236
    11  N    2.452480   1.449889   2.451167   3.712363   4.223549
    12  O    3.549041   2.298438   2.715702   4.092303   4.922881
    13  O    2.716325   2.298099   3.547506   4.686023   4.923641
    14  N    3.641548   4.121092   3.655931   2.413988   1.372827
    15  H    4.451802   4.703537   3.963490   2.603071   2.052859
    16  H    3.988618   4.726017   4.463988   3.299808   2.055359
                    6          7          8          9         10
     6  C    0.000000
     7  H    2.144220   0.000000
     8  H    3.864279   4.273776   0.000000
     9  H    3.402988   4.949892   2.473587   0.000000
    10  H    1.083637   2.472716   4.947883   4.299486   0.000000
    11  N    3.711495   2.656001   2.653814   4.584129   4.583767
    12  O    4.685168   3.871025   2.401675   4.751906   5.642411
    13  O    4.091504   2.403425   3.868789   5.642849   4.751779
    14  N    2.391992   4.521777   4.542528   2.668623   2.630825
    15  H    3.299065   5.401901   4.682831   2.426624   3.629505
    16  H    2.622030   4.711957   5.412647   3.620451   2.442296
                   11         12         13         14         15
    11  N    0.000000
    12  O    1.223323   0.000000
    13  O    1.223294   2.153585   0.000000
    14  N    5.567050   6.243893   6.236377   0.000000
    15  H    6.131734   6.656191   6.925354   1.006906   0.000000
    16  H    6.158448   6.949409   6.687289   1.006893   1.699792
                   16
    16  H    0.000000
 Stoichiometry    C6H6N2O2
 Framework group  C1[X(C6H6N2O2)]
 Deg. of freedom    42
 Full point group                 C1      NOp   1
 Largest Abelian subgroup         C1      NOp   1
 Largest concise Abelian subgroup C1      NOp   1
                         Standard orientation:                         
 ---------------------------------------------------------------------
 Center     Atomic      Atomic             Coordinates (Angstroms)
 Number     Number       Type             X           Y           Z
 ---------------------------------------------------------------------
      1          6           0        0.016172   -1.209531   -0.042758
      2          6           0        0.700441    0.000229   -0.019117
      3          6           0        0.021039    1.211315   -0.047050
      4          6           0       -1.356062    1.214196   -0.087183
      5          6           0       -2.072386    0.007164   -0.088017
      6          6           0       -1.359723   -1.205538   -0.079010
      7          1           0        0.570839   -2.137117   -0.026410
      8          1           0        0.579574    2.136634   -0.038260
      9          1           0       -1.892603    2.155222   -0.119683
     10          1           0       -1.900787   -2.144208   -0.099494
     11          7           0        2.149551   -0.001933    0.028342
     12          8           0        2.731691    1.073868    0.045200
     13          8           0        2.727842   -1.079709    0.048979
     14          7           0       -3.414897   -0.013453    0.198153
     15          1           0       -3.919350    0.857961    0.193229
     16          1           0       -3.953394   -0.821064   -0.069463
 ---------------------------------------------------------------------
 Rotational constants (GHZ):      3.9377491      0.8319787      0.6887536
 Basis read from rwf:  (5D, 7F)
 There are   430 symmetry adapted basis functions of A   symmetry.
 Integral buffers will be    131072 words long.
 Raffenetti 2 integral format.
 Two-electron integral symmetry is turned on.
   430 basis functions,   652 primitive gaussians,   490 cartesian basis functions
    36 alpha electrons       36 beta electrons
       nuclear repulsion energy       497.6090399459 Hartrees.
 NAtoms=   16 NActive=   16 NUniq=   16 SFac= 7.50D-01 NAtFMM=   80 NAOKFM=F Big=F
 ------------------------------------------------------------------------------
 Polarizable Continuum Model (PCM)
 =================================
 Model                : C-PCM.
 Atomic radii         : UFF (Universal Force Field).
 Polarization charges : Total charges.
 Charge compensation  : None.
 Solution method      : Matrix inversion.
 Cavity type          : Scaled VdW (van der Waals Surface) (Alpha=1.100).
 Cavity algorithm     : GePol (No added spheres)
                        Default sphere list used, NSphG=   16.
                        Lebedev-Laikov grids with approx.  5.0 points / Ang**2.
                        Smoothing algorithm: Karplus/York (Gamma=1.0000).
                        Polarization charges: spherical gaussians, with
                                              point-specific exponents (IZeta= 3).
                        Self-potential: point-specific (ISelfS= 7).
                        Self-field    : sphere-specific E.n sum rule (ISelfD= 2).
 1st derivatives      : Analytical E(r).r(x)/FMM algorithm (CHGder, D1EAlg=3).
                        Cavity 1st derivative terms included.
 Solvent              : AceticAcid, Eps=   6.252800 Eps(inf)=   1.882384
 ------------------------------------------------------------------------------
 Spheres list:
 ISph  on   Nord    Re0     Alpha      Xe            Ye            Ze
    1   C      1    1.926   1.100      0.016172     -1.209531     -0.042758
    2   C      2    1.926   1.100      0.700441      0.000229     -0.019117
    3   C      3    1.926   1.100      0.021039      1.211315     -0.047050
    4   C      4    1.926   1.100     -1.356062      1.214196     -0.087183
    5   C      5    1.926   1.100     -2.072386      0.007164     -0.088017
    6   C      6    1.926   1.100     -1.359723     -1.205538     -0.079010
    7   H      7    1.443   1.100      0.570839     -2.137117     -0.026410
    8   H      8    1.443   1.100      0.579574      2.136634     -0.038260
    9   H      9    1.443   1.100     -1.892603      2.155222     -0.119683
   10   H     10    1.443   1.100     -1.900787     -2.144208     -0.099494
   11   N     11    1.830   1.100      2.149551     -0.001933      0.028342
   12   O     12    1.750   1.100      2.731691      1.073868      0.045200
   13   O     13    1.750   1.100      2.727842     -1.079709      0.048979
   14   N     14    1.830   1.100     -3.414897     -0.013453      0.198153
   15   H     15    1.443   1.100     -3.919350      0.857961      0.193229
   16   H     16    1.443   1.100     -3.953394     -0.821064     -0.069463
 ------------------------------------------------------------------------------
 One-electron integrals computed using PRISM.
 NBasis=   430 RedAO= T  NBF=   430
 NBsUse=   429 1.00D-06 NBFU=   429
 Initial guess read from the read-write file.
 B after Tr=     0.000000    0.000000    0.000000
         Rot=    1.000000    0.000000    0.000000    0.000000 Ang=   0.00 deg.
 Initial guess orbital symmetries:
       Occupied  (A) (A) (A) (A) (A) (A) (A) (A) (A) (A) (A) (A)
                 (A) (A) (A) (A) (A) (A) (A) (A) (A) (A) (A) (A)
                 (A) (A) (A) (A) (A) (A) (A) (A) (A) (A) (A) (A)
       Virtual   (A) (A) (A) (A) (A) (A) (A) (A) (A) (A) (A) (A)
                 (A) (A) (A) (A) (A) (A) (A) (A) (A) (A) (A) (A)
                 (A) (A) (A) (A) (A) (A) (A) (A) (A) (A) (A) (A)
                 (A) (A) (A) (A) (A) (A) (A) (A) (A) (A) (A) (A)
                 (A) (A) (A) (A) (A) (A) (A) (A) (A) (A) (A) (A)
                 (A) (A) (A) (A) (A) (A) (A) (A) (A) (A) (A) (A)
                 (A) (A) (A) (A) (A) (A) (A) (A) (A) (A) (A) (A)
                 (A) (A) (A) (A) (A) (A) (A) (A) (A) (A) (A) (A)
                 (A) (A) (A) (A) (A) (A) (A) (A) (A) (A) (A) (A)
                 (A) (A) (A) (A) (A) (A) (A) (A) (A) (A) (A) (A)
                 (A) (A) (A) (A) (A) (A) (A) (A) (A) (A) (A) (A)
                 (A) (A) (A) (A) (A) (A) (A) (A) (A) (A) (A) (A)
                 (A) (A) (A) (A) (A) (A) (A) (A) (A) (A) (A) (A)
                 (A) (A) (A) (A) (A) (A) (A) (A) (A) (A) (A) (A)
                 (A) (A) (A) (A) (A) (A) (A) (A) (A) (A) (A) (A)
                 (A) (A) (A) (A) (A) (A) (A) (A) (A) (A) (A) (A)
                 (A) (A) (A) (A) (A) (A) (A) (A) (A) (A) (A) (A)
                 (A) (A) (A) (A) (A) (A) (A) (A) (A) (A) (A) (A)
                 (A) (A) (A) (A) (A) (A) (A) (A) (A) (A) (A) (A)
                 (A) (A) (A) (A) (A) (A) (A) (A) (A) (A) (A) (A)
                 (A) (A) (A) (A) (A) (A) (A) (A) (A) (A) (A) (A)
                 (A) (A) (A) (A) (A) (A) (A) (A) (A) (A) (A) (A)
                 (A) (A) (A) (A) (A) (A) (A) (A) (A) (A) (A) (A)
                 (A) (A) (A) (A) (A) (A) (A) (A) (A) (A) (A) (A)
                 (A) (A) (A) (A) (A) (A) (A) (A) (A) (A) (A) (A)
                 (A) (A) (A) (A) (A) (A) (A) (A) (A) (A) (A) (A)
                 (A) (A) (A) (A) (A) (A) (A) (A) (A) (A) (A) (A)
                 (A) (A) (A) (A) (A) (A) (A) (A) (A) (A) (A) (A)
                 (A) (A) (A) (A) (A) (A) (A) (A) (A) (A) (A) (A)
                 (A) (A) (A) (A) (A) (A) (A) (A) (A) (A) (A) (A)
                 (A) (A) (A) (A) (A) (A) (A) (A) (A) (A) (A) (A)
                 (A) (A) (A) (A) (A) (A) (A) (A) (A) (A) (A) (A)
                 (A) (A) (A) (A) (A) (A) (A) (A) (A)
 Harris functional with IExCor=20419 diagonalized for initial guess.
 ExpMin= 4.85D-02 ExpMax= 2.70D+04 ExpMxC= 9.22D+02 IAcc=3 IRadAn=         5 AccDes= 0.00D+00
 HarFok:  IExCor=20419 AccDes= 0.00D+00 IRadAn=         5 IDoV= 1
 ScaDFX=  1.000000  1.000000  1.000000  1.000000
 FoFCou: FMM=F IPFlag=           0 FMFlag=      100000 FMFlg1=           0
         NFxFlg=           0 DoJE=T BraDBF=F KetDBF=T FulRan=T
         Omega=  0.000000  0.000000  1.000000  0.000000  0.000000 ICntrl=     500 IOpCl=  0
         NMat0=    1 NMatS0=    1 NMatT0=    0 NMatD0=    1 NMtDS0=    0 NMtDT0=    0
         I1Cent=           4 NGrid=           0.
 Petite list used in FoFCou.
 FoFJK:  IHMeth= 1 ICntrl=     0 DoSepK=T KAlg= 1 I1Cent= 0 FoldK=F
 Gradient too large for Newton-Raphson -- use scaled steepest descent instead.
 FoFJK:  IHMeth= 1 ICntrl=     0 DoSepK=T KAlg= 1 I1Cent= 0 FoldK=F
 FoFJK:  IHMeth= 1 ICntrl=     0 DoSepK=T KAlg= 1 I1Cent= 0 FoldK=F
 FoFJK:  IHMeth= 1 ICntrl=     0 DoSepK=T KAlg= 1 I1Cent= 0 FoldK=F
 FoFJK:  IHMeth= 1 ICntrl=     0 DoSepK=T KAlg= 1 I1Cent= 0 FoldK=F
 FoFJK:  IHMeth= 1 ICntrl=     0 DoSepK=T KAlg= 1 I1Cent= 0 FoldK=F
 FoFJK:  IHMeth= 1 ICntrl=     0 DoSepK=T KAlg= 1 I1Cent= 0 FoldK=F
 FoFJK:  IHMeth= 1 ICntrl=     0 DoSepK=T KAlg= 1 I1Cent= 0 FoldK=F
 Gradient too large for Newton-Raphson -- use scaled steepest descent instead.
 FoFJK:  IHMeth= 1 ICntrl=     0 DoSepK=T KAlg= 1 I1Cent= 0 FoldK=F
 FoFJK:  IHMeth= 1 ICntrl=     0 DoSepK=T KAlg= 1 I1Cent= 0 FoldK=F
 FoFJK:  IHMeth= 1 ICntrl=     0 DoSepK=T KAlg= 1 I1Cent= 0 FoldK=F
 LinEq1:  Iter=  0 NonCon=     1 RMS=3.72D-05 Max=1.34D-03
 AX will form     1 AO Fock derivatives at one time.
 FoFJK:  IHMeth= 1 ICntrl=     0 DoSepK=T KAlg= 1 I1Cent= 0 FoldK=F
 LinEq1:  Iter=  1 NonCon=     1 RMS=2.95D-05 Max=1.04D-03
 FoFJK:  IHMeth= 1 ICntrl=     0 DoSepK=T KAlg= 1 I1Cent= 0 FoldK=F
 LinEq1:  Iter=  2 NonCon=     1 RMS=1.22D-05 Max=6.30D-04
 FoFJK:  IHMeth= 1 ICntrl=     0 DoSepK=T KAlg= 1 I1Cent= 0 FoldK=F
 LinEq1:  Iter=  3 NonCon=     1 RMS=7.51D-06 Max=4.49D-04
 FoFJK:  IHMeth= 1 ICntrl=     0 DoSepK=T KAlg= 1 I1Cent= 0 FoldK=F
 LinEq1:  Iter=  4 NonCon=     1 RMS=6.03D-06 Max=2.81D-04
 FoFJK:  IHMeth= 1 ICntrl=     0 DoSepK=T KAlg= 1 I1Cent= 0 FoldK=F
 LinEq1:  Iter=  5 NonCon=     1 RMS=2.91D-06 Max=1.14D-04
 FoFJK:  IHMeth= 1 ICntrl=     0 DoSepK=T KAlg= 1 I1Cent= 0 FoldK=F
 LinEq1:  Iter=  6 NonCon=     1 RMS=1.87D-06 Max=7.66D-05
 FoFJK:  IHMeth= 1 ICntrl=     0 DoSepK=T KAlg= 1 I1Cent= 0 FoldK=F
 LinEq1:  Iter=  7 NonCon=     1 RMS=7.62D-07 Max=2.12D-05
 FoFJK:  IHMeth= 1 ICntrl=     0 DoSepK=T KAlg= 1 I1Cent= 0 FoldK=F
 LinEq1:  Iter=  8 NonCon=     1 RMS=3.48D-07 Max=7.16D-06
 FoFJK:  IHMeth= 1 ICntrl=     0 DoSepK=T KAlg= 1 I1Cent= 0 FoldK=F
 LinEq1:  Iter=  9 NonCon=     1 RMS=1.28D-07 Max=7.23D-06
 FoFJK:  IHMeth= 1 ICntrl=     0 DoSepK=T KAlg= 1 I1Cent= 0 FoldK=F
 LinEq1:  Iter= 10 NonCon=     1 RMS=6.49D-08 Max=2.23D-06
 FoFJK:  IHMeth= 1 ICntrl=     0 DoSepK=T KAlg= 1 I1Cent= 0 FoldK=F
 LinEq1:  Iter= 11 NonCon=     1 RMS=2.26D-08 Max=5.19D-07
 FoFJK:  IHMeth= 1 ICntrl=     0 DoSepK=T KAlg= 1 I1Cent= 0 FoldK=F
 LinEq1:  Iter= 12 NonCon=     1 RMS=8.47D-09 Max=2.87D-07
 FoFJK:  IHMeth= 1 ICntrl=     0 DoSepK=T KAlg= 1 I1Cent= 0 FoldK=F
 LinEq1:  Iter= 13 NonCon=     0 RMS=3.75D-09 Max=1.65D-07
 Linear equations converged to 1.682D-08 1.682D-07 after    13 iterations.
 FoFJK:  IHMeth= 1 ICntrl=     0 DoSepK=T KAlg= 1 I1Cent= 0 FoldK=F
 FoFJK:  IHMeth= 1 ICntrl=     0 DoSepK=T KAlg= 1 I1Cent= 0 FoldK=F
 FoFJK:  IHMeth= 1 ICntrl=     0 DoSepK=T KAlg= 1 I1Cent= 0 FoldK=F
 LinEq1:  Iter=  0 NonCon=     1 RMS=5.03D-08 Max=1.99D-06
 FoFJK:  IHMeth= 1 ICntrl=     0 DoSepK=T KAlg= 1 I1Cent= 0 FoldK=F
 LinEq1:  Iter=  1 NonCon=     1 RMS=3.89D-08 Max=1.72D-06
 FoFJK:  IHMeth= 1 ICntrl=     0 DoSepK=T KAlg= 1 I1Cent= 0 FoldK=F
 LinEq1:  Iter=  2 NonCon=     1 RMS=1.37D-08 Max=6.39D-07
 FoFJK:  IHMeth= 1 ICntrl=     0 DoSepK=T KAlg= 1 I1Cent= 0 FoldK=F
 LinEq1:  Iter=  3 NonCon=     1 RMS=1.18D-08 Max=5.32D-07
 FoFJK:  IHMeth= 1 ICntrl=     0 DoSepK=T KAlg= 1 I1Cent= 0 FoldK=F
 LinEq1:  Iter=  4 NonCon=     1 RMS=6.27D-09 Max=3.21D-07
 FoFJK:  IHMeth= 1 ICntrl=     0 DoSepK=T KAlg= 1 I1Cent= 0 FoldK=F
 LinEq1:  Iter=  5 NonCon=     1 RMS=4.07D-09 Max=1.03D-07
 FoFJK:  IHMeth= 1 ICntrl=     0 DoSepK=T KAlg= 1 I1Cent= 0 FoldK=F
 LinEq1:  Iter=  6 NonCon=     1 RMS=1.64D-09 Max=4.12D-08
 FoFJK:  IHMeth= 1 ICntrl=     0 DoSepK=T KAlg= 1 I1Cent= 0 FoldK=F
 LinEq1:  Iter=  7 NonCon=     1 RMS=9.14D-10 Max=2.85D-08
 FoFJK:  IHMeth= 1 ICntrl=     0 DoSepK=T KAlg= 1 I1Cent= 0 FoldK=F
 LinEq1:  Iter=  8 NonCon=     1 RMS=3.79D-10 Max=1.75D-08
 FoFJK:  IHMeth= 1 ICntrl=     0 DoSepK=T KAlg= 1 I1Cent= 0 FoldK=F
 LinEq1:  Iter=  9 NonCon=     1 RMS=1.70D-10 Max=7.04D-09
 FoFJK:  IHMeth= 1 ICntrl=     0 DoSepK=T KAlg= 1 I1Cent= 0 FoldK=F
 LinEq1:  Iter= 10 NonCon=     1 RMS=9.86D-11 Max=4.36D-09
 FoFJK:  IHMeth= 1 ICntrl=     0 DoSepK=T KAlg= 1 I1Cent= 0 FoldK=F
 LinEq1:  Iter= 11 NonCon=     1 RMS=3.88D-11 Max=1.10D-09
 FoFJK:  IHMeth= 1 ICntrl=     0 DoSepK=T KAlg= 1 I1Cent= 0 FoldK=F
 LinEq1:  Iter= 12 NonCon=     0 RMS=1.74D-11 Max=3.66D-10
 Linear equations converged to 6.881D-11 6.881D-10 after    12 iterations.
 FoFJK:  IHMeth= 1 ICntrl=     0 DoSepK=T KAlg= 1 I1Cent= 0 FoldK=F
 Error on total polarization charges =  0.01195
 SCF Done:  E(RCAM-B3LYP) =  -492.095567574     a.u. after    5 cycles
            Convg  =    0.1542D-08                    40 Fock formations.
              S**2 =  0.0000                  -V/T =  2.0042
 D1PCM: C-PCM CHGder 1st derivatives, ID1Alg=3 FixD1E=F DoIter=F DoCFld=F I1PDM=0.
 Calling FoFJK, ICntrl=      2127 FMM=F ISym2X=0 I1Cent= 0 IOpClX= 0 NMat=1 NMatS=1 NMatT=0.
 FoFJK:  IHMeth= 1 ICntrl=  2127 DoSepK=T KAlg= 1 I1Cent= 0 FoldK=F
 ***** Axes restored to original set *****
 -------------------------------------------------------------------
 Center     Atomic                   Forces (Hartrees/Bohr)
 Number     Number              X              Y              Z
 -------------------------------------------------------------------
      1        6           0.002946481   -0.003058002   -0.000784445
      2        6          -0.000003115    0.002357236   -0.000721073
      3        6           0.002493561   -0.001830043    0.001458114
      4        6           0.004536453    0.001109533   -0.000179550
      5        6          -0.026159098    0.000107109    0.003823611
      6        6           0.007682264    0.004196977   -0.000436192
      7        1          -0.000186662   -0.001045350   -0.000838921
      8        1          -0.000071967   -0.001046301    0.000814459
      9        1          -0.001974630    0.000557577    0.001147505
     10        1          -0.002171264    0.000487560   -0.001179618
     11        7          -0.000166800   -0.000787687   -0.000055738
     12        8          -0.000071159   -0.001446957    0.005297326
     13        8          -0.000088657   -0.001512046   -0.005257616
     14        7           0.011545135    0.001783897   -0.003579747
     15        1           0.002640446   -0.000183143    0.000537627
     16        1          -0.000950989    0.000309640   -0.000045742
 -------------------------------------------------------------------
 Cartesian Forces:  Max     0.026159098 RMS     0.004716571

 GradGradGradGradGradGradGradGradGradGradGradGradGradGradGradGradGradGrad
 Berny optimization.
 Using GEDIIS/GDIIS optimizer.
 Internal  Forces:  Max     0.006331641 RMS     0.002320829
 Search for a local minimum.
 Step number   2 out of a maximum of   82
 All quantities printed in internal units (Hartrees-Bohrs-Radians)
 Mixed Optimization -- RFO/linear search
 Update second derivatives using D2CorX and points    1    2
 DE= -6.11D-03 DEPred=-6.58D-03 R= 9.29D-01
 SS=  1.41D+00  RLast= 3.00D-01 DXNew= 5.0454D-01 8.9925D-01
 Trust test= 9.29D-01 RLast= 3.00D-01 DXMaxT set to 5.05D-01
 Use linear search instead of GDIIS.
     Eigenvalues ---    0.00979   0.00979   0.01828   0.01934   0.02042
     Eigenvalues ---    0.02151   0.02178   0.02230   0.02233   0.02270
     Eigenvalues ---    0.02273   0.03028   0.03361   0.15980   0.16000
     Eigenvalues ---    0.16000   0.16000   0.16000   0.16003   0.22009
     Eigenvalues ---    0.22955   0.23762   0.23994   0.25000   0.25000
     Eigenvalues ---    0.25317   0.35301   0.35337   0.35645   0.35674
     Eigenvalues ---    0.37543   0.41835   0.42686   0.45889   0.45909
     Eigenvalues ---    0.46427   0.46431   0.47615   0.48352   0.50714
     Eigenvalues ---    0.92099   0.926581000.000001000.000001000.00000
     Eigenvalues --- 1000.000001000.000001000.000001000.000001000.00000
     Eigenvalues --- 1000.000001000.000001000.000001000.000001000.00000
     Eigenvalues --- 1000.000001000.000001000.000001000.000001000.00000
     Eigenvalues --- 1000.000001000.000001000.000001000.000001000.00000
     Eigenvalues --- 1000.000001000.000001000.000001000.000001000.00000
     Eigenvalues --- 1000.000001000.00000
 RFO step:  Lambda=-1.43758188D-03 EMin= 9.79010117D-03
 Quartic linear search produced a step of  1.53252.
 Iteration  1 RMS(Cart)=  0.08226971 RMS(Int)=  0.01138942
 Iteration  2 RMS(Cart)=  0.01784178 RMS(Int)=  0.00311915
 Iteration  3 RMS(Cart)=  0.00030810 RMS(Int)=  0.00311220
 Iteration  4 RMS(Cart)=  0.00000089 RMS(Int)=  0.00311220
 Variable       Old X    -DE/DX   Delta X   Delta X   Delta X     New X
                                 (Linear)    (Quad)   (Total)
    R1        2.62686  -0.00152  -0.00367   0.00133  -0.00412   2.62274
    R2        2.60098  -0.00447  -0.01557   0.00769  -0.00789   2.59309
    R3        2.04260  -0.00126  -0.00512   0.00132  -0.00380   2.03880
    R4        2.62468  -0.00241  -0.00701   0.00316  -0.00561   2.61906
    R5        2.73989  -0.00375  -0.01154  -0.00204  -0.01358   2.72631
    R6        2.60345  -0.00376  -0.01178   0.00386  -0.00791   2.59554
    R7        2.04252  -0.00124  -0.00523   0.00172  -0.00351   2.03901
    R8        2.65239  -0.00185  -0.00607  -0.00074  -0.00505   2.64733
    R9        2.04795  -0.00127  -0.00517   0.00129  -0.00388   2.04406
   R10        2.65815  -0.00123   0.00276  -0.01476  -0.01023   2.64792
   R11        2.59427  -0.00536  -0.00457  -0.01792  -0.02249   2.57178
   R12        2.04778  -0.00126  -0.00543   0.00188  -0.00355   2.04423
   R13        2.31175  -0.00535  -0.00854   0.00212  -0.00642   2.30533
   R14        2.31169  -0.00535  -0.00862   0.00230  -0.00632   2.30537
   R15        1.90278  -0.00045  -0.00109  -0.00026  -0.00135   1.90143
   R16        1.90275  -0.00043  -0.00113  -0.00011  -0.00124   1.90151
    A1        2.08289   0.00031  -0.00102   0.00491   0.00419   2.08708
    A2        2.08747   0.00032   0.00401  -0.00232   0.00153   2.08900
    A3        2.11281  -0.00063  -0.00302  -0.00252  -0.00570   2.10711
    A4        2.11499  -0.00060   0.00134  -0.00391  -0.00403   2.11095
    A5        2.08432   0.00030  -0.00033   0.00130   0.00169   2.08601
    A6        2.08387   0.00029  -0.00103   0.00266   0.00235   2.08622
    A7        2.08445   0.00024   0.00137  -0.00075   0.00092   2.08537
    A8        2.08696   0.00037   0.00324  -0.00005   0.00304   2.09000
    A9        2.11178  -0.00061  -0.00460   0.00079  -0.00397   2.10781
   A10        2.10407   0.00067  -0.00175  -0.00205  -0.00002   2.10405
   A11        2.09159  -0.00019   0.00179   0.00142   0.00130   2.09289
   A12        2.08753  -0.00048  -0.00003   0.00063  -0.00135   2.08618
   A13        2.07468  -0.00123  -0.00006   0.00914   0.00167   2.07635
   A14        2.10816  -0.00268   0.00635   0.00551  -0.00403   2.10414
   A15        2.07279   0.00536   0.05899  -0.01354   0.02973   2.10252
   A16        2.10498   0.00059  -0.00036  -0.00594  -0.00249   2.10248
   A17        2.09106  -0.00006   0.00099   0.00497   0.00402   2.09508
   A18        2.08714  -0.00053  -0.00062   0.00098  -0.00157   2.08558
   A19        2.06548   0.00097   0.00911  -0.00867   0.00036   2.06584
   A20        2.06502   0.00088   0.00840  -0.00819   0.00013   2.06515
   A21        2.15269  -0.00185  -0.01752   0.01687  -0.00073   2.15196
   A22        2.06680  -0.00076  -0.01068   0.00075  -0.01031   2.05649
   A23        2.07104   0.00020  -0.00417   0.00226  -0.00230   2.06875
   A24        2.00967  -0.00016  -0.00806   0.00336  -0.00515   2.00451
    D1       -0.01315  -0.00046  -0.02089   0.02149   0.00106  -0.01209
    D2        3.13426  -0.00031  -0.01398   0.01161  -0.00200   3.13225
    D3        3.13485  -0.00026  -0.01004   0.00792  -0.00231   3.13254
    D4       -0.00093  -0.00011  -0.00313  -0.00196  -0.00537  -0.00631
    D5       -0.00344  -0.00009  -0.00617   0.01578   0.00911   0.00567
    D6        3.13960  -0.00014  -0.01001   0.00898  -0.00233   3.13728
    D7        3.13165  -0.00029  -0.01718   0.02955   0.01254  -3.13899
    D8       -0.00849  -0.00034  -0.02102   0.02276   0.00111  -0.00738
    D9        0.00995   0.00027   0.01599  -0.01872  -0.00243   0.00752
   D10       -3.13030   0.00046   0.01701  -0.01530   0.00120  -3.12910
   D11       -3.13745   0.00012   0.00908  -0.00884   0.00064  -3.13681
   D12        0.00548   0.00031   0.01010  -0.00543   0.00427   0.00975
   D13        3.13853  -0.00001  -0.00344   0.01903   0.01564  -3.12902
   D14       -0.00259  -0.00011  -0.00326  -0.00439  -0.00760  -0.01019
   D15        0.00264   0.00014   0.00334   0.00935   0.01264   0.01528
   D16       -3.13848   0.00004   0.00352  -0.01408  -0.01060   3.13411
   D17        0.00986   0.00046   0.01600  -0.02148  -0.00644   0.00341
   D18       -3.13038   0.00074   0.02414  -0.01841   0.00411  -3.12627
   D19       -3.13310   0.00028   0.01497  -0.02495  -0.01010   3.13999
   D20        0.00985   0.00055   0.02311  -0.02188   0.00045   0.01031
   D21       -0.02584  -0.00097  -0.04210   0.05722   0.01625  -0.00959
   D22        2.86265   0.00633   0.19374   0.06030   0.24920   3.11185
   D23        3.11440  -0.00124  -0.05022   0.05417   0.00574   3.12013
   D24       -0.28030   0.00605   0.18562   0.05724   0.23869  -0.04161
   D25        0.02261   0.00078   0.03714  -0.05443  -0.01762   0.00499
[...]
 ! D9    D(1,2,3,4)             -0.0048         -DE/DX =    0.0                 !
 ! D10   D(1,2,3,8)           -179.9383         -DE/DX =    0.0                 !
 ! D11   D(11,2,3,4)           179.9136         -DE/DX =    0.0                 !
 ! D12   D(11,2,3,8)            -0.0198         -DE/DX =    0.0                 !
 ! D13   D(1,2,11,12)          179.9559         -DE/DX =    0.0                 !
 ! D14   D(1,2,11,13)           -0.0379         -DE/DX =    0.0                 !
 ! D15   D(3,2,11,12)            0.0364         -DE/DX =    0.0                 !
 ! D16   D(3,2,11,13)         -179.9574         -DE/DX =    0.0                 !
 ! D17   D(2,3,4,5)             -0.029          -DE/DX =    0.0                 !
 ! D18   D(2,3,4,9)            179.9318         -DE/DX =    0.0                 !
 ! D19   D(8,3,4,5)            179.9037         -DE/DX =    0.0                 !
 ! D20   D(8,3,4,9)             -0.1355         -DE/DX =    0.0                 !
 ! D21   D(3,4,5,6)              0.0616         -DE/DX =    0.0                 !
 ! D22   D(3,4,5,14)           178.6272         -DE/DX =    0.0                 !
 ! D23   D(9,4,5,6)           -179.8994         -DE/DX =    0.0                 !
 ! D24   D(9,4,5,14)            -1.3338         -DE/DX =    0.0                 !
 ! D25   D(4,5,6,1)             -0.0616         -DE/DX =    0.0                 !
 ! D26   D(4,5,6,10)           179.8995         -DE/DX =    0.0                 !
 ! D27   D(14,5,6,1)          -178.6271         -DE/DX =    0.0                 !
 ! D28   D(14,5,6,10)            1.3339         -DE/DX =    0.0                 !
 ! D29   D(4,5,14,15)           12.6527         -DE/DX =    0.0                 !
 ! D30   D(4,5,14,16)          168.8098         -DE/DX =    0.0                 !
 ! D31   D(6,5,14,15)         -168.8095         -DE/DX =    0.0                 !
 ! D32   D(6,5,14,16)          -12.6524         -DE/DX =    0.0                 !
 --------------------------------------------------------------------------------
 GradGradGradGradGradGradGradGradGradGradGradGradGradGradGradGradGradGrad

 1\1\GINC-DLT21\Freq\RCAM-B3LYP\Gen\C6H6N2O2\MATHEUSMAXIMO\28-Mar-2023\
 0\\#N Geom=AllCheck Guess=TCheck SCRF=Check GenChk RCAM-B3LYP/ChkBas F
 req\\NA CAM-B3LYP def2-TZVPD - solvent CPCM acetone\\0,1\C,0.150434488
 2,0.1893246683,0.0000567572\C,0.1846938628,0.870913235,-1.2093196206\C
 ,0.1246191473,0.1844634117,-2.4149316859\C,0.0303207233,-1.1844556467,
 -2.4116207183\C,-0.0052861754,-1.8960580452,-1.2017185585\C,0.05614702
 76,-1.1795913344,0.0042726831\H,0.1992763512,0.7409798114,0.926338744\
 H,0.1536246973,0.7323821352,-3.3442601948\H,-0.0179058302,-1.724098578
 2,-3.3481204647\H,0.0279763559,-1.7154603402,0.9437529064\N,0.28562611
 65,2.3087122059,-1.2132942917\O,0.3150384081,2.8878606633,-2.287598007
 6\O,0.3379445004,2.8921855177,-0.1422068401\N,-0.1264900555,-3.2483877
 177,-1.1976976447\H,-0.0005668755,-3.7623896907,-2.0518153487\H,0.0176
 820179,-3.7589470055,-0.344400835\\Version=EM64L-G09RevA.02\State=1-A\
 HF=-492.099706\RMSD=0.000e+00\RMSF=1.795e-06\ZeroPoint=0.1205985\Therm
 al=0.1288995\Dipole=-0.0251488,-3.7069272,0.0077353\DipoleDeriv=-0.039
 211,0.0651284,-0.0085355,0.0724235,0.9383513,-0.1479445,-0.0354129,-0.
 5247624,0.1088614,-0.0478062,-0.1290393,-0.0019127,-0.1404375,-1.90333
 7,0.004827,-0.0018901,0.0046988,-0.2511235,-0.0382106,0.0763279,0.0113
 654,0.0756835,0.9410515,0.1430078,0.0382313,0.5199033,0.1051712,-0.247
 4032,-0.0305315,0.0070835,-0.062948,-1.03415,0.0385659,0.075185,0.8627
 914,-0.0324102,0.209319,0.2871444,-0.0003872,0.2490841,3.0050384,-0.00
 82605,-0.0003113,-0.0086728,0.2272163,-0.2490569,-0.0489416,-0.0022518
 ,-0.064007,-1.0377477,-0.0331554,-0.0702571,-0.8578834,-0.0271437,0.16
 26745,-0.0035229,-0.0042303,-0.0018449,0.1378752,-0.0454101,-0.0037931
 ,-0.0355119,0.0628209,0.1628006,-0.0027508,0.0021015,-0.0008653,0.1382
 004,0.0451353,0.0016566,0.0352751,0.0623705,0.1742633,-0.011299,-0.005
 9393,-0.0114219,0.0064392,-0.0799551,-0.0071285,-0.0825318,-0.0159331,
 0.1744559,-0.0095179,0.0019024,-0.0096902,0.0070932,0.0800885,0.003092
 9,0.0826613,-0.016781,0.3362002,0.2390328,0.0202138,0.2500972,3.75508,
 -0.0056497,0.0201897,-0.0055342,2.2744236,-0.3284203,-0.0676883,0.0295
 652,-0.0725272,-1.4129172,0.5710966,0.0488906,0.8127866,-1.3356814,-0.
 3305473,-0.0851879,-0.0506629,-0.08494,-1.4184869,-0.5690804,-0.069978
 6,-0.8108163,-1.3279857,-0.6715336,-0.5889827,0.0060783,-0.2208701,-2.
 6310433,0.0072318,0.0053365,0.0111658,-0.2139578,0.3669393,0.15656,0.0
 330303,0.0118146,0.2546903,0.0578935,0.0284573,0.1454553,0.1889613,0.3
 655363,0.1532683,-0.0374209,0.0104493,0.2538624,-0.0583907,-0.0322684,
 -0.1490249,0.1911912\Polar=70.9711166,10.7084407,213.6976625,0.634715,
 -0.2781888,132.3797455\PG=C01 [X(C6H6N2O2)]\NImag=0\\0.15187924,0.0409
 2777,0.73076086,0.00946801,0.04388889,0.73496101,-0.06580470,-0.004797
 27,0.00461056,0.13820557,-0.00409893,-0.14082666,0.10117707,0.03049300
 ,0.57482640,0.00078656,0.04565738,-0.29142204,0.00659747,0.00005076,0.
 76112125,0.00913778,0.00331944,-0.00221945,-0.06602248,-0.00628060,-0.
 00557898,0.15173774,0.00285761,0.05413890,-0.02213685,-0.00580708,-0.1
 4142049,-0.04614937,0.03996734,0.73040146,0.00073465,0.02161235,-0.059
 72003,-0.00940236,-0.10167156,-0.29061391,0.00284377,-0.04473223,0.735
 46261,-0.00303504,-0.00230913,0.00192242,0.00845601,-0.00377189,-0.004
 51652,-0.06339530,-0.02282840,0.00136542,0.13232838,-0.00241028,-0.042
 69707,0.03173880,-0.00456957,-0.04674569,-0.07479083,-0.02167226,-0.37
 806702,0.03406639,0.04381994,0.74397257,0.00110035,0.01786649,-0.01543
 331,-0.00087052,-0.01549466,0.03170466,-0.00316577,-0.03697588,-0.1355
 0678,0.00936206,0.04777218,0.70138783,0.00126273,-0.00472739,-0.001615
 67,-0.00719404,0.00426958,-0.00073662,0.00142185,-0.00299931,0.0025563
 2,-0.07357366,-0.00411012,0.00206538,0.17912220,-0.00280344,-0.0416195
 2,-0.02860254,0.00255345,0.03071798,-0.00024064,-0.00216600,-0.0411799
 5,0.02900191,-0.00379254,-0.14996963,0.08520924,0.03160951,0.72795572,
 -0.00488724,-0.08021941,0.04490373,-0.00073308,-0.00025925,-0.07528789
 ,0.00582226,0.08064851,0.04430481,-0.00013898,0.02779369,-0.27023295,0
 .00540717,-0.00041439,0.69084570,-0.06338764,-0.02203069,-0.00281744,0
 .00858203,-0.00341717,0.00502158,-0.00310509,-0.00269761,-0.00217379,0
 .00772185,0.00342598,-0.00137135,-0.07370454,-0.00562628,-0.00403945,0
 .13218467,-0.02237517,-0.37805306,-0.03261907,-0.00296187,-0.04638040,
 0.07518537,-0.00309200,-0.04289609,-0.03156925,0.00317687,0.05699084,-
 0.01204302,-0.00472514,-0.15042547,-0.02818010,0.04277296,0.74358715,0
 .00171220,0.03843157,-0.13553165,0.00137611,0.01588581,0.03121345,-0.0
 0135079,-0.01770223,-0.01516424,0.00028937,0.01157283,-0.04225589,-0.0
 0624493,-0.08558958,-0.26964338,0.00263919,-0.04886871,0.70191747,-0.0
 4265296,-0.00760762,-0.01150629,0.00562941,0.00031342,0.00059123,0.004
 69322,-0.00039218,0.00015468,-0.00123047,0.00001999,0.00008411,0.00887
 014,-0.00097386,-0.00003510,0.00581935,-0.00102822,-0.00182018,0.02824
 603,-0.00761245,-0.13134802,-0.12666371,0.00065311,0.01309778,0.011974
 69,-0.00040860,-0.00156607,0.00338211,0.00003521,-0.00077341,0.0005006
 7,-0.00099336,-0.00473514,0.00092224,-0.00142375,-0.01003980,-0.026533
 30,0.00912493,0.13658032,-0.01139058,-0.12532787,-0.27803363,-0.001321
 14,-0.01515148,-0.01828280,0.00018347,0.00390405,-0.00311424,0.0000570
 0,0.00052686,0.00050892,0.00005126,0.00159489,0.00118513,0.00015384,0.
 00217472,0.00622374,0.01250775,0.13722491,0.28987750,0.00468249,-0.000
 47657,-0.00031934,0.00563412,0.00063262,-0.00110461,-0.04227087,-0.004
 89681,0.00647944,0.00585522,-0.00106642,0.00183121,0.00886631,-0.00100
 768,-0.00012505,-0.00123269,0.00000851,-0.00004689,0.00065593,0.000005
 49,-0.00007005,0.02783050,-0.00048194,-0.00159538,-0.00337868,0.000399
 89,0.01311001,-0.01211235,-0.00487347,-0.13033489,0.12620126,-0.000856
 11,-0.00994138,0.02662265,-0.00101314,-0.00474511,-0.00087689,0.000024
 40,-0.00077754,-0.00049613,-0.00001072,0.00061252,-0.00077069,0.006156
 79,0.13547689,-0.00034807,-0.00390086,-0.00307415,0.00080749,0.0150149
 6,-0.01829969,0.00636370,0.12486556,-0.27942851,-0.00014242,-0.0020873
 2,0.00608942,-0.00021135,-0.00154982,0.00119886,-0.00001984,-0.0005219
 9,0.00051526,0.00003914,0.00076510,-0.00079012,-0.00692356,-0.13676527
 ,0.29139621,-0.00083508,0.00003436,0.00003183,0.00765915,-0.00080428,0
 .00008373,0.00276031,-0.00102033,-0.00193491,-0.03589978,-0.00779460,-
 0.01122049,0.00437511,0.00009275,0.00085862,0.00512175,-0.00041597,0.0
 0011269,-0.00054108,0.00004382,-0.00000123,-0.00522784,0.00044932,0.00
 007516,0.02503740,-0.00000110,-0.00087207,0.00056312,-0.00082976,-0.00
 440390,0.00174700,-0.00137037,-0.01259103,-0.02899224,-0.00770126,-0.1
 2836422,-0.12037084,0.00054465,0.01008329,0.01498502,-0.00043972,-0.00
 120643,0.00301612,0.00004584,0.00003958,-0.00009152,0.00046805,0.00141
 043,0.00026028,0.00890407,0.13443131,0.00009090,0.00128656,-0.00018763
 ,-0.00003235,0.00056673,0.00188940,0.00015326,0.00192024,0.00474280,-0
 .01111844,-0.12044241,-0.27328602,-0.00134632,-0.01623588,-0.01895678,
 0.00017836,0.00341581,-0.00314956,-0.00000302,-0.00007342,0.00000235,0
 .00005701,-0.00028372,0.00074492,0.01212373,0.13018973,0.28697360,0.00
 279941,-0.00105252,0.00197944,0.00765552,-0.00081655,-0.00020367,-0.00
 083741,0.00000679,-0.00001793,0.00511174,-0.00048979,-0.00028723,0.004
 37485,0.00043412,-0.00135861,-0.03553041,-0.00518909,0.00615204,-0.005
 22802,0.00045519,0.00005073,-0.00054074,0.00004540,0.00001265,-0.00033
 215,0.00007241,-0.00005653,0.02463832,-0.00075001,-0.01248164,0.029084
 14,-0.00086673,-0.00441303,-0.00170349,-0.00001345,-0.00087952,-0.0005
 6017,-0.00050524,-0.00123231,-0.00301372,0.00022732,0.01008776,-0.0151
 1020,-0.00509773,-0.12739707,0.11991978,0.00046236,0.00141048,-0.00027
 291,0.00004782,0.00004023,0.00009037,0.00005748,0.00054581,-0.00071134
 ,0.00608770,0.13338545,-0.00010859,-0.00182882,0.00459442,-0.00008744,
 -0.00052403,0.00190221,-0.00007689,-0.00128422,-0.00017786,-0.00035284
 ,-0.00341384,-0.00311374,0.00084579,0.01611334,-0.01896111,0.00604964,
 0.11999323,-0.27462238,0.00006884,0.00027138,0.00074500,0.00001444,0.0
 0007231,0.00000136,0.00004344,0.00070400,-0.00093209,-0.00653286,-0.12
 973102,0.28841829,-0.00550605,-0.00316703,0.00220048,-0.08318183,-0.00
 307745,-0.00036538,-0.00558833,-0.00374043,-0.00177303,0.00773827,0.00
 105820,-0.00127076,-0.00156501,-0.00212516,-0.00004051,0.00776901,0.00
 117403,0.00096255,-0.00423431,0.00030542,-0.00019518,-0.00422929,0.000
 31476,0.00021835,0.00148592,-0.00008798,0.00002796,0.00148720,-0.00005
 315,-0.00005376,0.25757793,-0.00310359,-0.05436238,0.02834457,-0.00301
 207,-0.12612359,0.00004893,-0.00371308,-0.05458278,-0.02799706,0.00062
 685,0.02293918,-0.01585979,-0.00363755,-0.03138634,0.00009061,0.000965
 71,0.02302359,0.01572416,0.00030196,0.00012788,-0.00305236,0.00036700,
 0.00014173,0.00303220,-0.00008254,0.00050965,0.00070275,-0.00009712,0.
 00051342,-0.00070182,0.02886953,0.66612865,0.00207744,0.02660693,0.013
 64778,-0.00036550,0.00004943,-0.11792974,-0.00165003,-0.02625819,0.013
 95012,-0.00047649,-0.00528216,-0.00639295,-0.00003752,0.00007436,-0.00
 575819,0.00016958,0.00513974,-0.00650834,-0.00001898,-0.00040669,-0.00
 308459,0.00004199,0.00038706,-0.00310354,-0.00011309,-0.00163654,0.000
 26916,0.00008738,0.00163706,0.00026413,0.00692840,0.00018718,0.9118129
 9,0.00454962,-0.00032562,-0.00070527,0.02061064,-0.00425876,0.00337892
 ,0.00106599,-0.00010161,0.00021876,-0.00071781,-0.00017112,0.00027671,
 0.00033068,0.00047604,0.00015715,-0.00113381,-0.00039767,-0.00006447,0
 .00024171,0.00001714,0.00001475,0.00032067,-0.00027551,0.00009151,-0.0
 0003407,-0.00001678,-0.00001496,-0.00068952,-0.00002049,0.00000865,-0.
 08541293,-0.00895486,0.00845694,0.03173364,-0.00041214,0.00040596,-0.0
 1012612,-0.00417585,-0.04655439,0.05295948,0.00008545,0.00157044,0.004
 62296,-0.00012797,-0.00393469,0.00411278,0.00099945,0.00843352,0.00227
 211,-0.00037286,-0.00740990,-0.00158774,0.00002236,0.00065115,0.000086
 70,-0.00026118,-0.00349901,0.00086441,-0.00001388,-0.00027756,-0.00024
 869,-0.00000998,-0.00104259,0.00006795,-0.00894237,-0.23685971,0.16753
 322,0.01289658,0.24595570,-0.00026677,-0.00409433,0.00574399,0.0027977
 6,0.04480660,-0.01220459,-0.00104861,-0.01350543,-0.00953362,0.0003274
 5,0.00599927,-0.00194003,-0.00096350,-0.00824040,-0.00000416,0.0003485
 3,0.00516909,0.00383453,-0.00004429,-0.00092679,0.00116627,-0.00002203
 ,-0.00085624,0.00339072,0.00000823,0.00018336,0.00008971,0.00001996,0.
 00033867,-0.00008564,0.00830870,0.16512246,-0.39971045,-0.00933405,-0.
 21018531,0.54765529,0.00107885,0.00018508,-0.00044610,0.02046422,-0.00
 522805,-0.00405328,0.00457095,-0.00023486,0.00073073,-0.00113758,-0.00
 050705,0.00017274,0.00034768,0.00065093,-0.00016722,-0.00073125,-0.000
 30027,-0.00030108,0.00032060,-0.00025706,-0.00002482,0.00024277,0.0000
 3692,0.00000482,-0.00068985,-0.00002768,0.00000439,-0.00003387,-0.0000
 2061,0.00001767,-0.08591302,-0.01253278,-0.01510102,0.02918558,0.00140
 315,-0.00112101,0.03236591,-0.00000987,0.00160615,-0.00466864,-0.00531
 691,-0.04694718,-0.05271784,-0.00019415,0.00046338,0.01015388,-0.00033
 962,-0.00742415,0.00164075,0.00095412,0.00845739,-0.00232717,-0.000217
 17,-0.00397535,-0.00410083,-0.00027904,-0.00349880,-0.00083086,0.00002
 079,0.00065455,-0.00008509,-0.00001146,-0.00104421,-0.00006386,-0.0000
 0857,-0.00027730,0.00025041,-0.01257135,-0.23820256,-0.16795372,0.0016
 0840,0.05043516,0.00933742,0.01745383,0.24765345,0.00082116,0.01345947
 ,-0.00958196,-0.00347214,-0.04456482,-0.01166522,0.00029248,0.00412160
 ,0.00566528,-0.00024071,-0.00511408,0.00385253,0.00095180,0.00819421,-
 0.00004506,-0.00035216,-0.00598595,-0.00188590,0.00008870,0.00088965,0
 .00339065,0.00006398,0.00092828,0.00116184,-0.00000698,-0.00033429,-0.
 00008368,-0.00000556,-0.00018148,0.00008923,-0.01495266,-0.16554318,-0
 .39786730,-0.00247076,-0.01013230,-0.13871572,0.02025958,0.21106966,0.
 54532457,0.00489170,0.00433251,-0.00081841,-0.00114254,-0.00752371,0.0
 0010955,0.00490765,0.00419977,0.00046764,0.00975812,-0.00723318,0.0060
 7238,-0.04322727,0.00261933,-0.00099001,0.00952851,-0.00834094,-0.0062
 0378,-0.00029678,0.00011987,-0.00004071,-0.00029458,0.00014860,0.00005
 066,-0.00250501,0.00020537,0.00004161,-0.00249706,0.00019747,0.0000511
 4,-0.00002480,0.00755112,-0.00001022,-0.00010539,-0.00204634,0.0018967
 5,-0.00014509,-0.00204784,-0.00187756,0.03725073,0.00086378,0.01762333
 ,-0.00512799,-0.00189114,-0.02946829,0.00009500,0.00097231,0.01761834,
 0.00499432,-0.00478188,-0.05289963,0.02472259,-0.02744499,-0.33897042,
 0.00070351,-0.00532539,-0.05320272,-0.02439264,-0.00004026,-0.00026009
 ,-0.00009315,-0.00003800,-0.00025433,0.00009580,0.00024882,0.00219029,
 -0.00126321,0.00027721,0.00219388,0.00125633,0.00207709,0.02940747,-0.
 00008055,-0.00049890,-0.00824827,0.00723478,-0.00065283,-0.00827619,-0
 .00718761,-0.05071917,0.75737514,-0.00027062,0.00622686,-0.01069597,0.
 00009821,0.00015529,0.00768725,-0.00006668,-0.00643218,-0.01070681,0.0
 0452878,0.05085243,0.00176345,-0.00092941,0.00038243,-0.13534670,-0.00
 467120,-0.05046408,0.00229594,-0.00005176,-0.00133594,0.00019889,0.000
 06240,0.00133488,0.00019094,-0.00031983,0.00036745,0.00188076,0.000412
 32,-0.00037308,0.00186926,0.00000081,-0.00013908,0.00044219,-0.0000226
 8,-0.00024583,0.00035274,0.00003594,0.00032444,0.00042037,0.00886452,0
 .00074358,0.85696395,0.00173696,-0.00160870,0.00007547,0.00022299,0.00
 180798,-0.00030284,-0.00081160,-0.00072825,-0.00015554,-0.00169238,0.0
 0145296,-0.00121008,-0.00492492,-0.01001086,-0.00556668,0.00376068,0.0
 0031186,0.00153106,-0.00042591,-0.00005675,0.00001969,0.00013358,-0.00
 000754,-0.00000841,0.00029006,0.00017664,-0.00006479,-0.00066329,0.000
 06061,0.00005989,-0.00020213,-0.00179958,-0.00002353,0.00002335,0.0004
 9570,-0.00045124,0.00004182,0.00047498,0.00046541,-0.00690472,0.041845
 97,0.05749975,0.01279940,-0.00028811,-0.00016321,-0.00161685,0.0000681
 8,0.00077093,0.00032147,-0.00030721,-0.00052261,-0.00013824,-0.0003743
 3,0.00252774,-0.00172885,0.00517213,-0.01642325,-0.03267492,-0.0002040
 1,-0.00435814,0.00299141,0.00000370,-0.00034520,0.00008637,0.00003760,
 0.00004698,0.00000660,0.00023098,-0.00052347,0.00111311,0.00007881,0.0
 0007254,-0.00012863,-0.00001677,-0.00064179,0.00003599,0.00001358,0.00
 016045,-0.00012066,0.00001527,0.00021731,0.00026365,0.02761097,-0.1680
 7537,-0.16441562,-0.02847673,0.17337618,-0.00003132,-0.00112176,0.0005
 8071,0.00015950,0.00224130,0.00009009,-0.00050934,-0.00144224,-0.00073
 059,-0.00014188,0.00352640,0.00079223,-0.00087238,-0.00253590,0.006041
 66,0.00068864,0.00273799,0.00199139,-0.00002567,0.00004141,0.00002427,
 0.00002577,0.00003223,-0.00001794,0.00027167,-0.00045975,-0.00023674,0
 .00003157,0.00013031,0.00023825,-0.00003895,-0.00233928,-0.00001020,0.
 00001842,0.00063050,-0.00061678,0.00002099,0.00061555,0.00056400,0.041
 92068,-0.16499913,-0.35914144,-0.04657112,0.17949289,0.36591871,-0.000
 79732,-0.00069661,0.00015977,0.00022592,0.00176079,0.00029287,0.001735
 58,-0.00158464,-0.00009386,0.00371244,0.00024731,-0.00156874,-0.004782
 12,-0.00993033,0.00583673,-0.00166242,0.00138210,0.00125691,0.00013314
 ,-0.00000820,0.00000522,-0.00042557,-0.00005766,-0.00000983,-0.0006648
 4,0.00005761,-0.00004081,0.00028542,0.00018665,0.00005289,-0.00020063,
 -0.00174900,0.00003465,0.00003165,0.00045986,-0.00045587,0.00003228,0.
 00048385,0.00043541,-0.00919348,0.04510738,-0.06517056,-0.00338390,-0.
 00356404,0.00505341,0.01495386,-0.00030213,-0.00051619,0.00014385,0.00
 006061,0.00076050,-0.00032556,-0.00025337,-0.00015208,0.00162559,-0.00
 027049,-0.00438113,-0.00296056,0.00587426,-0.01628084,0.03264662,-0.00
 033668,0.00252038,0.00172948,0.00003733,0.00004683,-0.00000767,0.00000
 199,-0.00034571,-0.00008494,0.00008145,0.00007253,0.00012758,0.0002059
 9,-0.00052611,-0.00111658,-0.00001735,-0.00063242,-0.00003313,0.000009
 58,0.00021375,-0.00026248,0.00001602,0.00015836,0.00011719,0.03092616,
 -0.16675314,0.16301846,-0.00393829,0.01388091,-0.01655053,-0.03209509,
 0.17193435,0.00051193,0.00145657,-0.00075128,-0.00016256,-0.00228215,0
 .00009757,0.00000760,0.00115885,0.00057097,-0.00072423,-0.00271822,0.0
 0206264,0.00107998,0.00283876,0.00575631,0.00019587,-0.00356377,0.0007
 6957,-0.00002915,-0.00003233,-0.00001734,0.00003529,-0.00003870,0.0000
 2444,-0.00001258,-0.00013091,0.00023980,-0.00028370,0.00045708,-0.0002
 2934,0.00004299,0.00237971,-0.00002107,-0.00000963,-0.00062411,0.00057
 774,-0.00003233,-0.00064411,-0.00062363,-0.04953425,0.16329838,-0.3581
 7481,-0.00529704,0.01651227,-0.01548761,0.05421183,-0.17806733,0.36520
 603\\0.00000102,-0.00000012,0.00000038,0.00000172,-0.00000176,-0.00000
 088,0.00000105,0.00000110,0.00000060,-0.00000111,-0.00000093,0.0000004
 8,-0.00000169,0.00000063,-0.00000074,-0.00000104,0.,0.00000018,0.00000
 168,-0.00000014,-0.00000011,0.00000168,-0.00000009,-0.00000012,-0.0000
 0185,0.00000035,-0.00000003,-0.00000183,0.00000013,0.,0.00000410,0.000
 00111,0.,0.00000481,-0.00000077,0.00000029,0.00000474,-0.00000039,-0.0
 0000039,-0.00000396,-0.00000006,0.00000013,-0.00000464,0.00000043,0.00
 000018,-0.00000467,0.00000049,0.00000001\\\@


 THERE IS AN OLD, OLD RECIPE IN MAINE FOR STEWING COOT. PLACE THE
 BIRD IN A KETTLE OF WATER WITH A RED BUILDING BRICK FREE OF MORTAR AND
 BLEMISHES. PARBOIL THE COOT AND BRICK TOGETHER FOR THREE HOURS.
 POUR OFF THE WATER, REFILL THE KETTLE, AND AGAIN PARBOIL FOR THREE HOURS.
 ONCE AGAIN POUR OFF THE WATER, FOR THE LAST TIME ADD FRESH WATER,
 AND LET THE COOT AND BRICK SIMMER TOGETHER OVERNIGHT. IN THE MORNING,
 THROW AWAY THE COOT AND EAT THE BRICK.
 Job cpu time:  0 days  3 hours 13 minutes 54.3 seconds.
 File lengths (MBytes):  RWF=    251 Int=      0 D2E=      0 Chk=     15 Scr=      1
 Normal termination of Gaussian 09 at Tue Mar 28 18:18:16 2023.
