 Entering Gaussian System, Link 0=g09
 Initial command:
 /apps/software//g09/l1.exe /scratch/matheusmaximo/79328.cluster.abaxnet/Gau-4135.inp -scrdir=/scratch/matheusmaximo/79328.cluster.abaxnet/
 Entering Link 1 = /apps/software//g09/l1.exe PID=      4136.
  
 Copyright (c) 1988,1990,1992,1993,1995,1998,2003,2009, Gaussian, Inc.
                  All Rights Reserved.
  
 This is part of the Gaussian(R) 09 program.  It is based on
 the Gaussian(R) 03 system (copyright 2003, Gaussian, Inc.),
 the Gaussian(R) 98 system (copyright 1998, Gaussian, Inc.),
 the Gaussian(R) 94 system (copyright 1995, Gaussian, Inc.),
 the Gaussian 92(TM) system (copyright 1992, Gaussian, Inc.),
 the Gaussian 90(TM) system (copyright 1990, Gaussian, Inc.),
 the Gaussian 88(TM) system (copyright 1988, Gaussian, Inc.),
 the Gaussian 86(TM) system (copyright 1986, Carnegie Mellon
 University), and the Gaussian 82(TM) system (copyright 1983,
 Carnegie Mellon University). Gaussian is a federally registered
 trademark of Gaussian, Inc.
  
 This software contains proprietary and confidential information,
 including trade secrets, belonging to Gaussian, Inc.
  
 This software is provided under written license and may be
 used, copied, transmitted, or stored only in accord with that
 written license.
  
 The following legend is applicable only to US Government
 contracts under FAR:
  
                    RESTRICTED RIGHTS LEGEND
  
 Use, reproduction and disclosure by the US Government is
 subject to restrictions as set forth in subparagraphs (a)
 and (c) of the Commercial Computer Software - Restricted
 Rights clause in FAR 52.227-19.
  
 Gaussian, Inc.
 340 Quinnipiac St., Bldg. 40, Wallingford CT 06492
  
  
 ---------------------------------------------------------------
 Warning -- This program may not be used in any manner that
 competes with the business of Gaussian, Inc. or will provide
 assistance to any competitor of Gaussian, Inc.  The licensee
 of this program is prohibited from giving any competitor of
 Gaussian, Inc. access to this program.  By using this program,
 the user acknowledges that Gaussian, Inc. is engaged in the
 business of creating and licensing software in the field of
 computational chemistry and represents and warrants to the
 licensee that it is not a competitor of Gaussian, Inc. and that
 it will not use this program in any manner prohibited above.
 ---------------------------------------------------------------
  

 Cite this work as:
 Gaussian 09, Revision A.02,
 M. J. Frisch, G. W. Trucks, H. B. Schlegel, G. E. Scuseria, 
 M. A. Robb, J. R. Cheeseman, G. Scalmani, V. Barone, B. Mennucci, 
 G. A. Petersson, H. Nakatsuji, M. Caricato, X. Li, H. P. Hratchian, 
 A. F. Izmaylov, J. Bloino, G. Zheng, J. L. Sonnenberg, M. Hada, 
 M. Ehara, K. Toyota, R. Fukuda, J. Hasegawa, M. Ishida, T. Nakajima, 
 Y. Honda, O. Kitao, H. Nakai, T. Vreven, J. A. Montgomery, Jr., 
 J. E. Peralta, F. Ogliaro, M. Bearpark, J. J. Heyd, E. Brothers, 
 K. N. Kudin, V. N. Staroverov, R. Kobayashi, J. Normand, 
 K. Raghavachari, A. Rendell, J. C. Burant, S. S. Iyengar, J. Tomasi, 
 M. Cossi, N. Rega, J. M. Millam, M. Klene, J. E. Knox, J. B. Cross, 
 V. Bakken, C. Adamo, J. Jaramillo, R. Gomperts, R. E. Stratmann, 
 O. Yazyev, A. J. Austin, R. Cammi, C. Pomelli, J. W. Ochterski, 
 R. L. Martin, K. Morokuma, V. G. Zakrzewski, G. A. Voth, 
 P. Salvador, J. J. Dannenberg, S. Dapprich, A. D. Daniels, 
 O. Farkas, J. B. Foresman, J. V. Ortiz, J. Cioslowski, 
 and D. J. Fox, Gaussian, Inc., Wallingford CT, 2009.
 
 ******************************************
 Gaussian 09:  EM64L-G09RevA.02 11-Jun-2009
                25-Mar-2023 
 ******************************************
 %chk=/home/matheusmaximo/Gaussian/solvent/acetone/acetone.chk
 ----------------------------------------------------------------------
 # opt=tight freq cam-b3lyp/gen scrf=(cpcm,solvent=Acetone) scf=qc geom
 =connectivity int=ultrafine
 ----------------------------------------------------------------------
 1/7=10,14=-1,18=20,19=15,26=3,38=1,57=2/1,3;
 2/9=110,12=2,17=6,18=5,40=1/2;
 3/5=7,11=2,16=1,25=1,30=1,70=2101,71=1,72=19,74=-40,75=-5/1,2,3;
 4//1;
 5/5=2,8=3,38=5,53=19/8;
 6/7=2,8=2,9=2,10=2,28=1/1;
 7//1,2,3,16;
 1/7=10,14=-1,18=20,19=15/3(2);
 2/9=110/2;
 99//99;
 2/9=110/2;
 3/5=7,6=1,11=2,16=1,25=1,30=1,70=2105,71=1,72=19,74=-40,75=-5,82=7/1,2,3;
 4/5=5,16=3/1;
 5/5=2,8=3,38=5,53=19/8;
 7//1,2,3,16;
 1/7=10,14=-1,18=20,19=15/3(-5);
 2/9=110/2;
 6/7=2,8=2,9=2,10=2,19=2,28=1/1;
 99/9=1/99;
 ----------------------------------------------
 NA CAM-B3LYP def2-TZVPD - solvent CPCM acetone
 ----------------------------------------------
 Symbolic Z-matrix:
 Charge =  0 Multiplicity = 1
 C                     0.18939   0.18182   0. 
 C                     0.18968   0.86558  -1.21174 
 C                     0.18939   0.18182  -2.42347 
 C                     0.18939  -1.19994  -2.42212 
 C                     0.19039  -1.91472  -1.21174 
 C                     0.18939  -1.19994  -0.00136 
 H                     0.18981   0.74124   0.92693 
 H                     0.18981   0.74124  -3.35041 
 H                     0.18489  -1.73987  -3.36381 
 H                     0.18489  -1.73987   0.94034 
 N                     0.19194   2.31945  -1.21174 
 O                     0.19303   2.89519  -2.29444 
 O                     0.19303   2.89519  -0.12903 
 N                    -0.27633  -3.20653  -1.16287 
 H                    -0.38663  -3.71586  -2.02486 
 H                    -0.06897  -3.76737  -0.35227 
 

 GradGradGradGradGradGradGradGradGradGradGradGradGradGradGradGradGradGrad
 Berny optimization.
 Initialization pass.
                           ----------------------------
                           !    Initial Parameters    !
                           ! (Angstroms and Degrees)  !
 --------------------------                            --------------------------
 ! Name  Definition              Value          Derivative Info.                !
 --------------------------------------------------------------------------------
 ! R1    R(1,2)                  1.3913         estimate D2E/DX2                !
 ! R2    R(1,6)                  1.3818         estimate D2E/DX2                !
 ! R3    R(1,7)                  1.0827         estimate D2E/DX2                !
 ! R4    R(2,3)                  1.3913         estimate D2E/DX2                !
 ! R5    R(2,11)                 1.4539         estimate D2E/DX2                !
 ! R6    R(3,4)                  1.3818         estimate D2E/DX2                !
 ! R7    R(3,8)                  1.0827         estimate D2E/DX2                !
 ! R8    R(4,5)                  1.4057         estimate D2E/DX2                !
 ! R9    R(4,9)                  1.0855         estimate D2E/DX2                !
 ! R10   R(5,6)                  1.4057         estimate D2E/DX2                !
 ! R11   R(5,14)                 1.3744         estimate D2E/DX2                !
 ! R12   R(6,10)                 1.0855         estimate D2E/DX2                !
 ! R13   R(11,12)                1.2263         estimate D2E/DX2                !
 ! R14   R(11,13)                1.2263         estimate D2E/DX2                !
 ! R15   R(14,15)                1.0073         estimate D2E/DX2                !
 ! R16   R(14,16)                1.0073         estimate D2E/DX2                !
 ! A1    A(2,1,6)              119.3789         estimate D2E/DX2                !
 ! A2    A(2,1,7)              119.453          estimate D2E/DX2                !
 ! A3    A(6,1,7)              121.1681         estimate D2E/DX2                !
 ! A4    A(1,2,3)              121.1297         estimate D2E/DX2                !
 ! A5    A(1,2,11)             119.4351         estimate D2E/DX2                !
 ! A6    A(3,2,11)             119.4351         estimate D2E/DX2                !
 ! A7    A(2,3,4)              119.3789         estimate D2E/DX2                !
 ! A8    A(2,3,8)              119.453          estimate D2E/DX2                !
 ! A9    A(4,3,8)              121.1681         estimate D2E/DX2                !
 ! A10   A(3,4,5)              120.6198         estimate D2E/DX2                !
 ! A11   A(3,4,9)              119.7722         estimate D2E/DX2                !
 ! A12   A(5,4,9)              119.6076         estimate D2E/DX2                !
 ! A13   A(4,5,6)              118.8727         estimate D2E/DX2                !
 ! A14   A(4,5,14)             120.5512         estimate D2E/DX2                !
 ! A15   A(6,5,14)             116.5567         estimate D2E/DX2                !
 ! A16   A(1,6,5)              120.6198         estimate D2E/DX2                !
 ! A17   A(1,6,10)             119.7722         estimate D2E/DX2                !
 ! A18   A(5,6,10)             119.6076         estimate D2E/DX2                !
 ! A19   A(2,11,12)            118.0025         estimate D2E/DX2                !
 ! A20   A(2,11,13)            118.0025         estimate D2E/DX2                !
 ! A21   A(12,11,13)           123.995          estimate D2E/DX2                !
 ! A22   A(5,14,15)            118.818          estimate D2E/DX2                !
 ! A23   A(5,14,16)            118.818          estimate D2E/DX2                !
 ! A24   A(15,14,16)           115.4465         estimate D2E/DX2                !
 ! D1    D(6,1,2,3)              0.0277         estimate D2E/DX2                !
 ! D2    D(6,1,2,11)          -179.8976         estimate D2E/DX2                !
 ! D3    D(7,1,2,3)            179.9891         estimate D2E/DX2                !
 ! D4    D(7,1,2,11)             0.0637         estimate D2E/DX2                !
 ! D5    D(2,1,6,5)              0.0337         estimate D2E/DX2                !
 ! D6    D(2,1,6,10)          -179.7399         estimate D2E/DX2                !
 ! D7    D(7,1,6,5)           -179.927          estimate D2E/DX2                !
 ! D8    D(7,1,6,10)             0.2995         estimate D2E/DX2                !
 ! D9    D(1,2,3,4)             -0.0277         estimate D2E/DX2                !
 ! D10   D(1,2,3,8)           -179.9891         estimate D2E/DX2                !
 ! D11   D(11,2,3,4)           179.8976         estimate D2E/DX2                !
 ! D12   D(11,2,3,8)            -0.0637         estimate D2E/DX2                !
 ! D13   D(1,2,11,12)          179.9532         estimate D2E/DX2                !
 ! D14   D(1,2,11,13)           -0.0265         estimate D2E/DX2                !
 ! D15   D(3,2,11,12)            0.0265         estimate D2E/DX2                !
 ! D16   D(3,2,11,13)         -179.9532         estimate D2E/DX2                !
 ! D17   D(2,3,4,5)             -0.0337         estimate D2E/DX2                !
 ! D18   D(2,3,4,9)            179.7399         estimate D2E/DX2                !
 ! D19   D(8,3,4,5)            179.927          estimate D2E/DX2                !
 ! D20   D(8,3,4,9)             -0.2995         estimate D2E/DX2                !
 ! D21   D(3,4,5,6)              0.093          estimate D2E/DX2                !
 ! D22   D(3,4,5,14)           156.7742         estimate D2E/DX2                !
 ! D23   D(9,4,5,6)           -179.6809         estimate D2E/DX2                !
 ! D24   D(9,4,5,14)           -22.9997         estimate D2E/DX2                !
 ! D25   D(4,5,6,1)             -0.093          estimate D2E/DX2                !
 ! D26   D(4,5,6,10)           179.6809         estimate D2E/DX2                !
 ! D27   D(14,5,6,1)          -157.691          estimate D2E/DX2                !
 ! D28   D(14,5,6,10)           22.0829         estimate D2E/DX2                !
 ! D29   D(4,5,14,15)           16.1258         estimate D2E/DX2                !
 ! D30   D(4,5,14,16)          165.7128         estimate D2E/DX2                !
 ! D31   D(6,5,14,15)          173.325          estimate D2E/DX2                !
 ! D32   D(6,5,14,16)          -37.088          estimate D2E/DX2                !
 --------------------------------------------------------------------------------
 Trust Radius=3.00D-01 FncErr=1.00D-07 GrdErr=1.00D-06
 Number of steps in this run=  82 maximum allowed number of steps= 100.
 GradGradGradGradGradGradGradGradGradGradGradGradGradGradGradGradGradGrad

                          Input orientation:                          
 ---------------------------------------------------------------------
 Center     Atomic      Atomic             Coordinates (Angstroms)
 Number     Number       Type             X           Y           Z
 ---------------------------------------------------------------------
      1          6           0        0.189394    0.181818    0.000000
      2          6           0        0.189682    0.865575   -1.211735
      3          6           0        0.189394    0.181818   -2.423471
      4          6           0        0.189394   -1.199937   -2.422115
      5          6           0        0.190393   -1.914717   -1.211735
      6          6           0        0.189394   -1.199937   -0.001356
      7          1           0        0.189810    0.741243    0.926934
      8          1           0        0.189810    0.741243   -3.350405
      9          1           0        0.184892   -1.739874   -3.363808
     10          1           0        0.184892   -1.739874    0.940337
     11          7           0        0.191945    2.319446   -1.211735
     12          8           0        0.193033    2.895192   -2.294443
     13          8           0        0.193033    2.895192   -0.129027
     14          7           0       -0.276330   -3.206527   -1.162873
     15          1           0       -0.386626   -3.715865   -2.024863
     16          1           0       -0.068974   -3.767365   -0.352268
 ---------------------------------------------------------------------
                    Distance matrix (angstroms):
                    1          2          3          4          5
     1  C    0.000000
     2  C    1.391340   0.000000
     3  C    2.423471   1.391340   0.000000
     4  C    2.788528   2.394026   1.381755   0.000000
     5  C    2.421520   2.780292   2.421520   1.405678   0.000000
     6  C    1.381755   2.394026   2.788528   2.420760   1.405678
     7  H    1.082665   2.142281   3.396788   3.870958   3.409990
     8  H    3.396788   2.142281   1.082665   2.151721   3.409990
     9  H    3.874032   3.379320   2.139429   1.085513   2.159170
    10  H    2.139429   3.379320   3.874032   3.405530   2.159170
    11  N    2.457186   1.453873   2.457186   3.721704   4.234163
    12  O    3.553432   2.300351   2.716442   4.097120   4.930262
    13  O    2.716442   2.300351   3.553432   4.693436   4.930262
    14  N    3.612486   4.098972   3.645119   2.414331   1.374406
    15  H    4.429876   4.688593   3.960129   2.611418   2.058704
    16  H    3.973273   4.719081   4.466843   3.307977   2.058704
                    6          7          8          9         10
     6  C    0.000000
     7  H    2.151721   0.000000
     8  H    3.870958   4.277339   0.000000
     9  H    3.405530   4.956454   2.481159   0.000000
    10  H    1.085513   2.481159   4.956454   4.304144   0.000000
    11  N    3.721704   2.657939   2.657939   4.594513   4.594513
    12  O    4.693436   3.875149   2.398867   4.756832   5.652230
    13  O    4.097120   2.398867   3.875149   5.652230   4.756832
    14  N    2.364831   4.491044   4.537342   2.684755   2.605242
    15  H    3.279676   5.376914   4.685633   2.454373   3.608820
    16  H    2.604147   4.693706   5.420641   3.639305   2.417849
                   11         12         13         14         15
    11  N    0.000000
    12  O    1.226271   0.000000
    13  O    1.226271   2.165416   0.000000
    14  N    5.545994   6.223482   6.206458   0.000000
    15  H    6.117263   6.641894   6.901904   1.007282   0.000000
    16  H    6.152726   6.944808   6.671443   1.007282   1.703271
                   16
    16  H    0.000000
 Stoichiometry    C6H6N2O2
 Framework group  C1[X(C6H6N2O2)]
 Deg. of freedom    42
 Full point group                 C1      NOp   1
 Largest Abelian subgroup         C1      NOp   1
 Largest concise Abelian subgroup C1      NOp   1
                         Standard orientation:                         
 ---------------------------------------------------------------------
 Center     Atomic      Atomic             Coordinates (Angstroms)
 Number     Number       Type             X           Y           Z
 ---------------------------------------------------------------------
      1          6           0        0.009303   -1.206537   -0.052318
      2          6           0        0.699073    0.001467   -0.024578
      3          6           0        0.022717    1.216889   -0.058010
      4          6           0       -1.357615    1.223028   -0.120398
      5          6           0       -2.078310    0.016544   -0.150828
      6          6           0       -1.371015   -1.197688   -0.114713
      7          1           0        0.563037   -2.136490   -0.025296
      8          1           0        0.586713    2.140772   -0.035342
      9          1           0       -1.891985    2.167644   -0.142492
     10          1           0       -1.915810   -2.136423   -0.132383
     11          7           0        2.151542   -0.006424    0.038809
     12          8           0        2.732734    1.073138    0.061176
     13          8           0        2.720748   -1.092238    0.066262
     14          7           0       -3.390123   -0.024099    0.257202
     15          1           0       -3.899141    0.840924    0.342363
     16          1           0       -3.945508   -0.832186    0.026638
 ---------------------------------------------------------------------
 Rotational constants (GHZ):      3.8934928      0.8338086      0.6903421
 General basis read from cards:  (5D, 7F)
 There are   430 symmetry adapted basis functions of A   symmetry.
 Integral buffers will be    131072 words long.
 Raffenetti 2 integral format.
 Two-electron integral symmetry is turned on.
   430 basis functions,   652 primitive gaussians,   490 cartesian basis functions
    36 alpha electrons       36 beta electrons
       nuclear repulsion energy       497.1257036331 Hartrees.
 NAtoms=   16 NActive=   16 NUniq=   16 SFac= 7.50D-01 NAtFMM=   80 NAOKFM=F Big=F
 ------------------------------------------------------------------------------
 Polarizable Continuum Model (PCM)
 =================================
 Model                : C-PCM.
 Atomic radii         : UFF (Universal Force Field).
 Polarization charges : Total charges.
 Charge compensation  : None.
 Solution method      : Matrix inversion.
 Cavity type          : Scaled VdW (van der Waals Surface) (Alpha=1.100).
 Cavity algorithm     : GePol (No added spheres)
                        Default sphere list used, NSphG=   16.
                        Lebedev-Laikov grids with approx.  5.0 points / Ang**2.
                        Smoothing algorithm: Karplus/York (Gamma=1.0000).
                        Polarization charges: spherical gaussians, with
                                              point-specific exponents (IZeta= 3).
                        Self-potential: point-specific (ISelfS= 7).
                        Self-field    : sphere-specific E.n sum rule (ISelfD= 2).
 1st derivatives      : Analytical E(r).r(x)/FMM algorithm (CHGder, D1EAlg=3).
                        Cavity 1st derivative terms included.
 Solvent              : Acetone, Eps=  20.493000 Eps(inf)=   1.846337
 ------------------------------------------------------------------------------
 Spheres list:
 ISph  on   Nord    Re0     Alpha      Xe            Ye            Ze
    1   C      1    1.926   1.100      0.009303     -1.206537     -0.052318
    2   C      2    1.926   1.100      0.699073      0.001467     -0.024578
    3   C      3    1.926   1.100      0.022717      1.216889     -0.058010
    4   C      4    1.926   1.100     -1.357615      1.223028     -0.120398
    5   C      5    1.926   1.100     -2.078310      0.016544     -0.150828
    6   C      6    1.926   1.100     -1.371015     -1.197688     -0.114713
    7   H      7    1.443   1.100      0.563037     -2.136490     -0.025296
    8   H      8    1.443   1.100      0.586713      2.140772     -0.035342
    9   H      9    1.443   1.100     -1.891985      2.167644     -0.142492
   10   H     10    1.443   1.100     -1.915810     -2.136423     -0.132383
   11   N     11    1.830   1.100      2.151542     -0.006424      0.038809
   12   O     12    1.750   1.100      2.732734      1.073138      0.061176
   13   O     13    1.750   1.100      2.720748     -1.092238      0.066262
   14   N     14    1.830   1.100     -3.390123     -0.024099      0.257202
   15   H     15    1.443   1.100     -3.899141      0.840924      0.342363
   16   H     16    1.443   1.100     -3.945508     -0.832186      0.026638
 ------------------------------------------------------------------------------
 One-electron integrals computed using PRISM.
 NBasis=   430 RedAO= T  NBF=   430
 NBsUse=   429 1.00D-06 NBFU=   429
 Harris functional with IExCor=20419 diagonalized for initial guess.
 ExpMin= 4.85D-02 ExpMax= 2.70D+04 ExpMxC= 9.22D+02 IAcc=3 IRadAn=         5 AccDes= 0.00D+00
 HarFok:  IExCor=20419 AccDes= 0.00D+00 IRadAn=         5 IDoV= 1
 ScaDFX=  1.000000  1.000000  1.000000  1.000000
 FoFCou: FMM=F IPFlag=           0 FMFlag=      100000 FMFlg1=           0
         NFxFlg=           0 DoJE=T BraDBF=F KetDBF=T FulRan=T
         Omega=  0.000000  0.000000  1.000000  0.000000  0.000000 ICntrl=     500 IOpCl=  0
         NMat0=    1 NMatS0=    1 NMatT0=    0 NMatD0=    1 NMtDS0=    0 NMtDT0=    0
         I1Cent=           4 NGrid=           0.
 Petite list used in FoFCou.
 Initial guess orbital symmetries:
       Occupied  (A) (A) (A) (A) (A) (A) (A) (A) (A) (A) (A) (A)
                 (A) (A) (A) (A) (A) (A) (A) (A) (A) (A) (A) (A)
                 (A) (A) (A) (A) (A) (A) (A) (A) (A) (A) (A) (A)
       Virtual   (A) (A) (A) (A) (A) (A) (A) (A) (A) (A) (A) (A)
                 (A) (A) (A) (A) (A) (A) (A) (A) (A) (A) (A) (A)
                 (A) (A) (A) (A) (A) (A) (A) (A) (A) (A) (A) (A)
                 (A) (A) (A) (A) (A) (A) (A) (A) (A) (A) (A) (A)
                 (A) (A) (A) (A) (A) (A) (A) (A) (A) (A) (A) (A)
                 (A) (A) (A) (A) (A) (A) (A) (A) (A) (A) (A) (A)
                 (A) (A) (A) (A) (A) (A) (A) (A) (A) (A) (A) (A)
                 (A) (A) (A) (A) (A) (A) (A) (A) (A) (A) (A) (A)
                 (A) (A) (A) (A) (A) (A) (A) (A) (A) (A) (A) (A)
                 (A) (A) (A) (A) (A) (A) (A) (A) (A) (A) (A) (A)
                 (A) (A) (A) (A) (A) (A) (A) (A) (A) (A) (A) (A)
                 (A) (A) (A) (A) (A) (A) (A) (A) (A) (A) (A) (A)
                 (A) (A) (A) (A) (A) (A) (A) (A) (A) (A) (A) (A)
                 (A) (A) (A) (A) (A) (A) (A) (A) (A) (A) (A) (A)
                 (A) (A) (A) (A) (A) (A) (A) (A) (A) (A) (A) (A)
                 (A) (A) (A) (A) (A) (A) (A) (A) (A) (A) (A) (A)
                 (A) (A) (A) (A) (A) (A) (A) (A) (A) (A) (A) (A)
                 (A) (A) (A) (A) (A) (A) (A) (A) (A) (A) (A) (A)
                 (A) (A) (A) (A) (A) (A) (A) (A) (A) (A) (A) (A)
                 (A) (A) (A) (A) (A) (A) (A) (A) (A) (A) (A) (A)
                 (A) (A) (A) (A) (A) (A) (A) (A) (A) (A) (A) (A)
                 (A) (A) (A) (A) (A) (A) (A) (A) (A) (A) (A) (A)
                 (A) (A) (A) (A) (A) (A) (A) (A) (A) (A) (A) (A)
                 (A) (A) (A) (A) (A) (A) (A) (A) (A) (A) (A) (A)
                 (A) (A) (A) (A) (A) (A) (A) (A) (A) (A) (A) (A)
                 (A) (A) (A) (A) (A) (A) (A) (A) (A) (A) (A) (A)
                 (A) (A) (A) (A) (A) (A) (A) (A) (A) (A) (A) (A)
                 (A) (A) (A) (A) (A) (A) (A) (A) (A) (A) (A) (A)
                 (A) (A) (A) (A) (A) (A) (A) (A) (A) (A) (A) (A)
                 (A) (A) (A) (A) (A) (A) (A) (A) (A) (A) (A) (A)
                 (A) (A) (A) (A) (A) (A) (A) (A) (A) (A) (A) (A)
                 (A) (A) (A) (A) (A) (A) (A) (A) (A) (A) (A) (A)
                 (A) (A) (A) (A) (A) (A) (A) (A) (A)
 The electronic state of the initial guess is 1-A.
 FoFJK:  IHMeth= 1 ICntrl=     0 DoSepK=T KAlg= 1 I1Cent= 0 FoldK=F
 Gradient too large for Newton-Raphson -- use scaled steepest descent instead.
 FoFJK:  IHMeth= 1 ICntrl=     0 DoSepK=T KAlg= 1 I1Cent= 0 FoldK=F
 FoFJK:  IHMeth= 1 ICntrl=     0 DoSepK=T KAlg= 1 I1Cent= 0 FoldK=F
 FoFJK:  IHMeth= 1 ICntrl=     0 DoSepK=T KAlg= 1 I1Cent= 0 FoldK=F
 FoFJK:  IHMeth= 1 ICntrl=     0 DoSepK=T KAlg= 1 I1Cent= 0 FoldK=F
 Gradient too large for Newton-Raphson -- use scaled steepest descent instead.
 FoFJK:  IHMeth= 1 ICntrl=     0 DoSepK=T KAlg= 1 I1Cent= 0 FoldK=F
 FoFJK:  IHMeth= 1 ICntrl=     0 DoSepK=T KAlg= 1 I1Cent= 0 FoldK=F
 FoFJK:  IHMeth= 1 ICntrl=     0 DoSepK=T KAlg= 1 I1Cent= 0 FoldK=F
 FoFJK:  IHMeth= 1 ICntrl=     0 DoSepK=T KAlg= 1 I1Cent= 0 FoldK=F
 FoFJK:  IHMeth= 1 ICntrl=     0 DoSepK=T KAlg= 1 I1Cent= 0 FoldK=F
 Gradient too large for Newton-Raphson -- use scaled steepest descent instead.
 FoFJK:  IHMeth= 1 ICntrl=     0 DoSepK=T KAlg= 1 I1Cent= 0 FoldK=F
 FoFJK:  IHMeth= 1 ICntrl=     0 DoSepK=T KAlg= 1 I1Cent= 0 FoldK=F
 FoFJK:  IHMeth= 1 ICntrl=     0 DoSepK=T KAlg= 1 I1Cent= 0 FoldK=F
 Gradient too large for Newton-Raphson -- use scaled steepest descent instead.
 FoFJK:  IHMeth= 1 ICntrl=     0 DoSepK=T KAlg= 1 I1Cent= 0 FoldK=F
 FoFJK:  IHMeth= 1 ICntrl=     0 DoSepK=T KAlg= 1 I1Cent= 0 FoldK=F
 FoFJK:  IHMeth= 1 ICntrl=     0 DoSepK=T KAlg= 1 I1Cent= 0 FoldK=F
 FoFJK:  IHMeth= 1 ICntrl=     0 DoSepK=T KAlg= 1 I1Cent= 0 FoldK=F
 FoFJK:  IHMeth= 1 ICntrl=     0 DoSepK=T KAlg= 1 I1Cent= 0 FoldK=F
 Gradient too large for Newton-Raphson -- use scaled steepest descent instead.
 FoFJK:  IHMeth= 1 ICntrl=     0 DoSepK=T KAlg= 1 I1Cent= 0 FoldK=F
 FoFJK:  IHMeth= 1 ICntrl=     0 DoSepK=T KAlg= 1 I1Cent= 0 FoldK=F
 FoFJK:  IHMeth= 1 ICntrl=     0 DoSepK=T KAlg= 1 I1Cent= 0 FoldK=F
 LinEq1:  Iter=  0 NonCon=     1 RMS=7.35D-05 Max=6.70D-03
 AX will form     1 AO Fock derivatives at one time.
 FoFJK:  IHMeth= 1 ICntrl=     0 DoSepK=T KAlg= 1 I1Cent= 0 FoldK=F
 LinEq1:  Iter=  1 NonCon=     1 RMS=5.03D-05 Max=2.78D-03
 FoFJK:  IHMeth= 1 ICntrl=     0 DoSepK=T KAlg= 1 I1Cent= 0 FoldK=F
 LinEq1:  Iter=  2 NonCon=     1 RMS=1.09D-05 Max=4.56D-04
 FoFJK:  IHMeth= 1 ICntrl=     0 DoSepK=T KAlg= 1 I1Cent= 0 FoldK=F
 LinEq1:  Iter=  3 NonCon=     1 RMS=2.16D-06 Max=1.36D-04
 FoFJK:  IHMeth= 1 ICntrl=     0 DoSepK=T KAlg= 1 I1Cent= 0 FoldK=F
 LinEq1:  Iter=  4 NonCon=     1 RMS=2.15D-06 Max=1.03D-04
 FoFJK:  IHMeth= 1 ICntrl=     0 DoSepK=T KAlg= 1 I1Cent= 0 FoldK=F
 LinEq1:  Iter=  5 NonCon=     1 RMS=9.02D-07 Max=2.63D-05
 FoFJK:  IHMeth= 1 ICntrl=     0 DoSepK=T KAlg= 1 I1Cent= 0 FoldK=F
 LinEq1:  Iter=  6 NonCon=     1 RMS=4.25D-07 Max=2.67D-05
 FoFJK:  IHMeth= 1 ICntrl=     0 DoSepK=T KAlg= 1 I1Cent= 0 FoldK=F
 LinEq1:  Iter=  7 NonCon=     1 RMS=2.22D-07 Max=6.22D-06
 FoFJK:  IHMeth= 1 ICntrl=     0 DoSepK=T KAlg= 1 I1Cent= 0 FoldK=F
 LinEq1:  Iter=  8 NonCon=     1 RMS=4.85D-08 Max=1.60D-06
 FoFJK:  IHMeth= 1 ICntrl=     0 DoSepK=T KAlg= 1 I1Cent= 0 FoldK=F
 LinEq1:  Iter=  9 NonCon=     1 RMS=1.65D-08 Max=3.66D-07
 FoFJK:  IHMeth= 1 ICntrl=     0 DoSepK=T KAlg= 1 I1Cent= 0 FoldK=F
 LinEq1:  Iter= 10 NonCon=     1 RMS=7.76D-09 Max=2.32D-07
 FoFJK:  IHMeth= 1 ICntrl=     0 DoSepK=T KAlg= 1 I1Cent= 0 FoldK=F
 LinEq1:  Iter= 11 NonCon=     0 RMS=2.17D-09 Max=1.13D-07
 Linear equations converged to 1.682D-08 1.682D-07 after    11 iterations.
 FoFJK:  IHMeth= 1 ICntrl=     0 DoSepK=T KAlg= 1 I1Cent= 0 FoldK=F
 FoFJK:  IHMeth= 1 ICntrl=     0 DoSepK=T KAlg= 1 I1Cent= 0 FoldK=F
 FoFJK:  IHMeth= 1 ICntrl=     0 DoSepK=T KAlg= 1 I1Cent= 0 FoldK=F
 LinEq1:  Iter=  0 NonCon=     1 RMS=7.33D-07 Max=3.94D-05
 FoFJK:  IHMeth= 1 ICntrl=     0 DoSepK=T KAlg= 1 I1Cent= 0 FoldK=F
 LinEq1:  Iter=  1 NonCon=     1 RMS=1.88D-07 Max=1.00D-05
 FoFJK:  IHMeth= 1 ICntrl=     0 DoSepK=T KAlg= 1 I1Cent= 0 FoldK=F
 LinEq1:  Iter=  2 NonCon=     1 RMS=1.05D-07 Max=3.35D-06
 FoFJK:  IHMeth= 1 ICntrl=     0 DoSepK=T KAlg= 1 I1Cent= 0 FoldK=F
 LinEq1:  Iter=  3 NonCon=     1 RMS=5.47D-08 Max=3.64D-06
 FoFJK:  IHMeth= 1 ICntrl=     0 DoSepK=T KAlg= 1 I1Cent= 0 FoldK=F
 LinEq1:  Iter=  4 NonCon=     1 RMS=2.47D-08 Max=1.20D-06
 FoFJK:  IHMeth= 1 ICntrl=     0 DoSepK=T KAlg= 1 I1Cent= 0 FoldK=F
 LinEq1:  Iter=  5 NonCon=     1 RMS=9.37D-09 Max=2.85D-07
 FoFJK:  IHMeth= 1 ICntrl=     0 DoSepK=T KAlg= 1 I1Cent= 0 FoldK=F
 LinEq1:  Iter=  6 NonCon=     1 RMS=4.20D-09 Max=1.23D-07
 FoFJK:  IHMeth= 1 ICntrl=     0 DoSepK=T KAlg= 1 I1Cent= 0 FoldK=F
 LinEq1:  Iter=  7 NonCon=     1 RMS=2.42D-09 Max=1.26D-07
 FoFJK:  IHMeth= 1 ICntrl=     0 DoSepK=T KAlg= 1 I1Cent= 0 FoldK=F
 LinEq1:  Iter=  8 NonCon=     1 RMS=1.76D-09 Max=9.37D-08
 FoFJK:  IHMeth= 1 ICntrl=     0 DoSepK=T KAlg= 1 I1Cent= 0 FoldK=F
 LinEq1:  Iter=  9 NonCon=     1 RMS=1.04D-09 Max=3.40D-08
 FoFJK:  IHMeth= 1 ICntrl=     0 DoSepK=T KAlg= 1 I1Cent= 0 FoldK=F
 LinEq1:  Iter= 10 NonCon=     1 RMS=4.84D-10 Max=2.20D-08
 FoFJK:  IHMeth= 1 ICntrl=     0 DoSepK=T KAlg= 1 I1Cent= 0 FoldK=F
 LinEq1:  Iter= 11 NonCon=     0 RMS=1.89D-10 Max=4.13D-09
 Linear equations converged to 1.072D-09 1.072D-08 after    11 iterations.
 FoFJK:  IHMeth= 1 ICntrl=     0 DoSepK=T KAlg= 1 I1Cent= 0 FoldK=F
 Error on total polarization charges =  0.01363
 SCF Done:  E(RCAM-B3LYP) =  -492.091219713     a.u. after    8 cycles
            Convg  =    0.3367D-08                    47 Fock formations.
              S**2 =  0.0000                  -V/T =  2.0043

 **********************************************************************

            Population analysis using the SCF density.

 **********************************************************************

 Orbital symmetries:
       Occupied  (A) (A) (A) (A) (A) (A) (A) (A) (A) (A) (A) (A)
                 (A) (A) (A) (A) (A) (A) (A) (A) (A) (A) (A) (A)
                 (A) (A) (A) (A) (A) (A) (A) (A) (A) (A) (A) (A)
       Virtual   (A) (A) (A) (A) (A) (A) (A) (A) (A) (A) (A) (A)
                 (A) (A) (A) (A) (A) (A) (A) (A) (A) (A) (A) (A)
                 (A) (A) (A) (A) (A) (A) (A) (A) (A) (A) (A) (A)
                 (A) (A) (A) (A) (A) (A) (A) (A) (A) (A) (A) (A)
                 (A) (A) (A) (A) (A) (A) (A) (A) (A) (A) (A) (A)
                 (A) (A) (A) (A) (A) (A) (A) (A) (A) (A) (A) (A)
                 (A) (A) (A) (A) (A) (A) (A) (A) (A) (A) (A) (A)
                 (A) (A) (A) (A) (A) (A) (A) (A) (A) (A) (A) (A)
                 (A) (A) (A) (A) (A) (A) (A) (A) (A) (A) (A) (A)
                 (A) (A) (A) (A) (A) (A) (A) (A) (A) (A) (A) (A)
                 (A) (A) (A) (A) (A) (A) (A) (A) (A) (A) (A) (A)
                 (A) (A) (A) (A) (A) (A) (A) (A) (A) (A) (A) (A)
                 (A) (A) (A) (A) (A) (A) (A) (A) (A) (A) (A) (A)
                 (A) (A) (A) (A) (A) (A) (A) (A) (A) (A) (A) (A)
                 (A) (A) (A) (A) (A) (A) (A) (A) (A) (A) (A) (A)
                 (A) (A) (A) (A) (A) (A) (A) (A) (A) (A) (A) (A)
                 (A) (A) (A) (A) (A) (A) (A) (A) (A) (A) (A) (A)
                 (A) (A) (A) (A) (A) (A) (A) (A) (A) (A) (A) (A)
                 (A) (A) (A) (A) (A) (A) (A) (A) (A) (A) (A) (A)
                 (A) (A) (A) (A) (A) (A) (A) (A) (A) (A) (A) (A)
                 (A) (A) (A) (A) (A) (A) (A) (A) (A) (A) (A) (A)
                 (A) (A) (A) (A) (A) (A) (A) (A) (A) (A) (A) (A)
                 (A) (A) (A) (A) (A) (A) (A) (A) (A) (A) (A) (A)
                 (A) (A) (A) (A) (A) (A) (A) (A) (A) (A) (A) (A)
                 (A) (A) (A) (A) (A) (A) (A) (A) (A) (A) (A) (A)
                 (A) (A) (A) (A) (A) (A) (A) (A) (A) (A) (A) (A)
                 (A) (A) (A) (A) (A) (A) (A) (A) (A) (A) (A) (A)
                 (A) (A) (A) (A) (A) (A) (A) (A) (A) (A) (A) (A)
                 (A) (A) (A) (A) (A) (A) (A) (A) (A) (A) (A) (A)
                 (A) (A) (A) (A) (A) (A) (A) (A) (A) (A) (A) (A)
                 (A) (A) (A) (A) (A) (A) (A) (A) (A) (A) (A) (A)
                 (A) (A) (A) (A) (A) (A) (A) (A) (A) (A) (A) (A)
                 (A) (A) (A) (A) (A) (A) (A) (A) (A)
 The electronic state is 1-A.
 Alpha  occ. eigenvalues --  -19.23906 -19.23894 -14.63905 -14.41074 -10.31855
 Alpha  occ. eigenvalues --  -10.30142 -10.27683 -10.27558 -10.26237 -10.26162
 Alpha  occ. eigenvalues --   -1.32199  -1.14407  -1.02629  -0.96325  -0.87602
 Alpha  occ. eigenvalues --   -0.85356  -0.77091  -0.71740  -0.67582  -0.64394
 Alpha  occ. eigenvalues --   -0.62111  -0.61253  -0.60410  -0.58936  -0.52994
 Alpha  occ. eigenvalues --   -0.52411  -0.51096  -0.49473  -0.47026  -0.42946
 Alpha  occ. eigenvalues --   -0.40468  -0.39306  -0.39060  -0.37533  -0.33544
 Alpha  occ. eigenvalues --   -0.28277
 Alpha virt. eigenvalues --   -0.05314   0.01407   0.03095   0.04073   0.04856
 Alpha virt. eigenvalues --    0.05198   0.06755   0.07196   0.07406   0.08963
 Alpha virt. eigenvalues --    0.10388   0.10543   0.10827   0.12485   0.13272
 Alpha virt. eigenvalues --    0.14603   0.14906   0.16051   0.16598   0.16799
 Alpha virt. eigenvalues --    0.18185   0.19128   0.19775   0.20431   0.21166
 Alpha virt. eigenvalues --    0.21481   0.22269   0.22347   0.23132   0.23235
 Alpha virt. eigenvalues --    0.23892   0.24641   0.24951   0.25622   0.26699
 Alpha virt. eigenvalues --    0.27819   0.28286   0.28534   0.29274   0.29529
 Alpha virt. eigenvalues --    0.29932   0.30900   0.30966   0.31196   0.31820
 Alpha virt. eigenvalues --    0.32278   0.33809   0.34198   0.34389   0.35073
 Alpha virt. eigenvalues --    0.35859   0.36321   0.37126   0.37699   0.38359
 Alpha virt. eigenvalues --    0.38888   0.39106   0.39555   0.39892   0.41121
 Alpha virt. eigenvalues --    0.41516   0.42450   0.43017   0.43288   0.43683
 Alpha virt. eigenvalues --    0.44273   0.44890   0.45937   0.46542   0.47089
 Alpha virt. eigenvalues --    0.47265   0.47839   0.47999   0.48627   0.49436
 Alpha virt. eigenvalues --    0.49899   0.50450   0.50906   0.52680   0.53199
 Alpha virt. eigenvalues --    0.53643   0.53874   0.55403   0.55594   0.57191
 Alpha virt. eigenvalues --    0.58083   0.59034   0.59266   0.60432   0.60715
 Alpha virt. eigenvalues --    0.60940   0.61565   0.61935   0.62790   0.63640
 Alpha virt. eigenvalues --    0.64391   0.64931   0.65953   0.66741   0.67957
 Alpha virt. eigenvalues --    0.68181   0.68740   0.69028   0.69774   0.70367
 Alpha virt. eigenvalues --    0.70986   0.71842   0.72477   0.72950   0.73336
 Alpha virt. eigenvalues --    0.73712   0.74049   0.74438   0.75382   0.76839
 Alpha virt. eigenvalues --    0.77318   0.78477   0.78502   0.79780   0.80123
 Alpha virt. eigenvalues --    0.80333   0.80586   0.82387   0.82447   0.83427
 Alpha virt. eigenvalues --    0.84344   0.85075   0.85368   0.87039   0.87646
 Alpha virt. eigenvalues --    0.89451   0.91753   0.93622   0.95560   0.96066
 Alpha virt. eigenvalues --    0.97065   0.97586   0.98288   0.99403   0.99912
 Alpha virt. eigenvalues --    1.00538   1.02000   1.02657   1.03827   1.05118
 Alpha virt. eigenvalues --    1.05873   1.07832   1.09407   1.10311   1.10506
 Alpha virt. eigenvalues --    1.11243   1.14370   1.17236   1.19457   1.20027
 Alpha virt. eigenvalues --    1.23866   1.25086   1.27074   1.31335   1.31598
 Alpha virt. eigenvalues --    1.33821   1.34554   1.36146   1.36767   1.38456
 Alpha virt. eigenvalues --    1.40637   1.41769   1.43301   1.44194   1.47459
 Alpha virt. eigenvalues --    1.48901   1.49345   1.52128   1.53096   1.55139
 Alpha virt. eigenvalues --    1.57372   1.59439   1.60751   1.61567   1.62720
 Alpha virt. eigenvalues --    1.68422   1.70780   1.72416   1.74095   1.75964
 Alpha virt. eigenvalues --    1.77603   1.78140   1.79033   1.79527   1.82986
 Alpha virt. eigenvalues --    1.83533   1.84552   1.88172   1.89108   1.90566
 Alpha virt. eigenvalues --    1.91052   1.92809   1.94143   1.94325   1.96303
 Alpha virt. eigenvalues --    1.98397   1.99687   2.00860   2.02009   2.03487
 Alpha virt. eigenvalues --    2.05885   2.07553   2.08883   2.09158   2.14924
 Alpha virt. eigenvalues --    2.18814   2.19507   2.23637   2.25930   2.27571
 Alpha virt. eigenvalues --    2.28128   2.30360   2.32122   2.33580   2.34656
 Alpha virt. eigenvalues --    2.36379   2.39740   2.41145   2.41386   2.44275
 Alpha virt. eigenvalues --    2.46801   2.50741   2.53648   2.54206   2.56099
 Alpha virt. eigenvalues --    2.57292   2.63508   2.64130   2.67225   2.68833
 Alpha virt. eigenvalues --    2.71115   2.72231   2.73723   2.75413   2.79606
 Alpha virt. eigenvalues --    2.80848   2.82649   2.85239   2.86485   2.86843
 Alpha virt. eigenvalues --    2.87779   2.88209   2.91023   2.93081   2.93902
 Alpha virt. eigenvalues --    2.94610   2.97886   3.00032   3.00807   3.01934
 Alpha virt. eigenvalues --    3.03181   3.09397   3.09845   3.11005   3.11380
 Alpha virt. eigenvalues --    3.13549   3.14689   3.16123   3.20329   3.21559
 Alpha virt. eigenvalues --    3.23814   3.25615   3.26465   3.28134   3.30219
 Alpha virt. eigenvalues --    3.31475   3.32998   3.35142   3.36101   3.37779
 Alpha virt. eigenvalues --    3.40178   3.41125   3.42803   3.43852   3.45221
 Alpha virt. eigenvalues --    3.45851   3.47264   3.48831   3.49717   3.50463
 Alpha virt. eigenvalues --    3.52100   3.54841   3.54953   3.56867   3.59336
 Alpha virt. eigenvalues --    3.61718   3.62883   3.63289   3.67407   3.68932
 Alpha virt. eigenvalues --    3.69941   3.72124   3.73544   3.79122   3.84992
 Alpha virt. eigenvalues --    3.89420   3.90104   3.95655   3.97702   4.01050
 Alpha virt. eigenvalues --    4.04230   4.06041   4.13179   4.16208   4.18379
 Alpha virt. eigenvalues --    4.18900   4.19470   4.25497   4.26206   4.27268
 Alpha virt. eigenvalues --    4.29113   4.30575   4.30621   4.32466   4.33806
 Alpha virt. eigenvalues --    4.35710   4.41396   4.46842   4.52028   4.57417
 Alpha virt. eigenvalues --    4.62655   4.66812   4.68569   4.75224   4.76756
 Alpha virt. eigenvalues --    4.78276   4.81135   4.82004   4.83908   4.87862
 Alpha virt. eigenvalues --    4.89504   4.93945   4.98180   5.00262   5.02152
 Alpha virt. eigenvalues --    5.04532   5.06477   5.07257   5.14679   5.19894
 Alpha virt. eigenvalues --    5.20155   5.22955   5.25551   5.27871   5.29570
 Alpha virt. eigenvalues --    5.30695   5.39144   5.40484   5.43619   5.44456
 Alpha virt. eigenvalues --    5.48706   5.52519   5.56678   5.58404   5.66454
 Alpha virt. eigenvalues --    5.68239   5.69399   5.71729   5.77995   5.96057
 Alpha virt. eigenvalues --    5.98859   6.07323   6.11456   6.41787   6.43048
 Alpha virt. eigenvalues --    6.51250   6.57483   6.59457   6.61918   6.92710
 Alpha virt. eigenvalues --    6.93907   6.96882   7.10089   7.28942   7.43458
 Alpha virt. eigenvalues --    7.51957   7.80055   7.82456  22.66010  22.84561
 Alpha virt. eigenvalues --   22.94538  22.99019  23.12656  23.43402  32.43128
 Alpha virt. eigenvalues --   32.80477  44.45367  44.61820
          Condensed to atoms (all electrons):
              1          2          3          4          5          6
     1  C    6.545330   0.230937  -0.441688  -0.029477  -0.378560   0.351608
     2  C    0.230937   6.354134   0.606986  -0.336894  -0.675904  -0.240103
     3  C   -0.441688   0.606986   6.835106   0.092732  -0.758494  -0.034606
     4  C   -0.029477  -0.336894   0.092732   6.857899   0.083690  -0.443287
     5  C   -0.378560  -0.675904  -0.758494   0.083690   7.752683  -0.171813
     6  C    0.351608  -0.240103  -0.034606  -0.443287  -0.171813   6.744615
     7  H    0.249361  -0.277524  -0.006357   0.008088   0.108598  -0.015085
     8  H    0.035961  -0.171805   0.187929   0.008597   0.059108  -0.005194
     9  H    0.008134   0.048569   0.042558   0.320742  -0.291080   0.042404
    10  H    0.026699   0.095994   0.037140   0.024983  -0.455520   0.363948
    11  N   -0.163470   0.395463  -0.194125   0.009995   0.044950  -0.007647
    12  O    0.025205  -0.041653  -0.027810   0.007369  -0.009838  -0.002134
    13  O   -0.034496  -0.025707   0.027764  -0.004390  -0.011924   0.010903
    14  N    0.022492   0.043804   0.044597  -0.006122  -0.103051   0.014561
    15  H   -0.005291  -0.001730   0.000647   0.043386  -0.017564  -0.053052
    16  H    0.002097  -0.003041  -0.006542  -0.025804   0.023520   0.016090
              7          8          9         10         11         12
     1  C    0.249361   0.035961   0.008134   0.026699  -0.163470   0.025205
     2  C   -0.277524  -0.171805   0.048569   0.095994   0.395463  -0.041653
     3  C   -0.006357   0.187929   0.042558   0.037140  -0.194125  -0.027810
     4  C    0.008088   0.008597   0.320742   0.024983   0.009995   0.007369
     5  C    0.108598   0.059108  -0.291080  -0.455520   0.044950  -0.009838
     6  C   -0.015085  -0.005194   0.042404   0.363948  -0.007647  -0.002134
     7  H    0.516517   0.008921  -0.002254  -0.042131   0.042353  -0.004346
     8  H    0.008921   0.441351  -0.011219  -0.002586   0.025655  -0.007130
     9  H   -0.002254  -0.011219   0.459867   0.009094  -0.001897   0.000511
    10  H   -0.042131  -0.002586   0.009094   0.554937  -0.004871   0.000280
    11  N    0.042353   0.025655  -0.001897  -0.004871   5.741362   0.101571
    12  O   -0.004346  -0.007130   0.000511   0.000280   0.101571   8.685521
    13  O   -0.014189  -0.004393   0.000233   0.001378   0.095367  -0.105532
    14  N   -0.005795  -0.002228   0.035061   0.083220  -0.001557   0.000144
    15  H    0.000090   0.000267  -0.001351  -0.009757   0.000060   0.000013
    16  H    0.000251   0.000066  -0.007798  -0.005575   0.000045   0.000000
             13         14         15         16
     1  C   -0.034496   0.022492  -0.005291   0.002097
     2  C   -0.025707   0.043804  -0.001730  -0.003041
     3  C    0.027764   0.044597   0.000647  -0.006542
     4  C   -0.004390  -0.006122   0.043386  -0.025804
     5  C   -0.011924  -0.103051  -0.017564   0.023520
     6  C    0.010903   0.014561  -0.053052   0.016090
     7  H   -0.014189  -0.005795   0.000090   0.000251
     8  H   -0.004393  -0.002228   0.000267   0.000066
     9  H    0.000233   0.035061  -0.001351  -0.007798
    10  H    0.001378   0.083220  -0.009757  -0.005575
    11  N    0.095367  -0.001557   0.000060   0.000045
    12  O   -0.105532   0.000144   0.000013   0.000000
    13  O    8.685528   0.000248  -0.000011   0.000008
    14  N    0.000248   6.576142   0.381929   0.364185
    15  H   -0.000011   0.381929   0.467382  -0.026369
    16  H    0.000008   0.364185  -0.026369   0.424058
 Mulliken atomic charges:
              1
     1  C   -0.444841
     2  C   -0.001526
     3  C   -0.405838
     4  C   -0.611506
     5  C    0.801200
     6  C   -0.571207
     7  H    0.433501
     8  H    0.436702
     9  H    0.348427
    10  H    0.322768
    11  N    0.916747
    12  O   -0.622171
    13  O   -0.620786
    14  N   -0.447630
    15  H    0.221352
    16  H    0.244809
 Sum of Mulliken atomic charges =   0.00000
 Mulliken charges with hydrogens summed into heavy atoms:
              1
     1  C   -0.011340
     2  C   -0.001526
     3  C    0.030864
     4  C   -0.263080
     5  C    0.801200
     6  C   -0.248439
    11  N    0.916747
    12  O   -0.622171
    13  O   -0.620786
    14  N    0.018531
 Sum of Mulliken charges with hydrogens summed into heavy atoms =   0.00000
 Electronic spatial extent (au):  <R**2>=           1542.4385
 Charge=              0.0000 electrons
 Dipole moment (field-independent basis, Debye):
    X=             -9.4885    Y=              0.1227    Z=             -0.4379  Tot=              9.4994
 Quadrupole moment (field-independent basis, Debye-Ang):
   XX=            -56.8509   YY=            -52.7558   ZZ=            -60.5546
   XY=             -0.1202   XZ=              0.3564   YZ=              0.6322
 Traceless Quadrupole moment (field-independent basis, Debye-Ang):
   XX=             -0.1305   YY=              3.9646   ZZ=             -3.8341
   XY=             -0.1202   XZ=              0.3564   YZ=              0.6322
 Octapole moment (field-independent basis, Debye-Ang**2):
  XXX=           -127.5642  YYY=              0.3026  ZZZ=              1.3891  XYY=            -19.6358
  XXY=              0.4048  XXZ=             -3.0836  XZZ=             11.6611  YZZ=              0.2441
  YYZ=              0.0579  XYZ=             -2.4398
 Hexadecapole moment (field-independent basis, Debye-Ang**3):
 XXXX=          -1353.9353 YYYY=           -361.1743 ZZZZ=            -70.5011 XXXY=              0.5767
 XXXZ=             -6.5013 YYYX=              0.2487 YYYZ=              0.6656 ZZZX=              1.6184
 ZZZY=              0.5840 XXYY=           -298.6519 XXZZ=           -273.7468 YYZZ=            -84.4876
 XXYZ=              9.8047 YYXZ=             -1.3741 ZZXY=             -1.1211
 N-N= 4.971257036331D+02 E-N=-2.144146692068D+03  KE= 4.899868744820D+02
 D1PCM: C-PCM CHGder 1st derivatives, ID1Alg=3 FixD1E=F DoIter=F DoCFld=F I1PDM=0.
 Calling FoFJK, ICntrl=      2127 FMM=F ISym2X=0 I1Cent= 0 IOpClX= 0 NMat=1 NMatS=1 NMatT=0.
 FoFJK:  IHMeth= 1 ICntrl=  2127 DoSepK=T KAlg= 1 I1Cent= 0 FoldK=F
 ***** Axes restored to original set *****
 -------------------------------------------------------------------
 Center     Atomic                   Forces (Hartrees/Bohr)
 Number     Number              X              Y              Z
 -------------------------------------------------------------------
      1        6           0.005684934   -0.007036069    0.000341679
      2        6          -0.000209187    0.003020556   -0.001800786
      3        6           0.004240963   -0.003668689    0.002344546
      4        6           0.008261369    0.003357851   -0.001631895
      5        6          -0.044555008    0.002596535    0.004877341
      6        6           0.013221858    0.013405110    0.002664558
      7        1          -0.000759756   -0.002112495   -0.001651441
      8        1          -0.000372227   -0.002216207    0.001653967
      9        1          -0.002174359    0.001096280    0.002320946
     10        1          -0.002649956    0.001172109   -0.002405601
     11        7          -0.000666707   -0.005720301   -0.000142707
     12        8           0.000003686   -0.000411023    0.010655571
     13        8           0.000008491   -0.000560059   -0.010685940
     14        7           0.016694224   -0.002394231   -0.006679332
     15        1           0.003936706   -0.000708418    0.000527544
     16        1          -0.000665032    0.000179051   -0.000388450
 -------------------------------------------------------------------
 Cartesian Forces:  Max     0.044555008 RMS     0.008214791

 GradGradGradGradGradGradGradGradGradGradGradGradGradGradGradGradGradGrad
 Berny optimization.
 Internal  Forces:  Max     0.012051015 RMS     0.004248358
 Search for a local minimum.
 Step number   1 out of a maximum of   82
 All quantities printed in internal units (Hartrees-Bohrs-Radians)
 Mixed Optimization -- RFO/linear search
 Second derivative matrix not updated -- first step.
     Eigenvalues ---    0.00979   0.00979   0.01836   0.02030   0.02053
     Eigenvalues ---    0.02151   0.02179   0.02227   0.02234   0.02273
     Eigenvalues ---    0.02277   0.02404   0.02988   0.16000   0.16000
     Eigenvalues ---    0.16000   0.16000   0.16000   0.16000   0.22000
     Eigenvalues ---    0.22701   0.23152   0.23696   0.25000   0.25000
     Eigenvalues ---    0.25000   0.35336   0.35336   0.35674   0.35674
     Eigenvalues ---    0.37742   0.41592   0.42599   0.45808   0.46149
     Eigenvalues ---    0.46431   0.46431   0.47592   0.48783   0.50139
     Eigenvalues ---    0.92658   0.926581000.000001000.000001000.00000
     Eigenvalues --- 1000.000001000.000001000.000001000.000001000.00000
     Eigenvalues --- 1000.000001000.000001000.000001000.000001000.00000
     Eigenvalues --- 1000.000001000.000001000.000001000.000001000.00000
     Eigenvalues --- 1000.000001000.000001000.000001000.000001000.00000
     Eigenvalues --- 1000.000001000.000001000.000001000.000001000.00000
     Eigenvalues --- 1000.000001000.00000
 RFO step:  Lambda=-1.56712857D-02 EMin= 9.79144978D-03
 Linear search not attempted -- first point.
 Maximum step size (   0.300) exceeded in Quadratic search.
    -- Step size scaled by   0.501
 Iteration  1 RMS(Cart)=  0.04414724 RMS(Int)=  0.00179532
 Iteration  2 RMS(Cart)=  0.00262337 RMS(Int)=  0.00083703
 Iteration  3 RMS(Cart)=  0.00000401 RMS(Int)=  0.00083702
 Iteration  4 RMS(Cart)=  0.00000000 RMS(Int)=  0.00083702
 Variable       Old X    -DE/DX   Delta X   Delta X   Delta X     New X
                                 (Linear)    (Quad)   (Total)
    R1        2.62925  -0.00232   0.00000  -0.00134  -0.00183   2.62743
    R2        2.61114  -0.01062   0.00000  -0.01053  -0.01053   2.60061
    R3        2.04594  -0.00251   0.00000  -0.00337  -0.00337   2.04257
    R4        2.62925  -0.00440   0.00000  -0.00352  -0.00400   2.62525
    R5        2.74742  -0.00669   0.00000  -0.00853  -0.00853   2.73889
    R6        2.61114  -0.00808   0.00000  -0.00808  -0.00807   2.60306
    R7        2.04594  -0.00256   0.00000  -0.00345  -0.00345   2.04250
    R8        2.65635  -0.00261   0.00000  -0.00391  -0.00344   2.65291
    R9        2.05132  -0.00255   0.00000  -0.00346  -0.00346   2.04786
   R10        2.65635   0.00267   0.00000   0.00185   0.00232   2.65867
   R11        2.59725  -0.00427   0.00000  -0.00413  -0.00413   2.59312
   R12        2.05132  -0.00266   0.00000  -0.00361  -0.00361   2.04771
   R13        2.31732  -0.00960   0.00000  -0.00510  -0.00510   2.31221
   R14        2.31732  -0.00970   0.00000  -0.00516  -0.00516   2.31216
   R15        1.90349  -0.00053   0.00000  -0.00055  -0.00055   1.90294
   R16        1.90349  -0.00055   0.00000  -0.00057  -0.00057   1.90292
    A1        2.08356  -0.00013   0.00000  -0.00072  -0.00067   2.08289
    A2        2.08485   0.00104   0.00000   0.00314   0.00310   2.08795
    A3        2.11478  -0.00091   0.00000  -0.00242  -0.00245   2.11233
    A4        2.11411  -0.00002   0.00000   0.00132   0.00091   2.11502
    A5        2.08454   0.00013   0.00000  -0.00044  -0.00024   2.08430
    A6        2.08454  -0.00011   0.00000  -0.00089  -0.00068   2.08385
    A7        2.08356   0.00070   0.00000   0.00083   0.00089   2.08444
    A8        2.08485   0.00072   0.00000   0.00263   0.00260   2.08745
    A9        2.11478  -0.00142   0.00000  -0.00346  -0.00349   2.11129
   A10        2.10521   0.00123   0.00000  -0.00224  -0.00125   2.10396
   A11        2.09042  -0.00039   0.00000   0.00176   0.00126   2.09167
   A12        2.08755  -0.00084   0.00000   0.00050   0.00000   2.08755
   A13        2.07472  -0.00332   0.00000   0.00222   0.00013   2.07485
   A14        2.10401  -0.00461   0.00000   0.00838   0.00404   2.10805
   A15        2.03430   0.01205   0.00000   0.04216   0.03845   2.07274
   A16        2.10521   0.00155   0.00000  -0.00136  -0.00034   2.10487
   A17        2.09042  -0.00059   0.00000   0.00123   0.00072   2.09113
   A18        2.08755  -0.00096   0.00000   0.00015  -0.00037   2.08718
   A19        2.05953   0.00367   0.00000   0.00692   0.00692   2.06645
   A20        2.05953   0.00341   0.00000   0.00643   0.00643   2.06596
   A21        2.16412  -0.00708   0.00000  -0.01335  -0.01335   2.15077
   A22        2.07376  -0.00122   0.00000  -0.00684  -0.00698   2.06679
   A23        2.07376   0.00031   0.00000  -0.00247  -0.00261   2.07116
   A24        2.01492  -0.00040   0.00000  -0.00501  -0.00517   2.00975
    D1        0.00048  -0.00125   0.00000  -0.01379  -0.01365  -0.01316
    D2       -3.13981  -0.00084   0.00000  -0.00923  -0.00913   3.13425
    D3        3.14140  -0.00050   0.00000  -0.00653  -0.00658   3.13482
    D4        0.00111  -0.00009   0.00000  -0.00198  -0.00205  -0.00094
    D5        0.00059  -0.00028   0.00000  -0.00419  -0.00434  -0.00376
    D6       -3.13705  -0.00011   0.00000  -0.00631  -0.00670   3.13944
    D7       -3.14032  -0.00105   0.00000  -0.01158  -0.01152   3.13135
    D8        0.00523  -0.00087   0.00000  -0.01369  -0.01387  -0.00864
    D9       -0.00048   0.00071   0.00000   0.01043   0.01052   0.01004
   D10       -3.14140   0.00112   0.00000   0.01125   0.01110  -3.13031
   D11        3.13981   0.00031   0.00000   0.00588   0.00600  -3.13738
   D12       -0.00111   0.00072   0.00000   0.00670   0.00658   0.00546
   D13        3.14078  -0.00020   0.00000  -0.00228  -0.00226   3.13851
   D14       -0.00046  -0.00019   0.00000  -0.00216  -0.00214  -0.00260
   D15        0.00046   0.00020   0.00000   0.00219   0.00218   0.00264
   D16       -3.14078   0.00020   0.00000   0.00232   0.00230  -3.13847
   D17       -0.00059   0.00135   0.00000   0.01091   0.01062   0.01003
   D18        3.13705   0.00193   0.00000   0.01614   0.01565  -3.13048
   D19        3.14032   0.00093   0.00000   0.01008   0.01004  -3.13283
   D20       -0.00523   0.00152   0.00000   0.01530   0.01507   0.00985
   D21        0.00162  -0.00283   0.00000  -0.02825  -0.02797  -0.02634
   D22        2.73623   0.01134   0.00000   0.12739   0.12599   2.86222
   D23       -3.13602  -0.00341   0.00000  -0.03347  -0.03299   3.11417
   D24       -0.40142   0.01076   0.00000   0.12216   0.12097  -0.28045
   D25       -0.00162   0.00228   0.00000   0.02485   0.02480   0.02318
   D26        3.13602   0.00211   0.00000   0.02696   0.02715  -3.12001
   D27       -2.75223  -0.00766   0.00000  -0.11733  -0.11832  -2.87055
   D28        0.38542  -0.00783   0.00000  -0.11522  -0.11597   0.26945
   D29        0.28145  -0.00202   0.00000  -0.03077  -0.03170   0.24975
   D30        2.89223  -0.00480   0.00000  -0.06127  -0.06213   2.83010
   D31        3.02509   0.00849   0.00000   0.11266   0.11352   3.13861
   D32       -0.64731   0.00571   0.00000   0.08216   0.08309  -0.56422
         Item               Value     Threshold  Converged?
 Maximum Force            0.012051     0.000015     NO 
 RMS     Force            0.004248     0.000010     NO 
 Maximum Displacement     0.203293     0.000060     NO 
 RMS     Displacement     0.043971     0.000040     NO 
 Predicted change in Energy=-6.621085D-03
 GradGradGradGradGradGradGradGradGradGradGradGradGradGradGradGradGradGrad

                          Input orientation:                          
 ---------------------------------------------------------------------
 Center     Atomic      Atomic             Coordinates (Angstroms)
 Number     Number       Type             X           Y           Z
 ---------------------------------------------------------------------
      1          6           0        0.181146    0.188107    0.003406
      2          6           0        0.187830    0.867351   -1.209740
      3          6           0        0.172386    0.181880   -2.417978
      4          6           0        0.138009   -1.195169   -2.414520
      5          6           0        0.106490   -1.905097   -1.203808
      6          6           0        0.143039   -1.187544    0.005808
      7          1           0        0.199877    0.746558    0.928656
      8          1           0        0.188659    0.735477   -3.346140
      9          1           0        0.136229   -1.736935   -3.353056
     10          1           0        0.139598   -1.724751    0.946867
     11          7           0        0.218681    2.316375   -1.214240
     12          8           0        0.227403    2.894917   -2.292358
     13          8           0        0.235240    2.900891   -0.139473
     14          7           0       -0.252060   -3.229338   -1.175330
     15          1           0       -0.279048   -3.737314   -2.044389
     16          1           0       -0.010346   -3.777976   -0.366269
 ---------------------------------------------------------------------
                    Distance matrix (angstroms):
                    1          2          3          4          5
     1  C    0.000000
     2  C    1.390374   0.000000
     3  C    2.421407   1.389225   0.000000
     4  C    2.785979   2.389134   1.377482   0.000000
     5  C    2.417528   2.773647   2.415373   1.403858   0.000000
     6  C    1.376181   2.387919   2.784048   2.420346   1.406907
     7  H    1.080882   2.141838   3.394049   3.866646   3.404026
     8  H    3.393984   2.140467   1.080842   2.144265   3.401319
     9  H    3.869579   3.373243   2.134838   1.083681   2.156023
    10  H    2.133277   3.372280   3.867622   3.402849   2.158477
    11  N    2.452263   1.449360   2.450958   3.711889   4.222976
    12  O    3.549576   2.298837   2.716500   4.092886   4.923382
    13  O    2.717082   2.298479   3.548035   4.686469   4.924114
    14  N    3.640881   4.120381   3.655234   2.413626   1.372218
    15  H    4.451311   4.702930   3.962757   2.602582   2.052373
    16  H    3.987875   4.725440   4.463560   3.299733   2.054945
                    6          7          8          9         10
     6  C    0.000000
     7  H    2.143742   0.000000
     8  H    3.864667   4.274825   0.000000
     9  H    3.403505   4.950237   2.472977   0.000000
    10  H    1.083603   2.472111   4.948236   4.299942   0.000000
    11  N    3.711023   2.656441   2.654269   4.583739   4.583376
    12  O    4.685634   3.871838   2.403152   4.752625   5.642838
    13  O    4.092054   2.404849   3.869613   5.643257   4.752457
    14  N    2.391675   4.520923   4.541630   2.668432   2.630759
    15  H    3.298907   5.401247   4.681790   2.426228   3.629502
    16  H    2.621509   4.710885   5.412069   3.620529   2.441832
                   11         12         13         14         15
    11  N    0.000000
    12  O    1.223571   0.000000
    13  O    1.223542   2.152907   0.000000
    14  N    5.565792   6.243727   6.236198   0.000000
    15  H    6.130582   6.656160   6.925240   1.006991   0.000000
    16  H    6.157323   6.949377   6.687228   1.006980   1.699982
                   16
    16  H    0.000000
 Stoichiometry    C6H6N2O2
 Framework group  C1[X(C6H6N2O2)]
 Deg. of freedom    42
 Full point group                 C1      NOp   1
 Largest Abelian subgroup         C1      NOp   1
 Largest concise Abelian subgroup C1      NOp   1
                         Standard orientation:                         
 ---------------------------------------------------------------------
 Center     Atomic      Atomic             Coordinates (Angstroms)
 Number     Number       Type             X           Y           Z
 ---------------------------------------------------------------------
      1          6           0        0.015899   -1.209806   -0.042916
      2          6           0        0.700286    0.000231   -0.019200
      3          6           0        0.020753    1.211592   -0.047224
      4          6           0       -1.356140    1.214489   -0.087409
      5          6           0       -2.072499    0.007159   -0.088000
      6          6           0       -1.359795   -1.205840   -0.079306
      7          1           0        0.570127   -2.137636   -0.026534
      8          1           0        0.578838    2.137164   -0.038387
      9          1           0       -1.892728    2.155437   -0.119883
     10          1           0       -1.900883   -2.144451   -0.100001
     11          7           0        2.148863   -0.001926    0.028394
     12          8           0        2.732163    1.073527    0.045333
     13          8           0        2.728287   -1.079374    0.049141
     14          7           0       -3.414318   -0.013417    0.198500
     15          1           0       -3.918860    0.858043    0.193391
     16          1           0       -3.952928   -0.821331   -0.068300
 ---------------------------------------------------------------------
 Rotational constants (GHZ):      3.9371071      0.8319975      0.6887541
 Basis read from rwf:  (5D, 7F)
 There are   430 symmetry adapted basis functions of A   symmetry.
 Integral buffers will be    131072 words long.
 Raffenetti 2 integral format.
 Two-electron integral symmetry is turned on.
   430 basis functions,   652 primitive gaussians,   490 cartesian basis functions
    36 alpha electrons       36 beta electrons
       nuclear repulsion energy       497.5974284635 Hartrees.
 NAtoms=   16 NActive=   16 NUniq=   16 SFac= 7.50D-01 NAtFMM=   80 NAOKFM=F Big=F
 ------------------------------------------------------------------------------
 Polarizable Continuum Model (PCM)
 =================================
 Model                : C-PCM.
 Atomic radii         : UFF (Universal Force Field).
 Polarization charges : Total charges.
 Charge compensation  : None.
 Solution method      : Matrix inversion.
 Cavity type          : Scaled VdW (van der Waals Surface) (Alpha=1.100).
 Cavity algorithm     : GePol (No added spheres)
                        Default sphere list used, NSphG=   16.
                        Lebedev-Laikov grids with approx.  5.0 points / Ang**2.
                        Smoothing algorithm: Karplus/York (Gamma=1.0000).
                        Polarization charges: spherical gaussians, with
                                              point-specific exponents (IZeta= 3).
                        Self-potential: point-specific (ISelfS= 7).
                        Self-field    : sphere-specific E.n sum rule (ISelfD= 2).
 1st derivatives      : Analytical E(r).r(x)/FMM algorithm (CHGder, D1EAlg=3).
                        Cavity 1st derivative terms included.
 Solvent              : Acetone, Eps=  20.493000 Eps(inf)=   1.846337
 ------------------------------------------------------------------------------
 Spheres list:
 ISph  on   Nord    Re0     Alpha      Xe            Ye            Ze
    1   C      1    1.926   1.100      0.015899     -1.209806     -0.042916
    2   C      2    1.926   1.100      0.700286      0.000231     -0.019200
    3   C      3    1.926   1.100      0.020753      1.211592     -0.047224
    4   C      4    1.926   1.100     -1.356140      1.214489     -0.087409
    5   C      5    1.926   1.100     -2.072499      0.007159     -0.088000
    6   C      6    1.926   1.100     -1.359795     -1.205840     -0.079306
    7   H      7    1.443   1.100      0.570127     -2.137636     -0.026534
    8   H      8    1.443   1.100      0.578838      2.137164     -0.038387
    9   H      9    1.443   1.100     -1.892728      2.155437     -0.119883
   10   H     10    1.443   1.100     -1.900883     -2.144451     -0.100001
   11   N     11    1.830   1.100      2.148863     -0.001926      0.028394
   12   O     12    1.750   1.100      2.732163      1.073527      0.045333
   13   O     13    1.750   1.100      2.728287     -1.079374      0.049141
   14   N     14    1.830   1.100     -3.414318     -0.013417      0.198500
   15   H     15    1.443   1.100     -3.918860      0.858043      0.193391
   16   H     16    1.443   1.100     -3.952928     -0.821331     -0.068300
 ------------------------------------------------------------------------------
 One-electron integrals computed using PRISM.
 NBasis=   430 RedAO= T  NBF=   430
 NBsUse=   429 1.00D-06 NBFU=   429
 Initial guess read from the read-write file.
 B after Tr=     0.000000    0.000000    0.000000
         Rot=    1.000000    0.000000    0.000000    0.000000 Ang=   0.00 deg.
 Initial guess orbital symmetries:
       Occupied  (A) (A) (A) (A) (A) (A) (A) (A) (A) (A) (A) (A)
                 (A) (A) (A) (A) (A) (A) (A) (A) (A) (A) (A) (A)
                 (A) (A) (A) (A) (A) (A) (A) (A) (A) (A) (A) (A)
       Virtual   (A) (A) (A) (A) (A) (A) (A) (A) (A) (A) (A) (A)
                 (A) (A) (A) (A) (A) (A) (A) (A) (A) (A) (A) (A)
                 (A) (A) (A) (A) (A) (A) (A) (A) (A) (A) (A) (A)
                 (A) (A) (A) (A) (A) (A) (A) (A) (A) (A) (A) (A)
                 (A) (A) (A) (A) (A) (A) (A) (A) (A) (A) (A) (A)
                 (A) (A) (A) (A) (A) (A) (A) (A) (A) (A) (A) (A)
                 (A) (A) (A) (A) (A) (A) (A) (A) (A) (A) (A) (A)
                 (A) (A) (A) (A) (A) (A) (A) (A) (A) (A) (A) (A)
                 (A) (A) (A) (A) (A) (A) (A) (A) (A) (A) (A) (A)
                 (A) (A) (A) (A) (A) (A) (A) (A) (A) (A) (A) (A)
                 (A) (A) (A) (A) (A) (A) (A) (A) (A) (A) (A) (A)
                 (A) (A) (A) (A) (A) (A) (A) (A) (A) (A) (A) (A)
                 (A) (A) (A) (A) (A) (A) (A) (A) (A) (A) (A) (A)
                 (A) (A) (A) (A) (A) (A) (A) (A) (A) (A) (A) (A)
                 (A) (A) (A) (A) (A) (A) (A) (A) (A) (A) (A) (A)
                 (A) (A) (A) (A) (A) (A) (A) (A) (A) (A) (A) (A)
                 (A) (A) (A) (A) (A) (A) (A) (A) (A) (A) (A) (A)
                 (A) (A) (A) (A) (A) (A) (A) (A) (A) (A) (A) (A)
                 (A) (A) (A) (A) (A) (A) (A) (A) (A) (A) (A) (A)
                 (A) (A) (A) (A) (A) (A) (A) (A) (A) (A) (A) (A)
                 (A) (A) (A) (A) (A) (A) (A) (A) (A) (A) (A) (A)
                 (A) (A) (A) (A) (A) (A) (A) (A) (A) (A) (A) (A)
                 (A) (A) (A) (A) (A) (A) (A) (A) (A) (A) (A) (A)
                 (A) (A) (A) (A) (A) (A) (A) (A) (A) (A) (A) (A)
                 (A) (A) (A) (A) (A) (A) (A) (A) (A) (A) (A) (A)
                 (A) (A) (A) (A) (A) (A) (A) (A) (A) (A) (A) (A)
                 (A) (A) (A) (A) (A) (A) (A) (A) (A) (A) (A) (A)
                 (A) (A) (A) (A) (A) (A) (A) (A) (A) (A) (A) (A)
                 (A) (A) (A) (A) (A) (A) (A) (A) (A) (A) (A) (A)
                 (A) (A) (A) (A) (A) (A) (A) (A) (A) (A) (A) (A)
                 (A) (A) (A) (A) (A) (A) (A) (A) (A) (A) (A) (A)
                 (A) (A) (A) (A) (A) (A) (A) (A) (A) (A) (A) (A)
                 (A) (A) (A) (A) (A) (A) (A) (A) (A)
 Harris functional with IExCor=20419 diagonalized for initial guess.
 ExpMin= 4.85D-02 ExpMax= 2.70D+04 ExpMxC= 9.22D+02 IAcc=3 IRadAn=         5 AccDes= 0.00D+00
 HarFok:  IExCor=20419 AccDes= 0.00D+00 IRadAn=         5 IDoV= 1
 ScaDFX=  1.000000  1.000000  1.000000  1.000000
 FoFCou: FMM=F IPFlag=           0 FMFlag=      100000 FMFlg1=           0
         NFxFlg=           0 DoJE=T BraDBF=F KetDBF=T FulRan=T
         Omega=  0.000000  0.000000  1.000000  0.000000  0.000000 ICntrl=     500 IOpCl=  0
         NMat0=    1 NMatS0=    1 NMatT0=    0 NMatD0=    1 NMtDS0=    0 NMtDT0=    0
         I1Cent=           4 NGrid=           0.
 Petite list used in FoFCou.
 FoFJK:  IHMeth= 1 ICntrl=     0 DoSepK=T KAlg= 1 I1Cent= 0 FoldK=F
 Gradient too large for Newton-Raphson -- use scaled steepest descent instead.
 FoFJK:  IHMeth= 1 ICntrl=     0 DoSepK=T KAlg= 1 I1Cent= 0 FoldK=F
 FoFJK:  IHMeth= 1 ICntrl=     0 DoSepK=T KAlg= 1 I1Cent= 0 FoldK=F
 FoFJK:  IHMeth= 1 ICntrl=     0 DoSepK=T KAlg= 1 I1Cent= 0 FoldK=F
 FoFJK:  IHMeth= 1 ICntrl=     0 DoSepK=T KAlg= 1 I1Cent= 0 FoldK=F
 FoFJK:  IHMeth= 1 ICntrl=     0 DoSepK=T KAlg= 1 I1Cent= 0 FoldK=F
 FoFJK:  IHMeth= 1 ICntrl=     0 DoSepK=T KAlg= 1 I1Cent= 0 FoldK=F
 FoFJK:  IHMeth= 1 ICntrl=     0 DoSepK=T KAlg= 1 I1Cent= 0 FoldK=F
 Gradient too large for Newton-Raphson -- use scaled steepest descent instead.
 FoFJK:  IHMeth= 1 ICntrl=     0 DoSepK=T KAlg= 1 I1Cent= 0 FoldK=F
 FoFJK:  IHMeth= 1 ICntrl=     0 DoSepK=T KAlg= 1 I1Cent= 0 FoldK=F
 FoFJK:  IHMeth= 1 ICntrl=     0 DoSepK=T KAlg= 1 I1Cent= 0 FoldK=F
 LinEq1:  Iter=  0 NonCon=     1 RMS=3.73D-05 Max=1.37D-03
 AX will form     1 AO Fock derivatives at one time.
 FoFJK:  IHMeth= 1 ICntrl=     0 DoSepK=T KAlg= 1 I1Cent= 0 FoldK=F
 LinEq1:  Iter=  1 NonCon=     1 RMS=2.97D-05 Max=1.08D-03
 FoFJK:  IHMeth= 1 ICntrl=     0 DoSepK=T KAlg= 1 I1Cent= 0 FoldK=F
 LinEq1:  Iter=  2 NonCon=     1 RMS=1.20D-05 Max=5.44D-04
 FoFJK:  IHMeth= 1 ICntrl=     0 DoSepK=T KAlg= 1 I1Cent= 0 FoldK=F
 LinEq1:  Iter=  3 NonCon=     1 RMS=7.07D-06 Max=4.23D-04
 FoFJK:  IHMeth= 1 ICntrl=     0 DoSepK=T KAlg= 1 I1Cent= 0 FoldK=F
 LinEq1:  Iter=  4 NonCon=     1 RMS=5.86D-06 Max=2.66D-04
 FoFJK:  IHMeth= 1 ICntrl=     0 DoSepK=T KAlg= 1 I1Cent= 0 FoldK=F
 LinEq1:  Iter=  5 NonCon=     1 RMS=2.84D-06 Max=1.08D-04
 FoFJK:  IHMeth= 1 ICntrl=     0 DoSepK=T KAlg= 1 I1Cent= 0 FoldK=F
 LinEq1:  Iter=  6 NonCon=     1 RMS=1.78D-06 Max=7.37D-05
 FoFJK:  IHMeth= 1 ICntrl=     0 DoSepK=T KAlg= 1 I1Cent= 0 FoldK=F
 LinEq1:  Iter=  7 NonCon=     1 RMS=7.24D-07 Max=2.03D-05
 FoFJK:  IHMeth= 1 ICntrl=     0 DoSepK=T KAlg= 1 I1Cent= 0 FoldK=F
 LinEq1:  Iter=  8 NonCon=     1 RMS=3.28D-07 Max=6.80D-06
 FoFJK:  IHMeth= 1 ICntrl=     0 DoSepK=T KAlg= 1 I1Cent= 0 FoldK=F
 LinEq1:  Iter=  9 NonCon=     1 RMS=1.10D-07 Max=5.84D-06
 FoFJK:  IHMeth= 1 ICntrl=     0 DoSepK=T KAlg= 1 I1Cent= 0 FoldK=F
 LinEq1:  Iter= 10 NonCon=     1 RMS=5.62D-08 Max=2.19D-06
 FoFJK:  IHMeth= 1 ICntrl=     0 DoSepK=T KAlg= 1 I1Cent= 0 FoldK=F
 LinEq1:  Iter= 11 NonCon=     1 RMS=2.08D-08 Max=4.82D-07
 FoFJK:  IHMeth= 1 ICntrl=     0 DoSepK=T KAlg= 1 I1Cent= 0 FoldK=F
 LinEq1:  Iter= 12 NonCon=     1 RMS=7.94D-09 Max=2.82D-07
 FoFJK:  IHMeth= 1 ICntrl=     0 DoSepK=T KAlg= 1 I1Cent= 0 FoldK=F
 LinEq1:  Iter= 13 NonCon=     0 RMS=3.56D-09 Max=1.50D-07
 Linear equations converged to 1.682D-08 1.682D-07 after    13 iterations.
 FoFJK:  IHMeth= 1 ICntrl=     0 DoSepK=T KAlg= 1 I1Cent= 0 FoldK=F
 FoFJK:  IHMeth= 1 ICntrl=     0 DoSepK=T KAlg= 1 I1Cent= 0 FoldK=F
 FoFJK:  IHMeth= 1 ICntrl=     0 DoSepK=T KAlg= 1 I1Cent= 0 FoldK=F
 LinEq1:  Iter=  0 NonCon=     1 RMS=4.83D-08 Max=1.86D-06
 FoFJK:  IHMeth= 1 ICntrl=     0 DoSepK=T KAlg= 1 I1Cent= 0 FoldK=F
 LinEq1:  Iter=  1 NonCon=     1 RMS=3.78D-08 Max=1.83D-06
 FoFJK:  IHMeth= 1 ICntrl=     0 DoSepK=T KAlg= 1 I1Cent= 0 FoldK=F
 LinEq1:  Iter=  2 NonCon=     1 RMS=1.28D-08 Max=6.10D-07
 FoFJK:  IHMeth= 1 ICntrl=     0 DoSepK=T KAlg= 1 I1Cent= 0 FoldK=F
 LinEq1:  Iter=  3 NonCon=     1 RMS=1.09D-08 Max=4.77D-07
 FoFJK:  IHMeth= 1 ICntrl=     0 DoSepK=T KAlg= 1 I1Cent= 0 FoldK=F
 LinEq1:  Iter=  4 NonCon=     1 RMS=5.35D-09 Max=2.95D-07
 FoFJK:  IHMeth= 1 ICntrl=     0 DoSepK=T KAlg= 1 I1Cent= 0 FoldK=F
 LinEq1:  Iter=  5 NonCon=     1 RMS=3.72D-09 Max=1.09D-07
 FoFJK:  IHMeth= 1 ICntrl=     0 DoSepK=T KAlg= 1 I1Cent= 0 FoldK=F
 LinEq1:  Iter=  6 NonCon=     1 RMS=1.54D-09 Max=3.79D-08
 FoFJK:  IHMeth= 1 ICntrl=     0 DoSepK=T KAlg= 1 I1Cent= 0 FoldK=F
 LinEq1:  Iter=  7 NonCon=     1 RMS=8.56D-10 Max=2.69D-08
 FoFJK:  IHMeth= 1 ICntrl=     0 DoSepK=T KAlg= 1 I1Cent= 0 FoldK=F
 LinEq1:  Iter=  8 NonCon=     1 RMS=3.37D-10 Max=1.66D-08
 FoFJK:  IHMeth= 1 ICntrl=     0 DoSepK=T KAlg= 1 I1Cent= 0 FoldK=F
 LinEq1:  Iter=  9 NonCon=     1 RMS=1.50D-10 Max=7.54D-09
 FoFJK:  IHMeth= 1 ICntrl=     0 DoSepK=T KAlg= 1 I1Cent= 0 FoldK=F
 LinEq1:  Iter= 10 NonCon=     1 RMS=8.86D-11 Max=4.15D-09
 FoFJK:  IHMeth= 1 ICntrl=     0 DoSepK=T KAlg= 1 I1Cent= 0 FoldK=F
 LinEq1:  Iter= 11 NonCon=     1 RMS=2.99D-11 Max=9.83D-10
 FoFJK:  IHMeth= 1 ICntrl=     0 DoSepK=T KAlg= 1 I1Cent= 0 FoldK=F
 LinEq1:  Iter= 12 NonCon=     0 RMS=1.46D-11 Max=3.50D-10
 Linear equations converged to 6.574D-11 6.574D-10 after    12 iterations.
 FoFJK:  IHMeth= 1 ICntrl=     0 DoSepK=T KAlg= 1 I1Cent= 0 FoldK=F
 Error on total polarization charges =  0.01354
 SCF Done:  E(RCAM-B3LYP) =  -492.097369088     a.u. after    5 cycles
            Convg  =    0.1415D-08                    40 Fock formations.
              S**2 =  0.0000                  -V/T =  2.0042
 D1PCM: C-PCM CHGder 1st derivatives, ID1Alg=3 FixD1E=F DoIter=F DoCFld=F I1PDM=0.
 Calling FoFJK, ICntrl=      2127 FMM=F ISym2X=0 I1Cent= 0 IOpClX= 0 NMat=1 NMatS=1 NMatT=0.
 FoFJK:  IHMeth= 1 ICntrl=  2127 DoSepK=T KAlg= 1 I1Cent= 0 FoldK=F
 ***** Axes restored to original set *****
 -------------------------------------------------------------------
 Center     Atomic                   Forces (Hartrees/Bohr)
 Number     Number              X              Y              Z
 -------------------------------------------------------------------
      1        6           0.002924129   -0.003351154   -0.000588162
      2        6           0.000021183    0.003407911   -0.000713210
      3        6           0.002475917   -0.002143943    0.001258945
      4        6           0.004551756    0.001540564   -0.000563756
      5        6          -0.026481299   -0.000972659    0.003854214
      6        6           0.007749780    0.004593870   -0.000063755
      7        1          -0.000193600   -0.001128403   -0.000800429
      8        1          -0.000071861   -0.001130138    0.000776006
      9        1          -0.001961062    0.000555356    0.001186694
     10        1          -0.002137702    0.000490060   -0.001208585
     11        7          -0.000203966   -0.002692178   -0.000052374
     12        8          -0.000063354   -0.000880887    0.004766275
     13        8          -0.000076180   -0.000940158   -0.004726482
     14        7           0.011849504    0.002643866   -0.003641801
     15        1           0.002637456   -0.000251370    0.000468979
     16        1          -0.001020698    0.000259263    0.000047441
 -------------------------------------------------------------------
 Cartesian Forces:  Max     0.026481299 RMS     0.004797786

 GradGradGradGradGradGradGradGradGradGradGradGradGradGradGradGradGradGrad
 Berny optimization.
 Using GEDIIS/GDIIS optimizer.
 Internal  Forces:  Max     0.006324155 RMS     0.002332562
 Search for a local minimum.
 Step number   2 out of a maximum of   82
 All quantities printed in internal units (Hartrees-Bohrs-Radians)
 Mixed Optimization -- RFO/linear search
 Update second derivatives using D2CorX and points    1    2
 DE= -6.15D-03 DEPred=-6.62D-03 R= 9.29D-01
 SS=  1.41D+00  RLast= 3.00D-01 DXNew= 5.0454D-01 8.9925D-01
 Trust test= 9.29D-01 RLast= 3.00D-01 DXMaxT set to 5.05D-01
 Use linear search instead of GDIIS.
     Eigenvalues ---    0.00979   0.00979   0.01829   0.01933   0.02043
     Eigenvalues ---    0.02151   0.02179   0.02230   0.02233   0.02270
     Eigenvalues ---    0.02273   0.03016   0.03374   0.15976   0.16000
     Eigenvalues ---    0.16000   0.16000   0.16000   0.16003   0.22008
     Eigenvalues ---    0.22949   0.23743   0.23996   0.25000   0.25000
     Eigenvalues ---    0.25380   0.35296   0.35337   0.35642   0.35674
     Eigenvalues ---    0.37456   0.41823   0.42685   0.45893   0.45977
     Eigenvalues ---    0.46428   0.46431   0.47613   0.48225   0.50665
     Eigenvalues ---    0.92365   0.926581000.000001000.000001000.00000
     Eigenvalues --- 1000.000001000.000001000.000001000.000001000.00000
     Eigenvalues --- 1000.000001000.000001000.000001000.000001000.00000
     Eigenvalues --- 1000.000001000.000001000.000001000.000001000.00000
     Eigenvalues --- 1000.000001000.000001000.000001000.000001000.00000
     Eigenvalues --- 1000.000001000.000001000.000001000.000001000.00000
     Eigenvalues --- 1000.000001000.00000
 RFO step:  Lambda=-1.48304714D-03 EMin= 9.78997870D-03
 Quartic linear search produced a step of  1.52794.
 Iteration  1 RMS(Cart)=  0.08171189 RMS(Int)=  0.01127405
 Iteration  2 RMS(Cart)=  0.01764422 RMS(Int)=  0.00313075
 Iteration  3 RMS(Cart)=  0.00030285 RMS(Int)=  0.00312403
 Iteration  4 RMS(Cart)=  0.00000089 RMS(Int)=  0.00312403
 Variable       Old X    -DE/DX   Delta X   Delta X   Delta X     New X
                                 (Linear)    (Quad)   (Total)
    R1        2.62743  -0.00120  -0.00279   0.00130  -0.00328   2.62415
    R2        2.60061  -0.00471  -0.01610   0.00749  -0.00861   2.59200
    R3        2.04257  -0.00127  -0.00515   0.00131  -0.00384   2.03873
    R4        2.62525  -0.00208  -0.00611   0.00314  -0.00474   2.62051
    R5        2.73889  -0.00452  -0.01303  -0.00417  -0.01720   2.72169
    R6        2.60306  -0.00402  -0.01234   0.00365  -0.00868   2.59438
    R7        2.04250  -0.00125  -0.00526   0.00171  -0.00355   2.03894
    R8        2.65291  -0.00151  -0.00526  -0.00045  -0.00395   2.64896
    R9        2.04786  -0.00130  -0.00529   0.00128  -0.00400   2.04386
   R10        2.65867  -0.00089   0.00355  -0.01438  -0.00907   2.64960
   R11        2.59312  -0.00614  -0.00632  -0.01835  -0.02467   2.56845
   R12        2.04771  -0.00129  -0.00551   0.00185  -0.00366   2.04405
   R13        2.31221  -0.00461  -0.00780   0.00267  -0.00512   2.30709
   R14        2.31216  -0.00460  -0.00788   0.00286  -0.00502   2.30714
   R15        1.90294  -0.00035  -0.00084  -0.00024  -0.00108   1.90186
   R16        1.90292  -0.00035  -0.00087  -0.00015  -0.00102   1.90190
    A1        2.08289   0.00032  -0.00102   0.00505   0.00433   2.08722
    A2        2.08795   0.00041   0.00474  -0.00245   0.00213   2.09008
    A3        2.11233  -0.00073  -0.00375  -0.00253  -0.00644   2.10588
    A4        2.11502  -0.00061   0.00139  -0.00415  -0.00423   2.11079
    A5        2.08430   0.00031  -0.00036   0.00146   0.00183   2.08612
    A6        2.08385   0.00030  -0.00105   0.00274   0.00241   2.08627
    A7        2.08444   0.00025   0.00136  -0.00057   0.00109   2.08554
    A8        2.08745   0.00046   0.00397  -0.00018   0.00364   2.09109
    A9        2.11129  -0.00071  -0.00533   0.00075  -0.00474   2.10655
   A10        2.10396   0.00067  -0.00191  -0.00182   0.00007   2.10404
   A11        2.09167  -0.00016   0.00192   0.00156   0.00156   2.09323
   A12        2.08755  -0.00050   0.00000   0.00026  -0.00169   2.08585
   A13        2.07485  -0.00123   0.00020   0.00860   0.00137   2.07622
   A14        2.10805  -0.00269   0.00617   0.00571  -0.00407   2.10398
   A15        2.07274   0.00537   0.05874  -0.01289   0.03007   2.10282
   A16        2.10487   0.00058  -0.00053  -0.00570  -0.00240   2.10247
   A17        2.09113  -0.00004   0.00109   0.00497   0.00411   2.09525
   A18        2.08718  -0.00053  -0.00056   0.00073  -0.00176   2.08542
   A19        2.06645   0.00117   0.01057  -0.00966   0.00082   2.06727
   A20        2.06596   0.00108   0.00982  -0.00906   0.00067   2.06663
   A21        2.15077  -0.00224  -0.02039   0.01873  -0.00175   2.14902
   A22        2.06679  -0.00074  -0.01066   0.00184  -0.00915   2.05764
   A23        2.07116   0.00024  -0.00399   0.00325  -0.00107   2.07008
   A24        2.00975  -0.00018  -0.00790   0.00356  -0.00473   2.00502
    D1       -0.01316  -0.00046  -0.02085   0.02104   0.00066  -0.01250
    D2        3.13425  -0.00031  -0.01394   0.01152  -0.00205   3.13221
    D3        3.13482  -0.00026  -0.01005   0.00721  -0.00302   3.13181
    D4       -0.00094  -0.00011  -0.00314  -0.00231  -0.00573  -0.00667
    D5       -0.00376  -0.00010  -0.00664   0.01574   0.00860   0.00485
    D6        3.13944  -0.00015  -0.01023   0.00826  -0.00328   3.13615
    D7        3.13135  -0.00030  -0.01760   0.02977   0.01235  -3.13949
    D8       -0.00864  -0.00035  -0.02119   0.02229   0.00047  -0.00818
    D9        0.01004   0.00028   0.01608  -0.01829  -0.00192   0.00812
   D10       -3.13031   0.00046   0.01696  -0.01443   0.00201  -3.12829
   D11       -3.13738   0.00013   0.00917  -0.00877   0.00079  -3.13659
   D12        0.00546   0.00031   0.01005  -0.00491   0.00472   0.01019
   D13        3.13851  -0.00001  -0.00346   0.01953   0.01612  -3.12855
   D14       -0.00260  -0.00012  -0.00327  -0.00498  -0.00819  -0.01079
   D15        0.00264   0.00014   0.00332   0.01020   0.01347   0.01611
   D16       -3.13847   0.00004   0.00351  -0.01431  -0.01084   3.13387
   D17        0.01003   0.00047   0.01622  -0.02140  -0.00616   0.00387
   D18       -3.13048   0.00074   0.02392  -0.01764   0.00465  -3.12583
   D19       -3.13283   0.00028   0.01534  -0.02532  -0.01012   3.14024
   D20        0.00985   0.00056   0.02303  -0.02155   0.00069   0.01054
   D21       -0.02634  -0.00099  -0.04273   0.05669   0.01509  -0.01126
   D22        2.86222   0.00632   0.19251   0.06121   0.24885   3.11107
   D23        3.11417  -0.00126  -0.05041   0.05294   0.00432   3.11849
   D24       -0.28045   0.00605   0.18483   0.05746   0.23809  -0.04237
   D25        0.02318   0.00080   0.03790  -0.05392  -0.01634   0.00684
[...]
 ! D10   D(1,2,3,8)           -179.9461         -DE/DX =    0.0                 !
 ! D11   D(11,2,3,4)           179.9127         -DE/DX =    0.0                 !
 ! D12   D(11,2,3,8)            -0.0224         -DE/DX =    0.0                 !
 ! D13   D(1,2,11,12)          179.9594         -DE/DX =    0.0                 !
 ! D14   D(1,2,11,13)           -0.0351         -DE/DX =    0.0                 !
 ! D15   D(3,2,11,12)            0.0348         -DE/DX =    0.0                 !
 ! D16   D(3,2,11,13)         -179.9597         -DE/DX =    0.0                 !
 ! D17   D(2,3,4,5)             -0.0319         -DE/DX =    0.0                 !
 ! D18   D(2,3,4,9)            179.9542         -DE/DX =    0.0                 !
 ! D19   D(8,3,4,5)            179.9026         -DE/DX =    0.0                 !
 ! D20   D(8,3,4,9)             -0.1113         -DE/DX =    0.0                 !
 ! D21   D(3,4,5,6)              0.0733         -DE/DX =    0.0                 !
 ! D22   D(3,4,5,14)           178.8499         -DE/DX =    0.0                 !
 ! D23   D(9,4,5,6)           -179.9129         -DE/DX =    0.0                 !
 ! D24   D(9,4,5,14)            -1.1363         -DE/DX =    0.0                 !
 ! D25   D(4,5,6,1)             -0.0733         -DE/DX =    0.0                 !
 ! D26   D(4,5,6,10)           179.9129         -DE/DX =    0.0                 !
 ! D27   D(14,5,6,1)          -178.8499         -DE/DX =    0.0                 !
 ! D28   D(14,5,6,10)            1.1363         -DE/DX =    0.0                 !
 ! D29   D(4,5,14,15)           10.739          -DE/DX =    0.0                 !
 ! D30   D(4,5,14,16)          170.5088         -DE/DX =    0.0                 !
 ! D31   D(6,5,14,15)         -170.5086         -DE/DX =    0.0                 !
 ! D32   D(6,5,14,16)          -10.7388         -DE/DX =    0.0                 !
 --------------------------------------------------------------------------------
 GradGradGradGradGradGradGradGradGradGradGradGradGradGradGradGradGradGrad

 1\1\GINC-DLT21\Freq\RCAM-B3LYP\Gen\C6H6N2O2\MATHEUSMAXIMO\26-Mar-2023\
 0\\#N Geom=AllCheck Guess=TCheck SCRF=Check GenChk RCAM-B3LYP/ChkBas F
 req\\NA CAM-B3LYP def2-TZVPD - solvent CPCM acetone\\0,1\C,0.151544192
 6,0.1891560276,0.0006388431\C,0.184735127,0.8720903254,-1.2093214879\C
 ,0.1257375547,0.1842918432,-2.415537173\C,0.0339415326,-1.1839054259,-
 2.4126108665\C,-0.0003307271,-1.8965936329,-1.2017710289\C,0.059765873
 7,-1.179037538,0.0051819253\H,0.1992471342,0.7397226685,0.9276007524\H
 ,0.1536066322,0.7311195838,-3.3455157796\H,-0.0130076577,-1.7237910484
 ,-3.3489233713\H,0.0328501406,-1.7151478216,0.944449254\N,0.2828820124
 ,2.3066260321,-1.2132572047\O,0.3114566951,2.8887586144,-2.2874270974\
 O,0.3343629024,2.8930760113,-0.1422941219\N,-0.1142919934,-3.246012880
 6,-1.1978368654\H,-0.013816647,-3.7631821465,-2.0533343761\H,0.0044519
 877,-3.7597373224,-0.3426045221\\Version=EM64L-G09RevA.02\State=1-A\HF
 =-492.1015727\RMSD=0.000e+00\RMSF=2.246e-06\ZeroPoint=0.1204559\Therma
 l=0.1288161\Dipole=-0.0626225,-3.9261682,0.0085726\DipoleDeriv=-0.0397
 232,0.0701293,-0.0090717,0.0786289,1.0556551,-0.1628529,-0.0390754,-0.
 5903552,0.1199668,-0.0550095,-0.142321,-0.0019976,-0.1537268,-2.155014
 7,0.0054381,-0.0019747,0.0053143,-0.2688644,-0.0386292,0.0827236,0.012
 1198,0.0822128,1.0586698,0.1573538,0.0421077,0.5849429,0.1158627,-0.25
 95817,-0.0353953,0.0061919,-0.0674447,-1.1355872,0.0361221,0.077744,0.
 9418179,-0.0416619,0.226348,0.2923733,-0.0003121,0.2557885,3.247419,-0
 .0087629,-0.0002387,-0.0091557,0.2522405,-0.2612688,-0.0554697,-0.0012
 752,-0.0684566,-1.1394987,-0.0302467,-0.0727363,-0.936421,-0.0360586,0
 .1681632,-0.0035236,-0.0043097,-0.0018973,0.1426006,-0.0473511,-0.0039
 247,-0.0382459,0.0617983,0.1682907,-0.0026959,0.0020434,-0.0008777,0.1
 429439,0.0470537,0.0016513,0.0379855,0.0613271,0.1807425,-0.0105345,-0
 .0056191,-0.011649,0.0082899,-0.0817803,-0.0072693,-0.0849725,-0.01442
 09,0.1809294,-0.008704,0.001477,-0.0098796,0.0089617,0.0819158,0.00313
 19,0.0850835,-0.01528,0.347121,0.2581013,0.0212936,0.2694377,4.1314423
 ,-0.0063835,0.0212705,-0.006262,2.3896962,-0.3415875,-0.0715434,0.0301
 533,-0.0774591,-1.5289057,0.6035829,0.0551339,0.9319952,-1.4039788,-0.
 3438849,-0.0915901,-0.0524012,-0.0905914,-1.5350777,-0.6012557,-0.0773
 719,-0.929721,-1.3955088,-0.692704,-0.5655704,0.0061155,-0.2214297,-2.
 8341725,0.0076151,0.0054225,0.0112898,-0.2267531,0.3810159,0.1437908,0
 .0282516,0.0093673,0.2665817,0.0597021,0.025548,0.1592496,0.199754,0.3
 79778,0.1402297,-0.0326596,0.0079767,0.2656923,-0.0601505,-0.029419,-0
 .1625454,0.2018809\Polar=73.8244692,11.3865902,229.8770142,0.6634291,-
 0.3063882,138.0828024\PG=C01 [X(C6H6N2O2)]\NImag=0\\0.15181850,0.03994
 697,0.73198034,0.00937968,0.04459966,0.73332504,-0.06554802,-0.0044868
 5,0.00430669,0.13741621,-0.00382848,-0.13800721,0.09904322,0.02970080,
 0.57364628,0.00073100,0.04586206,-0.29029316,0.00658302,0.00005711,0.7
 5929708,0.00911485,0.00310141,-0.00210534,-0.06575757,-0.00596227,-0.0
 0550206,0.15167988,0.00266267,0.05212881,-0.02105040,-0.00549891,-0.13
 859287,-0.04636626,0.03897226,0.73161657,0.00063572,0.02054083,-0.0591
 2984,-0.00907733,-0.09954950,-0.28949875,0.00289169,-0.04543472,0.7338
 2714,-0.00300178,-0.00219721,0.00184537,0.00856730,-0.00379309,-0.0043
 7806,-0.06330138,-0.02231412,0.00132265,0.13209669,-0.00223463,-0.0409
 1593,0.03091705,-0.00459107,-0.04851047,-0.07343784,-0.02124335,-0.380
 37424,0.03375867,0.04269056,0.74614359,0.00099012,0.01652054,-0.014674
 82,-0.00076795,-0.01429031,0.03094642,-0.00313350,-0.03716929,-0.13562
 132,0.00930239,0.04909452,0.69974921,0.00118198,-0.00467905,-0.0014649
 9,-0.00733541,0.00431400,-0.00071677,0.00133325,-0.00298203,0.00239468
 ,-0.07367233,-0.00382576,0.00188647,0.17947364,-0.00288135,-0.04329101
 ,-0.02789337,0.00273970,0.03405762,-0.00024602,-0.00226040,-0.04285958
 ,0.02829909,-0.00359120,-0.14741960,0.08240351,0.03118809,0.72828831,-
 0.00468636,-0.07886093,0.04434199,-0.00071358,-0.00026292,-0.07362087,
 0.00561095,0.07929364,0.04375920,-0.00020966,0.02784150,-0.26922387,0.
 00537831,-0.00041295,0.68885350,-0.06329375,-0.02151287,-0.00277984,0.
 00868768,-0.00346493,0.00486444,-0.00306742,-0.00255636,-0.00208174,0.
 00762402,0.00326450,-0.00126599,-0.07379701,-0.00536325,-0.00394268,0.
 13195481,-0.02193936,-0.38035597,-0.03231210,-0.00301397,-0.04815560,0
 .07383730,-0.00289782,-0.04110629,-0.03075567,0.00304482,0.05546264,-0
 .01065027,-0.00444069,-0.14786489,-0.02824118,0.04161671,0.74574504,0.
 00167503,0.03862265,-0.13564839,0.00125500,0.01468615,0.03047117,-0.00
 122574,-0.01636320,-0.01441882,0.00021230,0.01019405,-0.04109943,-0.00
 604016,-0.08279588,-0.26865288,0.00266276,-0.05018024,0.70028976,-0.04
 262493,-0.00742948,-0.01124493,0.00557372,0.00031022,0.00057151,0.0046
 1384,-0.00037648,0.00014909,-0.00122961,0.00002097,0.00007656,0.008966
 87,-0.00095584,-0.00003512,0.00594510,-0.00101269,-0.00178293,0.028123
 13,-0.00742841,-0.13112158,-0.12650863,0.00064252,0.01308265,0.0120403
 7,-0.00039392,-0.00160413,0.00333060,0.00003650,-0.00073082,0.00045351
 ,-0.00097068,-0.00475637,0.00094848,-0.00140326,-0.01009331,-0.0266048
 0,0.00891123,0.13639516,-0.01114057,-0.12527637,-0.27830866,-0.0012857
 0,-0.01508196,-0.01821243,0.00017976,0.00392612,-0.00306824,0.00005389
 ,0.00048876,0.00052400,0.00004509,0.00161841,0.00117150,0.00014587,0.0
 0214673,0.00615962,0.01223473,0.13715087,0.29006146,0.00460337,-0.0004
 6125,-0.00031099,0.00557809,0.00062765,-0.00108177,-0.04225400,-0.0047
 2316,0.00621542,0.00598023,-0.00105042,0.00178986,0.00896317,-0.000990
 13,-0.00012731,-0.00123160,0.00001035,-0.00003908,0.00068815,0.0000025
 6,-0.00006840,0.02771956,-0.00046608,-0.00163334,-0.00332717,0.0003880
 0,0.01309436,-0.01217746,-0.00469617,-0.13010959,0.12604052,-0.0008345
 5,-0.00999448,0.02669369,-0.00099098,-0.00476653,-0.00090361,0.0000267
 1,-0.00073460,-0.00044912,-0.00001345,0.00060201,-0.00076234,0.0059483
 5,0.13529247,-0.00034162,-0.00392293,-0.00302854,0.00077523,0.01494587
 ,-0.01822849,0.00611103,0.12480859,-0.27969167,-0.00013859,-0.00205972
 ,0.00602564,-0.00020749,-0.00157371,0.00118534,-0.00001647,-0.00048402
 ,0.00052977,0.00003695,0.00075687,-0.00078476,-0.00664812,-0.13668546,
 0.29156779,-0.00081355,0.00003473,0.00003073,0.00769066,-0.00077832,0.
 00008527,0.00279624,-0.00101408,-0.00188948,-0.03592245,-0.00755937,-0
 .01092620,0.00436722,0.00008530,0.00082943,0.00506801,-0.00039970,0.00
 010612,-0.00053968,0.00004243,-0.00000114,-0.00530115,0.00044511,0.000
 07514,0.02501013,-0.00000090,-0.00085801,0.00053888,-0.00080520,-0.004
 37478,0.00175567,-0.00134067,-0.01263043,-0.02893688,-0.00751921,-0.12
 862613,-0.12065586,0.00053711,0.01009927,0.01512396,-0.00041959,-0.001
 24470,0.00300351,0.00004352,0.00004431,-0.00009447,0.00046106,0.001435
 80,0.00025382,0.00866394,0.13463528,0.00009002,0.00130491,-0.00020752,
 -0.00003343,0.00053360,0.00186561,0.00015770,0.00201944,0.00482842,-0.
 01084123,-0.12076490,-0.27359540,-0.00129906,-0.01603302,-0.01890336,0
 .00016437,0.00335967,-0.00314791,-0.00000255,-0.00007691,0.00000307,0.
 00005521,-0.00028164,0.00074794,0.01177089,0.13039404,0.28709369,0.002
 83424,-0.00104854,0.00193508,0.00768698,-0.00078986,-0.00020638,-0.000
 81585,0.00000679,-0.00001774,0.00505852,-0.00047222,-0.00027941,0.0043
 6660,0.00042214,-0.00132763,-0.03556563,-0.00495056,0.00585554,-0.0053
 0122,0.00045094,0.00005229,-0.00053936,0.00004409,0.00001254,-0.000360
 54,0.00007175,-0.00005430,0.02462645,-0.00072208,-0.01252168,0.0290287
 0,-0.00084235,-0.00438382,-0.00171291,-0.00001272,-0.00086543,-0.00053
 608,-0.00048474,-0.00127031,-0.00300139,0.00021692,0.01010242,-0.01524
 881,-0.00491309,-0.12765606,0.12020030,0.00045553,0.00143586,-0.000266
 38,0.00004556,0.00004500,0.00009335,0.00005688,0.00054730,-0.00070860,
 0.00584719,0.13358725,-0.00011210,-0.00192762,0.00468169,-0.00008753,-
 0.00049169,0.00187835,-0.00007692,-0.00130271,-0.00019780,-0.00033761,
 -0.00335790,-0.00311282,0.00080034,0.01591081,-0.01890592,0.00577041,0
 .12031017,-0.27492231,0.00007219,0.00026931,0.00074794,0.00001395,0.00
 007582,0.00000206,0.00004208,0.00070132,-0.00092007,-0.00618132,-0.129
 93017,0.28852535,-0.00585928,-0.00327209,0.00227354,-0.08280913,-0.002
 87857,-0.00037520,-0.00594236,-0.00384929,-0.00184330,0.00768208,0.001
 19965,-0.00135718,-0.00160277,-0.00234530,-0.00004092,0.00771453,0.001
 31374,0.00105259,-0.00419441,0.00028077,-0.00019172,-0.00418916,0.0002
 9385,0.00021527,0.00153916,-0.00008814,0.00003248,0.00154021,-0.000054
 08,-0.00005913,0.25802950,-0.00318689,-0.05758066,0.03014815,-0.002812
 64,-0.12396610,0.00004117,-0.00383434,-0.05780856,-0.02978629,0.000757
 29,0.02534675,-0.01755671,-0.00378792,-0.03543732,0.00010001,0.0011319
 8,0.02543768,0.01740880,0.00027758,-0.00004345,-0.00307195,0.00034315,
 -0.00002882,0.00305323,-0.00009218,0.00053713,0.00077169,-0.00010826,0
 .00054047,-0.00077059,0.02765778,0.65971840,0.00204354,0.02681152,0.01
 341127,-0.00037533,0.00004179,-0.11847520,-0.00161348,-0.02644856,0.01
 372217,-0.00046647,-0.00519146,-0.00625996,-0.00003803,0.00008455,-0.0
 0587611,0.00016314,0.00503694,-0.00638342,-0.00003111,-0.00058303,-0.0
 0302613,0.00005456,0.00056482,-0.00304602,-0.00010851,-0.00160286,0.00
 028112,0.00008198,0.00160333,0.00027671,0.00677958,0.00018446,0.898056
 68,0.00476655,-0.00028113,-0.00072279,0.02053315,-0.00423644,0.0032962
 5,0.00103923,-0.00005553,0.00023761,-0.00073694,-0.00020000,0.00029597
 ,0.00035289,0.00052694,0.00015668,-0.00112685,-0.00042768,-0.00008724,
 0.00020805,0.00002150,0.00001579,0.00039539,-0.00026594,0.00008978,-0.
 00003041,-0.00001724,-0.00001585,-0.00071898,-0.00001891,0.00001007,-0
 .08551119,-0.00849550,0.00801432,0.03167398,-0.00036416,0.00132690,-0.
 01073044,-0.00417547,-0.04840872,0.05313411,0.00014267,0.00236715,0.00
 508996,-0.00015857,-0.00455644,0.00458369,0.00104631,0.00957109,0.0023
 2925,-0.00041967,-0.00812919,-0.00202409,0.00002615,0.00067791,0.00010
 174,-0.00025020,-0.00336402,0.00086907,-0.00001168,-0.00029005,-0.0002
 6818,-0.00000546,-0.00106288,0.00008163,-0.00846542,-0.23353543,0.1642
 6971,0.01242585,0.24418196,-0.00032295,-0.00512482,0.00645644,0.002864
 39,0.04693030,-0.01227428,-0.00108462,-0.01434053,-0.00994339,0.000354
 93,0.00660919,-0.00253121,-0.00102604,-0.00946846,-0.00002859,0.000396
 98,0.00595978,0.00428619,-0.00003764,-0.00084868,0.00113102,-0.0000302
 7,-0.00097290,0.00339880,0.00000436,0.00016951,0.00011047,0.00001891,0
 .00036363,-0.00010584,0.00776778,0.16046256,-0.39246969,-0.00881461,-0
 .20702841,0.54065091,0.00105230,0.00024877,-0.00047328,0.02038713,-0.0
 0525072,-0.00397047,0.00478967,-0.00016840,0.00075859,-0.00113096,-0.0
 0055373,0.00020511,0.00037120,0.00072796,-0.00016806,-0.00075163,-0.00
 034227,-0.00033240,0.00039551,-0.00024504,-0.00002460,0.00020894,0.000
 03961,0.00000375,-0.00071932,-0.00002665,0.00000315,-0.00003010,-0.000
 02077,0.00001893,-0.08598707,-0.01197219,-0.01450532,0.02920721,0.0013
 3809,-0.00113656,0.03228096,0.00003732,0.00240409,-0.00514160,-0.00532
 050,-0.04881062,-0.05288541,-0.00013328,0.00139085,0.01075612,-0.00037
 719,-0.00814481,0.00208267,0.00100000,0.00959960,-0.00238994,-0.000257
 84,-0.00460143,-0.00457087,-0.00026816,-0.00336352,-0.00083632,0.00002
 420,0.00068092,-0.00010047,-0.00000722,-0.00106465,-0.00007763,-0.0000
 0595,-0.00028964,0.00026998,-0.01202247,-0.23484427,-0.16468462,0.0015
 4396,0.05009626,0.00936791,0.01691378,0.24585242,0.00084895,0.01428874
 ,-0.00999350,-0.00353860,-0.04668167,-0.01172647,0.00035888,0.00515000
 ,0.00636943,-0.00027950,-0.00589926,0.00430591,0.00101308,0.00941627,-
 0.00007545,-0.00039162,-0.00659502,-0.00247150,0.00009545,0.00100559,0
 .00339814,0.00005721,0.00084983,0.00112712,-0.00000576,-0.00035928,-0.
 00010372,-0.00000133,-0.00016749,0.00010975,-0.01425873,-0.16087771,-0
 .39068503,-0.00246158,-0.01015985,-0.13898198,0.01959599,0.20790077,0.
 53837370,0.00478949,0.00419762,-0.00093608,-0.00111010,-0.00735521,0.0
 0010882,0.00480647,0.00406550,0.00058602,0.00989522,-0.00700965,0.0057
 4392,-0.04319898,0.00059440,-0.00099814,0.00967705,-0.00812174,-0.0058
 7895,-0.00030932,0.00011136,-0.00004084,-0.00030709,0.00014048,0.00005
 107,-0.00239112,0.00021226,0.00001911,-0.00238432,0.00020505,0.0000709
 1,-0.00000707,0.00756158,-0.00000941,-0.00011072,-0.00205732,0.0019487
 6,-0.00015156,-0.00205896,-0.00193004,0.03029911,0.00092166,0.01920135
 ,-0.00589237,-0.00205488,-0.03237033,0.00010257,0.00104614,0.01919937,
 0.00575053,-0.00466915,-0.05475519,0.02623491,-0.02569028,-0.34246894,
 0.00068893,-0.00524364,-0.05506530,-0.02589966,-0.00002739,-0.00023587
 ,-0.00012192,-0.00002451,-0.00022992,0.00012420,0.00025623,0.00222819,
 -0.00133974,0.00028595,0.00223219,0.00133248,0.00228109,0.03309436,-0.
 00008989,-0.00054435,-0.00928349,0.00836037,-0.00072224,-0.00931588,-0
 .00830798,-0.03754700,0.76621115,-0.00020271,0.00622259,-0.01080083,0.
 00009813,0.00015921,0.00768917,-0.00013467,-0.00643168,-0.01081578,0.0
 0432605,0.05116055,0.00177520,-0.00094523,0.00040830,-0.13654271,-0.00
 447157,-0.05076960,0.00230352,-0.00005311,-0.00135514,0.00019820,0.000
 06395,0.00135417,0.00019002,-0.00024688,0.00033927,0.00187061,0.000336
 64,-0.00034520,0.00185982,0.00000121,-0.00014631,0.00053684,-0.0000214
 6,-0.00024696,0.00032045,0.00003445,0.00032980,0.00039369,0.00896571,0
 .00059539,0.86268593,0.00177342,-0.00147770,0.00008901,0.00021885,0.00
 171795,-0.00025008,-0.00080668,-0.00071667,-0.00017480,-0.00184507,0.0
 0134451,-0.00110753,-0.00494983,-0.00898743,-0.00502434,0.00398113,0.0
 0028761,0.00141149,-0.00045739,-0.00004758,0.00001972,0.00014253,-0.00
 001044,-0.00000928,0.00028404,0.00017202,-0.00001584,-0.00067609,0.000
 05894,0.00004990,-0.00020254,-0.00174735,-0.00001982,0.00002341,0.0004
 8117,-0.00045031,0.00004554,0.00046428,0.00046441,-0.00380929,0.034196
 37,0.04665616,0.01001023,-0.00026168,-0.00021400,-0.00157803,0.0000690
 9,0.00085529,0.00030967,-0.00025975,-0.00054888,-0.00015388,-0.0002992
 5,0.00255536,-0.00175440,0.00418432,-0.01649771,-0.03243474,-0.0002240
 6,-0.00418614,0.00301960,0.00000522,-0.00034101,0.00008578,0.00003328,
 0.00005228,0.00000570,0.00020177,-0.00050201,0.00104043,0.00007349,0.0
 0006352,-0.00012776,-0.00002541,-0.00072019,0.00004922,0.00001407,0.00
 017962,-0.00015586,0.00001658,0.00023324,0.00028501,0.02183811,-0.1698
 8829,-0.16620394,-0.02248167,0.17480037,-0.00003447,-0.00119491,0.0006
 5549,0.00016773,0.00239784,0.00008624,-0.00044518,-0.00152009,-0.00076
 658,-0.00008822,0.00353116,0.00067831,-0.00078402,-0.00252264,0.006394
 46,0.00063916,0.00290422,0.00204574,-0.00002404,0.00004553,0.00002560,
 0.00002144,0.00002388,-0.00002079,0.00023826,-0.00049799,-0.00015716,0
 .00002345,0.00013211,0.00023305,-0.00006985,-0.00256163,-0.00002548,0.
 00002369,0.00069148,-0.00068139,0.00002970,0.00068468,0.00064788,0.033
 56651,-0.16666781,-0.36110381,-0.03733661,0.18110974,0.36704770,-0.000
 79338,-0.00068332,0.00017812,0.00022047,0.00166727,0.00024052,0.001771
 83,-0.00145218,-0.00010708,0.00393647,0.00022002,-0.00145264,-0.004820
 47,-0.00890964,0.00529842,-0.00181843,0.00127324,0.00115566,0.00014219
 ,-0.00001092,0.00000584,-0.00045708,-0.00004858,-0.00000921,-0.0006772
 5,0.00005595,-0.00003069,0.00027909,0.00018266,0.00000582,-0.00020048,
 -0.00169208,0.00003038,0.00003524,0.00044772,-0.00045311,0.00003217,0.
 00046802,0.00043318,-0.00568775,0.03753598,-0.05440665,-0.00373222,-0.
 00288411,0.00407247,0.01176961,-0.00025461,-0.00054210,0.00015845,0.00
 006174,0.00084430,-0.00031412,-0.00022778,-0.00020275,0.00158672,-0.00
 029090,-0.00420990,-0.00298882,0.00488063,-0.01635636,0.03242931,-0.00
 026132,0.00254813,0.00175281,0.00003305,0.00005216,-0.00000671,0.00000
 352,-0.00034154,-0.00008440,0.00007616,0.00006350,0.00012685,0.0001785
 2,-0.00050419,-0.00104308,-0.00002613,-0.00070998,-0.00004592,0.000010
 41,0.00022933,-0.00028359,0.00001723,0.00017742,0.00015205,0.02522353,
 -0.16855340,0.16492954,-0.00325402,0.01415856,-0.01655558,-0.02617004,
 0.17334683,0.00044671,0.00153410,-0.00078665,-0.00017075,-0.00243705,0
 .00009561,0.00001149,0.00122966,0.00064584,-0.00067825,-0.00288437,0.0
 0211416,0.00100381,0.00280512,0.00612375,0.00014277,-0.00356670,0.0006
 5890,-0.00002505,-0.00002395,-0.00002033,0.00003434,-0.00004303,0.0000
 2581,-0.00000430,-0.00013265,0.00023422,-0.00024833,0.00049562,-0.0001
 4997,0.00007358,0.00260110,-0.00003775,-0.00001663,-0.00069271,0.00066
 209,-0.00003897,-0.00070509,-0.00068797,-0.04126735,0.16512998,-0.3605
 6032,-0.00430206,0.01650346,-0.01505926,0.04503898,-0.17981350,0.36674
 186\\0.00000117,0.00000014,0.00000003,0.00000247,-0.00000104,-0.000000
 20,0.00000120,0.00000044,0.00000015,-0.00000131,-0.00000022,0.00000018
 ,-0.00000270,-0.00000002,-0.00000020,-0.00000124,0.00000025,0.00000005
 ,0.00000224,-0.00000010,-0.00000004,0.00000224,-0.00000017,0.00000002,
 -0.00000223,0.00000017,0.00000002,-0.00000222,0.00000014,0.,0.00000512
 ,0.00000084,-0.00000006,0.00000615,-0.00000062,0.00000028,0.00000612,-
 0.00000074,-0.00000040,-0.00000501,0.00000037,0.00000005,-0.00000598,0
 .00000028,0.00000005,-0.00000603,0.00000029,0.00000007\\\@


 THESE ARE THE TIMES THAT TRY MENS SOULS.
 THE SUMMER SOLDIER AND THE SUNSHINE PATRIOT WILL IN THIS CRISIS,
 SHRINK FROM THE SERVICE OF HIS COUNTRY.  BUT HE THAT STANDS NOW,
 DESERVES THE LOVE AND THANKS OF MAN AND WOMAN.
 TYRANNY, LIKE HELL, IS NOT EASILY CONQUERED,
 YET WE HAVE THIS CONSOLATION WITH US,
 THAT THE HARDER THE CONFLICT, THE MORE GLORIOUS THE TRIUMPH.
 WHAT WE OBTAIN TOO CHEAP, WE ESTEEM TOO LIGHTLY, 
 'TIS DEARNESS ONLY THAT GIVES EVERYTHING ITS VALUE.

                                              -- TOM PAINE
 Job cpu time:  0 days  3 hours 19 minutes 17.0 seconds.
 File lengths (MBytes):  RWF=    251 Int=      0 D2E=      0 Chk=     15 Scr=      1
 Normal termination of Gaussian 09 at Sun Mar 26 22:39:44 2023.
