 Entering Gaussian System, Link 0=g09
 Initial command:
 /apps/software//g09/l1.exe /scratch/matheusmaximo/38071.cluster.abaxnet/Gau-28004.inp -scrdir=/scratch/matheusmaximo/38071.cluster.abaxnet/
 Entering Link 1 = /apps/software//g09/l1.exe PID=     28005.
  
 Copyright (c) 1988,1990,1992,1993,1995,1998,2003,2009, Gaussian, Inc.
                  All Rights Reserved.
  
 This is part of the Gaussian(R) 09 program.  It is based on
 the Gaussian(R) 03 system (copyright 2003, Gaussian, Inc.),
 the Gaussian(R) 98 system (copyright 1998, Gaussian, Inc.),
 the Gaussian(R) 94 system (copyright 1995, Gaussian, Inc.),
 the Gaussian 92(TM) system (copyright 1992, Gaussian, Inc.),
 the Gaussian 90(TM) system (copyright 1990, Gaussian, Inc.),
 the Gaussian 88(TM) system (copyright 1988, Gaussian, Inc.),
 the Gaussian 86(TM) system (copyright 1986, Carnegie Mellon
 University), and the Gaussian 82(TM) system (copyright 1983,
 Carnegie Mellon University). Gaussian is a federally registered
 trademark of Gaussian, Inc.
  
 This software contains proprietary and confidential information,
 including trade secrets, belonging to Gaussian, Inc.
  
 This software is provided under written license and may be
 used, copied, transmitted, or stored only in accord with that
 written license.
  
 The following legend is applicable only to US Government
 contracts under FAR:
  
                    RESTRICTED RIGHTS LEGEND
  
 Use, reproduction and disclosure by the US Government is
 subject to restrictions as set forth in subparagraphs (a)
 and (c) of the Commercial Computer Software - Restricted
 Rights clause in FAR 52.227-19.
  
 Gaussian, Inc.
 340 Quinnipiac St., Bldg. 40, Wallingford CT 06492
  
  
 ---------------------------------------------------------------
 Warning -- This program may not be used in any manner that
 competes with the business of Gaussian, Inc. or will provide
 assistance to any competitor of Gaussian, Inc.  The licensee
 of this program is prohibited from giving any competitor of
 Gaussian, Inc. access to this program.  By using this program,
 the user acknowledges that Gaussian, Inc. is engaged in the
 business of creating and licensing software in the field of
 computational chemistry and represents and warrants to the
 licensee that it is not a competitor of Gaussian, Inc. and that
 it will not use this program in any manner prohibited above.
 ---------------------------------------------------------------
  

 Cite this work as:
 Gaussian 09, Revision A.02,
 M. J. Frisch, G. W. Trucks, H. B. Schlegel, G. E. Scuseria, 
 M. A. Robb, J. R. Cheeseman, G. Scalmani, V. Barone, B. Mennucci, 
 G. A. Petersson, H. Nakatsuji, M. Caricato, X. Li, H. P. Hratchian, 
 A. F. Izmaylov, J. Bloino, G. Zheng, J. L. Sonnenberg, M. Hada, 
 M. Ehara, K. Toyota, R. Fukuda, J. Hasegawa, M. Ishida, T. Nakajima, 
 Y. Honda, O. Kitao, H. Nakai, T. Vreven, J. A. Montgomery, Jr., 
 J. E. Peralta, F. Ogliaro, M. Bearpark, J. J. Heyd, E. Brothers, 
 K. N. Kudin, V. N. Staroverov, R. Kobayashi, J. Normand, 
 K. Raghavachari, A. Rendell, J. C. Burant, S. S. Iyengar, J. Tomasi, 
 M. Cossi, N. Rega, J. M. Millam, M. Klene, J. E. Knox, J. B. Cross, 
 V. Bakken, C. Adamo, J. Jaramillo, R. Gomperts, R. E. Stratmann, 
 O. Yazyev, A. J. Austin, R. Cammi, C. Pomelli, J. W. Ochterski, 
 R. L. Martin, K. Morokuma, V. G. Zakrzewski, G. A. Voth, 
 P. Salvador, J. J. Dannenberg, S. Dapprich, A. D. Daniels, 
 O. Farkas, J. B. Foresman, J. V. Ortiz, J. Cioslowski, 
 and D. J. Fox, Gaussian, Inc., Wallingford CT, 2009.
 
 ******************************************
 Gaussian 09:  EM64L-G09RevA.02 11-Jun-2009
                25-Nov-2022 
 ******************************************
 %chk=/home/matheusmaximo/Gaussian/S0solvent/CH3CN/1.chk
 ----------------------------------------------------------------------
 # opt=tight freq cam-b3lyp/gen geom=connectivity scf=qc int=ultrafine 
 scrf=(cpcm,solvent=acetonitrile)
 ----------------------------------------------------------------------
 1/7=10,14=-1,18=20,19=15,26=3,38=1,57=2/1,3;
 2/9=110,12=2,17=6,18=5,40=1/2;
 3/5=7,11=2,16=1,25=1,30=1,70=2101,71=1,72=2,74=-40,75=-5/1,2,3;
 4//1;
 5/5=2,8=3,38=5,53=2/8;
 6/7=2,8=2,9=2,10=2,28=1/1;
 7//1,2,3,16;
 1/7=10,14=-1,18=20,19=15/3(2);
 2/9=110/2;
 99//99;
 2/9=110/2;
 3/5=7,6=1,11=2,16=1,25=1,30=1,70=2105,71=1,72=2,74=-40,75=-5,82=7/1,2,3;
 4/5=5,16=3/1;
 5/5=2,8=3,38=5,53=2/8;
 7//1,2,3,16;
 1/7=10,14=-1,18=20,19=15/3(-5);
 2/9=110/2;
 6/7=2,8=2,9=2,10=2,19=2,28=1/1;
 99/9=1/99;
 ---------------------------------------------------
 NA CAM-B3LYP def2-TZVPD - solvent cpcm acetonitrile
 ---------------------------------------------------
 Symbolic Z-matrix:
 Charge =  0 Multiplicity = 1
 C                     0.18939   0.18182   0. 
 C                     0.18968   0.86558  -1.21174 
 C                     0.18939   0.18182  -2.42347 
 C                     0.18939  -1.19994  -2.42212 
 C                     0.19039  -1.91472  -1.21174 
 C                     0.18939  -1.19994  -0.00136 
 H                     0.18981   0.74124   0.92693 
 H                     0.18981   0.74124  -3.35041 
 H                     0.18489  -1.73987  -3.36381 
 H                     0.18489  -1.73987   0.94034 
 N                     0.19194   2.31945  -1.21174 
 O                     0.19303   2.89519  -2.29444 
 O                     0.19303   2.89519  -0.12903 
 N                    -0.27633  -3.20653  -1.16287 
 H                    -0.38663  -3.71586  -2.02486 
 H                    -0.06897  -3.76737  -0.35227 
 

 GradGradGradGradGradGradGradGradGradGradGradGradGradGradGradGradGradGrad
 Berny optimization.
 Initialization pass.
                           ----------------------------
                           !    Initial Parameters    !
                           ! (Angstroms and Degrees)  !
 --------------------------                            --------------------------
 ! Name  Definition              Value          Derivative Info.                !
 --------------------------------------------------------------------------------
 ! R1    R(1,2)                  1.3913         estimate D2E/DX2                !
 ! R2    R(1,6)                  1.3818         estimate D2E/DX2                !
 ! R3    R(1,7)                  1.0827         estimate D2E/DX2                !
 ! R4    R(2,3)                  1.3913         estimate D2E/DX2                !
 ! R5    R(2,11)                 1.4539         estimate D2E/DX2                !
 ! R6    R(3,4)                  1.3818         estimate D2E/DX2                !
 ! R7    R(3,8)                  1.0827         estimate D2E/DX2                !
 ! R8    R(4,5)                  1.4057         estimate D2E/DX2                !
 ! R9    R(4,9)                  1.0855         estimate D2E/DX2                !
 ! R10   R(5,6)                  1.4057         estimate D2E/DX2                !
 ! R11   R(5,14)                 1.3744         estimate D2E/DX2                !
 ! R12   R(6,10)                 1.0855         estimate D2E/DX2                !
 ! R13   R(11,12)                1.2263         estimate D2E/DX2                !
 ! R14   R(11,13)                1.2263         estimate D2E/DX2                !
 ! R15   R(14,15)                1.0073         estimate D2E/DX2                !
 ! R16   R(14,16)                1.0073         estimate D2E/DX2                !
 ! A1    A(2,1,6)              119.3789         estimate D2E/DX2                !
 ! A2    A(2,1,7)              119.453          estimate D2E/DX2                !
 ! A3    A(6,1,7)              121.1681         estimate D2E/DX2                !
 ! A4    A(1,2,3)              121.1297         estimate D2E/DX2                !
 ! A5    A(1,2,11)             119.4351         estimate D2E/DX2                !
 ! A6    A(3,2,11)             119.4351         estimate D2E/DX2                !
 ! A7    A(2,3,4)              119.3789         estimate D2E/DX2                !
 ! A8    A(2,3,8)              119.453          estimate D2E/DX2                !
 ! A9    A(4,3,8)              121.1681         estimate D2E/DX2                !
 ! A10   A(3,4,5)              120.6198         estimate D2E/DX2                !
 ! A11   A(3,4,9)              119.7722         estimate D2E/DX2                !
 ! A12   A(5,4,9)              119.6076         estimate D2E/DX2                !
 ! A13   A(4,5,6)              118.8727         estimate D2E/DX2                !
 ! A14   A(4,5,14)             120.5512         estimate D2E/DX2                !
 ! A15   A(6,5,14)             116.5567         estimate D2E/DX2                !
 ! A16   A(1,6,5)              120.6198         estimate D2E/DX2                !
 ! A17   A(1,6,10)             119.7722         estimate D2E/DX2                !
 ! A18   A(5,6,10)             119.6076         estimate D2E/DX2                !
 ! A19   A(2,11,12)            118.0025         estimate D2E/DX2                !
 ! A20   A(2,11,13)            118.0025         estimate D2E/DX2                !
 ! A21   A(12,11,13)           123.995          estimate D2E/DX2                !
 ! A22   A(5,14,15)            118.818          estimate D2E/DX2                !
 ! A23   A(5,14,16)            118.818          estimate D2E/DX2                !
 ! A24   A(15,14,16)           115.4465         estimate D2E/DX2                !
 ! D1    D(6,1,2,3)              0.0277         estimate D2E/DX2                !
 ! D2    D(6,1,2,11)          -179.8976         estimate D2E/DX2                !
 ! D3    D(7,1,2,3)            179.9891         estimate D2E/DX2                !
 ! D4    D(7,1,2,11)             0.0637         estimate D2E/DX2                !
 ! D5    D(2,1,6,5)              0.0337         estimate D2E/DX2                !
 ! D6    D(2,1,6,10)          -179.7399         estimate D2E/DX2                !
 ! D7    D(7,1,6,5)           -179.927          estimate D2E/DX2                !
 ! D8    D(7,1,6,10)             0.2995         estimate D2E/DX2                !
 ! D9    D(1,2,3,4)             -0.0277         estimate D2E/DX2                !
 ! D10   D(1,2,3,8)           -179.9891         estimate D2E/DX2                !
 ! D11   D(11,2,3,4)           179.8976         estimate D2E/DX2                !
 ! D12   D(11,2,3,8)            -0.0637         estimate D2E/DX2                !
 ! D13   D(1,2,11,12)          179.9532         estimate D2E/DX2                !
 ! D14   D(1,2,11,13)           -0.0265         estimate D2E/DX2                !
 ! D15   D(3,2,11,12)            0.0265         estimate D2E/DX2                !
 ! D16   D(3,2,11,13)         -179.9532         estimate D2E/DX2                !
 ! D17   D(2,3,4,5)             -0.0337         estimate D2E/DX2                !
 ! D18   D(2,3,4,9)            179.7399         estimate D2E/DX2                !
 ! D19   D(8,3,4,5)            179.927          estimate D2E/DX2                !
 ! D20   D(8,3,4,9)             -0.2995         estimate D2E/DX2                !
 ! D21   D(3,4,5,6)              0.093          estimate D2E/DX2                !
 ! D22   D(3,4,5,14)           156.7742         estimate D2E/DX2                !
 ! D23   D(9,4,5,6)           -179.6809         estimate D2E/DX2                !
 ! D24   D(9,4,5,14)           -22.9997         estimate D2E/DX2                !
 ! D25   D(4,5,6,1)             -0.093          estimate D2E/DX2                !
 ! D26   D(4,5,6,10)           179.6809         estimate D2E/DX2                !
 ! D27   D(14,5,6,1)          -157.691          estimate D2E/DX2                !
 ! D28   D(14,5,6,10)           22.0829         estimate D2E/DX2                !
 ! D29   D(4,5,14,15)           16.1258         estimate D2E/DX2                !
 ! D30   D(4,5,14,16)          165.7128         estimate D2E/DX2                !
 ! D31   D(6,5,14,15)          173.325          estimate D2E/DX2                !
 ! D32   D(6,5,14,16)          -37.088          estimate D2E/DX2                !
 --------------------------------------------------------------------------------
 Trust Radius=3.00D-01 FncErr=1.00D-07 GrdErr=1.00D-06
 Number of steps in this run=  82 maximum allowed number of steps= 100.
 GradGradGradGradGradGradGradGradGradGradGradGradGradGradGradGradGradGrad

                          Input orientation:                          
 ---------------------------------------------------------------------
 Center     Atomic      Atomic             Coordinates (Angstroms)
 Number     Number       Type             X           Y           Z
 ---------------------------------------------------------------------
      1          6           0        0.189394    0.181818    0.000000
      2          6           0        0.189682    0.865575   -1.211735
      3          6           0        0.189394    0.181818   -2.423471
      4          6           0        0.189394   -1.199937   -2.422115
      5          6           0        0.190393   -1.914717   -1.211735
      6          6           0        0.189394   -1.199937   -0.001356
      7          1           0        0.189810    0.741243    0.926934
      8          1           0        0.189810    0.741243   -3.350405
      9          1           0        0.184892   -1.739874   -3.363808
     10          1           0        0.184892   -1.739874    0.940337
     11          7           0        0.191945    2.319446   -1.211735
     12          8           0        0.193033    2.895192   -2.294443
     13          8           0        0.193033    2.895192   -0.129027
     14          7           0       -0.276330   -3.206527   -1.162873
     15          1           0       -0.386626   -3.715865   -2.024863
     16          1           0       -0.068974   -3.767365   -0.352268
 ---------------------------------------------------------------------
                    Distance matrix (angstroms):
                    1          2          3          4          5
     1  C    0.000000
     2  C    1.391340   0.000000
     3  C    2.423471   1.391340   0.000000
     4  C    2.788528   2.394026   1.381755   0.000000
     5  C    2.421520   2.780292   2.421520   1.405678   0.000000
     6  C    1.381755   2.394026   2.788528   2.420760   1.405678
     7  H    1.082665   2.142281   3.396788   3.870958   3.409990
     8  H    3.396788   2.142281   1.082665   2.151721   3.409990
     9  H    3.874032   3.379320   2.139429   1.085513   2.159170
    10  H    2.139429   3.379320   3.874032   3.405530   2.159170
    11  N    2.457186   1.453873   2.457186   3.721704   4.234163
    12  O    3.553432   2.300351   2.716442   4.097120   4.930262
    13  O    2.716442   2.300351   3.553432   4.693436   4.930262
    14  N    3.612486   4.098972   3.645119   2.414331   1.374406
    15  H    4.429876   4.688593   3.960129   2.611418   2.058704
    16  H    3.973273   4.719081   4.466843   3.307977   2.058704
                    6          7          8          9         10
     6  C    0.000000
     7  H    2.151721   0.000000
     8  H    3.870958   4.277339   0.000000
     9  H    3.405530   4.956454   2.481159   0.000000
    10  H    1.085513   2.481159   4.956454   4.304144   0.000000
    11  N    3.721704   2.657939   2.657939   4.594513   4.594513
    12  O    4.693436   3.875149   2.398867   4.756832   5.652230
    13  O    4.097120   2.398867   3.875149   5.652230   4.756832
    14  N    2.364831   4.491044   4.537342   2.684755   2.605242
    15  H    3.279676   5.376914   4.685633   2.454373   3.608820
    16  H    2.604147   4.693706   5.420641   3.639305   2.417849
                   11         12         13         14         15
    11  N    0.000000
    12  O    1.226271   0.000000
    13  O    1.226271   2.165416   0.000000
    14  N    5.545994   6.223482   6.206458   0.000000
    15  H    6.117263   6.641894   6.901904   1.007282   0.000000
    16  H    6.152726   6.944808   6.671443   1.007282   1.703271
                   16
    16  H    0.000000
 Stoichiometry    C6H6N2O2
 Framework group  C1[X(C6H6N2O2)]
 Deg. of freedom    42
 Full point group                 C1      NOp   1
 Largest Abelian subgroup         C1      NOp   1
 Largest concise Abelian subgroup C1      NOp   1
                         Standard orientation:                         
 ---------------------------------------------------------------------
 Center     Atomic      Atomic             Coordinates (Angstroms)
 Number     Number       Type             X           Y           Z
 ---------------------------------------------------------------------
      1          6           0        0.009303   -1.206537   -0.052318
      2          6           0        0.699073    0.001467   -0.024578
      3          6           0        0.022717    1.216889   -0.058010
      4          6           0       -1.357615    1.223028   -0.120398
      5          6           0       -2.078310    0.016544   -0.150828
      6          6           0       -1.371015   -1.197688   -0.114713
      7          1           0        0.563037   -2.136490   -0.025296
      8          1           0        0.586713    2.140772   -0.035342
      9          1           0       -1.891985    2.167644   -0.142492
     10          1           0       -1.915810   -2.136423   -0.132383
     11          7           0        2.151542   -0.006424    0.038809
     12          8           0        2.732734    1.073138    0.061176
     13          8           0        2.720748   -1.092238    0.066262
     14          7           0       -3.390123   -0.024099    0.257202
     15          1           0       -3.899141    0.840924    0.342363
     16          1           0       -3.945508   -0.832186    0.026638
 ---------------------------------------------------------------------
 Rotational constants (GHZ):      3.8934928      0.8338086      0.6903421
 General basis read from cards:  (5D, 7F)
 There are   430 symmetry adapted basis functions of A   symmetry.
 Integral buffers will be    131072 words long.
 Raffenetti 2 integral format.
 Two-electron integral symmetry is turned on.
   430 basis functions,   652 primitive gaussians,   490 cartesian basis functions
    36 alpha electrons       36 beta electrons
       nuclear repulsion energy       497.1257036331 Hartrees.
 NAtoms=   16 NActive=   16 NUniq=   16 SFac= 7.50D-01 NAtFMM=   80 NAOKFM=F Big=F
 ------------------------------------------------------------------------------
 Polarizable Continuum Model (PCM)
 =================================
 Model                : C-PCM.
 Atomic radii         : UFF (Universal Force Field).
 Polarization charges : Total charges.
 Charge compensation  : None.
 Solution method      : Matrix inversion.
 Cavity type          : Scaled VdW (van der Waals Surface) (Alpha=1.100).
 Cavity algorithm     : GePol (No added spheres)
                        Default sphere list used, NSphG=   16.
                        Lebedev-Laikov grids with approx.  5.0 points / Ang**2.
                        Smoothing algorithm: Karplus/York (Gamma=1.0000).
                        Polarization charges: spherical gaussians, with
                                              point-specific exponents (IZeta= 3).
                        Self-potential: point-specific (ISelfS= 7).
                        Self-field    : sphere-specific E.n sum rule (ISelfD= 2).
 1st derivatives      : Analytical E(r).r(x)/FMM algorithm (CHGder, D1EAlg=3).
                        Cavity 1st derivative terms included.
 Solvent              : Acetonitrile, Eps=  35.688000 Eps(inf)=   1.806874
 ------------------------------------------------------------------------------
 Spheres list:
 ISph  on   Nord    Re0     Alpha      Xe            Ye            Ze
    1   C      1    1.926   1.100      0.009303     -1.206537     -0.052318
    2   C      2    1.926   1.100      0.699073      0.001467     -0.024578
    3   C      3    1.926   1.100      0.022717      1.216889     -0.058010
    4   C      4    1.926   1.100     -1.357615      1.223028     -0.120398
    5   C      5    1.926   1.100     -2.078310      0.016544     -0.150828
    6   C      6    1.926   1.100     -1.371015     -1.197688     -0.114713
    7   H      7    1.443   1.100      0.563037     -2.136490     -0.025296
    8   H      8    1.443   1.100      0.586713      2.140772     -0.035342
    9   H      9    1.443   1.100     -1.891985      2.167644     -0.142492
   10   H     10    1.443   1.100     -1.915810     -2.136423     -0.132383
   11   N     11    1.830   1.100      2.151542     -0.006424      0.038809
   12   O     12    1.750   1.100      2.732734      1.073138      0.061176
   13   O     13    1.750   1.100      2.720748     -1.092238      0.066262
   14   N     14    1.830   1.100     -3.390123     -0.024099      0.257202
   15   H     15    1.443   1.100     -3.899141      0.840924      0.342363
   16   H     16    1.443   1.100     -3.945508     -0.832186      0.026638
 ------------------------------------------------------------------------------
 One-electron integrals computed using PRISM.
 NBasis=   430 RedAO= T  NBF=   430
 NBsUse=   429 1.00D-06 NBFU=   429
 Harris functional with IExCor=20419 diagonalized for initial guess.
 ExpMin= 4.85D-02 ExpMax= 2.70D+04 ExpMxC= 9.22D+02 IAcc=3 IRadAn=         5 AccDes= 0.00D+00
 HarFok:  IExCor=20419 AccDes= 0.00D+00 IRadAn=         5 IDoV= 1
 ScaDFX=  1.000000  1.000000  1.000000  1.000000
 FoFCou: FMM=F IPFlag=           0 FMFlag=      100000 FMFlg1=           0
         NFxFlg=           0 DoJE=T BraDBF=F KetDBF=T FulRan=T
         Omega=  0.000000  0.000000  1.000000  0.000000  0.000000 ICntrl=     500 IOpCl=  0
         NMat0=    1 NMatS0=    1 NMatT0=    0 NMatD0=    1 NMtDS0=    0 NMtDT0=    0
         I1Cent=           4 NGrid=           0.
 Petite list used in FoFCou.
 Initial guess orbital symmetries:
       Occupied  (A) (A) (A) (A) (A) (A) (A) (A) (A) (A) (A) (A)
                 (A) (A) (A) (A) (A) (A) (A) (A) (A) (A) (A) (A)
                 (A) (A) (A) (A) (A) (A) (A) (A) (A) (A) (A) (A)
       Virtual   (A) (A) (A) (A) (A) (A) (A) (A) (A) (A) (A) (A)
                 (A) (A) (A) (A) (A) (A) (A) (A) (A) (A) (A) (A)
                 (A) (A) (A) (A) (A) (A) (A) (A) (A) (A) (A) (A)
                 (A) (A) (A) (A) (A) (A) (A) (A) (A) (A) (A) (A)
                 (A) (A) (A) (A) (A) (A) (A) (A) (A) (A) (A) (A)
                 (A) (A) (A) (A) (A) (A) (A) (A) (A) (A) (A) (A)
                 (A) (A) (A) (A) (A) (A) (A) (A) (A) (A) (A) (A)
                 (A) (A) (A) (A) (A) (A) (A) (A) (A) (A) (A) (A)
                 (A) (A) (A) (A) (A) (A) (A) (A) (A) (A) (A) (A)
                 (A) (A) (A) (A) (A) (A) (A) (A) (A) (A) (A) (A)
                 (A) (A) (A) (A) (A) (A) (A) (A) (A) (A) (A) (A)
                 (A) (A) (A) (A) (A) (A) (A) (A) (A) (A) (A) (A)
                 (A) (A) (A) (A) (A) (A) (A) (A) (A) (A) (A) (A)
                 (A) (A) (A) (A) (A) (A) (A) (A) (A) (A) (A) (A)
                 (A) (A) (A) (A) (A) (A) (A) (A) (A) (A) (A) (A)
                 (A) (A) (A) (A) (A) (A) (A) (A) (A) (A) (A) (A)
                 (A) (A) (A) (A) (A) (A) (A) (A) (A) (A) (A) (A)
                 (A) (A) (A) (A) (A) (A) (A) (A) (A) (A) (A) (A)
                 (A) (A) (A) (A) (A) (A) (A) (A) (A) (A) (A) (A)
                 (A) (A) (A) (A) (A) (A) (A) (A) (A) (A) (A) (A)
                 (A) (A) (A) (A) (A) (A) (A) (A) (A) (A) (A) (A)
                 (A) (A) (A) (A) (A) (A) (A) (A) (A) (A) (A) (A)
                 (A) (A) (A) (A) (A) (A) (A) (A) (A) (A) (A) (A)
                 (A) (A) (A) (A) (A) (A) (A) (A) (A) (A) (A) (A)
                 (A) (A) (A) (A) (A) (A) (A) (A) (A) (A) (A) (A)
                 (A) (A) (A) (A) (A) (A) (A) (A) (A) (A) (A) (A)
                 (A) (A) (A) (A) (A) (A) (A) (A) (A) (A) (A) (A)
                 (A) (A) (A) (A) (A) (A) (A) (A) (A) (A) (A) (A)
                 (A) (A) (A) (A) (A) (A) (A) (A) (A) (A) (A) (A)
                 (A) (A) (A) (A) (A) (A) (A) (A) (A) (A) (A) (A)
                 (A) (A) (A) (A) (A) (A) (A) (A) (A) (A) (A) (A)
                 (A) (A) (A) (A) (A) (A) (A) (A) (A) (A) (A) (A)
                 (A) (A) (A) (A) (A) (A) (A) (A) (A)
 The electronic state of the initial guess is 1-A.
 FoFJK:  IHMeth= 1 ICntrl=     0 DoSepK=T KAlg= 1 I1Cent= 0 FoldK=F
 Gradient too large for Newton-Raphson -- use scaled steepest descent instead.
 FoFJK:  IHMeth= 1 ICntrl=     0 DoSepK=T KAlg= 1 I1Cent= 0 FoldK=F
 FoFJK:  IHMeth= 1 ICntrl=     0 DoSepK=T KAlg= 1 I1Cent= 0 FoldK=F
 FoFJK:  IHMeth= 1 ICntrl=     0 DoSepK=T KAlg= 1 I1Cent= 0 FoldK=F
 FoFJK:  IHMeth= 1 ICntrl=     0 DoSepK=T KAlg= 1 I1Cent= 0 FoldK=F
 Gradient too large for Newton-Raphson -- use scaled steepest descent instead.
 FoFJK:  IHMeth= 1 ICntrl=     0 DoSepK=T KAlg= 1 I1Cent= 0 FoldK=F
 FoFJK:  IHMeth= 1 ICntrl=     0 DoSepK=T KAlg= 1 I1Cent= 0 FoldK=F
 FoFJK:  IHMeth= 1 ICntrl=     0 DoSepK=T KAlg= 1 I1Cent= 0 FoldK=F
 FoFJK:  IHMeth= 1 ICntrl=     0 DoSepK=T KAlg= 1 I1Cent= 0 FoldK=F
 FoFJK:  IHMeth= 1 ICntrl=     0 DoSepK=T KAlg= 1 I1Cent= 0 FoldK=F
 Gradient too large for Newton-Raphson -- use scaled steepest descent instead.
 FoFJK:  IHMeth= 1 ICntrl=     0 DoSepK=T KAlg= 1 I1Cent= 0 FoldK=F
 FoFJK:  IHMeth= 1 ICntrl=     0 DoSepK=T KAlg= 1 I1Cent= 0 FoldK=F
 FoFJK:  IHMeth= 1 ICntrl=     0 DoSepK=T KAlg= 1 I1Cent= 0 FoldK=F
 Gradient too large for Newton-Raphson -- use scaled steepest descent instead.
 FoFJK:  IHMeth= 1 ICntrl=     0 DoSepK=T KAlg= 1 I1Cent= 0 FoldK=F
 FoFJK:  IHMeth= 1 ICntrl=     0 DoSepK=T KAlg= 1 I1Cent= 0 FoldK=F
 FoFJK:  IHMeth= 1 ICntrl=     0 DoSepK=T KAlg= 1 I1Cent= 0 FoldK=F
 FoFJK:  IHMeth= 1 ICntrl=     0 DoSepK=T KAlg= 1 I1Cent= 0 FoldK=F
 FoFJK:  IHMeth= 1 ICntrl=     0 DoSepK=T KAlg= 1 I1Cent= 0 FoldK=F
 Gradient too large for Newton-Raphson -- use scaled steepest descent instead.
 FoFJK:  IHMeth= 1 ICntrl=     0 DoSepK=T KAlg= 1 I1Cent= 0 FoldK=F
 FoFJK:  IHMeth= 1 ICntrl=     0 DoSepK=T KAlg= 1 I1Cent= 0 FoldK=F
 FoFJK:  IHMeth= 1 ICntrl=     0 DoSepK=T KAlg= 1 I1Cent= 0 FoldK=F
 LinEq1:  Iter=  0 NonCon=     1 RMS=7.33D-05 Max=6.66D-03
 AX will form     1 AO Fock derivatives at one time.
 FoFJK:  IHMeth= 1 ICntrl=     0 DoSepK=T KAlg= 1 I1Cent= 0 FoldK=F
 LinEq1:  Iter=  1 NonCon=     1 RMS=5.01D-05 Max=2.78D-03
 FoFJK:  IHMeth= 1 ICntrl=     0 DoSepK=T KAlg= 1 I1Cent= 0 FoldK=F
 LinEq1:  Iter=  2 NonCon=     1 RMS=1.10D-05 Max=4.64D-04
 FoFJK:  IHMeth= 1 ICntrl=     0 DoSepK=T KAlg= 1 I1Cent= 0 FoldK=F
 LinEq1:  Iter=  3 NonCon=     1 RMS=2.14D-06 Max=1.32D-04
 FoFJK:  IHMeth= 1 ICntrl=     0 DoSepK=T KAlg= 1 I1Cent= 0 FoldK=F
 LinEq1:  Iter=  4 NonCon=     1 RMS=2.14D-06 Max=1.04D-04
 FoFJK:  IHMeth= 1 ICntrl=     0 DoSepK=T KAlg= 1 I1Cent= 0 FoldK=F
 LinEq1:  Iter=  5 NonCon=     1 RMS=9.02D-07 Max=2.63D-05
 FoFJK:  IHMeth= 1 ICntrl=     0 DoSepK=T KAlg= 1 I1Cent= 0 FoldK=F
 LinEq1:  Iter=  6 NonCon=     1 RMS=4.29D-07 Max=2.71D-05
 FoFJK:  IHMeth= 1 ICntrl=     0 DoSepK=T KAlg= 1 I1Cent= 0 FoldK=F
 LinEq1:  Iter=  7 NonCon=     1 RMS=2.22D-07 Max=6.21D-06
 FoFJK:  IHMeth= 1 ICntrl=     0 DoSepK=T KAlg= 1 I1Cent= 0 FoldK=F
 LinEq1:  Iter=  8 NonCon=     1 RMS=4.86D-08 Max=1.61D-06
 FoFJK:  IHMeth= 1 ICntrl=     0 DoSepK=T KAlg= 1 I1Cent= 0 FoldK=F
 LinEq1:  Iter=  9 NonCon=     1 RMS=1.58D-08 Max=3.50D-07
 FoFJK:  IHMeth= 1 ICntrl=     0 DoSepK=T KAlg= 1 I1Cent= 0 FoldK=F
 LinEq1:  Iter= 10 NonCon=     1 RMS=7.67D-09 Max=2.21D-07
 FoFJK:  IHMeth= 1 ICntrl=     0 DoSepK=T KAlg= 1 I1Cent= 0 FoldK=F
 LinEq1:  Iter= 11 NonCon=     0 RMS=2.08D-09 Max=1.08D-07
 Linear equations converged to 1.682D-08 1.682D-07 after    11 iterations.
 FoFJK:  IHMeth= 1 ICntrl=     0 DoSepK=T KAlg= 1 I1Cent= 0 FoldK=F
 FoFJK:  IHMeth= 1 ICntrl=     0 DoSepK=T KAlg= 1 I1Cent= 0 FoldK=F
 FoFJK:  IHMeth= 1 ICntrl=     0 DoSepK=T KAlg= 1 I1Cent= 0 FoldK=F
 LinEq1:  Iter=  0 NonCon=     1 RMS=7.31D-07 Max=3.89D-05
 FoFJK:  IHMeth= 1 ICntrl=     0 DoSepK=T KAlg= 1 I1Cent= 0 FoldK=F
 LinEq1:  Iter=  1 NonCon=     1 RMS=1.89D-07 Max=1.00D-05
 FoFJK:  IHMeth= 1 ICntrl=     0 DoSepK=T KAlg= 1 I1Cent= 0 FoldK=F
 LinEq1:  Iter=  2 NonCon=     1 RMS=1.06D-07 Max=3.48D-06
 FoFJK:  IHMeth= 1 ICntrl=     0 DoSepK=T KAlg= 1 I1Cent= 0 FoldK=F
 LinEq1:  Iter=  3 NonCon=     1 RMS=5.53D-08 Max=3.66D-06
 FoFJK:  IHMeth= 1 ICntrl=     0 DoSepK=T KAlg= 1 I1Cent= 0 FoldK=F
 LinEq1:  Iter=  4 NonCon=     1 RMS=2.47D-08 Max=1.22D-06
 FoFJK:  IHMeth= 1 ICntrl=     0 DoSepK=T KAlg= 1 I1Cent= 0 FoldK=F
 LinEq1:  Iter=  5 NonCon=     1 RMS=9.44D-09 Max=2.85D-07
 FoFJK:  IHMeth= 1 ICntrl=     0 DoSepK=T KAlg= 1 I1Cent= 0 FoldK=F
 LinEq1:  Iter=  6 NonCon=     1 RMS=4.20D-09 Max=1.31D-07
 FoFJK:  IHMeth= 1 ICntrl=     0 DoSepK=T KAlg= 1 I1Cent= 0 FoldK=F
 LinEq1:  Iter=  7 NonCon=     1 RMS=2.32D-09 Max=1.11D-07
 FoFJK:  IHMeth= 1 ICntrl=     0 DoSepK=T KAlg= 1 I1Cent= 0 FoldK=F
 LinEq1:  Iter=  8 NonCon=     1 RMS=1.64D-09 Max=9.18D-08
 FoFJK:  IHMeth= 1 ICntrl=     0 DoSepK=T KAlg= 1 I1Cent= 0 FoldK=F
 LinEq1:  Iter=  9 NonCon=     1 RMS=1.04D-09 Max=3.40D-08
 FoFJK:  IHMeth= 1 ICntrl=     0 DoSepK=T KAlg= 1 I1Cent= 0 FoldK=F
 LinEq1:  Iter= 10 NonCon=     1 RMS=4.84D-10 Max=2.12D-08
 FoFJK:  IHMeth= 1 ICntrl=     0 DoSepK=T KAlg= 1 I1Cent= 0 FoldK=F
 LinEq1:  Iter= 11 NonCon=     0 RMS=1.92D-10 Max=4.47D-09
 Linear equations converged to 1.072D-09 1.072D-08 after    11 iterations.
 FoFJK:  IHMeth= 1 ICntrl=     0 DoSepK=T KAlg= 1 I1Cent= 0 FoldK=F
 Error on total polarization charges =  0.01393
 SCF Done:  E(RCAM-B3LYP) =  -492.091561411     a.u. after    8 cycles
            Convg  =    0.3356D-08                    47 Fock formations.
              S**2 =  0.0000                  -V/T =  2.0043

 **********************************************************************

            Population analysis using the SCF density.

 **********************************************************************

 Orbital symmetries:
       Occupied  (A) (A) (A) (A) (A) (A) (A) (A) (A) (A) (A) (A)
                 (A) (A) (A) (A) (A) (A) (A) (A) (A) (A) (A) (A)
                 (A) (A) (A) (A) (A) (A) (A) (A) (A) (A) (A) (A)
       Virtual   (A) (A) (A) (A) (A) (A) (A) (A) (A) (A) (A) (A)
                 (A) (A) (A) (A) (A) (A) (A) (A) (A) (A) (A) (A)
                 (A) (A) (A) (A) (A) (A) (A) (A) (A) (A) (A) (A)
                 (A) (A) (A) (A) (A) (A) (A) (A) (A) (A) (A) (A)
                 (A) (A) (A) (A) (A) (A) (A) (A) (A) (A) (A) (A)
                 (A) (A) (A) (A) (A) (A) (A) (A) (A) (A) (A) (A)
                 (A) (A) (A) (A) (A) (A) (A) (A) (A) (A) (A) (A)
                 (A) (A) (A) (A) (A) (A) (A) (A) (A) (A) (A) (A)
                 (A) (A) (A) (A) (A) (A) (A) (A) (A) (A) (A) (A)
                 (A) (A) (A) (A) (A) (A) (A) (A) (A) (A) (A) (A)
                 (A) (A) (A) (A) (A) (A) (A) (A) (A) (A) (A) (A)
                 (A) (A) (A) (A) (A) (A) (A) (A) (A) (A) (A) (A)
                 (A) (A) (A) (A) (A) (A) (A) (A) (A) (A) (A) (A)
                 (A) (A) (A) (A) (A) (A) (A) (A) (A) (A) (A) (A)
                 (A) (A) (A) (A) (A) (A) (A) (A) (A) (A) (A) (A)
                 (A) (A) (A) (A) (A) (A) (A) (A) (A) (A) (A) (A)
                 (A) (A) (A) (A) (A) (A) (A) (A) (A) (A) (A) (A)
                 (A) (A) (A) (A) (A) (A) (A) (A) (A) (A) (A) (A)
                 (A) (A) (A) (A) (A) (A) (A) (A) (A) (A) (A) (A)
                 (A) (A) (A) (A) (A) (A) (A) (A) (A) (A) (A) (A)
                 (A) (A) (A) (A) (A) (A) (A) (A) (A) (A) (A) (A)
                 (A) (A) (A) (A) (A) (A) (A) (A) (A) (A) (A) (A)
                 (A) (A) (A) (A) (A) (A) (A) (A) (A) (A) (A) (A)
                 (A) (A) (A) (A) (A) (A) (A) (A) (A) (A) (A) (A)
                 (A) (A) (A) (A) (A) (A) (A) (A) (A) (A) (A) (A)
                 (A) (A) (A) (A) (A) (A) (A) (A) (A) (A) (A) (A)
                 (A) (A) (A) (A) (A) (A) (A) (A) (A) (A) (A) (A)
                 (A) (A) (A) (A) (A) (A) (A) (A) (A) (A) (A) (A)
                 (A) (A) (A) (A) (A) (A) (A) (A) (A) (A) (A) (A)
                 (A) (A) (A) (A) (A) (A) (A) (A) (A) (A) (A) (A)
                 (A) (A) (A) (A) (A) (A) (A) (A) (A) (A) (A) (A)
                 (A) (A) (A) (A) (A) (A) (A) (A) (A) (A) (A) (A)
                 (A) (A) (A) (A) (A) (A) (A) (A) (A)
 The electronic state is 1-A.
 Alpha  occ. eigenvalues --  -19.23946 -19.23934 -14.63941 -14.41034 -10.31839
 Alpha  occ. eigenvalues --  -10.30141 -10.27676 -10.27551 -10.26217 -10.26143
 Alpha  occ. eigenvalues --   -1.32240  -1.14449  -1.02594  -0.96320  -0.87601
 Alpha  occ. eigenvalues --   -0.85343  -0.77088  -0.71725  -0.67584  -0.64410
 Alpha  occ. eigenvalues --   -0.62149  -0.61248  -0.60392  -0.58952  -0.52976
 Alpha  occ. eigenvalues --   -0.52392  -0.51079  -0.49458  -0.47010  -0.42929
 Alpha  occ. eigenvalues --   -0.40451  -0.39349  -0.39110  -0.37578  -0.33533
 Alpha  occ. eigenvalues --   -0.28256
 Alpha virt. eigenvalues --   -0.05343   0.01421   0.03107   0.04069   0.04868
 Alpha virt. eigenvalues --    0.05206   0.06757   0.07202   0.07413   0.08927
 Alpha virt. eigenvalues --    0.10401   0.10548   0.10837   0.12459   0.13284
 Alpha virt. eigenvalues --    0.14613   0.14902   0.16068   0.16604   0.16820
 Alpha virt. eigenvalues --    0.18189   0.19159   0.19782   0.20455   0.21180
 Alpha virt. eigenvalues --    0.21492   0.22291   0.22379   0.23136   0.23226
 Alpha virt. eigenvalues --    0.23894   0.24661   0.24959   0.25625   0.26700
 Alpha virt. eigenvalues --    0.27817   0.28300   0.28550   0.29293   0.29519
 Alpha virt. eigenvalues --    0.29941   0.30928   0.30977   0.31220   0.31835
 Alpha virt. eigenvalues --    0.32310   0.33830   0.34216   0.34401   0.35040
 Alpha virt. eigenvalues --    0.35874   0.36332   0.37134   0.37717   0.38377
 Alpha virt. eigenvalues --    0.38887   0.39113   0.39580   0.39918   0.41129
 Alpha virt. eigenvalues --    0.41502   0.42467   0.43024   0.43285   0.43706
 Alpha virt. eigenvalues --    0.44266   0.44896   0.45921   0.46541   0.47074
 Alpha virt. eigenvalues --    0.47256   0.47827   0.48002   0.48638   0.49441
 Alpha virt. eigenvalues --    0.49917   0.50462   0.50915   0.52679   0.53206
 Alpha virt. eigenvalues --    0.53639   0.53889   0.55391   0.55601   0.57197
 Alpha virt. eigenvalues --    0.58068   0.59045   0.59267   0.60416   0.60722
 Alpha virt. eigenvalues --    0.60937   0.61575   0.61948   0.62800   0.63646
 Alpha virt. eigenvalues --    0.64387   0.64930   0.65957   0.66763   0.67959
 Alpha virt. eigenvalues --    0.68177   0.68742   0.69038   0.69770   0.70381
 Alpha virt. eigenvalues --    0.71002   0.71828   0.72475   0.72978   0.73340
 Alpha virt. eigenvalues --    0.73723   0.74048   0.74430   0.75389   0.76848
 Alpha virt. eigenvalues --    0.77316   0.78483   0.78514   0.79790   0.80116
 Alpha virt. eigenvalues --    0.80344   0.80605   0.82387   0.82452   0.83423
 Alpha virt. eigenvalues --    0.84325   0.85077   0.85386   0.87050   0.87652
 Alpha virt. eigenvalues --    0.89441   0.91775   0.93641   0.95561   0.96078
 Alpha virt. eigenvalues --    0.97065   0.97594   0.98299   0.99416   0.99925
 Alpha virt. eigenvalues --    1.00535   1.01977   1.02668   1.03794   1.05132
 Alpha virt. eigenvalues --    1.05878   1.07827   1.09392   1.10302   1.10504
 Alpha virt. eigenvalues --    1.11197   1.14373   1.17197   1.19449   1.19986
 Alpha virt. eigenvalues --    1.23884   1.25110   1.27086   1.31327   1.31608
 Alpha virt. eigenvalues --    1.33831   1.34543   1.36156   1.36778   1.38464
 Alpha virt. eigenvalues --    1.40639   1.41764   1.43302   1.44207   1.47460
 Alpha virt. eigenvalues --    1.48888   1.49334   1.52125   1.53110   1.55153
 Alpha virt. eigenvalues --    1.57385   1.59448   1.60764   1.61571   1.62738
 Alpha virt. eigenvalues --    1.68415   1.70760   1.72434   1.74106   1.75975
 Alpha virt. eigenvalues --    1.77618   1.78150   1.79045   1.79511   1.82946
 Alpha virt. eigenvalues --    1.83570   1.84588   1.88184   1.89111   1.90578
 Alpha virt. eigenvalues --    1.91048   1.92813   1.94109   1.94333   1.96316
 Alpha virt. eigenvalues --    1.98406   1.99690   2.00873   2.02022   2.03511
 Alpha virt. eigenvalues --    2.05917   2.07563   2.08869   2.09157   2.14939
 Alpha virt. eigenvalues --    2.18791   2.19522   2.23665   2.25958   2.27582
 Alpha virt. eigenvalues --    2.28142   2.30372   2.32109   2.33588   2.34654
 Alpha virt. eigenvalues --    2.36388   2.39714   2.41122   2.41346   2.44291
 Alpha virt. eigenvalues --    2.46814   2.50763   2.53660   2.54223   2.56117
 Alpha virt. eigenvalues --    2.57309   2.63519   2.64146   2.67240   2.68817
 Alpha virt. eigenvalues --    2.71123   2.72238   2.73736   2.75422   2.79628
 Alpha virt. eigenvalues --    2.80865   2.82665   2.85251   2.86489   2.86840
 Alpha virt. eigenvalues --    2.87792   2.88229   2.91039   2.93086   2.93908
 Alpha virt. eigenvalues --    2.94609   2.97897   3.00059   3.00824   3.01938
 Alpha virt. eigenvalues --    3.03197   3.09371   3.09851   3.11008   3.11395
 Alpha virt. eigenvalues --    3.13552   3.14704   3.16107   3.20341   3.21566
 Alpha virt. eigenvalues --    3.23832   3.25628   3.26477   3.28148   3.30200
 Alpha virt. eigenvalues --    3.31485   3.33009   3.35153   3.36112   3.37799
 Alpha virt. eigenvalues --    3.40187   3.41135   3.42815   3.43859   3.45233
 Alpha virt. eigenvalues --    3.45863   3.47271   3.48843   3.49725   3.50469
 Alpha virt. eigenvalues --    3.52111   3.54831   3.54966   3.56881   3.59305
 Alpha virt. eigenvalues --    3.61728   3.62880   3.63290   3.67409   3.68946
 Alpha virt. eigenvalues --    3.69912   3.72135   3.73563   3.79130   3.85008
 Alpha virt. eigenvalues --    3.89420   3.90115   3.95649   3.97714   4.01052
 Alpha virt. eigenvalues --    4.04239   4.06043   4.13158   4.16220   4.18396
 Alpha virt. eigenvalues --    4.18901   4.19463   4.25506   4.26216   4.27278
 Alpha virt. eigenvalues --    4.29115   4.30583   4.30632   4.32470   4.33810
 Alpha virt. eigenvalues --    4.35718   4.41400   4.46868   4.52026   4.57442
 Alpha virt. eigenvalues --    4.62662   4.66812   4.68571   4.75212   4.76744
 Alpha virt. eigenvalues --    4.78271   4.81130   4.81996   4.83912   4.87876
 Alpha virt. eigenvalues --    4.89524   4.93912   4.98180   5.00272   5.02163
 Alpha virt. eigenvalues --    5.04532   5.06503   5.07280   5.14674   5.19854
 Alpha virt. eigenvalues --    5.20131   5.22908   5.25519   5.27861   5.29590
 Alpha virt. eigenvalues --    5.30700   5.39102   5.40505   5.43609   5.44460
 Alpha virt. eigenvalues --    5.48742   5.52538   5.56678   5.58417   5.66462
 Alpha virt. eigenvalues --    5.68225   5.69354   5.71727   5.77968   5.96037
 Alpha virt. eigenvalues --    5.98869   6.07288   6.11492   6.41744   6.43005
 Alpha virt. eigenvalues --    6.51205   6.57439   6.59412   6.61873   6.92666
 Alpha virt. eigenvalues --    6.93862   6.96836   7.10045   7.28894   7.43414
 Alpha virt. eigenvalues --    7.51915   7.80012   7.82414  22.66023  22.84576
 Alpha virt. eigenvalues --   22.94550  22.99031  23.12667  23.43410  32.43169
 Alpha virt. eigenvalues --   32.80442  44.45326  44.61779
          Condensed to atoms (all electrons):
              1          2          3          4          5          6
     1  C    6.548336   0.228141  -0.441468  -0.028905  -0.380394   0.352600
     2  C    0.228141   6.355657   0.603340  -0.335231  -0.677567  -0.240127
     3  C   -0.441468   0.603340   6.835935   0.095418  -0.758311  -0.034398
     4  C   -0.028905  -0.335231   0.095418   6.856712   0.084153  -0.444170
     5  C   -0.380394  -0.677567  -0.758311   0.084153   7.755893  -0.169990
     6  C    0.352600  -0.240127  -0.034398  -0.444170  -0.169990   6.745973
     7  H    0.249097  -0.278066  -0.006548   0.007968   0.108822  -0.013960
     8  H    0.035809  -0.172138   0.187989   0.009106   0.059267  -0.005213
     9  H    0.008155   0.048544   0.042845   0.319124  -0.290225   0.042528
    10  H    0.027440   0.095966   0.037066   0.025070  -0.454561   0.361950
    11  N   -0.163570   0.395773  -0.194394   0.009935   0.045068  -0.007594
    12  O    0.025263  -0.041341  -0.028053   0.007299  -0.009847  -0.002114
    13  O   -0.034753  -0.025395   0.027863  -0.004347  -0.011935   0.010793
    14  N    0.022772   0.043967   0.044665  -0.005805  -0.103955   0.014652
    15  H   -0.005276  -0.001721   0.000724   0.043342  -0.017610  -0.052887
    16  H    0.002075  -0.003027  -0.006477  -0.025700   0.023366   0.016217
              7          8          9         10         11         12
     1  C    0.249097   0.035809   0.008155   0.027440  -0.163570   0.025263
     2  C   -0.278066  -0.172138   0.048544   0.095966   0.395773  -0.041341
     3  C   -0.006548   0.187989   0.042845   0.037066  -0.194394  -0.028053
     4  C    0.007968   0.009106   0.319124   0.025070   0.009935   0.007299
     5  C    0.108822   0.059267  -0.290225  -0.454561   0.045068  -0.009847
     6  C   -0.013960  -0.005213   0.042528   0.361950  -0.007594  -0.002114
     7  H    0.515932   0.008909  -0.002259  -0.042069   0.042455  -0.004348
     8  H    0.008909   0.440883  -0.011304  -0.002588   0.025747  -0.007174
     9  H   -0.002259  -0.011304   0.457833   0.009128  -0.001897   0.000511
    10  H   -0.042069  -0.002588   0.009128   0.552590  -0.004867   0.000280
    11  N    0.042455   0.025747  -0.001897  -0.004867   5.741149   0.101463
    12  O   -0.004348  -0.007174   0.000511   0.000280   0.101463   8.686663
    13  O   -0.014237  -0.004386   0.000232   0.001374   0.095264  -0.105565
    14  N   -0.005783  -0.002226   0.035136   0.083258  -0.001560   0.000144
    15  H    0.000089   0.000264  -0.001311  -0.009694   0.000060   0.000012
    16  H    0.000245   0.000066  -0.007751  -0.005534   0.000045   0.000000
             13         14         15         16
     1  C   -0.034753   0.022772  -0.005276   0.002075
     2  C   -0.025395   0.043967  -0.001721  -0.003027
     3  C    0.027863   0.044665   0.000724  -0.006477
     4  C   -0.004347  -0.005805   0.043342  -0.025700
     5  C   -0.011935  -0.103955  -0.017610   0.023366
     6  C    0.010793   0.014652  -0.052887   0.016217
     7  H   -0.014237  -0.005783   0.000089   0.000245
     8  H   -0.004386  -0.002226   0.000264   0.000066
     9  H    0.000232   0.035136  -0.001311  -0.007751
    10  H    0.001374   0.083258  -0.009694  -0.005534
    11  N    0.095264  -0.001560   0.000060   0.000045
    12  O   -0.105565   0.000144   0.000012   0.000000
    13  O    8.686668   0.000247  -0.000011   0.000008
    14  N    0.000247   6.576220   0.381942   0.364174
    15  H   -0.000011   0.381942   0.465896  -0.026072
    16  H    0.000008   0.364174  -0.026072   0.422632
 Mulliken atomic charges:
              1
     1  C   -0.445320
     2  C    0.003225
     3  C   -0.406197
     4  C   -0.613967
     5  C    0.797824
     6  C   -0.574258
     7  H    0.433752
     8  H    0.436990
     9  H    0.350711
    10  H    0.325192
    11  N    0.916924
    12  O   -0.623196
    13  O   -0.621820
    14  N   -0.447848
    15  H    0.222253
    16  H    0.245735
 Sum of Mulliken atomic charges =   0.00000
 Mulliken charges with hydrogens summed into heavy atoms:
              1
     1  C   -0.011569
     2  C    0.003225
     3  C    0.030793
     4  C   -0.263256
     5  C    0.797824
     6  C   -0.249066
    11  N    0.916924
    12  O   -0.623196
    13  O   -0.621820
    14  N    0.020140
 Sum of Mulliken charges with hydrogens summed into heavy atoms =   0.00000
 Electronic spatial extent (au):  <R**2>=           1542.4121
 Charge=              0.0000 electrons
 Dipole moment (field-independent basis, Debye):
    X=             -9.5610    Y=              0.1239    Z=             -0.4412  Tot=              9.5720
 Quadrupole moment (field-independent basis, Debye-Ang):
   XX=            -56.8268   YY=            -52.7427   ZZ=            -60.5564
   XY=             -0.1210   XZ=              0.3588   YZ=              0.6335
 Traceless Quadrupole moment (field-independent basis, Debye-Ang):
   XX=             -0.1182   YY=              3.9660   ZZ=             -3.8478
   XY=             -0.1210   XZ=              0.3588   YZ=              0.6335
 Octapole moment (field-independent basis, Debye-Ang**2):
  XXX=           -128.4822  YYY=              0.3082  ZZZ=              1.3826  XYY=            -19.7743
  XXY=              0.4095  XXZ=             -3.1033  XZZ=             11.6156  YZZ=              0.2451
  YYZ=              0.0518  XYZ=             -2.4428
 Hexadecapole moment (field-independent basis, Debye-Ang**3):
 XXXX=          -1353.2610 YYYY=           -361.0324 ZZZZ=            -70.5077 XXXY=              0.5718
 XXXZ=             -6.5164 YYYX=              0.2450 YYYZ=              0.6698 ZZZX=              1.6245
 ZZZY=              0.5865 XXYY=           -298.6070 XXZZ=           -273.7349 YYZZ=            -84.4859
 XXYZ=              9.8160 YYXZ=             -1.3697 ZZXY=             -1.1220
 N-N= 4.971257036331D+02 E-N=-2.144151674858D+03  KE= 4.899868614338D+02
 D1PCM: C-PCM CHGder 1st derivatives, ID1Alg=3 FixD1E=F DoIter=F DoCFld=F I1PDM=0.
 Calling FoFJK, ICntrl=      2127 FMM=F ISym2X=0 I1Cent= 0 IOpClX= 0 NMat=1 NMatS=1 NMatT=0.
 FoFJK:  IHMeth= 1 ICntrl=  2127 DoSepK=T KAlg= 1 I1Cent= 0 FoldK=F
 ***** Axes restored to original set *****
 -------------------------------------------------------------------
 Center     Atomic                   Forces (Hartrees/Bohr)
 Number     Number              X              Y              Z
 -------------------------------------------------------------------
      1        6           0.005680096   -0.007123890    0.000413703
      2        6          -0.000206375    0.003264265   -0.001798389
      3        6           0.004238904   -0.003761059    0.002271540
      4        6           0.008270066    0.003470735   -0.001752023
      5        6          -0.044660644    0.002300213    0.004883889
      6        6           0.013240609    0.013509972    0.002783064
      7        1          -0.000763582   -0.002142043   -0.001638127
      8        1          -0.000374765   -0.002245868    0.001640661
      9        1          -0.002172839    0.001100160    0.002332470
     10        1          -0.002641807    0.001175379   -0.002414133
     11        7          -0.000668153   -0.006275008   -0.000144459
     12        8           0.000004189   -0.000212196    0.010557270
     13        8           0.000008925   -0.000362298   -0.010586461
     14        7           0.016778338   -0.002140505   -0.006692358
     15        1           0.003940155   -0.000723625    0.000500720
     16        1          -0.000673118    0.000165767   -0.000357366
 -------------------------------------------------------------------
 Cartesian Forces:  Max     0.044660644 RMS     0.008240935

 GradGradGradGradGradGradGradGradGradGradGradGradGradGradGradGradGradGrad
 Berny optimization.
 Internal  Forces:  Max     0.012043959 RMS     0.004253783
 Search for a local minimum.
 Step number   1 out of a maximum of   82
 All quantities printed in internal units (Hartrees-Bohrs-Radians)
 Mixed Optimization -- RFO/linear search
 Second derivative matrix not updated -- first step.
     Eigenvalues ---    0.00979   0.00979   0.01836   0.02030   0.02053
     Eigenvalues ---    0.02151   0.02179   0.02227   0.02234   0.02273
     Eigenvalues ---    0.02277   0.02404   0.02988   0.16000   0.16000
     Eigenvalues ---    0.16000   0.16000   0.16000   0.16000   0.22000
     Eigenvalues ---    0.22701   0.23152   0.23696   0.25000   0.25000
     Eigenvalues ---    0.25000   0.35336   0.35336   0.35674   0.35674
     Eigenvalues ---    0.37742   0.41592   0.42599   0.45808   0.46149
     Eigenvalues ---    0.46431   0.46431   0.47592   0.48783   0.50139
     Eigenvalues ---    0.92658   0.926581000.000001000.000001000.00000
     Eigenvalues --- 1000.000001000.000001000.000001000.000001000.00000
     Eigenvalues --- 1000.000001000.000001000.000001000.000001000.00000
     Eigenvalues --- 1000.000001000.000001000.000001000.000001000.00000
     Eigenvalues --- 1000.000001000.000001000.000001000.000001000.00000
     Eigenvalues --- 1000.000001000.000001000.000001000.000001000.00000
     Eigenvalues --- 1000.000001000.00000
 RFO step:  Lambda=-1.56905560D-02 EMin= 9.79144978D-03
 Linear search not attempted -- first point.
 Maximum step size (   0.300) exceeded in Quadratic search.
    -- Step size scaled by   0.501
 Iteration  1 RMS(Cart)=  0.04410218 RMS(Int)=  0.00179410
 Iteration  2 RMS(Cart)=  0.00262159 RMS(Int)=  0.00083705
 Iteration  3 RMS(Cart)=  0.00000401 RMS(Int)=  0.00083704
 Iteration  4 RMS(Cart)=  0.00000000 RMS(Int)=  0.00083704
 Variable       Old X    -DE/DX   Delta X   Delta X   Delta X     New X
                                 (Linear)    (Quad)   (Total)
    R1        2.62925  -0.00220   0.00000  -0.00123  -0.00171   2.62754
    R2        2.61114  -0.01069   0.00000  -0.01061  -0.01061   2.60053
    R3        2.04594  -0.00251   0.00000  -0.00338  -0.00338   2.04256
    R4        2.62925  -0.00428   0.00000  -0.00340  -0.00388   2.62537
    R5        2.74742  -0.00685   0.00000  -0.00873  -0.00873   2.73869
    R6        2.61114  -0.00816   0.00000  -0.00816  -0.00815   2.60298
    R7        2.04594  -0.00257   0.00000  -0.00345  -0.00345   2.04249
    R8        2.65635  -0.00251   0.00000  -0.00381  -0.00334   2.65301
    R9        2.05132  -0.00256   0.00000  -0.00348  -0.00348   2.04784
   R10        2.65635   0.00277   0.00000   0.00195   0.00243   2.65877
   R11        2.59725  -0.00451   0.00000  -0.00437  -0.00437   2.59288
   R12        2.05132  -0.00267   0.00000  -0.00362  -0.00362   2.04770
   R13        2.31732  -0.00942   0.00000  -0.00501  -0.00501   2.31231
   R14        2.31732  -0.00952   0.00000  -0.00506  -0.00506   2.31225
   R15        1.90349  -0.00050   0.00000  -0.00052  -0.00052   1.90297
   R16        1.90349  -0.00052   0.00000  -0.00054  -0.00054   1.90295
    A1        2.08356  -0.00013   0.00000  -0.00072  -0.00067   2.08289
    A2        2.08485   0.00107   0.00000   0.00324   0.00320   2.08805
    A3        2.11478  -0.00094   0.00000  -0.00251  -0.00255   2.11223
    A4        2.11411  -0.00002   0.00000   0.00133   0.00091   2.11503
    A5        2.08454   0.00013   0.00000  -0.00044  -0.00024   2.08430
    A6        2.08454  -0.00011   0.00000  -0.00089  -0.00069   2.08385
    A7        2.08356   0.00070   0.00000   0.00083   0.00089   2.08445
    A8        2.08485   0.00075   0.00000   0.00273   0.00270   2.08754
    A9        2.11478  -0.00145   0.00000  -0.00356  -0.00359   2.11120
   A10        2.10521   0.00123   0.00000  -0.00226  -0.00127   2.10394
   A11        2.09042  -0.00039   0.00000   0.00178   0.00127   2.09169
   A12        2.08755  -0.00084   0.00000   0.00051   0.00000   2.08755
   A13        2.07472  -0.00331   0.00000   0.00225   0.00017   2.07489
   A14        2.10401  -0.00462   0.00000   0.00836   0.00402   2.10803
   A15        2.03430   0.01204   0.00000   0.04215   0.03844   2.07274
   A16        2.10521   0.00154   0.00000  -0.00139  -0.00037   2.10485
   A17        2.09042  -0.00058   0.00000   0.00124   0.00073   2.09115
   A18        2.08755  -0.00096   0.00000   0.00015  -0.00036   2.08719
   A19        2.05953   0.00377   0.00000   0.00711   0.00711   2.06664
   A20        2.05953   0.00351   0.00000   0.00661   0.00661   2.06614
   A21        2.16412  -0.00728   0.00000  -0.01372  -0.01372   2.15040
   A22        2.07376  -0.00122   0.00000  -0.00684  -0.00698   2.06679
   A23        2.07376   0.00032   0.00000  -0.00245  -0.00259   2.07118
   A24        2.01492  -0.00040   0.00000  -0.00500  -0.00516   2.00977
    D1        0.00048  -0.00125   0.00000  -0.01379  -0.01365  -0.01317
    D2       -3.13981  -0.00084   0.00000  -0.00923  -0.00913   3.13425
    D3        3.14140  -0.00050   0.00000  -0.00654  -0.00658   3.13482
    D4        0.00111  -0.00009   0.00000  -0.00198  -0.00206  -0.00095
    D5        0.00059  -0.00029   0.00000  -0.00426  -0.00441  -0.00382
    D6       -3.13705  -0.00011   0.00000  -0.00634  -0.00673   3.13940
    D7       -3.14032  -0.00105   0.00000  -0.01164  -0.01158   3.13129
    D8        0.00523  -0.00087   0.00000  -0.01372  -0.01390  -0.00867
    D9       -0.00048   0.00071   0.00000   0.01045   0.01054   0.01005
   D10       -3.14140   0.00112   0.00000   0.01125   0.01110  -3.13031
   D11        3.13981   0.00031   0.00000   0.00589   0.00602  -3.13736
   D12       -0.00111   0.00072   0.00000   0.00670   0.00657   0.00546
   D13        3.14078  -0.00020   0.00000  -0.00228  -0.00227   3.13851
   D14       -0.00046  -0.00019   0.00000  -0.00216  -0.00214  -0.00260
   D15        0.00046   0.00020   0.00000   0.00219   0.00218   0.00264
   D16       -3.14078   0.00020   0.00000   0.00232   0.00230  -3.13848
   D17       -0.00059   0.00135   0.00000   0.01094   0.01065   0.01006
   D18        3.13705   0.00193   0.00000   0.01612   0.01564  -3.13050
   D19        3.14032   0.00094   0.00000   0.01013   0.01009  -3.13278
   D20       -0.00523   0.00152   0.00000   0.01530   0.01507   0.00984
   D21        0.00162  -0.00283   0.00000  -0.02835  -0.02807  -0.02644
   D22        2.73623   0.01133   0.00000   0.12730   0.12591   2.86213
   D23       -3.13602  -0.00341   0.00000  -0.03352  -0.03304   3.11412
   D24       -0.40142   0.01075   0.00000   0.12213   0.12093  -0.28049
   D25       -0.00162   0.00229   0.00000   0.02496   0.02492   0.02329
   D26        3.13602   0.00212   0.00000   0.02705   0.02724  -3.11993
   D27       -2.75223  -0.00765   0.00000  -0.11723  -0.11822  -2.87045
   D28        0.38542  -0.00783   0.00000  -0.11514  -0.11590   0.26952
   D29        0.28145  -0.00202   0.00000  -0.03070  -0.03163   0.24982
   D30        2.89223  -0.00479   0.00000  -0.06112  -0.06197   2.83026
   D31        3.02509   0.00850   0.00000   0.11275   0.11361   3.13870
   D32       -0.64731   0.00573   0.00000   0.08234   0.08326  -0.56405
         Item               Value     Threshold  Converged?
 Maximum Force            0.012044     0.000015     NO 
 RMS     Force            0.004254     0.000010     NO 
 Maximum Displacement     0.203304     0.000060     NO 
 RMS     Displacement     0.043927     0.000040     NO 
 Predicted change in Energy=-6.630084D-03
 GradGradGradGradGradGradGradGradGradGradGradGradGradGradGradGradGradGrad

                          Input orientation:                          
 ---------------------------------------------------------------------
 Center     Atomic      Atomic             Coordinates (Angstroms)
 Number     Number       Type             X           Y           Z
 ---------------------------------------------------------------------
      1          6           0        0.181173    0.188060    0.003460
      2          6           0        0.187832    0.867331   -1.209741
      3          6           0        0.172411    0.181834   -2.418034
      4          6           0        0.138063   -1.195173   -2.414582
      5          6           0        0.106506   -1.905108   -1.203811
      6          6           0        0.143111   -1.187551    0.005865
      7          1           0        0.199886    0.746426    0.928758
      8          1           0        0.188662    0.735345   -3.346245
      9          1           0        0.136284   -1.736948   -3.353103
     10          1           0        0.139719   -1.724768    0.946911
     11          7           0        0.218634    2.316249   -1.214238
     12          8           0        0.227343    2.895022   -2.292289
     13          8           0        0.235176    2.900987   -0.139535
     14          7           0       -0.252088   -3.229210   -1.175344
     15          1           0       -0.279042   -3.737204   -2.044412
     16          1           0       -0.010535   -3.777861   -0.366223
 ---------------------------------------------------------------------
                    Distance matrix (angstroms):
                    1          2          3          4          5
     1  C    0.000000
     2  C    1.390435   0.000000
     3  C    2.421518   1.389286   0.000000
     4  C    2.786058   2.389151   1.377440   0.000000
     5  C    2.417526   2.773638   2.415369   1.403912   0.000000
     6  C    1.376140   2.387936   2.784127   2.420464   1.406962
     7  H    1.080879   2.141948   3.394192   3.866723   3.403997
     8  H    3.394127   2.140577   1.080839   2.144168   3.401288
     9  H    3.869649   3.373267   2.134803   1.083672   2.156066
    10  H    2.133244   3.372304   3.867694   3.402955   2.158524
    11  N    2.452219   1.449253   2.450916   3.711793   4.222859
    12  O    3.549681   2.298913   2.716656   4.092997   4.923478
    13  O    2.717229   2.298551   3.548139   4.686555   4.924204
    14  N    3.640745   4.120238   3.655092   2.413552   1.372095
    15  H    4.451211   4.702807   3.962608   2.602484   2.052276
    16  H    3.987725   4.725324   4.463473   3.299717   2.054862
                    6          7          8          9         10
     6  C    0.000000
     7  H    2.143647   0.000000
     8  H    3.864744   4.275032   0.000000
     9  H    3.403608   4.950305   2.472857   0.000000
    10  H    1.083596   2.471992   4.948306   4.300032   0.000000
    11  N    3.710926   2.656526   2.654356   4.583659   4.583297
    12  O    4.685725   3.871998   2.403440   4.752764   5.642921
    13  O    4.092159   2.405126   3.869775   5.643336   4.752587
    14  N    2.391611   4.520752   4.541450   2.668392   2.630745
    15  H    3.298875   5.401115   4.681582   2.426148   3.629500
    16  H    2.621405   4.710671   5.411954   3.620544   2.441739
                   11         12         13         14         15
    11  N    0.000000
    12  O    1.223621   0.000000
    13  O    1.223592   2.152776   0.000000
    14  N    5.565537   6.243688   6.236156   0.000000
    15  H    6.130348   6.656147   6.925212   1.007008   0.000000
    16  H    6.157096   6.949366   6.687210   1.006997   1.700020
                   16
    16  H    0.000000
 Stoichiometry    C6H6N2O2
 Framework group  C1[X(C6H6N2O2)]
 Deg. of freedom    42
 Full point group                 C1      NOp   1
 Largest Abelian subgroup         C1      NOp   1
 Largest concise Abelian subgroup C1      NOp   1
                         Standard orientation:                         
 ---------------------------------------------------------------------
 Center     Atomic      Atomic             Coordinates (Angstroms)
 Number     Number       Type             X           Y           Z
 ---------------------------------------------------------------------
      1          6           0        0.015844   -1.209861   -0.042949
      2          6           0        0.700256    0.000232   -0.019217
      3          6           0        0.020696    1.211648   -0.047260
      4          6           0       -1.356155    1.214547   -0.087454
      5          6           0       -2.072520    0.007157   -0.087997
      6          6           0       -1.359808   -1.205901   -0.079365
      7          1           0        0.569988   -2.137738   -0.026560
      8          1           0        0.578694    2.137268   -0.038413
      9          1           0       -1.892753    2.155479   -0.119924
     10          1           0       -1.900901   -2.144500   -0.100103
     11          7           0        2.148725   -0.001925    0.028404
     12          8           0        2.732254    1.073461    0.045361
     13          8           0        2.728372   -1.079309    0.049174
     14          7           0       -3.414199   -0.013409    0.198569
     15          1           0       -3.918759    0.858059    0.193430
     16          1           0       -3.952834   -0.821384   -0.068062
 ---------------------------------------------------------------------
 Rotational constants (GHZ):      3.9369742      0.8320027      0.6887552
 Basis read from rwf:  (5D, 7F)
 There are   430 symmetry adapted basis functions of A   symmetry.
 Integral buffers will be    131072 words long.
 Raffenetti 2 integral format.
 Two-electron integral symmetry is turned on.
   430 basis functions,   652 primitive gaussians,   490 cartesian basis functions
    36 alpha electrons       36 beta electrons
       nuclear repulsion energy       497.5952861195 Hartrees.
 NAtoms=   16 NActive=   16 NUniq=   16 SFac= 7.50D-01 NAtFMM=   80 NAOKFM=F Big=F
 ------------------------------------------------------------------------------
 Polarizable Continuum Model (PCM)
 =================================
 Model                : C-PCM.
 Atomic radii         : UFF (Universal Force Field).
 Polarization charges : Total charges.
 Charge compensation  : None.
 Solution method      : Matrix inversion.
 Cavity type          : Scaled VdW (van der Waals Surface) (Alpha=1.100).
 Cavity algorithm     : GePol (No added spheres)
                        Default sphere list used, NSphG=   16.
                        Lebedev-Laikov grids with approx.  5.0 points / Ang**2.
                        Smoothing algorithm: Karplus/York (Gamma=1.0000).
                        Polarization charges: spherical gaussians, with
                                              point-specific exponents (IZeta= 3).
                        Self-potential: point-specific (ISelfS= 7).
                        Self-field    : sphere-specific E.n sum rule (ISelfD= 2).
 1st derivatives      : Analytical E(r).r(x)/FMM algorithm (CHGder, D1EAlg=3).
                        Cavity 1st derivative terms included.
 Solvent              : Acetonitrile, Eps=  35.688000 Eps(inf)=   1.806874
 ------------------------------------------------------------------------------
 Spheres list:
 ISph  on   Nord    Re0     Alpha      Xe            Ye            Ze
    1   C      1    1.926   1.100      0.015844     -1.209861     -0.042949
    2   C      2    1.926   1.100      0.700256      0.000232     -0.019217
    3   C      3    1.926   1.100      0.020696      1.211648     -0.047260
    4   C      4    1.926   1.100     -1.356155      1.214547     -0.087454
    5   C      5    1.926   1.100     -2.072520      0.007157     -0.087997
    6   C      6    1.926   1.100     -1.359808     -1.205901     -0.079365
    7   H      7    1.443   1.100      0.569988     -2.137738     -0.026560
    8   H      8    1.443   1.100      0.578694      2.137268     -0.038413
    9   H      9    1.443   1.100     -1.892753      2.155479     -0.119924
   10   H     10    1.443   1.100     -1.900901     -2.144500     -0.100103
   11   N     11    1.830   1.100      2.148725     -0.001925      0.028404
   12   O     12    1.750   1.100      2.732254      1.073461      0.045361
   13   O     13    1.750   1.100      2.728372     -1.079309      0.049174
   14   N     14    1.830   1.100     -3.414199     -0.013409      0.198569
   15   H     15    1.443   1.100     -3.918759      0.858059      0.193430
   16   H     16    1.443   1.100     -3.952834     -0.821384     -0.068062
 ------------------------------------------------------------------------------
 One-electron integrals computed using PRISM.
 NBasis=   430 RedAO= T  NBF=   430
 NBsUse=   429 1.00D-06 NBFU=   429
 Initial guess read from the read-write file.
 B after Tr=     0.000000    0.000000    0.000000
         Rot=    1.000000    0.000000    0.000000    0.000000 Ang=   0.00 deg.
 Initial guess orbital symmetries:
       Occupied  (A) (A) (A) (A) (A) (A) (A) (A) (A) (A) (A) (A)
                 (A) (A) (A) (A) (A) (A) (A) (A) (A) (A) (A) (A)
                 (A) (A) (A) (A) (A) (A) (A) (A) (A) (A) (A) (A)
       Virtual   (A) (A) (A) (A) (A) (A) (A) (A) (A) (A) (A) (A)
                 (A) (A) (A) (A) (A) (A) (A) (A) (A) (A) (A) (A)
                 (A) (A) (A) (A) (A) (A) (A) (A) (A) (A) (A) (A)
                 (A) (A) (A) (A) (A) (A) (A) (A) (A) (A) (A) (A)
                 (A) (A) (A) (A) (A) (A) (A) (A) (A) (A) (A) (A)
                 (A) (A) (A) (A) (A) (A) (A) (A) (A) (A) (A) (A)
                 (A) (A) (A) (A) (A) (A) (A) (A) (A) (A) (A) (A)
                 (A) (A) (A) (A) (A) (A) (A) (A) (A) (A) (A) (A)
                 (A) (A) (A) (A) (A) (A) (A) (A) (A) (A) (A) (A)
                 (A) (A) (A) (A) (A) (A) (A) (A) (A) (A) (A) (A)
                 (A) (A) (A) (A) (A) (A) (A) (A) (A) (A) (A) (A)
                 (A) (A) (A) (A) (A) (A) (A) (A) (A) (A) (A) (A)
                 (A) (A) (A) (A) (A) (A) (A) (A) (A) (A) (A) (A)
                 (A) (A) (A) (A) (A) (A) (A) (A) (A) (A) (A) (A)
                 (A) (A) (A) (A) (A) (A) (A) (A) (A) (A) (A) (A)
                 (A) (A) (A) (A) (A) (A) (A) (A) (A) (A) (A) (A)
                 (A) (A) (A) (A) (A) (A) (A) (A) (A) (A) (A) (A)
                 (A) (A) (A) (A) (A) (A) (A) (A) (A) (A) (A) (A)
                 (A) (A) (A) (A) (A) (A) (A) (A) (A) (A) (A) (A)
                 (A) (A) (A) (A) (A) (A) (A) (A) (A) (A) (A) (A)
                 (A) (A) (A) (A) (A) (A) (A) (A) (A) (A) (A) (A)
                 (A) (A) (A) (A) (A) (A) (A) (A) (A) (A) (A) (A)
                 (A) (A) (A) (A) (A) (A) (A) (A) (A) (A) (A) (A)
                 (A) (A) (A) (A) (A) (A) (A) (A) (A) (A) (A) (A)
                 (A) (A) (A) (A) (A) (A) (A) (A) (A) (A) (A) (A)
                 (A) (A) (A) (A) (A) (A) (A) (A) (A) (A) (A) (A)
                 (A) (A) (A) (A) (A) (A) (A) (A) (A) (A) (A) (A)
                 (A) (A) (A) (A) (A) (A) (A) (A) (A) (A) (A) (A)
                 (A) (A) (A) (A) (A) (A) (A) (A) (A) (A) (A) (A)
                 (A) (A) (A) (A) (A) (A) (A) (A) (A) (A) (A) (A)
                 (A) (A) (A) (A) (A) (A) (A) (A) (A) (A) (A) (A)
                 (A) (A) (A) (A) (A) (A) (A) (A) (A) (A) (A) (A)
                 (A) (A) (A) (A) (A) (A) (A) (A) (A)
 Harris functional with IExCor=20419 diagonalized for initial guess.
 ExpMin= 4.85D-02 ExpMax= 2.70D+04 ExpMxC= 9.22D+02 IAcc=3 IRadAn=         5 AccDes= 0.00D+00
 HarFok:  IExCor=20419 AccDes= 0.00D+00 IRadAn=         5 IDoV= 1
 ScaDFX=  1.000000  1.000000  1.000000  1.000000
 FoFCou: FMM=F IPFlag=           0 FMFlag=      100000 FMFlg1=           0
         NFxFlg=           0 DoJE=T BraDBF=F KetDBF=T FulRan=T
         Omega=  0.000000  0.000000  1.000000  0.000000  0.000000 ICntrl=     500 IOpCl=  0
         NMat0=    1 NMatS0=    1 NMatT0=    0 NMatD0=    1 NMtDS0=    0 NMtDT0=    0
         I1Cent=           4 NGrid=           0.
 Petite list used in FoFCou.
 FoFJK:  IHMeth= 1 ICntrl=     0 DoSepK=T KAlg= 1 I1Cent= 0 FoldK=F
 Gradient too large for Newton-Raphson -- use scaled steepest descent instead.
 FoFJK:  IHMeth= 1 ICntrl=     0 DoSepK=T KAlg= 1 I1Cent= 0 FoldK=F
 FoFJK:  IHMeth= 1 ICntrl=     0 DoSepK=T KAlg= 1 I1Cent= 0 FoldK=F
 FoFJK:  IHMeth= 1 ICntrl=     0 DoSepK=T KAlg= 1 I1Cent= 0 FoldK=F
 FoFJK:  IHMeth= 1 ICntrl=     0 DoSepK=T KAlg= 1 I1Cent= 0 FoldK=F
 FoFJK:  IHMeth= 1 ICntrl=     0 DoSepK=T KAlg= 1 I1Cent= 0 FoldK=F
 FoFJK:  IHMeth= 1 ICntrl=     0 DoSepK=T KAlg= 1 I1Cent= 0 FoldK=F
 FoFJK:  IHMeth= 1 ICntrl=     0 DoSepK=T KAlg= 1 I1Cent= 0 FoldK=F
 Gradient too large for Newton-Raphson -- use scaled steepest descent instead.
 FoFJK:  IHMeth= 1 ICntrl=     0 DoSepK=T KAlg= 1 I1Cent= 0 FoldK=F
 FoFJK:  IHMeth= 1 ICntrl=     0 DoSepK=T KAlg= 1 I1Cent= 0 FoldK=F
 FoFJK:  IHMeth= 1 ICntrl=     0 DoSepK=T KAlg= 1 I1Cent= 0 FoldK=F
 LinEq1:  Iter=  0 NonCon=     1 RMS=3.73D-05 Max=1.37D-03
 AX will form     1 AO Fock derivatives at one time.
 FoFJK:  IHMeth= 1 ICntrl=     0 DoSepK=T KAlg= 1 I1Cent= 0 FoldK=F
 LinEq1:  Iter=  1 NonCon=     1 RMS=2.98D-05 Max=1.09D-03
 FoFJK:  IHMeth= 1 ICntrl=     0 DoSepK=T KAlg= 1 I1Cent= 0 FoldK=F
 LinEq1:  Iter=  2 NonCon=     1 RMS=1.20D-05 Max=5.28D-04
 FoFJK:  IHMeth= 1 ICntrl=     0 DoSepK=T KAlg= 1 I1Cent= 0 FoldK=F
 LinEq1:  Iter=  3 NonCon=     1 RMS=6.99D-06 Max=4.18D-04
 FoFJK:  IHMeth= 1 ICntrl=     0 DoSepK=T KAlg= 1 I1Cent= 0 FoldK=F
 LinEq1:  Iter=  4 NonCon=     1 RMS=5.82D-06 Max=2.62D-04
 FoFJK:  IHMeth= 1 ICntrl=     0 DoSepK=T KAlg= 1 I1Cent= 0 FoldK=F
 LinEq1:  Iter=  5 NonCon=     1 RMS=2.83D-06 Max=1.06D-04
 FoFJK:  IHMeth= 1 ICntrl=     0 DoSepK=T KAlg= 1 I1Cent= 0 FoldK=F
 LinEq1:  Iter=  6 NonCon=     1 RMS=1.76D-06 Max=7.29D-05
 FoFJK:  IHMeth= 1 ICntrl=     0 DoSepK=T KAlg= 1 I1Cent= 0 FoldK=F
 LinEq1:  Iter=  7 NonCon=     1 RMS=7.17D-07 Max=2.02D-05
 FoFJK:  IHMeth= 1 ICntrl=     0 DoSepK=T KAlg= 1 I1Cent= 0 FoldK=F
 LinEq1:  Iter=  8 NonCon=     1 RMS=3.24D-07 Max=6.74D-06
 FoFJK:  IHMeth= 1 ICntrl=     0 DoSepK=T KAlg= 1 I1Cent= 0 FoldK=F
 LinEq1:  Iter=  9 NonCon=     1 RMS=1.07D-07 Max=5.57D-06
 FoFJK:  IHMeth= 1 ICntrl=     0 DoSepK=T KAlg= 1 I1Cent= 0 FoldK=F
 LinEq1:  Iter= 10 NonCon=     1 RMS=5.45D-08 Max=2.18D-06
 FoFJK:  IHMeth= 1 ICntrl=     0 DoSepK=T KAlg= 1 I1Cent= 0 FoldK=F
 LinEq1:  Iter= 11 NonCon=     1 RMS=2.05D-08 Max=4.78D-07
 FoFJK:  IHMeth= 1 ICntrl=     0 DoSepK=T KAlg= 1 I1Cent= 0 FoldK=F
 LinEq1:  Iter= 12 NonCon=     1 RMS=7.81D-09 Max=2.80D-07
 FoFJK:  IHMeth= 1 ICntrl=     0 DoSepK=T KAlg= 1 I1Cent= 0 FoldK=F
 LinEq1:  Iter= 13 NonCon=     0 RMS=3.51D-09 Max=1.49D-07
 Linear equations converged to 1.682D-08 1.682D-07 after    13 iterations.
 FoFJK:  IHMeth= 1 ICntrl=     0 DoSepK=T KAlg= 1 I1Cent= 0 FoldK=F
 FoFJK:  IHMeth= 1 ICntrl=     0 DoSepK=T KAlg= 1 I1Cent= 0 FoldK=F
 FoFJK:  IHMeth= 1 ICntrl=     0 DoSepK=T KAlg= 1 I1Cent= 0 FoldK=F
 LinEq1:  Iter=  0 NonCon=     1 RMS=4.79D-08 Max=1.87D-06
 FoFJK:  IHMeth= 1 ICntrl=     0 DoSepK=T KAlg= 1 I1Cent= 0 FoldK=F
 LinEq1:  Iter=  1 NonCon=     1 RMS=3.75D-08 Max=1.85D-06
 FoFJK:  IHMeth= 1 ICntrl=     0 DoSepK=T KAlg= 1 I1Cent= 0 FoldK=F
 LinEq1:  Iter=  2 NonCon=     1 RMS=1.26D-08 Max=6.04D-07
 FoFJK:  IHMeth= 1 ICntrl=     0 DoSepK=T KAlg= 1 I1Cent= 0 FoldK=F
 LinEq1:  Iter=  3 NonCon=     1 RMS=1.07D-08 Max=4.69D-07
 FoFJK:  IHMeth= 1 ICntrl=     0 DoSepK=T KAlg= 1 I1Cent= 0 FoldK=F
 LinEq1:  Iter=  4 NonCon=     1 RMS=5.17D-09 Max=2.88D-07
 FoFJK:  IHMeth= 1 ICntrl=     0 DoSepK=T KAlg= 1 I1Cent= 0 FoldK=F
 LinEq1:  Iter=  5 NonCon=     1 RMS=3.65D-09 Max=1.13D-07
 FoFJK:  IHMeth= 1 ICntrl=     0 DoSepK=T KAlg= 1 I1Cent= 0 FoldK=F
 LinEq1:  Iter=  6 NonCon=     1 RMS=1.53D-09 Max=3.75D-08
 FoFJK:  IHMeth= 1 ICntrl=     0 DoSepK=T KAlg= 1 I1Cent= 0 FoldK=F
 LinEq1:  Iter=  7 NonCon=     1 RMS=8.48D-10 Max=2.67D-08
 FoFJK:  IHMeth= 1 ICntrl=     0 DoSepK=T KAlg= 1 I1Cent= 0 FoldK=F
 LinEq1:  Iter=  8 NonCon=     1 RMS=3.31D-10 Max=1.64D-08
 FoFJK:  IHMeth= 1 ICntrl=     0 DoSepK=T KAlg= 1 I1Cent= 0 FoldK=F
 LinEq1:  Iter=  9 NonCon=     1 RMS=1.49D-10 Max=7.74D-09
 FoFJK:  IHMeth= 1 ICntrl=     0 DoSepK=T KAlg= 1 I1Cent= 0 FoldK=F
 LinEq1:  Iter= 10 NonCon=     1 RMS=8.70D-11 Max=4.12D-09
 FoFJK:  IHMeth= 1 ICntrl=     0 DoSepK=T KAlg= 1 I1Cent= 0 FoldK=F
 LinEq1:  Iter= 11 NonCon=     1 RMS=2.97D-11 Max=9.86D-10
 FoFJK:  IHMeth= 1 ICntrl=     0 DoSepK=T KAlg= 1 I1Cent= 0 FoldK=F
 LinEq1:  Iter= 12 NonCon=     0 RMS=1.49D-11 Max=3.68D-10
 Linear equations converged to 6.523D-11 6.523D-10 after    12 iterations.
 FoFJK:  IHMeth= 1 ICntrl=     0 DoSepK=T KAlg= 1 I1Cent= 0 FoldK=F
 Error on total polarization charges =  0.01383
 SCF Done:  E(RCAM-B3LYP) =  -492.097719317     a.u. after    5 cycles
            Convg  =    0.1474D-08                    40 Fock formations.
              S**2 =  0.0000                  -V/T =  2.0042
 D1PCM: C-PCM CHGder 1st derivatives, ID1Alg=3 FixD1E=F DoIter=F DoCFld=F I1PDM=0.
 Calling FoFJK, ICntrl=      2127 FMM=F ISym2X=0 I1Cent= 0 IOpClX= 0 NMat=1 NMatS=1 NMatT=0.
 FoFJK:  IHMeth= 1 ICntrl=  2127 DoSepK=T KAlg= 1 I1Cent= 0 FoldK=F
 ***** Axes restored to original set *****
 -------------------------------------------------------------------
 Center     Atomic                   Forces (Hartrees/Bohr)
 Number     Number              X              Y              Z
 -------------------------------------------------------------------
      1        6           0.002919516   -0.003413219   -0.000547617
      2        6           0.000026183    0.003623529   -0.000711560
      3        6           0.002472208   -0.002210340    0.001217663
      4        6           0.004554641    0.001628891   -0.000641153
      5        6          -0.026546498   -0.001191838    0.003860372
      6        6           0.007763344    0.004674913    0.000011319
      7        1          -0.000194962   -0.001144383   -0.000792918
      8        1          -0.000071804   -0.001146259    0.000768497
      9        1          -0.001958191    0.000554676    0.001194397
     10        1          -0.002131015    0.000490283   -0.001214317
     11        7          -0.000211650   -0.003078100   -0.000051764
     12        8          -0.000061746   -0.000766396    0.004657124
     13        8          -0.000073628   -0.000824455   -0.004617241
     14        7           0.011913125    0.002818115   -0.003654384
     15        1           0.002636001   -0.000264813    0.000455583
     16        1          -0.001035521    0.000249397    0.000065997
 -------------------------------------------------------------------
 Cartesian Forces:  Max     0.026546498 RMS     0.004818940

 GradGradGradGradGradGradGradGradGradGradGradGradGradGradGradGradGradGrad
 Berny optimization.
 Using GEDIIS/GDIIS optimizer.
 Internal  Forces:  Max     0.006322396 RMS     0.002337087
 Search for a local minimum.
 Step number   2 out of a maximum of   82
 All quantities printed in internal units (Hartrees-Bohrs-Radians)
 Mixed Optimization -- RFO/linear search
 Update second derivatives using D2CorX and points    1    2
 DE= -6.16D-03 DEPred=-6.63D-03 R= 9.29D-01
 SS=  1.41D+00  RLast= 3.00D-01 DXNew= 5.0454D-01 8.9925D-01
 Trust test= 9.29D-01 RLast= 3.00D-01 DXMaxT set to 5.05D-01
 Use linear search instead of GDIIS.
     Eigenvalues ---    0.00979   0.00979   0.01829   0.01933   0.02043
     Eigenvalues ---    0.02151   0.02179   0.02230   0.02233   0.02270
     Eigenvalues ---    0.02273   0.03013   0.03376   0.15975   0.16000
     Eigenvalues ---    0.16000   0.16000   0.16000   0.16003   0.22008
     Eigenvalues ---    0.22948   0.23739   0.23996   0.25000   0.25000
     Eigenvalues ---    0.25392   0.35294   0.35337   0.35641   0.35674
     Eigenvalues ---    0.37437   0.41821   0.42685   0.45893   0.45991
     Eigenvalues ---    0.46428   0.46431   0.47613   0.48197   0.50656
     Eigenvalues ---    0.92415   0.926581000.000001000.000001000.00000
     Eigenvalues --- 1000.000001000.000001000.000001000.000001000.00000
     Eigenvalues --- 1000.000001000.000001000.000001000.000001000.00000
     Eigenvalues --- 1000.000001000.000001000.000001000.000001000.00000
     Eigenvalues --- 1000.000001000.000001000.000001000.000001000.00000
     Eigenvalues --- 1000.000001000.000001000.000001000.000001000.00000
     Eigenvalues --- 1000.000001000.00000
 RFO step:  Lambda=-1.49319938D-03 EMin= 9.78995755D-03
 Quartic linear search produced a step of  1.52702.
 Iteration  1 RMS(Cart)=  0.08159622 RMS(Int)=  0.01124977
 Iteration  2 RMS(Cart)=  0.01760179 RMS(Int)=  0.00313321
 Iteration  3 RMS(Cart)=  0.00030171 RMS(Int)=  0.00312654
 Iteration  4 RMS(Cart)=  0.00000088 RMS(Int)=  0.00312654
 Variable       Old X    -DE/DX   Delta X   Delta X   Delta X     New X
                                 (Linear)    (Quad)   (Total)
    R1        2.62754  -0.00113  -0.00261   0.00130  -0.00310   2.62444
    R2        2.60053  -0.00476  -0.01620   0.00744  -0.00876   2.59177
    R3        2.04256  -0.00127  -0.00516   0.00130  -0.00385   2.03871
    R4        2.62537  -0.00202  -0.00592   0.00314  -0.00456   2.62081
    R5        2.73869  -0.00468  -0.01333  -0.00461  -0.01794   2.72075
    R6        2.60298  -0.00407  -0.01245   0.00360  -0.00885   2.59414
    R7        2.04249  -0.00125  -0.00527   0.00171  -0.00356   2.03893
    R8        2.65301  -0.00144  -0.00510  -0.00039  -0.00373   2.64928
    R9        2.04784  -0.00131  -0.00531   0.00128  -0.00403   2.04382
   R10        2.65877  -0.00082   0.00371  -0.01430  -0.00883   2.64994
   R11        2.59288  -0.00630  -0.00667  -0.01845  -0.02511   2.56777
   R12        2.04770  -0.00129  -0.00553   0.00185  -0.00369   2.04401
   R13        2.31231  -0.00446  -0.00765   0.00279  -0.00486   2.30745
   R14        2.31225  -0.00445  -0.00773   0.00298  -0.00475   2.30750
   R15        1.90297  -0.00033  -0.00079  -0.00024  -0.00103   1.90194
   R16        1.90295  -0.00033  -0.00082  -0.00015  -0.00097   1.90197
    A1        2.08289   0.00032  -0.00102   0.00508   0.00436   2.08725
    A2        2.08805   0.00042   0.00488  -0.00248   0.00224   2.09029
    A3        2.11223  -0.00075  -0.00389  -0.00253  -0.00659   2.10565
    A4        2.11503  -0.00061   0.00139  -0.00420  -0.00427   2.11075
    A5        2.08430   0.00031  -0.00037   0.00150   0.00185   2.08615
    A6        2.08385   0.00030  -0.00105   0.00275   0.00243   2.08628
    A7        2.08445   0.00026   0.00136  -0.00053   0.00113   2.08557
    A8        2.08754   0.00048   0.00412  -0.00021   0.00375   2.09130
    A9        2.11120  -0.00073  -0.00548   0.00074  -0.00489   2.10630
   A10        2.10394   0.00067  -0.00194  -0.00178   0.00009   2.10403
   A11        2.09169  -0.00016   0.00194   0.00159   0.00161   2.09330
   A12        2.08755  -0.00051   0.00001   0.00018  -0.00176   2.08579
   A13        2.07489  -0.00123   0.00025   0.00849   0.00131   2.07620
   A14        2.10803  -0.00270   0.00613   0.00574  -0.00408   2.10395
   A15        2.07274   0.00537   0.05870  -0.01276   0.03014   2.10288
   A16        2.10485   0.00057  -0.00056  -0.00565  -0.00238   2.10247
   A17        2.09115  -0.00004   0.00112   0.00498   0.00414   2.09528
   A18        2.08719  -0.00053  -0.00055   0.00069  -0.00180   2.08539
   A19        2.06664   0.00120   0.01086  -0.00985   0.00092   2.06756
   A20        2.06614   0.00111   0.01010  -0.00922   0.00078   2.06693
   A21        2.15040  -0.00232  -0.02095   0.01908  -0.00197   2.14843
   A22        2.06679  -0.00073  -0.01065   0.00207  -0.00890   2.05789
   A23        2.07118   0.00025  -0.00395   0.00345  -0.00081   2.07037
   A24        2.00977  -0.00018  -0.00787   0.00361  -0.00464   2.00513
    D1       -0.01317  -0.00046  -0.02084   0.02095   0.00058  -0.01259
    D2        3.13425  -0.00031  -0.01394   0.01150  -0.00206   3.13219
    D3        3.13482  -0.00026  -0.01005   0.00707  -0.00316   3.13166
    D4       -0.00095  -0.00011  -0.00314  -0.00238  -0.00580  -0.00675
    D5       -0.00382  -0.00010  -0.00673   0.01572   0.00849   0.00468
    D6        3.13940  -0.00015  -0.01028   0.00812  -0.00347   3.13593
    D7        3.13129  -0.00030  -0.01768   0.02980   0.01230  -3.13960
    D8       -0.00867  -0.00035  -0.02123   0.02220   0.00034  -0.00834
    D9        0.01005   0.00028   0.01609  -0.01820  -0.00181   0.00824
   D10       -3.13031   0.00046   0.01694  -0.01425   0.00218  -3.12813
   D11       -3.13736   0.00013   0.00919  -0.00875   0.00083  -3.13653
   D12        0.00546   0.00031   0.01004  -0.00481   0.00482   0.01028
   D13        3.13851  -0.00001  -0.00346   0.01961   0.01620  -3.12847
   D14       -0.00260  -0.00012  -0.00327  -0.00508  -0.00830  -0.01090
   D15        0.00264   0.00014   0.00332   0.01036   0.01362   0.01626
   D16       -3.13848   0.00004   0.00351  -0.01434  -0.01088   3.13383
   D17        0.01006   0.00047   0.01627  -0.02138  -0.00610   0.00397
   D18       -3.13050   0.00074   0.02388  -0.01749   0.00476  -3.12574
   D19       -3.13278   0.00028   0.01541  -0.02538  -0.01011   3.14029
   D20        0.00984   0.00056   0.02301  -0.02149   0.00074   0.01059
   D21       -0.02644  -0.00099  -0.04286   0.05657   0.01484  -0.01160
   D22        2.86213   0.00632   0.19226   0.06139   0.24877   3.11091
   D23        3.11412  -0.00126  -0.05045   0.05268   0.00403   3.11815
   D24       -0.28049   0.00605   0.18467   0.05750   0.23796  -0.04252
   D25        0.02329   0.00081   0.03805  -0.05380  -0.01607   0.00722
[...]
 ! D5    D(2,1,6,5)              0.0325         -DE/DX =    0.0                 !
 ! D6    D(2,1,6,10)          -179.9582         -DE/DX =    0.0                 !
 ! D7    D(7,1,6,5)           -179.9031         -DE/DX =    0.0                 !
 ! D8    D(7,1,6,10)             0.1062         -DE/DX =    0.0                 !
 ! D9    D(1,2,3,4)             -0.0131         -DE/DX =    0.0                 !
 ! D10   D(1,2,3,8)           -179.9493         -DE/DX =    0.0                 !
 ! D11   D(11,2,3,4)           179.9126         -DE/DX =    0.0                 !
 ! D12   D(11,2,3,8)            -0.0236         -DE/DX =    0.0                 !
 ! D13   D(1,2,11,12)          179.9602         -DE/DX =    0.0                 !
 ! D14   D(1,2,11,13)           -0.0342         -DE/DX =    0.0                 !
 ! D15   D(3,2,11,12)            0.0337         -DE/DX =    0.0                 !
 ! D16   D(3,2,11,13)         -179.9607         -DE/DX =    0.0                 !
 ! D17   D(2,3,4,5)             -0.0326         -DE/DX =    0.0                 !
 ! D18   D(2,3,4,9)            179.9581         -DE/DX =    0.0                 !
 ! D19   D(8,3,4,5)            179.9031         -DE/DX =    0.0                 !
 ! D20   D(8,3,4,9)             -0.1062         -DE/DX =    0.0                 !
 ! D21   D(3,4,5,6)              0.0765         -DE/DX =    0.0                 !
 ! D22   D(3,4,5,14)           178.9078         -DE/DX =    0.0                 !
 ! D23   D(9,4,5,6)           -179.9142         -DE/DX =    0.0                 !
 ! D24   D(9,4,5,14)            -1.083          -DE/DX =    0.0                 !
 ! D25   D(4,5,6,1)             -0.0765         -DE/DX =    0.0                 !
 ! D26   D(4,5,6,10)           179.9143         -DE/DX =    0.0                 !
 ! D27   D(14,5,6,1)          -178.9078         -DE/DX =    0.0                 !
 ! D28   D(14,5,6,10)            1.083          -DE/DX =    0.0                 !
 ! D29   D(4,5,14,15)           10.2508         -DE/DX =    0.0                 !
 ! D30   D(4,5,14,16)          170.9415         -DE/DX =    0.0                 !
 ! D31   D(6,5,14,15)         -170.9412         -DE/DX =    0.0                 !
 ! D32   D(6,5,14,16)          -10.2505         -DE/DX =    0.0                 !
 --------------------------------------------------------------------------------
 GradGradGradGradGradGradGradGradGradGradGradGradGradGradGradGradGradGrad

 1\1\GINC-DLT04\Freq\RCAM-B3LYP\Gen\C6H6N2O2\MATHEUSMAXIMO\27-Nov-2022\
 0\\#N Geom=AllCheck Guess=TCheck SCRF=Check GenChk RCAM-B3LYP/ChkBas F
 req\\NA CAM-B3LYP def2-TZVPD - solvent cpcm acetonitrile\\0,1\C,0.1518
 289699,0.189116862,0.0007626512\C,0.1847519552,0.8723499298,-1.2093218
 947\C,0.1260229531,0.1842524445,-2.4156666786\C,0.0348533032,-1.183791
 2336,-2.41282692\C,0.0009236589,-1.8967179193,-1.2017844765\C,0.060678
 915,-1.1789228571,0.0053776826\H,0.1992358802,0.7394765624,0.927857978
 7\H,0.1535956651,0.7308730219,-3.3457712613\H,-0.0118069182,-1.7237319
 616,-3.3490989805\H,0.0340490748,-1.7150885793,0.944598471\N,0.2822055
 07,2.3061926749,-1.2132484766\O,0.3105630592,2.8889482785,-2.287400796
 5\O,0.3334620108,2.8932655339,-0.1423004638\N,-0.1111946442,-3.2455188
 65,-1.1978716922\H,-0.0171539864,-3.7633583144,-2.0536712725\H,0.00111
 93564,-3.7599122876,-0.3421969903\\Version=EM64L-G09RevA.02\State=1-A\
 HF=-492.1019392\RMSD=0.000e+00\RMSF=2.347e-06\ZeroPoint=0.120419\Therm
 al=0.1287962\Dipole=-0.0721083,-3.972524,0.0087666\DipoleDeriv=-0.0398
 349,0.0710561,-0.0091765,0.0797417,1.0810739,-0.1660084,-0.0397788,-0.
 6045916,0.1223576,-0.0564454,-0.1449905,-0.0020168,-0.1561988,-2.20973
 58,0.0055666,-0.0019943,0.0054452,-0.2726411,-0.0387229,0.0839507,0.01
 2272,0.0833943,1.0841577,0.1603922,0.0428584,0.5990635,0.1181659,-0.26
 2041,-0.0364587,0.0060136,-0.0681721,-1.1573202,0.035545,0.0780444,0.9
 587028,-0.0435923,0.2297194,0.292003,-0.0002922,0.2561479,3.298866,-0.
 0088589,-0.0002203,-0.0092437,0.2573918,-0.2637302,-0.0568887,-0.00108
 03,-0.0691719,-1.1612971,-0.0295748,-0.0730223,-0.9532001,-0.0379221,0
 .1692376,-0.0034949,-0.0043167,-0.0019029,0.1435842,-0.0477299,-0.0039
 425,-0.0387847,0.061546,0.1693651,-0.0026554,0.0020221,-0.0008752,0.14
 3931,0.0474276,0.001641,0.0385186,0.0610712,0.1820187,-0.0103624,-0.00
 5568,-0.0116873,0.0086322,-0.0821217,-0.0072885,-0.0854726,-0.0141091,
 0.1822045,-0.0085219,0.0014049,-0.0099107,0.0093072,0.0822578,0.003131
 2,0.0855797,-0.0149703,0.3491169,0.2618575,0.0215002,0.2730433,4.21303
 84,-0.0065398,0.0214772,-0.0064198,2.4123851,-0.344232,-0.0722583,0.03
 02064,-0.0783619,-1.553891,0.6100765,0.0563674,0.9583373,-1.4175748,-0
 .3465609,-0.0928618,-0.0526751,-0.0916336,-1.5601948,-0.6076825,-0.078
 8264,-0.955996,-1.4089414,-0.6963872,-0.5555462,0.0061072,-0.2204678,-
 2.8773491,0.0076859,0.0054326,0.0112631,-0.2292283,0.3837432,0.1393945
 ,0.0269757,0.0087249,0.2690499,0.0600733,0.0247795,0.1621831,0.2019828
 ,0.3825491,0.1357769,-0.0313766,0.0073299,0.2681474,-0.0605088,-0.0286
 587,-0.1653848,0.2040789\Polar=74.3801816,11.5032968,233.3345524,0.669
 0173,-0.3123231,139.1951637\PG=C01 [X(C6H6N2O2)]\NImag=0\\0.15179696,0
 .03969655,0.73226602,0.00935078,0.04475509,0.73296251,-0.06549211,-0.0
 0441619,0.00423666,0.13724212,-0.00376759,-0.13740339,0.09858091,0.029
 50464,0.57341827,0.00071808,0.04590811,-0.29004460,0.00658001,0.000058
 82,0.75889443,0.00910720,0.00305230,-0.00207955,-0.06569978,-0.0058912
 5,-0.00548474,0.15165943,0.00261855,0.05169283,-0.02081246,-0.00542887
 ,-0.13798732,-0.04641517,0.03871884,0.73190114,0.00061324,0.02030619,-
 0.05899998,-0.00900288,-0.09908995,-0.28925367,0.00291278,-0.04558736,
 0.73346463,-0.00299314,-0.00217147,0.00182748,0.00859054,-0.00379568,-
 0.00434546,-0.06327473,-0.02217957,0.00131158,0.13203608,-0.00219486,-
 0.04052793,0.03073478,-0.00459165,-0.04889066,-0.07314504,-0.02112914,
 -0.38088708,0.03369263,0.04240357,0.74662917,0.00096551,0.01622940,-0.
 01451033,-0.00074507,-0.01403319,0.03078138,-0.00312528,-0.03720731,-0
 .13564625,0.00929592,0.04937081,0.69939402,0.00116531,-0.00465525,-0.0
 0143230,-0.00736666,0.00430173,-0.00071247,0.00131480,-0.00296487,0.00
 235958,-0.07369030,-0.00377038,0.00185687,0.17953828,-0.00289728,-0.04
 365265,-0.02773778,0.00277619,0.03477912,-0.00024712,-0.00227990,-0.04
 322305,0.02814481,-0.00354669,-0.14687536,0.08180672,0.03111204,0.7284
 4741,-0.00463906,-0.07856568,0.04421845,-0.00070935,-0.00026348,-0.073
 25912,0.00556137,0.07899888,0.04363928,-0.00022987,0.02785582,-0.26900
 705,0.00537258,-0.00041320,0.68843153,-0.06326707,-0.02137753,-0.00277
 024,0.00870964,-0.00347318,0.00482784,-0.00305780,-0.00252431,-0.00206
 064,0.00760120,0.00322715,-0.00124239,-0.07381378,-0.00530574,-0.00391
 721,0.13189433,-0.02182362,-0.38086826,-0.03224668,-0.00302110,-0.0485
 3803,0.07354543,-0.00285400,-0.04071638,-0.03057522,0.00301377,0.05512
 845,-0.01035110,-0.00438544,-0.14731831,-0.02825803,0.04132389,0.74622
 831,0.00166543,0.03865964,-0.13567377,0.00122809,0.01442999,0.03030966
 ,-0.00119799,-0.01607361,-0.01425723,0.00019477,0.00989799,-0.04085060
 ,-0.00600531,-0.08220153,-0.26843970,0.00266274,-0.05045354,0.69993673
 ,-0.04261838,-0.00738383,-0.01117578,0.00556173,0.00030966,0.00056610,
 0.00459698,-0.00037279,0.00014779,-0.00122921,0.00002111,0.00007478,0.
 00898805,-0.00095056,-0.00003536,0.00597105,-0.00100800,-0.00177277,0.
 02809688,-0.00738130,-0.13107834,-0.12647830,0.00063964,0.01308122,0.0
 1205372,-0.00039034,-0.00161275,0.00331987,0.00003671,-0.00072151,0.00
 044360,-0.00096438,-0.00476221,0.00095385,-0.00139699,-0.01010422,-0.0
 2661891,0.00885580,0.13636039,-0.01107434,-0.12526677,-0.27836050,-0.0
 0127683,-0.01506833,-0.01819895,0.00017879,0.00393074,-0.00305910,0.00
 005317,0.00048102,0.00052708,0.00004354,0.00162326,0.00116867,0.000144
 08,0.00214107,0.00614650,0.01216251,0.13713743,0.29009601,0.00458657,-
 0.00045764,-0.00030914,0.00556604,0.00062681,-0.00107574,-0.04225041,-
 0.00467835,0.00614552,0.00600598,-0.00104565,0.00177884,0.00898437,-0.
 00098497,-0.00012759,-0.00123114,0.00001066,-0.00003725,0.00069464,0.0
 0000205,-0.00006801,0.02769646,-0.00046225,-0.00164193,-0.00331645,0.0
 0038483,0.01309282,-0.01219068,-0.00465032,-0.13006660,0.12600886,-0.0
 0082804,-0.01000532,0.02670765,-0.00098479,-0.00477241,-0.00090911,0.0
 0002714,-0.00072521,-0.00043923,-0.00001393,0.00060000,-0.00076073,0.0
 0589387,0.13525790,-0.00034008,-0.00392756,-0.00301949,0.00076698,0.01
 493233,-0.01821483,0.00604404,0.12479769,-0.27974032,-0.00013765,-0.00
 205417,0.00601265,-0.00020646,-0.00157866,0.00118252,-0.00001570,-0.00
 047631,0.00053271,0.00003645,0.00075528,-0.00078382,-0.00657514,-0.136
 67061,0.29159899,-0.00080893,0.00003459,0.00003060,0.00769783,-0.00077
 209,0.00008506,0.00280382,-0.00101138,-0.00187786,-0.03592503,-0.00750
 583,-0.01086028,0.00436472,0.00008380,0.00082203,0.00505604,-0.0003956
 0,0.00010462,-0.00053936,0.00004205,-0.00000111,-0.00531681,0.00044369
 ,0.00007525,0.02499975,-0.00000081,-0.00085507,0.00053413,-0.00079920,
 -0.00436957,0.00175760,-0.00133394,-0.01263841,-0.02892650,-0.00747726
 ,-0.12868295,-0.12071288,0.00053565,0.01010240,0.01515265,-0.00041476,
 -0.00125265,0.00300083,0.00004296,0.00004522,-0.00009504,0.00045903,0.
 00144059,0.00025248,0.00861063,0.13467632,0.00008981,0.00130894,-0.000
 21169,-0.00003393,0.00052647,0.00186104,0.00015834,0.00203918,0.004845
 63,-0.01077837,-0.12083054,-0.27365710,-0.00128913,-0.01599252,-0.0188
 9299,0.00016083,0.00334837,-0.00314750,-0.00000239,-0.00007756,0.00000
 321,0.00005498,-0.00028116,0.00074865,0.01168912,0.13043715,0.28711308
 ,0.00284156,-0.00104630,0.00192365,0.00769416,-0.00078348,-0.00020644,
 -0.00081123,0.00000657,-0.00001779,0.00504666,-0.00046788,-0.00027764,
 0.00436405,0.00041977,-0.00131989,-0.03557101,-0.00489617,0.00578874,-
 0.00531688,0.00044952,0.00005252,-0.00053904,0.00004373,0.00001251,-0.
 00036635,0.00007145,-0.00005374,0.02461961,-0.00071564,-0.01252979,0.0
 2901827,-0.00083639,-0.00437860,-0.00171501,-0.00001253,-0.00086248,-0
 .00053136,-0.00047983,-0.00127821,-0.00299879,0.00021484,0.01010528,-0
 .01527743,-0.00487046,-0.12771243,0.12025642,0.00045354,0.00144066,-0.
 00026501,0.00004501,0.00004591,0.00009393,0.00005659,0.00054761,-0.000
 70806,0.00579360,0.13362800,-0.00011256,-0.00194732,0.00469929,-0.0000
 8729,-0.00048473,0.00187375,-0.00007689,-0.00130675,-0.00020198,-0.000
 33380,-0.00334666,-0.00311258,0.00079076,0.01587039,-0.01889522,0.0057
 0673,0.12037466,-0.27498165,0.00007276,0.00026884,0.00074864,0.0000137
 9,0.00007648,0.00000220,0.00004171,0.00070080,-0.00091767,-0.00609937,
 -0.12997224,0.28854149,-0.00593150,-0.00329015,0.00228643,-0.08272744,
 -0.00283384,-0.00037736,-0.00601463,-0.00386823,-0.00185564,0.00766834
 ,0.00122767,-0.00137373,-0.00160914,-0.00238939,-0.00004104,0.00770112
 ,0.00134141,0.00106991,-0.00418508,0.00027535,-0.00019092,-0.00417981,
 0.00028916,0.00021455,0.00155041,-0.00008801,0.00003337,0.00155143,-0.
 00005410,-0.00006021,0.25811282,-0.00320062,-0.05827571,0.03054075,-0.
 00276784,-0.12350031,0.00003951,-0.00385625,-0.05850532,-0.03017591,0.
 00078583,0.02586848,-0.01792245,-0.00379803,-0.03632649,0.00010184,0.0
 0116823,0.02596079,0.01777187,0.00027194,-0.00007829,-0.00307674,0.000
 33759,-0.00006349,0.00305834,-0.00009397,0.00054296,0.00078641,-0.0001
 1036,0.00054622,-0.00078529,0.02737271,0.65830755,0.00203398,0.0268543
 5,0.01336382,-0.00037749,0.00004014,-0.11859013,-0.00160336,-0.0264884
 1,0.01367649,-0.00046438,-0.00517407,-0.00623340,-0.00003822,0.0000867
 4,-0.00590318,0.00016181,0.00501697,-0.00635857,-0.00003336,-0.0006173
 4,-0.00301442,0.00005688,0.00059943,-0.00303450,-0.00010757,-0.0015960
 3,0.00028361,0.00008087,0.00159649,0.00027934,0.00674708,0.00018472,0.
 89522748,0.00481256,-0.00027164,-0.00072543,0.02051701,-0.00422688,0.0
 0327495,0.00103329,-0.00004597,0.00024107,-0.00074050,-0.00020578,0.00
 029965,0.00035720,0.00053704,0.00015633,-0.00112512,-0.00043322,-0.000
 09174,0.00020117,0.00002232,0.00001602,0.00041009,-0.00026370,0.000089
 38,-0.00002955,-0.00001730,-0.00001603,-0.00072535,-0.00001857,0.00001
 036,-0.08552919,-0.00838857,0.00791190,0.03166010,-0.00035370,0.001526
 67,-0.01085994,-0.00417090,-0.04881851,0.05317226,0.00015459,0.0025412
 8,0.00519199,-0.00016527,-0.00469253,0.00468596,0.00105031,0.00982092,
 0.00234053,-0.00042970,-0.00828404,-0.00211876,0.00002697,0.00068332,0
 .00010524,-0.00024762,-0.00333710,0.00087009,-0.00001124,-0.00029248,-
 0.00027236,-0.00000454,-0.00106697,0.00008465,-0.00835402,-0.23280551,
 0.16359458,0.01231235,0.24380491,-0.00033444,-0.00534897,0.00660938,0.
 00287554,0.04739916,-0.01228948,-0.00109157,-0.01452509,-0.01003622,0.
 00036117,0.00674563,-0.00265940,-0.00103367,-0.00974140,-0.00003246,0.
 00040755,0.00613152,0.00438633,-0.00003648,-0.00083422,0.00112350,-0.0
 0003185,-0.00099611,0.00340096,0.00000360,0.00016677,0.00011499,0.0000
 1868,0.00036886,-0.00011032,0.00764192,0.15943568,-0.39097775,-0.00869
 273,-0.20635640,0.53916388,0.00104639,0.00026216,-0.00047860,0.0203712
 5,-0.00525078,-0.00394895,0.00483602,-0.00015413,0.00076342,-0.0011293
 1,-0.00056287,0.00021173,0.00037567,0.00074382,-0.00016795,-0.00075545
 ,-0.00035094,-0.00033868,0.00041025,-0.00024231,-0.00002449,0.00020202
 ,0.00004012,0.00000350,-0.00072569,-0.00002641,0.00000289,-0.00002921,
 -0.00002076,0.00001918,-0.08599934,-0.01184181,-0.01436940,0.02921031,
 0.00132200,-0.00113802,0.03226097,0.00004712,0.00257854,-0.00524493,-0
 .00531646,-0.04922245,-0.05292209,-0.00012002,0.00159203,0.01088517,-0
 .00038524,-0.00829996,0.00217856,0.00100379,0.00985048,-0.00240232,-0.
 00026675,-0.00473848,-0.00467294,-0.00026559,-0.00333651,-0.00083749,0
 .00002494,0.00068625,-0.00010404,-0.00000635,-0.00106878,-0.00008067,-
 0.00000541,-0.00029205,0.00027418,-0.01189503,-0.23410748,-0.16400907,
 0.00152843,0.05001328,0.00939631,0.01678401,0.24546995,0.00085403,0.01
 447198,-0.01008669,-0.00354953,-0.04714907,-0.01173991,0.00037258,0.00
 537369,0.00652060,-0.00028795,-0.00606981,0.00440643,0.00102050,0.0096
 8791,-0.00008052,-0.00040047,-0.00673128,-0.00259847,0.00009674,0.0010
 2865,0.00340018,0.00005605,0.00083531,0.00111970,-0.00000550,-0.000364
 52,-0.00010817,-0.00000050,-0.00016473,0.00011423,-0.01409936,-0.15985
 039,-0.38920570,-0.00245925,-0.01018760,-0.13899219,0.01944010,0.20722
 700,0.53689823,0.00476385,0.00413103,-0.00095272,-0.00109924,-0.007254
 11,0.00010849,0.00478080,0.00399900,0.00060303,0.00992662,-0.00691616,
 0.00562718,-0.04319677,-0.00002112,-0.00099955,0.00971215,-0.00802911,
 -0.00576327,-0.00031164,0.00010836,-0.00004032,-0.00030940,0.00013756,
 0.00005061,-0.00236680,0.00021411,0.00001484,-0.00236032,0.00020704,0.
 00007461,-0.00000795,0.00749477,-0.00000905,-0.00011072,-0.00204085,0.
 00194138,-0.00015139,-0.00204245,-0.00192286,0.02876453,0.00093338,0.0
 1954177,-0.00605862,-0.00208772,-0.03299831,0.00010418,0.00106128,0.01
 954046,0.00591504,-0.00463359,-0.05515141,0.02655884,-0.02526561,-0.34
 330664,0.00068547,-0.00521468,-0.05546307,-0.02622271,-0.00002456,-0.0
 0022996,-0.00012781,-0.00002156,-0.00022397,0.00013000,0.00025725,0.00
 223617,-0.00135562,0.00028722,0.00224026,0.00134830,0.00232181,0.03390
 163,-0.00009191,-0.00055321,-0.00951022,0.00861030,-0.00073638,-0.0095
 4360,-0.00855677,-0.03407746,0.76819022,-0.00018488,0.00622210,-0.0108
 2342,0.00009807,0.00015937,0.00768937,-0.00015245,-0.00643121,-0.01083
 901,0.00427026,0.05122889,0.00177704,-0.00094875,0.00041600,-0.1368044
 9,-0.00441659,-0.05083837,0.00230322,-0.00005370,-0.00135903,0.0001980
 7,0.00006457,0.00135811,0.00018985,-0.00022895,0.00033350,0.00186902,0
 .00031814,-0.00033950,0.00185846,0.00000136,-0.00014716,0.00055713,-0.
 00002113,-0.00024746,0.00031392,0.00003402,0.00033084,0.00038800,0.008
 98729,0.00055685,0.86397292,0.00178275,-0.00143567,0.00008883,0.000216
 81,0.00167873,-0.00023700,-0.00080498,-0.00070465,-0.00017627,-0.00187
 920,0.00130651,-0.00107217,-0.00495076,-0.00868704,-0.00488072,0.00402
 948,0.00027236,0.00137202,-0.00046442,-0.00004511,0.00001958,0.0001445
 5,-0.00001093,-0.00000931,0.00028621,0.00016841,-0.00000250,-0.0006792
 0,0.00005845,0.00004735,-0.00020113,-0.00171494,-0.00001885,0.00002303
 ,0.00047222,-0.00044443,0.00004587,0.00045624,0.00045836,-0.00312987,0
 .03219776,0.04389823,0.00938736,-0.00025533,-0.00022471,-0.00157007,0.
 00006916,0.00087342,0.00030727,-0.00024772,-0.00055491,-0.00015698,-0.
 00027988,0.00256063,-0.00176033,0.00393769,-0.01650479,-0.03238236,-0.
 00023043,-0.00414990,0.00302630,0.00000554,-0.00034018,0.00008568,0.00
 003197,0.00005327,0.00000553,0.00019293,-0.00049293,0.00102513,0.00007
 224,0.00006159,-0.00012775,-0.00002729,-0.00073771,0.00005192,0.000014
 12,0.00018400,-0.00016357,0.00001686,0.00023699,0.00028995,0.02034361,
 -0.17028067,-0.16659940,-0.02093724,0.17509707,-0.00003588,-0.00121007
 ,0.00067153,0.00016915,0.00243118,0.00008564,-0.00042909,-0.00153684,-
 0.00077469,-0.00007339,0.00353214,0.00065405,-0.00075662,-0.00251839,0
 .00647055,0.00062360,0.00293949,0.00205664,-0.00002327,0.00004640,0.00
 002586,0.00002036,0.00002220,-0.00002135,0.00023199,-0.00050791,-0.000
 13718,0.00002191,0.00013250,0.00023196,-0.00007692,-0.00260961,-0.0000
 2883,0.00002486,0.00070467,-0.00069556,0.00003167,0.00069966,0.0006662
 3,0.03143027,-0.16703516,-0.36154300,-0.03498755,0.18146712,0.36730358
 ,-0.00079200,-0.00067095,0.00017934,0.00021812,0.00162730,0.00022763,0
 .00178119,-0.00140983,-0.00010693,0.00398599,0.00020419,-0.00141392,-0
 .00482504,-0.00860997,0.00515527,-0.00185364,0.00123510,0.00112067,0.0
 0014423,-0.00001137,0.00000581,-0.00046412,-0.00004613,-0.00000892,-0.
 00068027,0.00005546,-0.00002809,0.00028112,0.00017921,-0.00000713,-0.0
 0019893,-0.00165866,0.00002917,0.00003568,0.00043939,-0.00044665,0.000
 03164,0.00045877,0.00042704,-0.00490386,0.03555610,-0.05166550,-0.0038
 0649,-0.00270624,0.00382889,0.01104638,-0.00024259,-0.00054805,0.00016
 128,0.00006186,0.00086230,-0.00031180,-0.00022159,-0.00021343,0.001578
 73,-0.00029734,-0.00417383,-0.00299549,0.00463272,-0.01636369,0.032382
 57,-0.00024189,0.00255342,0.00175821,0.00003175,0.00005316,-0.00000651
 ,0.00000384,-0.00034071,-0.00008431,0.00007491,0.00006157,0.00012687,0
 .00017005,-0.00049499,-0.00102755,-0.00002805,-0.00072733,-0.00004852,
 0.00001059,0.00023299,-0.00028848,0.00001744,0.00018178,0.00015968,0.0
 2374577,-0.16894267,0.16535648,-0.00307510,0.01421882,-0.01655738,-0.0
 2464236,0.17364064,0.00043037,0.00155058,-0.00079452,-0.00017213,-0.00
 246960,0.00009543,0.00001302,0.00124402,0.00066182,-0.00066349,-0.0029
 1941,0.00212406,0.00097909,0.00279476,0.00620372,0.00012807,-0.0035669
 7,0.00063569,-0.00002402,-0.00002226,-0.00002092,0.00003373,-0.0000439
 5,0.00002608,-0.00000272,-0.00013303,0.00023305,-0.00024164,0.00050567
 ,-0.00012995,0.00008056,0.00264843,-0.00004140,-0.00001822,-0.00070746
 ,0.00068042,-0.00004043,-0.00071816,-0.00070195,-0.03914993,0.16553960
 ,-0.36110708,-0.00405557,0.01650157,-0.01496545,0.04270332,-0.18020379
 ,0.36710099\\0.00000125,0.00000022,0.,0.00000257,-0.00000121,-0.000000
 17,0.00000126,0.00000048,0.00000014,-0.00000137,-0.00000025,0.00000018
 ,-0.00000283,0.00000004,-0.00000017,-0.00000130,0.00000019,0.00000003,
 0.00000234,-0.00000011,-0.00000004,0.00000233,-0.00000018,0.00000002,-
 0.00000233,0.00000017,0.00000002,-0.00000231,0.00000015,0.,0.00000535,
 0.00000101,-0.00000006,0.00000643,-0.00000067,0.00000035,0.00000638,-0
 .00000080,-0.00000047,-0.00000522,0.00000033,0.00000004,-0.00000624,0.
 00000031,0.00000006,-0.00000631,0.00000032,0.00000007\\\@


 MOST BUREAUCRACIES FUNCTION LIKE A SEPTIC TANK.
 THE LARGE CHUNKS RISE TO THE TOP.
 Job cpu time:  0 days  4 hours 38 minutes  9.2 seconds.
 File lengths (MBytes):  RWF=    251 Int=      0 D2E=      0 Chk=     16 Scr=      1
 Normal termination of Gaussian 09 at Sun Nov 27 13:28:56 2022.
