 Entering Gaussian System, Link 0=g09
 Initial command:
 /apps/software//g09/l1.exe /scratch/matheusmaximo/38067.cluster.abaxnet/Gau-5191.inp -scrdir=/scratch/matheusmaximo/38067.cluster.abaxnet/
 Entering Link 1 = /apps/software//g09/l1.exe PID=      5192.
  
 Copyright (c) 1988,1990,1992,1993,1995,1998,2003,2009, Gaussian, Inc.
                  All Rights Reserved.
  
 This is part of the Gaussian(R) 09 program.  It is based on
 the Gaussian(R) 03 system (copyright 2003, Gaussian, Inc.),
 the Gaussian(R) 98 system (copyright 1998, Gaussian, Inc.),
 the Gaussian(R) 94 system (copyright 1995, Gaussian, Inc.),
 the Gaussian 92(TM) system (copyright 1992, Gaussian, Inc.),
 the Gaussian 90(TM) system (copyright 1990, Gaussian, Inc.),
 the Gaussian 88(TM) system (copyright 1988, Gaussian, Inc.),
 the Gaussian 86(TM) system (copyright 1986, Carnegie Mellon
 University), and the Gaussian 82(TM) system (copyright 1983,
 Carnegie Mellon University). Gaussian is a federally registered
 trademark of Gaussian, Inc.
  
 This software contains proprietary and confidential information,
 including trade secrets, belonging to Gaussian, Inc.
  
 This software is provided under written license and may be
 used, copied, transmitted, or stored only in accord with that
 written license.
  
 The following legend is applicable only to US Government
 contracts under FAR:
  
                    RESTRICTED RIGHTS LEGEND
  
 Use, reproduction and disclosure by the US Government is
 subject to restrictions as set forth in subparagraphs (a)
 and (c) of the Commercial Computer Software - Restricted
 Rights clause in FAR 52.227-19.
  
 Gaussian, Inc.
 340 Quinnipiac St., Bldg. 40, Wallingford CT 06492
  
  
 ---------------------------------------------------------------
 Warning -- This program may not be used in any manner that
 competes with the business of Gaussian, Inc. or will provide
 assistance to any competitor of Gaussian, Inc.  The licensee
 of this program is prohibited from giving any competitor of
 Gaussian, Inc. access to this program.  By using this program,
 the user acknowledges that Gaussian, Inc. is engaged in the
 business of creating and licensing software in the field of
 computational chemistry and represents and warrants to the
 licensee that it is not a competitor of Gaussian, Inc. and that
 it will not use this program in any manner prohibited above.
 ---------------------------------------------------------------
  

 Cite this work as:
 Gaussian 09, Revision A.02,
 M. J. Frisch, G. W. Trucks, H. B. Schlegel, G. E. Scuseria, 
 M. A. Robb, J. R. Cheeseman, G. Scalmani, V. Barone, B. Mennucci, 
 G. A. Petersson, H. Nakatsuji, M. Caricato, X. Li, H. P. Hratchian, 
 A. F. Izmaylov, J. Bloino, G. Zheng, J. L. Sonnenberg, M. Hada, 
 M. Ehara, K. Toyota, R. Fukuda, J. Hasegawa, M. Ishida, T. Nakajima, 
 Y. Honda, O. Kitao, H. Nakai, T. Vreven, J. A. Montgomery, Jr., 
 J. E. Peralta, F. Ogliaro, M. Bearpark, J. J. Heyd, E. Brothers, 
 K. N. Kudin, V. N. Staroverov, R. Kobayashi, J. Normand, 
 K. Raghavachari, A. Rendell, J. C. Burant, S. S. Iyengar, J. Tomasi, 
 M. Cossi, N. Rega, J. M. Millam, M. Klene, J. E. Knox, J. B. Cross, 
 V. Bakken, C. Adamo, J. Jaramillo, R. Gomperts, R. E. Stratmann, 
 O. Yazyev, A. J. Austin, R. Cammi, C. Pomelli, J. W. Ochterski, 
 R. L. Martin, K. Morokuma, V. G. Zakrzewski, G. A. Voth, 
 P. Salvador, J. J. Dannenberg, S. Dapprich, A. D. Daniels, 
 O. Farkas, J. B. Foresman, J. V. Ortiz, J. Cioslowski, 
 and D. J. Fox, Gaussian, Inc., Wallingford CT, 2009.
 
 ******************************************
 Gaussian 09:  EM64L-G09RevA.02 11-Jun-2009
                24-Nov-2022 
 ******************************************
 %chk=/home/matheusmaximo/Gaussian/S0solvent/Cyclohexane/1.chk
 ----------------------------------------------------------------------
 # opt=tight freq cam-b3lyp/gen geom=connectivity scf=qc int=ultrafine 
 scrf=(cpcm,solvent=cyclohexane)
 ----------------------------------------------------------------------
 1/7=10,14=-1,18=20,19=15,26=3,38=1,57=2/1,3;
 2/9=110,12=2,17=6,18=5,40=1/2;
 3/5=7,11=2,16=1,25=1,30=1,70=2101,71=1,72=17,74=-40,75=-5/1,2,3;
 4//1;
 5/5=2,8=3,38=5,53=17/8;
 6/7=2,8=2,9=2,10=2,28=1/1;
 7//1,2,3,16;
 1/7=10,14=-1,18=20,19=15/3(2);
 2/9=110/2;
 99//99;
 2/9=110/2;
 3/5=7,6=1,11=2,16=1,25=1,30=1,70=2105,71=1,72=17,74=-40,75=-5,82=7/1,2,3;
 4/5=5,16=3/1;
 5/5=2,8=3,38=5,53=17/8;
 7//1,2,3,16;
 1/7=10,14=-1,18=20,19=15/3(-5);
 2/9=110/2;
 6/7=2,8=2,9=2,10=2,19=2,28=1/1;
 99/9=1/99;
 --------------------------------------------------
 NA CAM-B3LYP def2-TZVPD - solvent cpcm cyclohexane
 --------------------------------------------------
 Symbolic Z-matrix:
 Charge =  0 Multiplicity = 1
 C                     0.18939   0.18182   0. 
 C                     0.18968   0.86558  -1.21174 
 C                     0.18939   0.18182  -2.42347 
 C                     0.18939  -1.19994  -2.42212 
 C                     0.19039  -1.91472  -1.21174 
 C                     0.18939  -1.19994  -0.00136 
 H                     0.18981   0.74124   0.92693 
 H                     0.18981   0.74124  -3.35041 
 H                     0.18489  -1.73987  -3.36381 
 H                     0.18489  -1.73987   0.94034 
 N                     0.19194   2.31945  -1.21174 
 O                     0.19303   2.89519  -2.29444 
 O                     0.19303   2.89519  -0.12903 
 N                    -0.27633  -3.20653  -1.16287 
 H                    -0.38663  -3.71586  -2.02486 
 H                    -0.06897  -3.76737  -0.35227 
 

 GradGradGradGradGradGradGradGradGradGradGradGradGradGradGradGradGradGrad
 Berny optimization.
 Initialization pass.
                           ----------------------------
                           !    Initial Parameters    !
                           ! (Angstroms and Degrees)  !
 --------------------------                            --------------------------
 ! Name  Definition              Value          Derivative Info.                !
 --------------------------------------------------------------------------------
 ! R1    R(1,2)                  1.3913         estimate D2E/DX2                !
 ! R2    R(1,6)                  1.3818         estimate D2E/DX2                !
 ! R3    R(1,7)                  1.0827         estimate D2E/DX2                !
 ! R4    R(2,3)                  1.3913         estimate D2E/DX2                !
 ! R5    R(2,11)                 1.4539         estimate D2E/DX2                !
 ! R6    R(3,4)                  1.3818         estimate D2E/DX2                !
 ! R7    R(3,8)                  1.0827         estimate D2E/DX2                !
 ! R8    R(4,5)                  1.4057         estimate D2E/DX2                !
 ! R9    R(4,9)                  1.0855         estimate D2E/DX2                !
 ! R10   R(5,6)                  1.4057         estimate D2E/DX2                !
 ! R11   R(5,14)                 1.3744         estimate D2E/DX2                !
 ! R12   R(6,10)                 1.0855         estimate D2E/DX2                !
 ! R13   R(11,12)                1.2263         estimate D2E/DX2                !
 ! R14   R(11,13)                1.2263         estimate D2E/DX2                !
 ! R15   R(14,15)                1.0073         estimate D2E/DX2                !
 ! R16   R(14,16)                1.0073         estimate D2E/DX2                !
 ! A1    A(2,1,6)              119.3789         estimate D2E/DX2                !
 ! A2    A(2,1,7)              119.453          estimate D2E/DX2                !
 ! A3    A(6,1,7)              121.1681         estimate D2E/DX2                !
 ! A4    A(1,2,3)              121.1297         estimate D2E/DX2                !
 ! A5    A(1,2,11)             119.4351         estimate D2E/DX2                !
 ! A6    A(3,2,11)             119.4351         estimate D2E/DX2                !
 ! A7    A(2,3,4)              119.3789         estimate D2E/DX2                !
 ! A8    A(2,3,8)              119.453          estimate D2E/DX2                !
 ! A9    A(4,3,8)              121.1681         estimate D2E/DX2                !
 ! A10   A(3,4,5)              120.6198         estimate D2E/DX2                !
 ! A11   A(3,4,9)              119.7722         estimate D2E/DX2                !
 ! A12   A(5,4,9)              119.6076         estimate D2E/DX2                !
 ! A13   A(4,5,6)              118.8727         estimate D2E/DX2                !
 ! A14   A(4,5,14)             120.5512         estimate D2E/DX2                !
 ! A15   A(6,5,14)             116.5567         estimate D2E/DX2                !
 ! A16   A(1,6,5)              120.6198         estimate D2E/DX2                !
 ! A17   A(1,6,10)             119.7722         estimate D2E/DX2                !
 ! A18   A(5,6,10)             119.6076         estimate D2E/DX2                !
 ! A19   A(2,11,12)            118.0025         estimate D2E/DX2                !
 ! A20   A(2,11,13)            118.0025         estimate D2E/DX2                !
 ! A21   A(12,11,13)           123.995          estimate D2E/DX2                !
 ! A22   A(5,14,15)            118.818          estimate D2E/DX2                !
 ! A23   A(5,14,16)            118.818          estimate D2E/DX2                !
 ! A24   A(15,14,16)           115.4465         estimate D2E/DX2                !
 ! D1    D(6,1,2,3)              0.0277         estimate D2E/DX2                !
 ! D2    D(6,1,2,11)          -179.8976         estimate D2E/DX2                !
 ! D3    D(7,1,2,3)            179.9891         estimate D2E/DX2                !
 ! D4    D(7,1,2,11)             0.0637         estimate D2E/DX2                !
 ! D5    D(2,1,6,5)              0.0337         estimate D2E/DX2                !
 ! D6    D(2,1,6,10)          -179.7399         estimate D2E/DX2                !
 ! D7    D(7,1,6,5)           -179.927          estimate D2E/DX2                !
 ! D8    D(7,1,6,10)             0.2995         estimate D2E/DX2                !
 ! D9    D(1,2,3,4)             -0.0277         estimate D2E/DX2                !
 ! D10   D(1,2,3,8)           -179.9891         estimate D2E/DX2                !
 ! D11   D(11,2,3,4)           179.8976         estimate D2E/DX2                !
 ! D12   D(11,2,3,8)            -0.0637         estimate D2E/DX2                !
 ! D13   D(1,2,11,12)          179.9532         estimate D2E/DX2                !
 ! D14   D(1,2,11,13)           -0.0265         estimate D2E/DX2                !
 ! D15   D(3,2,11,12)            0.0265         estimate D2E/DX2                !
 ! D16   D(3,2,11,13)         -179.9532         estimate D2E/DX2                !
 ! D17   D(2,3,4,5)             -0.0337         estimate D2E/DX2                !
 ! D18   D(2,3,4,9)            179.7399         estimate D2E/DX2                !
 ! D19   D(8,3,4,5)            179.927          estimate D2E/DX2                !
 ! D20   D(8,3,4,9)             -0.2995         estimate D2E/DX2                !
 ! D21   D(3,4,5,6)              0.093          estimate D2E/DX2                !
 ! D22   D(3,4,5,14)           156.7742         estimate D2E/DX2                !
 ! D23   D(9,4,5,6)           -179.6809         estimate D2E/DX2                !
 ! D24   D(9,4,5,14)           -22.9997         estimate D2E/DX2                !
 ! D25   D(4,5,6,1)             -0.093          estimate D2E/DX2                !
 ! D26   D(4,5,6,10)           179.6809         estimate D2E/DX2                !
 ! D27   D(14,5,6,1)          -157.691          estimate D2E/DX2                !
 ! D28   D(14,5,6,10)           22.0829         estimate D2E/DX2                !
 ! D29   D(4,5,14,15)           16.1258         estimate D2E/DX2                !
 ! D30   D(4,5,14,16)          165.7128         estimate D2E/DX2                !
 ! D31   D(6,5,14,15)          173.325          estimate D2E/DX2                !
 ! D32   D(6,5,14,16)          -37.088          estimate D2E/DX2                !
 --------------------------------------------------------------------------------
 Trust Radius=3.00D-01 FncErr=1.00D-07 GrdErr=1.00D-06
 Number of steps in this run=  82 maximum allowed number of steps= 100.
 GradGradGradGradGradGradGradGradGradGradGradGradGradGradGradGradGradGrad

                          Input orientation:                          
 ---------------------------------------------------------------------
 Center     Atomic      Atomic             Coordinates (Angstroms)
 Number     Number       Type             X           Y           Z
 ---------------------------------------------------------------------
      1          6           0        0.189394    0.181818    0.000000
      2          6           0        0.189682    0.865575   -1.211735
      3          6           0        0.189394    0.181818   -2.423471
      4          6           0        0.189394   -1.199937   -2.422115
      5          6           0        0.190393   -1.914717   -1.211735
      6          6           0        0.189394   -1.199937   -0.001356
      7          1           0        0.189810    0.741243    0.926934
      8          1           0        0.189810    0.741243   -3.350405
      9          1           0        0.184892   -1.739874   -3.363808
     10          1           0        0.184892   -1.739874    0.940337
     11          7           0        0.191945    2.319446   -1.211735
     12          8           0        0.193033    2.895192   -2.294443
     13          8           0        0.193033    2.895192   -0.129027
     14          7           0       -0.276330   -3.206527   -1.162873
     15          1           0       -0.386626   -3.715865   -2.024863
     16          1           0       -0.068974   -3.767365   -0.352268
 ---------------------------------------------------------------------
                    Distance matrix (angstroms):
                    1          2          3          4          5
     1  C    0.000000
     2  C    1.391340   0.000000
     3  C    2.423471   1.391340   0.000000
     4  C    2.788528   2.394026   1.381755   0.000000
     5  C    2.421520   2.780292   2.421520   1.405678   0.000000
     6  C    1.381755   2.394026   2.788528   2.420760   1.405678
     7  H    1.082665   2.142281   3.396788   3.870958   3.409990
     8  H    3.396788   2.142281   1.082665   2.151721   3.409990
     9  H    3.874032   3.379320   2.139429   1.085513   2.159170
    10  H    2.139429   3.379320   3.874032   3.405530   2.159170
    11  N    2.457186   1.453873   2.457186   3.721704   4.234163
    12  O    3.553432   2.300351   2.716442   4.097120   4.930262
    13  O    2.716442   2.300351   3.553432   4.693436   4.930262
    14  N    3.612486   4.098972   3.645119   2.414331   1.374406
    15  H    4.429876   4.688593   3.960129   2.611418   2.058704
    16  H    3.973273   4.719081   4.466843   3.307977   2.058704
                    6          7          8          9         10
     6  C    0.000000
     7  H    2.151721   0.000000
     8  H    3.870958   4.277339   0.000000
     9  H    3.405530   4.956454   2.481159   0.000000
    10  H    1.085513   2.481159   4.956454   4.304144   0.000000
    11  N    3.721704   2.657939   2.657939   4.594513   4.594513
    12  O    4.693436   3.875149   2.398867   4.756832   5.652230
    13  O    4.097120   2.398867   3.875149   5.652230   4.756832
    14  N    2.364831   4.491044   4.537342   2.684755   2.605242
    15  H    3.279676   5.376914   4.685633   2.454373   3.608820
    16  H    2.604147   4.693706   5.420641   3.639305   2.417849
                   11         12         13         14         15
    11  N    0.000000
    12  O    1.226271   0.000000
    13  O    1.226271   2.165416   0.000000
    14  N    5.545994   6.223482   6.206458   0.000000
    15  H    6.117263   6.641894   6.901904   1.007282   0.000000
    16  H    6.152726   6.944808   6.671443   1.007282   1.703271
                   16
    16  H    0.000000
 Stoichiometry    C6H6N2O2
 Framework group  C1[X(C6H6N2O2)]
 Deg. of freedom    42
 Full point group                 C1      NOp   1
 Largest Abelian subgroup         C1      NOp   1
 Largest concise Abelian subgroup C1      NOp   1
                         Standard orientation:                         
 ---------------------------------------------------------------------
 Center     Atomic      Atomic             Coordinates (Angstroms)
 Number     Number       Type             X           Y           Z
 ---------------------------------------------------------------------
      1          6           0        0.009303   -1.206537   -0.052318
      2          6           0        0.699073    0.001467   -0.024578
      3          6           0        0.022717    1.216889   -0.058010
      4          6           0       -1.357615    1.223028   -0.120398
      5          6           0       -2.078310    0.016544   -0.150828
      6          6           0       -1.371015   -1.197688   -0.114713
      7          1           0        0.563037   -2.136490   -0.025296
      8          1           0        0.586713    2.140772   -0.035342
      9          1           0       -1.891985    2.167644   -0.142492
     10          1           0       -1.915810   -2.136423   -0.132383
     11          7           0        2.151542   -0.006424    0.038809
     12          8           0        2.732734    1.073138    0.061176
     13          8           0        2.720748   -1.092238    0.066262
     14          7           0       -3.390123   -0.024099    0.257202
     15          1           0       -3.899141    0.840924    0.342363
     16          1           0       -3.945508   -0.832186    0.026638
 ---------------------------------------------------------------------
 Rotational constants (GHZ):      3.8934928      0.8338086      0.6903421
 General basis read from cards:  (5D, 7F)
 There are   430 symmetry adapted basis functions of A   symmetry.
 Integral buffers will be    131072 words long.
 Raffenetti 2 integral format.
 Two-electron integral symmetry is turned on.
   430 basis functions,   652 primitive gaussians,   490 cartesian basis functions
    36 alpha electrons       36 beta electrons
       nuclear repulsion energy       497.1257036331 Hartrees.
 NAtoms=   16 NActive=   16 NUniq=   16 SFac= 7.50D-01 NAtFMM=   80 NAOKFM=F Big=F
 ------------------------------------------------------------------------------
 Polarizable Continuum Model (PCM)
 =================================
 Model                : C-PCM.
 Atomic radii         : UFF (Universal Force Field).
 Polarization charges : Total charges.
 Charge compensation  : None.
 Solution method      : Matrix inversion.
 Cavity type          : Scaled VdW (van der Waals Surface) (Alpha=1.100).
 Cavity algorithm     : GePol (No added spheres)
                        Default sphere list used, NSphG=   16.
                        Lebedev-Laikov grids with approx.  5.0 points / Ang**2.
                        Smoothing algorithm: Karplus/York (Gamma=1.0000).
                        Polarization charges: spherical gaussians, with
                                              point-specific exponents (IZeta= 3).
                        Self-potential: point-specific (ISelfS= 7).
                        Self-field    : sphere-specific E.n sum rule (ISelfD= 2).
 1st derivatives      : Analytical E(r).r(x)/FMM algorithm (CHGder, D1EAlg=3).
                        Cavity 1st derivative terms included.
 Solvent              : CycloHexane, Eps=   2.016500 Eps(inf)=   2.035188
 ------------------------------------------------------------------------------
 Spheres list:
 ISph  on   Nord    Re0     Alpha      Xe            Ye            Ze
    1   C      1    1.926   1.100      0.009303     -1.206537     -0.052318
    2   C      2    1.926   1.100      0.699073      0.001467     -0.024578
    3   C      3    1.926   1.100      0.022717      1.216889     -0.058010
    4   C      4    1.926   1.100     -1.357615      1.223028     -0.120398
    5   C      5    1.926   1.100     -2.078310      0.016544     -0.150828
    6   C      6    1.926   1.100     -1.371015     -1.197688     -0.114713
    7   H      7    1.443   1.100      0.563037     -2.136490     -0.025296
    8   H      8    1.443   1.100      0.586713      2.140772     -0.035342
    9   H      9    1.443   1.100     -1.891985      2.167644     -0.142492
   10   H     10    1.443   1.100     -1.915810     -2.136423     -0.132383
   11   N     11    1.830   1.100      2.151542     -0.006424      0.038809
   12   O     12    1.750   1.100      2.732734      1.073138      0.061176
   13   O     13    1.750   1.100      2.720748     -1.092238      0.066262
   14   N     14    1.830   1.100     -3.390123     -0.024099      0.257202
   15   H     15    1.443   1.100     -3.899141      0.840924      0.342363
   16   H     16    1.443   1.100     -3.945508     -0.832186      0.026638
 ------------------------------------------------------------------------------
 One-electron integrals computed using PRISM.
 NBasis=   430 RedAO= T  NBF=   430
 NBsUse=   429 1.00D-06 NBFU=   429
 Harris functional with IExCor=20419 diagonalized for initial guess.
 ExpMin= 4.85D-02 ExpMax= 2.70D+04 ExpMxC= 9.22D+02 IAcc=3 IRadAn=         5 AccDes= 0.00D+00
 HarFok:  IExCor=20419 AccDes= 0.00D+00 IRadAn=         5 IDoV= 1
 ScaDFX=  1.000000  1.000000  1.000000  1.000000
 FoFCou: FMM=F IPFlag=           0 FMFlag=      100000 FMFlg1=           0
         NFxFlg=           0 DoJE=T BraDBF=F KetDBF=T FulRan=T
         Omega=  0.000000  0.000000  1.000000  0.000000  0.000000 ICntrl=     500 IOpCl=  0
         NMat0=    1 NMatS0=    1 NMatT0=    0 NMatD0=    1 NMtDS0=    0 NMtDT0=    0
         I1Cent=           4 NGrid=           0.
 Petite list used in FoFCou.
 Initial guess orbital symmetries:
       Occupied  (A) (A) (A) (A) (A) (A) (A) (A) (A) (A) (A) (A)
                 (A) (A) (A) (A) (A) (A) (A) (A) (A) (A) (A) (A)
                 (A) (A) (A) (A) (A) (A) (A) (A) (A) (A) (A) (A)
       Virtual   (A) (A) (A) (A) (A) (A) (A) (A) (A) (A) (A) (A)
                 (A) (A) (A) (A) (A) (A) (A) (A) (A) (A) (A) (A)
                 (A) (A) (A) (A) (A) (A) (A) (A) (A) (A) (A) (A)
                 (A) (A) (A) (A) (A) (A) (A) (A) (A) (A) (A) (A)
                 (A) (A) (A) (A) (A) (A) (A) (A) (A) (A) (A) (A)
                 (A) (A) (A) (A) (A) (A) (A) (A) (A) (A) (A) (A)
                 (A) (A) (A) (A) (A) (A) (A) (A) (A) (A) (A) (A)
                 (A) (A) (A) (A) (A) (A) (A) (A) (A) (A) (A) (A)
                 (A) (A) (A) (A) (A) (A) (A) (A) (A) (A) (A) (A)
                 (A) (A) (A) (A) (A) (A) (A) (A) (A) (A) (A) (A)
                 (A) (A) (A) (A) (A) (A) (A) (A) (A) (A) (A) (A)
                 (A) (A) (A) (A) (A) (A) (A) (A) (A) (A) (A) (A)
                 (A) (A) (A) (A) (A) (A) (A) (A) (A) (A) (A) (A)
                 (A) (A) (A) (A) (A) (A) (A) (A) (A) (A) (A) (A)
                 (A) (A) (A) (A) (A) (A) (A) (A) (A) (A) (A) (A)
                 (A) (A) (A) (A) (A) (A) (A) (A) (A) (A) (A) (A)
                 (A) (A) (A) (A) (A) (A) (A) (A) (A) (A) (A) (A)
                 (A) (A) (A) (A) (A) (A) (A) (A) (A) (A) (A) (A)
                 (A) (A) (A) (A) (A) (A) (A) (A) (A) (A) (A) (A)
                 (A) (A) (A) (A) (A) (A) (A) (A) (A) (A) (A) (A)
                 (A) (A) (A) (A) (A) (A) (A) (A) (A) (A) (A) (A)
                 (A) (A) (A) (A) (A) (A) (A) (A) (A) (A) (A) (A)
                 (A) (A) (A) (A) (A) (A) (A) (A) (A) (A) (A) (A)
                 (A) (A) (A) (A) (A) (A) (A) (A) (A) (A) (A) (A)
                 (A) (A) (A) (A) (A) (A) (A) (A) (A) (A) (A) (A)
                 (A) (A) (A) (A) (A) (A) (A) (A) (A) (A) (A) (A)
                 (A) (A) (A) (A) (A) (A) (A) (A) (A) (A) (A) (A)
                 (A) (A) (A) (A) (A) (A) (A) (A) (A) (A) (A) (A)
                 (A) (A) (A) (A) (A) (A) (A) (A) (A) (A) (A) (A)
                 (A) (A) (A) (A) (A) (A) (A) (A) (A) (A) (A) (A)
                 (A) (A) (A) (A) (A) (A) (A) (A) (A) (A) (A) (A)
                 (A) (A) (A) (A) (A) (A) (A) (A) (A) (A) (A) (A)
                 (A) (A) (A) (A) (A) (A) (A) (A) (A)
 The electronic state of the initial guess is 1-A.
 FoFJK:  IHMeth= 1 ICntrl=     0 DoSepK=T KAlg= 1 I1Cent= 0 FoldK=F
 Gradient too large for Newton-Raphson -- use scaled steepest descent instead.
 FoFJK:  IHMeth= 1 ICntrl=     0 DoSepK=T KAlg= 1 I1Cent= 0 FoldK=F
 FoFJK:  IHMeth= 1 ICntrl=     0 DoSepK=T KAlg= 1 I1Cent= 0 FoldK=F
 FoFJK:  IHMeth= 1 ICntrl=     0 DoSepK=T KAlg= 1 I1Cent= 0 FoldK=F
 FoFJK:  IHMeth= 1 ICntrl=     0 DoSepK=T KAlg= 1 I1Cent= 0 FoldK=F
 Gradient too large for Newton-Raphson -- use scaled steepest descent instead.
 FoFJK:  IHMeth= 1 ICntrl=     0 DoSepK=T KAlg= 1 I1Cent= 0 FoldK=F
 FoFJK:  IHMeth= 1 ICntrl=     0 DoSepK=T KAlg= 1 I1Cent= 0 FoldK=F
 FoFJK:  IHMeth= 1 ICntrl=     0 DoSepK=T KAlg= 1 I1Cent= 0 FoldK=F
 FoFJK:  IHMeth= 1 ICntrl=     0 DoSepK=T KAlg= 1 I1Cent= 0 FoldK=F
 FoFJK:  IHMeth= 1 ICntrl=     0 DoSepK=T KAlg= 1 I1Cent= 0 FoldK=F
 Gradient too large for Newton-Raphson -- use scaled steepest descent instead.
 FoFJK:  IHMeth= 1 ICntrl=     0 DoSepK=T KAlg= 1 I1Cent= 0 FoldK=F
 FoFJK:  IHMeth= 1 ICntrl=     0 DoSepK=T KAlg= 1 I1Cent= 0 FoldK=F
 FoFJK:  IHMeth= 1 ICntrl=     0 DoSepK=T KAlg= 1 I1Cent= 0 FoldK=F
 Gradient too large for Newton-Raphson -- use scaled steepest descent instead.
 FoFJK:  IHMeth= 1 ICntrl=     0 DoSepK=T KAlg= 1 I1Cent= 0 FoldK=F
 FoFJK:  IHMeth= 1 ICntrl=     0 DoSepK=T KAlg= 1 I1Cent= 0 FoldK=F
 FoFJK:  IHMeth= 1 ICntrl=     0 DoSepK=T KAlg= 1 I1Cent= 0 FoldK=F
 FoFJK:  IHMeth= 1 ICntrl=     0 DoSepK=T KAlg= 1 I1Cent= 0 FoldK=F
 FoFJK:  IHMeth= 1 ICntrl=     0 DoSepK=T KAlg= 1 I1Cent= 0 FoldK=F
 Gradient too large for Newton-Raphson -- use scaled steepest descent instead.
 FoFJK:  IHMeth= 1 ICntrl=     0 DoSepK=T KAlg= 1 I1Cent= 0 FoldK=F
 FoFJK:  IHMeth= 1 ICntrl=     0 DoSepK=T KAlg= 1 I1Cent= 0 FoldK=F
 FoFJK:  IHMeth= 1 ICntrl=     0 DoSepK=T KAlg= 1 I1Cent= 0 FoldK=F
 LinEq1:  Iter=  0 NonCon=     1 RMS=7.57D-05 Max=6.92D-03
 AX will form     1 AO Fock derivatives at one time.
 FoFJK:  IHMeth= 1 ICntrl=     0 DoSepK=T KAlg= 1 I1Cent= 0 FoldK=F
 LinEq1:  Iter=  1 NonCon=     1 RMS=5.24D-05 Max=2.66D-03
 FoFJK:  IHMeth= 1 ICntrl=     0 DoSepK=T KAlg= 1 I1Cent= 0 FoldK=F
 LinEq1:  Iter=  2 NonCon=     1 RMS=1.01D-05 Max=3.68D-04
 FoFJK:  IHMeth= 1 ICntrl=     0 DoSepK=T KAlg= 1 I1Cent= 0 FoldK=F
 LinEq1:  Iter=  3 NonCon=     1 RMS=3.10D-06 Max=2.35D-04
 FoFJK:  IHMeth= 1 ICntrl=     0 DoSepK=T KAlg= 1 I1Cent= 0 FoldK=F
 LinEq1:  Iter=  4 NonCon=     1 RMS=2.33D-06 Max=9.89D-05
 FoFJK:  IHMeth= 1 ICntrl=     0 DoSepK=T KAlg= 1 I1Cent= 0 FoldK=F
 LinEq1:  Iter=  5 NonCon=     1 RMS=8.89D-07 Max=2.79D-05
 FoFJK:  IHMeth= 1 ICntrl=     0 DoSepK=T KAlg= 1 I1Cent= 0 FoldK=F
 LinEq1:  Iter=  6 NonCon=     1 RMS=3.52D-07 Max=2.02D-05
 FoFJK:  IHMeth= 1 ICntrl=     0 DoSepK=T KAlg= 1 I1Cent= 0 FoldK=F
 LinEq1:  Iter=  7 NonCon=     1 RMS=2.07D-07 Max=5.42D-06
 FoFJK:  IHMeth= 1 ICntrl=     0 DoSepK=T KAlg= 1 I1Cent= 0 FoldK=F
 LinEq1:  Iter=  8 NonCon=     1 RMS=5.28D-08 Max=1.90D-06
 FoFJK:  IHMeth= 1 ICntrl=     0 DoSepK=T KAlg= 1 I1Cent= 0 FoldK=F
 LinEq1:  Iter=  9 NonCon=     1 RMS=2.53D-08 Max=5.42D-07
 FoFJK:  IHMeth= 1 ICntrl=     0 DoSepK=T KAlg= 1 I1Cent= 0 FoldK=F
 LinEq1:  Iter= 10 NonCon=     1 RMS=1.05D-08 Max=4.49D-07
 FoFJK:  IHMeth= 1 ICntrl=     0 DoSepK=T KAlg= 1 I1Cent= 0 FoldK=F
 LinEq1:  Iter= 11 NonCon=     1 RMS=4.41D-09 Max=2.51D-07
 FoFJK:  IHMeth= 1 ICntrl=     0 DoSepK=T KAlg= 1 I1Cent= 0 FoldK=F
 LinEq1:  Iter= 12 NonCon=     0 RMS=2.34D-09 Max=1.10D-07
 Linear equations converged to 1.682D-08 1.682D-07 after    12 iterations.
 FoFJK:  IHMeth= 1 ICntrl=     0 DoSepK=T KAlg= 1 I1Cent= 0 FoldK=F
 FoFJK:  IHMeth= 1 ICntrl=     0 DoSepK=T KAlg= 1 I1Cent= 0 FoldK=F
 FoFJK:  IHMeth= 1 ICntrl=     0 DoSepK=T KAlg= 1 I1Cent= 0 FoldK=F
 LinEq1:  Iter=  0 NonCon=     1 RMS=7.37D-07 Max=4.52D-05
 FoFJK:  IHMeth= 1 ICntrl=     0 DoSepK=T KAlg= 1 I1Cent= 0 FoldK=F
 LinEq1:  Iter=  1 NonCon=     1 RMS=1.98D-07 Max=9.73D-06
 FoFJK:  IHMeth= 1 ICntrl=     0 DoSepK=T KAlg= 1 I1Cent= 0 FoldK=F
 LinEq1:  Iter=  2 NonCon=     1 RMS=9.59D-08 Max=3.19D-06
 FoFJK:  IHMeth= 1 ICntrl=     0 DoSepK=T KAlg= 1 I1Cent= 0 FoldK=F
 LinEq1:  Iter=  3 NonCon=     1 RMS=5.05D-08 Max=2.73D-06
 FoFJK:  IHMeth= 1 ICntrl=     0 DoSepK=T KAlg= 1 I1Cent= 0 FoldK=F
 LinEq1:  Iter=  4 NonCon=     1 RMS=2.55D-08 Max=1.34D-06
 FoFJK:  IHMeth= 1 ICntrl=     0 DoSepK=T KAlg= 1 I1Cent= 0 FoldK=F
 LinEq1:  Iter=  5 NonCon=     1 RMS=1.13D-08 Max=4.67D-07
 FoFJK:  IHMeth= 1 ICntrl=     0 DoSepK=T KAlg= 1 I1Cent= 0 FoldK=F
 LinEq1:  Iter=  6 NonCon=     1 RMS=8.00D-09 Max=4.46D-07
 FoFJK:  IHMeth= 1 ICntrl=     0 DoSepK=T KAlg= 1 I1Cent= 0 FoldK=F
 LinEq1:  Iter=  7 NonCon=     1 RMS=5.22D-09 Max=2.59D-07
 FoFJK:  IHMeth= 1 ICntrl=     0 DoSepK=T KAlg= 1 I1Cent= 0 FoldK=F
 LinEq1:  Iter=  8 NonCon=     1 RMS=3.12D-09 Max=1.01D-07
 FoFJK:  IHMeth= 1 ICntrl=     0 DoSepK=T KAlg= 1 I1Cent= 0 FoldK=F
 LinEq1:  Iter=  9 NonCon=     1 RMS=1.39D-09 Max=4.41D-08
 FoFJK:  IHMeth= 1 ICntrl=     0 DoSepK=T KAlg= 1 I1Cent= 0 FoldK=F
 LinEq1:  Iter= 10 NonCon=     1 RMS=6.18D-10 Max=1.66D-08
 FoFJK:  IHMeth= 1 ICntrl=     0 DoSepK=T KAlg= 1 I1Cent= 0 FoldK=F
 LinEq1:  Iter= 11 NonCon=     0 RMS=1.88D-10 Max=6.13D-09
 Linear equations converged to 1.007D-09 1.007D-08 after    11 iterations.
 FoFJK:  IHMeth= 1 ICntrl=     0 DoSepK=T KAlg= 1 I1Cent= 0 FoldK=F
 Error on total polarization charges =  0.00721
 SCF Done:  E(RCAM-B3LYP) =  -492.084661736     a.u. after    8 cycles
            Convg  =    0.3499D-08                    48 Fock formations.
              S**2 =  0.0000                  -V/T =  2.0043

 **********************************************************************

            Population analysis using the SCF density.

 **********************************************************************

 Orbital symmetries:
       Occupied  (A) (A) (A) (A) (A) (A) (A) (A) (A) (A) (A) (A)
                 (A) (A) (A) (A) (A) (A) (A) (A) (A) (A) (A) (A)
                 (A) (A) (A) (A) (A) (A) (A) (A) (A) (A) (A) (A)
       Virtual   (A) (A) (A) (A) (A) (A) (A) (A) (A) (A) (A) (A)
                 (A) (A) (A) (A) (A) (A) (A) (A) (A) (A) (A) (A)
                 (A) (A) (A) (A) (A) (A) (A) (A) (A) (A) (A) (A)
                 (A) (A) (A) (A) (A) (A) (A) (A) (A) (A) (A) (A)
                 (A) (A) (A) (A) (A) (A) (A) (A) (A) (A) (A) (A)
                 (A) (A) (A) (A) (A) (A) (A) (A) (A) (A) (A) (A)
                 (A) (A) (A) (A) (A) (A) (A) (A) (A) (A) (A) (A)
                 (A) (A) (A) (A) (A) (A) (A) (A) (A) (A) (A) (A)
                 (A) (A) (A) (A) (A) (A) (A) (A) (A) (A) (A) (A)
                 (A) (A) (A) (A) (A) (A) (A) (A) (A) (A) (A) (A)
                 (A) (A) (A) (A) (A) (A) (A) (A) (A) (A) (A) (A)
                 (A) (A) (A) (A) (A) (A) (A) (A) (A) (A) (A) (A)
                 (A) (A) (A) (A) (A) (A) (A) (A) (A) (A) (A) (A)
                 (A) (A) (A) (A) (A) (A) (A) (A) (A) (A) (A) (A)
                 (A) (A) (A) (A) (A) (A) (A) (A) (A) (A) (A) (A)
                 (A) (A) (A) (A) (A) (A) (A) (A) (A) (A) (A) (A)
                 (A) (A) (A) (A) (A) (A) (A) (A) (A) (A) (A) (A)
                 (A) (A) (A) (A) (A) (A) (A) (A) (A) (A) (A) (A)
                 (A) (A) (A) (A) (A) (A) (A) (A) (A) (A) (A) (A)
                 (A) (A) (A) (A) (A) (A) (A) (A) (A) (A) (A) (A)
                 (A) (A) (A) (A) (A) (A) (A) (A) (A) (A) (A) (A)
                 (A) (A) (A) (A) (A) (A) (A) (A) (A) (A) (A) (A)
                 (A) (A) (A) (A) (A) (A) (A) (A) (A) (A) (A) (A)
                 (A) (A) (A) (A) (A) (A) (A) (A) (A) (A) (A) (A)
                 (A) (A) (A) (A) (A) (A) (A) (A) (A) (A) (A) (A)
                 (A) (A) (A) (A) (A) (A) (A) (A) (A) (A) (A) (A)
                 (A) (A) (A) (A) (A) (A) (A) (A) (A) (A) (A) (A)
                 (A) (A) (A) (A) (A) (A) (A) (A) (A) (A) (A) (A)
                 (A) (A) (A) (A) (A) (A) (A) (A) (A) (A) (A) (A)
                 (A) (A) (A) (A) (A) (A) (A) (A) (A) (A) (A) (A)
                 (A) (A) (A) (A) (A) (A) (A) (A) (A) (A) (A) (A)
                 (A) (A) (A) (A) (A) (A) (A) (A) (A) (A) (A) (A)
                 (A) (A) (A) (A) (A) (A) (A) (A) (A)
 The electronic state is 1-A.
 Alpha  occ. eigenvalues --  -19.23165 -19.23154 -14.63232 -14.41851 -10.32181
 Alpha  occ. eigenvalues --  -10.30180 -10.27828 -10.27710 -10.26630 -10.26540
 Alpha  occ. eigenvalues --   -1.31454  -1.13638  -1.03288  -0.96452  -0.87643
 Alpha  occ. eigenvalues --   -0.85626  -0.77169  -0.72050  -0.67617  -0.64085
 Alpha  occ. eigenvalues --   -0.61572  -0.61429  -0.60712  -0.58469  -0.53351
 Alpha  occ. eigenvalues --   -0.52763  -0.51426  -0.49771  -0.47339  -0.43276
 Alpha  occ. eigenvalues --   -0.40794  -0.38505  -0.38153  -0.36704  -0.33754
 Alpha  occ. eigenvalues --   -0.28660
 Alpha virt. eigenvalues --   -0.04805   0.01115   0.02470   0.04137   0.04627
 Alpha virt. eigenvalues --    0.04762   0.06783   0.07113   0.07281   0.09369
 Alpha virt. eigenvalues --    0.10315   0.10446   0.10666   0.12839   0.13068
 Alpha virt. eigenvalues --    0.14375   0.14880   0.15715   0.16429   0.16616
 Alpha virt. eigenvalues --    0.18065   0.18598   0.19561   0.19998   0.20815
 Alpha virt. eigenvalues --    0.21306   0.21781   0.21817   0.22974   0.23378
 Alpha virt. eigenvalues --    0.23832   0.24247   0.24910   0.25543   0.26557
 Alpha virt. eigenvalues --    0.27805   0.28014   0.28242   0.28840   0.29639
 Alpha virt. eigenvalues --    0.29932   0.30246   0.30745   0.30896   0.31507
 Alpha virt. eigenvalues --    0.31751   0.33346   0.33775   0.34121   0.35536
 Alpha virt. eigenvalues --    0.35839   0.36081   0.36931   0.37338   0.38064
 Alpha virt. eigenvalues --    0.38739   0.39069   0.39099   0.39440   0.40955
 Alpha virt. eigenvalues --    0.41723   0.42094   0.42878   0.43178   0.43377
 Alpha virt. eigenvalues --    0.44227   0.44827   0.45858   0.46687   0.47125
 Alpha virt. eigenvalues --    0.47498   0.47921   0.48206   0.48656   0.49349
 Alpha virt. eigenvalues --    0.49572   0.50250   0.50774   0.52733   0.53052
 Alpha virt. eigenvalues --    0.53551   0.53717   0.55406   0.55630   0.57146
 Alpha virt. eigenvalues --    0.58352   0.58874   0.59228   0.60469   0.60733
 Alpha virt. eigenvalues --    0.60988   0.61478   0.61744   0.62621   0.63499
 Alpha virt. eigenvalues --    0.64440   0.64941   0.65848   0.66354   0.67910
 Alpha virt. eigenvalues --    0.68236   0.68549   0.68940   0.69813   0.70066
 Alpha virt. eigenvalues --    0.70691   0.71869   0.72429   0.72646   0.73270
 Alpha virt. eigenvalues --    0.73522   0.74042   0.74654   0.75225   0.76744
 Alpha virt. eigenvalues --    0.77331   0.78051   0.78581   0.79554   0.79966
 Alpha virt. eigenvalues --    0.80206   0.80434   0.82280   0.82516   0.83483
 Alpha virt. eigenvalues --    0.84628   0.84998   0.85130   0.86840   0.87526
 Alpha virt. eigenvalues --    0.89644   0.91364   0.93236   0.95511   0.95832
 Alpha virt. eigenvalues --    0.97021   0.97433   0.98072   0.99173   0.99663
 Alpha virt. eigenvalues --    1.00525   1.02235   1.02666   1.04413   1.04858
 Alpha virt. eigenvalues --    1.05822   1.07940   1.09579   1.10349   1.10688
 Alpha virt. eigenvalues --    1.12084   1.14391   1.17949   1.19481   1.20925
 Alpha virt. eigenvalues --    1.23521   1.24647   1.26836   1.31364   1.31459
 Alpha virt. eigenvalues --    1.33647   1.34704   1.35935   1.36577   1.38282
 Alpha virt. eigenvalues --    1.40591   1.41817   1.43264   1.43918   1.47337
 Alpha virt. eigenvalues --    1.49192   1.49570   1.52191   1.52844   1.54854
 Alpha virt. eigenvalues --    1.57113   1.59261   1.60500   1.61464   1.62383
 Alpha virt. eigenvalues --    1.68486   1.71105   1.72105   1.73899   1.75721
 Alpha virt. eigenvalues --    1.77292   1.77948   1.78727   1.79856   1.82810
 Alpha virt. eigenvalues --    1.83749   1.83887   1.87904   1.89014   1.90329
 Alpha virt. eigenvalues --    1.91101   1.92680   1.94124   1.94790   1.96111
 Alpha virt. eigenvalues --    1.98214   1.99633   2.00569   2.01750   2.03078
 Alpha virt. eigenvalues --    2.05285   2.07328   2.08887   2.09440   2.14615
 Alpha virt. eigenvalues --    2.19083   2.19350   2.23103   2.25353   2.27341
 Alpha virt. eigenvalues --    2.27831   2.30155   2.32332   2.33463   2.34653
 Alpha virt. eigenvalues --    2.36220   2.40122   2.41594   2.42093   2.44038
 Alpha virt. eigenvalues --    2.46575   2.50324   2.53415   2.53884   2.55733
 Alpha virt. eigenvalues --    2.56995   2.63227   2.63857   2.66898   2.69144
 Alpha virt. eigenvalues --    2.70923   2.72084   2.73479   2.75242   2.79191
 Alpha virt. eigenvalues --    2.80520   2.82318   2.84952   2.86371   2.86880
 Alpha virt. eigenvalues --    2.87538   2.87838   2.90709   2.92949   2.93761
 Alpha virt. eigenvalues --    2.94589   2.97632   2.99468   3.00497   3.01891
 Alpha virt. eigenvalues --    3.02902   3.09721   3.09782   3.10916   3.11165
 Alpha virt. eigenvalues --    3.13508   3.14390   3.16397   3.20101   3.21411
 Alpha virt. eigenvalues --    3.23451   3.25349   3.26236   3.27847   3.30552
 Alpha virt. eigenvalues --    3.31277   3.32785   3.34927   3.35888   3.37394
 Alpha virt. eigenvalues --    3.39977   3.40904   3.42559   3.43682   3.44974
 Alpha virt. eigenvalues --    3.45624   3.47134   3.48591   3.49544   3.50329
 Alpha virt. eigenvalues --    3.51863   3.54673   3.55011   3.56591   3.59891
 Alpha virt. eigenvalues --    3.61510   3.62870   3.63323   3.67288   3.68648
 Alpha virt. eigenvalues --    3.70509   3.71943   3.73179   3.78959   3.84679
 Alpha virt. eigenvalues --    3.89380   3.89889   3.95749   3.97454   4.01021
 Alpha virt. eigenvalues --    4.04050   4.06008   4.13541   4.15956   4.18033
 Alpha virt. eigenvalues --    4.18779   4.19674   4.25287   4.25998   4.27058
 Alpha virt. eigenvalues --    4.29060   4.30388   4.30424   4.32356   4.33730
 Alpha virt. eigenvalues --    4.35552   4.41307   4.46354   4.52064   4.56929
 Alpha virt. eigenvalues --    4.62509   4.66768   4.68556   4.75415   4.76947
 Alpha virt. eigenvalues --    4.78398   4.81126   4.82199   4.83868   4.87589
 Alpha virt. eigenvalues --    4.89112   4.94540   4.98132   5.00068   5.01921
 Alpha virt. eigenvalues --    5.04540   5.05979   5.06816   5.14721   5.20403
 Alpha virt. eigenvalues --    5.20859   5.23809   5.26103   5.28037   5.29238
 Alpha virt. eigenvalues --    5.30598   5.39767   5.40206   5.43781   5.44359
 Alpha virt. eigenvalues --    5.48010   5.52202   5.56647   5.58155   5.66312
 Alpha virt. eigenvalues --    5.68424   5.70222   5.71838   5.78489   5.96421
 Alpha virt. eigenvalues --    5.98675   6.07915   6.10830   6.42580   6.43839
 Alpha virt. eigenvalues --    6.52085   6.58297   6.60301   6.62761   6.93521
 Alpha virt. eigenvalues --    6.94745   6.97729   7.10907   7.29823   7.44275
 Alpha virt. eigenvalues --    7.52740   7.80854   7.83235  22.65745  22.84258
 Alpha virt. eigenvalues --   22.94293  22.98788  23.12442  23.43224  32.42347
 Alpha virt. eigenvalues --   32.81146  44.46129  44.62581
          Condensed to atoms (all electrons):
              1          2          3          4          5          6
     1  C    6.497031   0.282292  -0.449555  -0.044432  -0.342832   0.331564
     2  C    0.282292   6.342289   0.673730  -0.377246  -0.637077  -0.246049
     3  C   -0.449555   0.673730   6.827822   0.041007  -0.761451  -0.043144
     4  C   -0.044432  -0.377246   0.041007   6.888475   0.073905  -0.424709
     5  C   -0.342832  -0.637077  -0.761451   0.073905   7.681023  -0.205413
     6  C    0.331564  -0.246049  -0.043144  -0.424709  -0.205413   6.724371
     7  H    0.256802  -0.266421  -0.001982   0.010458   0.102817  -0.039104
     8  H    0.038972  -0.166227   0.189035  -0.002396   0.055356  -0.004842
     9  H    0.007722   0.048464   0.035919   0.353654  -0.309637   0.039634
    10  H    0.010917   0.095694   0.038535   0.023417  -0.475743   0.403893
    11  N   -0.161927   0.391579  -0.188330   0.010668   0.042117  -0.008955
    12  O    0.023909  -0.048591  -0.022939   0.008840  -0.009580  -0.002508
    13  O   -0.029270  -0.032677   0.025518  -0.005200  -0.011602   0.013187
    14  N    0.016528   0.040103   0.042891  -0.011746  -0.081785   0.013003
    15  H   -0.005536  -0.001952  -0.001218   0.043687  -0.016858  -0.056044
    16  H    0.002569  -0.003287  -0.007881  -0.027731   0.026578   0.012622
              7          8          9         10         11         12
     1  C    0.256802   0.038972   0.007722   0.010917  -0.161927   0.023909
     2  C   -0.266421  -0.166227   0.048464   0.095694   0.391579  -0.048591
     3  C   -0.001982   0.189035   0.035919   0.038535  -0.188330  -0.022939
     4  C    0.010458  -0.002396   0.353654   0.023417   0.010668   0.008840
     5  C    0.102817   0.055356  -0.309637  -0.475743   0.042117  -0.009580
     6  C   -0.039104  -0.004842   0.039634   0.403893  -0.008955  -0.002508
     7  H    0.530003   0.009139  -0.002151  -0.043495   0.039837  -0.004283
     8  H    0.009139   0.452670  -0.009529  -0.002545   0.023384  -0.005752
     9  H   -0.002151  -0.009529   0.504862   0.008375  -0.001915   0.000522
    10  H   -0.043495  -0.002545   0.008375   0.606843  -0.004934   0.000296
    11  N    0.039837   0.023384  -0.001915  -0.004934   5.748530   0.103542
    12  O   -0.004283  -0.005752   0.000522   0.000296   0.103542   8.663999
    13  O   -0.012698  -0.004495   0.000241   0.001446   0.097285  -0.104843
    14  N   -0.006006  -0.002249   0.033248   0.081930  -0.001471   0.000147
    15  H    0.000125   0.000336  -0.002240  -0.011092   0.000071   0.000014
    16  H    0.000378   0.000067  -0.008754  -0.006482   0.000057  -0.000001
             13         14         15         16
     1  C   -0.029270   0.016528  -0.005536   0.002569
     2  C   -0.032677   0.040103  -0.001952  -0.003287
     3  C    0.025518   0.042891  -0.001218  -0.007881
     4  C   -0.005200  -0.011746   0.043687  -0.027731
     5  C   -0.011602  -0.081785  -0.016858   0.026578
     6  C    0.013187   0.013003  -0.056044   0.012622
     7  H   -0.012698  -0.006006   0.000125   0.000378
     8  H   -0.004495  -0.002249   0.000336   0.000067
     9  H    0.000241   0.033248  -0.002240  -0.008754
    10  H    0.001446   0.081930  -0.011092  -0.006482
    11  N    0.097285  -0.001471   0.000071   0.000057
    12  O   -0.104843   0.000147   0.000014  -0.000001
    13  O    8.664106   0.000253  -0.000012   0.000008
    14  N    0.000253   6.569594   0.381247   0.364175
    15  H   -0.000012   0.381247   0.499817  -0.033099
    16  H    0.000008   0.364175  -0.033099   0.454994
 Mulliken atomic charges:
              1
     1  C   -0.434754
     2  C   -0.094625
     3  C   -0.397957
     4  C   -0.560651
     5  C    0.870182
     6  C   -0.507505
     7  H    0.426581
     8  H    0.429076
     9  H    0.301586
    10  H    0.272944
    11  N    0.910462
    12  O   -0.602772
    13  O   -0.601248
    14  N   -0.439860
    15  H    0.202753
    16  H    0.225787
 Sum of Mulliken atomic charges =   0.00000
 Mulliken charges with hydrogens summed into heavy atoms:
              1
     1  C   -0.008173
     2  C   -0.094625
     3  C    0.031119
     4  C   -0.259065
     5  C    0.870182
     6  C   -0.234560
    11  N    0.910462
    12  O   -0.602772
    13  O   -0.601248
    14  N   -0.011320
 Sum of Mulliken charges with hydrogens summed into heavy atoms =   0.00000
 Electronic spatial extent (au):  <R**2>=           1542.9236
 Charge=              0.0000 electrons
 Dipole moment (field-independent basis, Debye):
    X=             -8.2158    Y=              0.1022    Z=             -0.3767  Tot=              8.2250
 Quadrupole moment (field-independent basis, Debye-Ang):
   XX=            -57.2656   YY=            -53.0386   ZZ=            -60.5097
   XY=             -0.1031   XZ=              0.3003   YZ=              0.6042
 Traceless Quadrupole moment (field-independent basis, Debye-Ang):
   XX=             -0.3277   YY=              3.8994   ZZ=             -3.5717
   XY=             -0.1031   XZ=              0.3003   YZ=              0.6042
 Octapole moment (field-independent basis, Debye-Ang**2):
  XXX=           -111.0729  YYY=              0.2030  ZZZ=              1.5093  XYY=            -17.1082
  XXY=              0.3149  XXZ=             -2.6691  XZZ=             12.4028  YZZ=              0.2264
  YYZ=              0.1670  XYZ=             -2.3722
 Hexadecapole moment (field-independent basis, Debye-Ang**3):
 XXXX=          -1366.2304 YYYY=           -364.1194 ZZZZ=            -70.3313 XXXY=              0.6996
 XXXZ=             -6.4519 YYYX=              0.3219 YYYZ=              0.5800 ZZZX=              1.4727
 ZZZY=              0.5329 XXYY=           -299.6083 XXZZ=           -273.8649 YYZZ=            -84.5313
 XXYZ=              9.5630 YYXZ=             -1.4573 ZZXY=             -1.0986
 N-N= 4.971257036331D+02 E-N=-2.144053725274D+03  KE= 4.899873711568D+02
 D1PCM: C-PCM CHGder 1st derivatives, ID1Alg=3 FixD1E=F DoIter=F DoCFld=F I1PDM=0.
 Calling FoFJK, ICntrl=      2127 FMM=F ISym2X=0 I1Cent= 0 IOpClX= 0 NMat=1 NMatS=1 NMatT=0.
 FoFJK:  IHMeth= 1 ICntrl=  2127 DoSepK=T KAlg= 1 I1Cent= 0 FoldK=F
 ***** Axes restored to original set *****
 -------------------------------------------------------------------
 Center     Atomic                   Forces (Hartrees/Bohr)
 Number     Number              X              Y              Z
 -------------------------------------------------------------------
      1        6           0.005760724   -0.005703017   -0.000860825
      2        6          -0.000253798   -0.000972073   -0.001835702
      3        6           0.004264534   -0.002267849    0.003556890
      4        6           0.008075238    0.001496907    0.000490644
      5        6          -0.042696554    0.007632207    0.004765413
      6        6           0.012875652    0.011663092    0.000569947
      7        1          -0.000691044   -0.001543043   -0.001903791
      8        1          -0.000325027   -0.001644579    0.001906293
      9        1          -0.002184632    0.001008415    0.002107770
     10        1          -0.002791497    0.001096327   -0.002247168
     11        7          -0.000638769    0.003891507   -0.000119275
     12        8          -0.000007496   -0.003909999    0.012160501
     13        8          -0.000001738   -0.004038821   -0.012204635
     14        7           0.015331185   -0.006718492   -0.006467473
     15        1           0.003843483   -0.000421212    0.001039982
     16        1          -0.000560261    0.000430630   -0.000958569
 -------------------------------------------------------------------
 Cartesian Forces:  Max     0.042696554 RMS     0.008038002

 GradGradGradGradGradGradGradGradGradGradGradGradGradGradGradGradGradGrad
 Berny optimization.
 Internal  Forces:  Max     0.012672946 RMS     0.004276134
 Search for a local minimum.
 Step number   1 out of a maximum of   82
 All quantities printed in internal units (Hartrees-Bohrs-Radians)
 Mixed Optimization -- RFO/linear search
 Second derivative matrix not updated -- first step.
     Eigenvalues ---    0.00979   0.00979   0.01836   0.02030   0.02053
     Eigenvalues ---    0.02151   0.02179   0.02227   0.02234   0.02273
     Eigenvalues ---    0.02277   0.02404   0.02988   0.16000   0.16000
     Eigenvalues ---    0.16000   0.16000   0.16000   0.16000   0.22000
     Eigenvalues ---    0.22701   0.23152   0.23696   0.25000   0.25000
     Eigenvalues ---    0.25000   0.35336   0.35336   0.35674   0.35674
     Eigenvalues ---    0.37742   0.41592   0.42599   0.45808   0.46149
     Eigenvalues ---    0.46431   0.46431   0.47592   0.48783   0.50139
     Eigenvalues ---    0.92658   0.926581000.000001000.000001000.00000
     Eigenvalues --- 1000.000001000.000001000.000001000.000001000.00000
     Eigenvalues --- 1000.000001000.000001000.000001000.000001000.00000
     Eigenvalues --- 1000.000001000.000001000.000001000.000001000.00000
     Eigenvalues --- 1000.000001000.000001000.000001000.000001000.00000
     Eigenvalues --- 1000.000001000.000001000.000001000.000001000.00000
     Eigenvalues --- 1000.000001000.00000
 RFO step:  Lambda=-1.54283487D-02 EMin= 9.79144978D-03
 Linear search not attempted -- first point.
 Maximum step size (   0.300) exceeded in Quadratic search.
    -- Step size scaled by   0.501
 Iteration  1 RMS(Cart)=  0.04487503 RMS(Int)=  0.00181208
 Iteration  2 RMS(Cart)=  0.00264738 RMS(Int)=  0.00083567
 Iteration  3 RMS(Cart)=  0.00000401 RMS(Int)=  0.00083566
 Iteration  4 RMS(Cart)=  0.00000000 RMS(Int)=  0.00083566
 Variable       Old X    -DE/DX   Delta X   Delta X   Delta X     New X
                                 (Linear)    (Quad)   (Total)
    R1        2.62925  -0.00419   0.00000  -0.00329  -0.00378   2.62547
    R2        2.61114  -0.00939   0.00000  -0.00931  -0.00931   2.60183
    R3        2.04594  -0.00243   0.00000  -0.00327  -0.00327   2.04267
    R4        2.62925  -0.00630   0.00000  -0.00550  -0.00597   2.62328
    R5        2.74742  -0.00406   0.00000  -0.00517  -0.00517   2.74225
    R6        2.61114  -0.00680   0.00000  -0.00680  -0.00679   2.60434
    R7        2.04594  -0.00248   0.00000  -0.00334  -0.00334   2.04260
    R8        2.65635  -0.00431   0.00000  -0.00573  -0.00526   2.65109
    R9        2.05132  -0.00232   0.00000  -0.00315  -0.00315   2.04817
   R10        2.65635   0.00098   0.00000   0.00003   0.00051   2.65686
   R11        2.59725  -0.00024   0.00000  -0.00024  -0.00024   2.59702
   R12        2.05132  -0.00248   0.00000  -0.00337  -0.00337   2.04795
   R13        2.31732  -0.01257   0.00000  -0.00668  -0.00668   2.31063
   R14        2.31732  -0.01267   0.00000  -0.00674  -0.00674   2.31058
   R15        1.90349  -0.00110   0.00000  -0.00115  -0.00115   1.90234
   R16        1.90349  -0.00113   0.00000  -0.00117  -0.00117   1.90231
    A1        2.08356  -0.00010   0.00000  -0.00070  -0.00064   2.08291
    A2        2.08485   0.00039   0.00000   0.00133   0.00129   2.08614
    A3        2.11478  -0.00029   0.00000  -0.00063  -0.00067   2.11411
    A4        2.11411  -0.00007   0.00000   0.00116   0.00075   2.11486
    A5        2.08454   0.00016   0.00000  -0.00035  -0.00015   2.08439
    A6        2.08454  -0.00009   0.00000  -0.00082  -0.00061   2.08392
    A7        2.08356   0.00072   0.00000   0.00085   0.00091   2.08447
    A8        2.08485   0.00007   0.00000   0.00081   0.00078   2.08563
    A9        2.11478  -0.00079   0.00000  -0.00166  -0.00169   2.11309
   A10        2.10521   0.00139   0.00000  -0.00188  -0.00088   2.10433
   A11        2.09042  -0.00050   0.00000   0.00149   0.00098   2.09140
   A12        2.08755  -0.00088   0.00000   0.00042  -0.00009   2.08745
   A13        2.07472  -0.00365   0.00000   0.00161  -0.00046   2.07426
   A14        2.10401  -0.00442   0.00000   0.00871   0.00439   2.10840
   A15        2.03430   0.01215   0.00000   0.04232   0.03861   2.07291
   A16        2.10521   0.00172   0.00000  -0.00099   0.00003   2.10525
   A17        2.09042  -0.00068   0.00000   0.00101   0.00049   2.09091
   A18        2.08755  -0.00103   0.00000  -0.00001  -0.00052   2.08703
   A19        2.05953   0.00181   0.00000   0.00342   0.00342   2.06295
   A20        2.05953   0.00160   0.00000   0.00302   0.00302   2.06255
   A21        2.16412  -0.00342   0.00000  -0.00644  -0.00644   2.15768
   A22        2.07376  -0.00114   0.00000  -0.00672  -0.00686   2.06690
   A23        2.07376   0.00025   0.00000  -0.00277  -0.00291   2.07085
   A24        2.01492  -0.00045   0.00000  -0.00527  -0.00544   2.00948
    D1        0.00048  -0.00124   0.00000  -0.01374  -0.01360  -0.01311
    D2       -3.13981  -0.00084   0.00000  -0.00924  -0.00913   3.13425
    D3        3.14140  -0.00049   0.00000  -0.00644  -0.00649   3.13491
    D4        0.00111  -0.00009   0.00000  -0.00195  -0.00203  -0.00091
    D5        0.00059  -0.00021   0.00000  -0.00308  -0.00323  -0.00264
    D6       -3.13705  -0.00007   0.00000  -0.00571  -0.00609   3.14004
    D7       -3.14032  -0.00096   0.00000  -0.01051  -0.01045   3.13241
    D8        0.00523  -0.00082   0.00000  -0.01314  -0.01332  -0.00809
    D9       -0.00048   0.00069   0.00000   0.01013   0.01022   0.00974
   D10       -3.14140   0.00112   0.00000   0.01128   0.01113  -3.13027
   D11        3.13981   0.00029   0.00000   0.00564   0.00576  -3.13762
   D12       -0.00111   0.00072   0.00000   0.00678   0.00666   0.00555
   D13        3.14078  -0.00020   0.00000  -0.00219  -0.00217   3.13860
   D14       -0.00046  -0.00019   0.00000  -0.00214  -0.00212  -0.00259
   D15        0.00046   0.00020   0.00000   0.00223   0.00221   0.00268
   D16       -3.14078   0.00020   0.00000   0.00228   0.00226  -3.13851
   D17       -0.00059   0.00131   0.00000   0.01030   0.01001   0.00942
   D18        3.13705   0.00196   0.00000   0.01653   0.01605  -3.13009
   D19        3.14032   0.00086   0.00000   0.00913   0.00909  -3.13378
   D20       -0.00523   0.00151   0.00000   0.01536   0.01513   0.00990
   D21        0.00162  -0.00270   0.00000  -0.02652  -0.02622  -0.02460
   D22        2.73623   0.01139   0.00000   0.12880   0.12741   2.86364
   D23       -3.13602  -0.00335   0.00000  -0.03274  -0.03225   3.11491
   D24       -0.40142   0.01074   0.00000   0.12258   0.12138  -0.28004
   D25       -0.00162   0.00214   0.00000   0.02286   0.02281   0.02118
   D26        3.13602   0.00200   0.00000   0.02549   0.02566  -3.12150
   D27       -2.75223  -0.00775   0.00000  -0.11907  -0.12003  -2.87226
   D28        0.38542  -0.00789   0.00000  -0.11644  -0.11717   0.26825
   D29        0.28145  -0.00207   0.00000  -0.03225  -0.03320   0.24825
   D30        2.89223  -0.00492   0.00000  -0.06369  -0.06457   2.82766
   D31        3.02509   0.00827   0.00000   0.11070   0.11158   3.13667
   D32       -0.64731   0.00543   0.00000   0.07926   0.08021  -0.56709
         Item               Value     Threshold  Converged?
 Maximum Force            0.012673     0.000015     NO 
 RMS     Force            0.004276     0.000010     NO 
 Maximum Displacement     0.202611     0.000060     NO 
 RMS     Displacement     0.044691     0.000040     NO 
 Predicted change in Energy=-6.517248D-03
 GradGradGradGradGradGradGradGradGradGradGradGradGradGradGradGradGradGrad

                          Input orientation:                          
 ---------------------------------------------------------------------
 Center     Atomic      Atomic             Coordinates (Angstroms)
 Number     Number       Type             X           Y           Z
 ---------------------------------------------------------------------
      1          6           0        0.180738    0.188894    0.002472
      2          6           0        0.187807    0.867709   -1.209728
      3          6           0        0.171973    0.182651   -2.416991
      4          6           0        0.137143   -1.195064   -2.413431
      5          6           0        0.106331   -1.904875   -1.203746
      6          6           0        0.141876   -1.187383    0.004821
      7          1           0        0.199746    0.748978    0.926793
      8          1           0        0.188633    0.737868   -3.344244
      9          1           0        0.135427   -1.736728   -3.352216
     10          1           0        0.137566   -1.724462    0.946093
     11          7           0        0.219464    2.318492   -1.214267
     12          8           0        0.228322    2.892839   -2.293678
     13          8           0        0.236239    2.898966   -0.138265
     14          7           0       -0.251494   -3.231446   -1.175109
     15          1           0       -0.279409   -3.739090   -2.043967
     16          1           0       -0.007227   -3.779916   -0.367100
 ---------------------------------------------------------------------
                    Distance matrix (angstroms):
                    1          2          3          4          5
     1  C    0.000000
     2  C    1.389341   0.000000
     3  C    2.419487   1.388178   0.000000
     4  C    2.784569   2.388828   1.378160   0.000000
     5  C    2.417512   2.773787   2.415375   1.402897   0.000000
     6  C    1.376828   2.387602   2.782638   2.418269   1.405948
     7  H    1.080937   2.139851   3.391517   3.865270   3.404534
     8  H    3.391451   2.138461   1.080898   2.145993   3.401851
     9  H    3.868333   3.372846   2.135415   1.083845   2.155236
    10  H    2.133827   3.371860   3.866342   3.400981   2.157622
    11  N    2.452986   1.451136   2.451656   3.713468   4.224895
    12  O    3.547659   2.297333   2.713576   4.090672   4.921472
    13  O    2.714292   2.297038   3.546137   4.684793   4.922298
    14  N    3.643109   4.122773   3.657547   2.414815   1.374281
    15  H    4.452943   4.704980   3.965217   2.604244   2.054047
    16  H    3.990410   4.727418   4.464987   3.299966   2.056369
                    6          7          8          9         10
     6  C    0.000000
     7  H    2.145431   0.000000
     8  H    3.863290   4.271065   0.000000
     9  H    3.401693   4.949018   2.475181   0.000000
    10  H    1.083728   2.474297   4.946986   4.298327   0.000000
    11  N    3.712594   2.654788   2.652569   4.585052   4.584686
    12  O    4.683885   3.868900   2.397741   4.749950   5.641261
    13  O    4.089943   2.399611   3.866640   5.641746   4.749912
    14  N    2.392732   4.523868   4.544701   2.669022   2.630945
    15  H    3.299427   5.403494   4.685396   2.427562   3.629470
    16  H    2.623316   4.714645   5.414067   3.620204   2.443427
                   11         12         13         14         15
    11  N    0.000000
    12  O    1.222735   0.000000
    13  O    1.222706   2.155435   0.000000
    14  N    5.570022   6.244059   6.236576   0.000000
    15  H    6.134458   6.656021   6.925415   1.006675   0.000000
    16  H    6.161142   6.949305   6.687235   1.006660   1.699303
                   16
    16  H    0.000000
 Stoichiometry    C6H6N2O2
 Framework group  C1[X(C6H6N2O2)]
 Deg. of freedom    42
 Full point group                 C1      NOp   1
 Largest Abelian subgroup         C1      NOp   1
 Largest concise Abelian subgroup C1      NOp   1
                         Standard orientation:                         
 ---------------------------------------------------------------------
 Center     Atomic      Atomic             Coordinates (Angstroms)
 Number     Number       Type             X           Y           Z
 ---------------------------------------------------------------------
      1          6           0        0.016861   -1.208853   -0.042392
      2          6           0        0.700863    0.000222   -0.018933
      3          6           0        0.021750    1.210625   -0.046638
      4          6           0       -1.355826    1.213459   -0.086650
      5          6           0       -2.072054    0.007169   -0.088096
      6          6           0       -1.359492   -1.204792   -0.078306
      7          1           0        0.572715   -2.135776   -0.026123
      8          1           0        0.581490    2.135264   -0.037977
      9          1           0       -1.892280    2.154668   -0.119260
     10          1           0       -1.900518   -2.143600   -0.098241
     11          7           0        2.151231   -0.001945    0.028209
     12          8           0        2.730378    1.074804    0.044903
     13          8           0        2.726595   -1.080624    0.048608
     14          7           0       -3.416212   -0.013532    0.197314
     15          1           0       -3.920452    0.857742    0.193077
     16          1           0       -3.954484   -0.820391   -0.072143
 ---------------------------------------------------------------------
 Rotational constants (GHZ):      3.9391668      0.8319919      0.6887891
 Basis read from rwf:  (5D, 7F)
 There are   430 symmetry adapted basis functions of A   symmetry.
 Integral buffers will be    131072 words long.
 Raffenetti 2 integral format.
 Two-electron integral symmetry is turned on.
   430 basis functions,   652 primitive gaussians,   490 cartesian basis functions
    36 alpha electrons       36 beta electrons
       nuclear repulsion energy       497.6449337831 Hartrees.
 NAtoms=   16 NActive=   16 NUniq=   16 SFac= 7.50D-01 NAtFMM=   80 NAOKFM=F Big=F
 ------------------------------------------------------------------------------
 Polarizable Continuum Model (PCM)
 =================================
 Model                : C-PCM.
 Atomic radii         : UFF (Universal Force Field).
 Polarization charges : Total charges.
 Charge compensation  : None.
 Solution method      : Matrix inversion.
 Cavity type          : Scaled VdW (van der Waals Surface) (Alpha=1.100).
 Cavity algorithm     : GePol (No added spheres)
                        Default sphere list used, NSphG=   16.
                        Lebedev-Laikov grids with approx.  5.0 points / Ang**2.
                        Smoothing algorithm: Karplus/York (Gamma=1.0000).
                        Polarization charges: spherical gaussians, with
                                              point-specific exponents (IZeta= 3).
                        Self-potential: point-specific (ISelfS= 7).
                        Self-field    : sphere-specific E.n sum rule (ISelfD= 2).
 1st derivatives      : Analytical E(r).r(x)/FMM algorithm (CHGder, D1EAlg=3).
                        Cavity 1st derivative terms included.
 Solvent              : CycloHexane, Eps=   2.016500 Eps(inf)=   2.035188
 ------------------------------------------------------------------------------
 Spheres list:
 ISph  on   Nord    Re0     Alpha      Xe            Ye            Ze
    1   C      1    1.926   1.100      0.016861     -1.208853     -0.042392
    2   C      2    1.926   1.100      0.700863      0.000222     -0.018933
    3   C      3    1.926   1.100      0.021750      1.210625     -0.046638
    4   C      4    1.926   1.100     -1.355826      1.213459     -0.086650
    5   C      5    1.926   1.100     -2.072054      0.007169     -0.088096
    6   C      6    1.926   1.100     -1.359492     -1.204792     -0.078306
    7   H      7    1.443   1.100      0.572715     -2.135776     -0.026123
    8   H      8    1.443   1.100      0.581490      2.135264     -0.037977
    9   H      9    1.443   1.100     -1.892280      2.154668     -0.119260
   10   H     10    1.443   1.100     -1.900518     -2.143600     -0.098241
   11   N     11    1.830   1.100      2.151231     -0.001945      0.028209
   12   O     12    1.750   1.100      2.730378      1.074804      0.044903
   13   O     13    1.750   1.100      2.726595     -1.080624      0.048608
   14   N     14    1.830   1.100     -3.416212     -0.013532      0.197314
   15   H     15    1.443   1.100     -3.920452      0.857742      0.193077
   16   H     16    1.443   1.100     -3.954484     -0.820391     -0.072143
 ------------------------------------------------------------------------------
 One-electron integrals computed using PRISM.
 NBasis=   430 RedAO= T  NBF=   430
 NBsUse=   429 1.00D-06 NBFU=   429
 Initial guess read from the read-write file.
 B after Tr=     0.000000    0.000000    0.000000
         Rot=    1.000000    0.000000    0.000000    0.000000 Ang=   0.00 deg.
 Initial guess orbital symmetries:
       Occupied  (A) (A) (A) (A) (A) (A) (A) (A) (A) (A) (A) (A)
                 (A) (A) (A) (A) (A) (A) (A) (A) (A) (A) (A) (A)
                 (A) (A) (A) (A) (A) (A) (A) (A) (A) (A) (A) (A)
       Virtual   (A) (A) (A) (A) (A) (A) (A) (A) (A) (A) (A) (A)
                 (A) (A) (A) (A) (A) (A) (A) (A) (A) (A) (A) (A)
                 (A) (A) (A) (A) (A) (A) (A) (A) (A) (A) (A) (A)
                 (A) (A) (A) (A) (A) (A) (A) (A) (A) (A) (A) (A)
                 (A) (A) (A) (A) (A) (A) (A) (A) (A) (A) (A) (A)
                 (A) (A) (A) (A) (A) (A) (A) (A) (A) (A) (A) (A)
                 (A) (A) (A) (A) (A) (A) (A) (A) (A) (A) (A) (A)
                 (A) (A) (A) (A) (A) (A) (A) (A) (A) (A) (A) (A)
                 (A) (A) (A) (A) (A) (A) (A) (A) (A) (A) (A) (A)
                 (A) (A) (A) (A) (A) (A) (A) (A) (A) (A) (A) (A)
                 (A) (A) (A) (A) (A) (A) (A) (A) (A) (A) (A) (A)
                 (A) (A) (A) (A) (A) (A) (A) (A) (A) (A) (A) (A)
                 (A) (A) (A) (A) (A) (A) (A) (A) (A) (A) (A) (A)
                 (A) (A) (A) (A) (A) (A) (A) (A) (A) (A) (A) (A)
                 (A) (A) (A) (A) (A) (A) (A) (A) (A) (A) (A) (A)
                 (A) (A) (A) (A) (A) (A) (A) (A) (A) (A) (A) (A)
                 (A) (A) (A) (A) (A) (A) (A) (A) (A) (A) (A) (A)
                 (A) (A) (A) (A) (A) (A) (A) (A) (A) (A) (A) (A)
                 (A) (A) (A) (A) (A) (A) (A) (A) (A) (A) (A) (A)
                 (A) (A) (A) (A) (A) (A) (A) (A) (A) (A) (A) (A)
                 (A) (A) (A) (A) (A) (A) (A) (A) (A) (A) (A) (A)
                 (A) (A) (A) (A) (A) (A) (A) (A) (A) (A) (A) (A)
                 (A) (A) (A) (A) (A) (A) (A) (A) (A) (A) (A) (A)
                 (A) (A) (A) (A) (A) (A) (A) (A) (A) (A) (A) (A)
                 (A) (A) (A) (A) (A) (A) (A) (A) (A) (A) (A) (A)
                 (A) (A) (A) (A) (A) (A) (A) (A) (A) (A) (A) (A)
                 (A) (A) (A) (A) (A) (A) (A) (A) (A) (A) (A) (A)
                 (A) (A) (A) (A) (A) (A) (A) (A) (A) (A) (A) (A)
                 (A) (A) (A) (A) (A) (A) (A) (A) (A) (A) (A) (A)
                 (A) (A) (A) (A) (A) (A) (A) (A) (A) (A) (A) (A)
                 (A) (A) (A) (A) (A) (A) (A) (A) (A) (A) (A) (A)
                 (A) (A) (A) (A) (A) (A) (A) (A) (A) (A) (A) (A)
                 (A) (A) (A) (A) (A) (A) (A) (A) (A)
 Harris functional with IExCor=20419 diagonalized for initial guess.
 ExpMin= 4.85D-02 ExpMax= 2.70D+04 ExpMxC= 9.22D+02 IAcc=3 IRadAn=         5 AccDes= 0.00D+00
 HarFok:  IExCor=20419 AccDes= 0.00D+00 IRadAn=         5 IDoV= 1
 ScaDFX=  1.000000  1.000000  1.000000  1.000000
 FoFCou: FMM=F IPFlag=           0 FMFlag=      100000 FMFlg1=           0
         NFxFlg=           0 DoJE=T BraDBF=F KetDBF=T FulRan=T
         Omega=  0.000000  0.000000  1.000000  0.000000  0.000000 ICntrl=     500 IOpCl=  0
         NMat0=    1 NMatS0=    1 NMatT0=    0 NMatD0=    1 NMtDS0=    0 NMtDT0=    0
         I1Cent=           4 NGrid=           0.
 Petite list used in FoFCou.
 FoFJK:  IHMeth= 1 ICntrl=     0 DoSepK=T KAlg= 1 I1Cent= 0 FoldK=F
 Gradient too large for Newton-Raphson -- use scaled steepest descent instead.
 FoFJK:  IHMeth= 1 ICntrl=     0 DoSepK=T KAlg= 1 I1Cent= 0 FoldK=F
 FoFJK:  IHMeth= 1 ICntrl=     0 DoSepK=T KAlg= 1 I1Cent= 0 FoldK=F
 FoFJK:  IHMeth= 1 ICntrl=     0 DoSepK=T KAlg= 1 I1Cent= 0 FoldK=F
 FoFJK:  IHMeth= 1 ICntrl=     0 DoSepK=T KAlg= 1 I1Cent= 0 FoldK=F
 FoFJK:  IHMeth= 1 ICntrl=     0 DoSepK=T KAlg= 1 I1Cent= 0 FoldK=F
 FoFJK:  IHMeth= 1 ICntrl=     0 DoSepK=T KAlg= 1 I1Cent= 0 FoldK=F
 FoFJK:  IHMeth= 1 ICntrl=     0 DoSepK=T KAlg= 1 I1Cent= 0 FoldK=F
 Gradient too large for Newton-Raphson -- use scaled steepest descent instead.
 FoFJK:  IHMeth= 1 ICntrl=     0 DoSepK=T KAlg= 1 I1Cent= 0 FoldK=F
 FoFJK:  IHMeth= 1 ICntrl=     0 DoSepK=T KAlg= 1 I1Cent= 0 FoldK=F
 FoFJK:  IHMeth= 1 ICntrl=     0 DoSepK=T KAlg= 1 I1Cent= 0 FoldK=F
 LinEq1:  Iter=  0 NonCon=     1 RMS=3.81D-05 Max=1.24D-03
 AX will form     1 AO Fock derivatives at one time.
 FoFJK:  IHMeth= 1 ICntrl=     0 DoSepK=T KAlg= 1 I1Cent= 0 FoldK=F
 LinEq1:  Iter=  1 NonCon=     1 RMS=3.03D-05 Max=9.27D-04
 FoFJK:  IHMeth= 1 ICntrl=     0 DoSepK=T KAlg= 1 I1Cent= 0 FoldK=F
 LinEq1:  Iter=  2 NonCon=     1 RMS=1.30D-05 Max=8.47D-04
 FoFJK:  IHMeth= 1 ICntrl=     0 DoSepK=T KAlg= 1 I1Cent= 0 FoldK=F
 LinEq1:  Iter=  3 NonCon=     1 RMS=8.82D-06 Max=5.33D-04
 FoFJK:  IHMeth= 1 ICntrl=     0 DoSepK=T KAlg= 1 I1Cent= 0 FoldK=F
 LinEq1:  Iter=  4 NonCon=     1 RMS=5.84D-06 Max=2.73D-04
 FoFJK:  IHMeth= 1 ICntrl=     0 DoSepK=T KAlg= 1 I1Cent= 0 FoldK=F
 LinEq1:  Iter=  5 NonCon=     1 RMS=2.63D-06 Max=1.12D-04
 FoFJK:  IHMeth= 1 ICntrl=     0 DoSepK=T KAlg= 1 I1Cent= 0 FoldK=F
 LinEq1:  Iter=  6 NonCon=     1 RMS=1.81D-06 Max=6.52D-05
 FoFJK:  IHMeth= 1 ICntrl=     0 DoSepK=T KAlg= 1 I1Cent= 0 FoldK=F
 LinEq1:  Iter=  7 NonCon=     1 RMS=8.72D-07 Max=2.40D-05
 FoFJK:  IHMeth= 1 ICntrl=     0 DoSepK=T KAlg= 1 I1Cent= 0 FoldK=F
 LinEq1:  Iter=  8 NonCon=     1 RMS=4.26D-07 Max=1.37D-05
 FoFJK:  IHMeth= 1 ICntrl=     0 DoSepK=T KAlg= 1 I1Cent= 0 FoldK=F
 LinEq1:  Iter=  9 NonCon=     1 RMS=2.02D-07 Max=1.06D-05
 FoFJK:  IHMeth= 1 ICntrl=     0 DoSepK=T KAlg= 1 I1Cent= 0 FoldK=F
 LinEq1:  Iter= 10 NonCon=     1 RMS=8.99D-08 Max=2.41D-06
 FoFJK:  IHMeth= 1 ICntrl=     0 DoSepK=T KAlg= 1 I1Cent= 0 FoldK=F
 LinEq1:  Iter= 11 NonCon=     1 RMS=3.06D-08 Max=7.74D-07
 FoFJK:  IHMeth= 1 ICntrl=     0 DoSepK=T KAlg= 1 I1Cent= 0 FoldK=F
 LinEq1:  Iter= 12 NonCon=     1 RMS=9.76D-09 Max=2.81D-07
 FoFJK:  IHMeth= 1 ICntrl=     0 DoSepK=T KAlg= 1 I1Cent= 0 FoldK=F
 LinEq1:  Iter= 13 NonCon=     1 RMS=4.90D-09 Max=2.12D-07
 FoFJK:  IHMeth= 1 ICntrl=     0 DoSepK=T KAlg= 1 I1Cent= 0 FoldK=F
 LinEq1:  Iter= 14 NonCon=     0 RMS=1.90D-09 Max=9.45D-08
 Linear equations converged to 1.682D-08 1.682D-07 after    14 iterations.
 FoFJK:  IHMeth= 1 ICntrl=     0 DoSepK=T KAlg= 1 I1Cent= 0 FoldK=F
 FoFJK:  IHMeth= 1 ICntrl=     0 DoSepK=T KAlg= 1 I1Cent= 0 FoldK=F
 FoFJK:  IHMeth= 1 ICntrl=     0 DoSepK=T KAlg= 1 I1Cent= 0 FoldK=F
 LinEq1:  Iter=  0 NonCon=     1 RMS=5.61D-08 Max=2.49D-06
 FoFJK:  IHMeth= 1 ICntrl=     0 DoSepK=T KAlg= 1 I1Cent= 0 FoldK=F
 LinEq1:  Iter=  1 NonCon=     1 RMS=4.17D-08 Max=1.36D-06
 FoFJK:  IHMeth= 1 ICntrl=     0 DoSepK=T KAlg= 1 I1Cent= 0 FoldK=F
 LinEq1:  Iter=  2 NonCon=     1 RMS=1.67D-08 Max=7.84D-07
 FoFJK:  IHMeth= 1 ICntrl=     0 DoSepK=T KAlg= 1 I1Cent= 0 FoldK=F
 LinEq1:  Iter=  3 NonCon=     1 RMS=1.52D-08 Max=7.35D-07
 FoFJK:  IHMeth= 1 ICntrl=     0 DoSepK=T KAlg= 1 I1Cent= 0 FoldK=F
 LinEq1:  Iter=  4 NonCon=     1 RMS=8.57D-09 Max=3.29D-07
 FoFJK:  IHMeth= 1 ICntrl=     0 DoSepK=T KAlg= 1 I1Cent= 0 FoldK=F
 LinEq1:  Iter=  5 NonCon=     1 RMS=5.26D-09 Max=1.52D-07
 FoFJK:  IHMeth= 1 ICntrl=     0 DoSepK=T KAlg= 1 I1Cent= 0 FoldK=F
 LinEq1:  Iter=  6 NonCon=     1 RMS=2.01D-09 Max=4.97D-08
 FoFJK:  IHMeth= 1 ICntrl=     0 DoSepK=T KAlg= 1 I1Cent= 0 FoldK=F
 LinEq1:  Iter=  7 NonCon=     1 RMS=1.15D-09 Max=3.87D-08
 FoFJK:  IHMeth= 1 ICntrl=     0 DoSepK=T KAlg= 1 I1Cent= 0 FoldK=F
 LinEq1:  Iter=  8 NonCon=     1 RMS=5.02D-10 Max=1.97D-08
 FoFJK:  IHMeth= 1 ICntrl=     0 DoSepK=T KAlg= 1 I1Cent= 0 FoldK=F
 LinEq1:  Iter=  9 NonCon=     1 RMS=2.31D-10 Max=9.46D-09
 FoFJK:  IHMeth= 1 ICntrl=     0 DoSepK=T KAlg= 1 I1Cent= 0 FoldK=F
 LinEq1:  Iter= 10 NonCon=     1 RMS=1.36D-10 Max=5.57D-09
 FoFJK:  IHMeth= 1 ICntrl=     0 DoSepK=T KAlg= 1 I1Cent= 0 FoldK=F
 LinEq1:  Iter= 11 NonCon=     1 RMS=5.55D-11 Max=1.50D-09
 FoFJK:  IHMeth= 1 ICntrl=     0 DoSepK=T KAlg= 1 I1Cent= 0 FoldK=F
 LinEq1:  Iter= 12 NonCon=     0 RMS=2.40D-11 Max=6.30D-10
 Linear equations converged to 8.237D-11 8.237D-10 after    12 iterations.
 FoFJK:  IHMeth= 1 ICntrl=     0 DoSepK=T KAlg= 1 I1Cent= 0 FoldK=F
 Error on total polarization charges =  0.00716
 SCF Done:  E(RCAM-B3LYP) =  -492.090723185     a.u. after    5 cycles
            Convg  =    0.1692D-08                    41 Fock formations.
              S**2 =  0.0000                  -V/T =  2.0041
 D1PCM: C-PCM CHGder 1st derivatives, ID1Alg=3 FixD1E=F DoIter=F DoCFld=F I1PDM=0.
 Calling FoFJK, ICntrl=      2127 FMM=F ISym2X=0 I1Cent= 0 IOpClX= 0 NMat=1 NMatS=1 NMatT=0.
 FoFJK:  IHMeth= 1 ICntrl=  2127 DoSepK=T KAlg= 1 I1Cent= 0 FoldK=F
 ***** Axes restored to original set *****
 -------------------------------------------------------------------
 Center     Atomic                   Forces (Hartrees/Bohr)
 Number     Number              X              Y              Z
 -------------------------------------------------------------------
      1        6           0.002996409   -0.002462768   -0.001221217
      2        6          -0.000057546   -0.000041798   -0.000737549
      3        6           0.002530241   -0.001190466    0.001896299
      4        6           0.004491414    0.000123748    0.000751692
      5        6          -0.025390866    0.002651786    0.003749114
      6        6           0.007517109    0.003278747   -0.001337171
      7        1          -0.000168386   -0.000815812   -0.000941040
      8        1          -0.000070858   -0.000814284    0.000916232
      9        1          -0.002001233    0.000553827    0.001045377
     10        1          -0.002254555    0.000470748   -0.001105528
     11        7          -0.000085111    0.003739201   -0.000066647
     12        8          -0.000088407   -0.002798953    0.006505671
     13        8          -0.000117235   -0.002876520   -0.006463210
     14        7           0.010889869   -0.000251556   -0.003432259
     15        1           0.002618434   -0.000007381    0.000721112
     16        1          -0.000809277    0.000441482   -0.000280875
 -------------------------------------------------------------------
 Cartesian Forces:  Max     0.025390866 RMS     0.004681653

 GradGradGradGradGradGradGradGradGradGradGradGradGradGradGradGradGradGrad
 Berny optimization.
 Using GEDIIS/GDIIS optimizer.
 Internal  Forces:  Max     0.007057420 RMS     0.002361998
 Search for a local minimum.
 Step number   2 out of a maximum of   82
 All quantities printed in internal units (Hartrees-Bohrs-Radians)
 Mixed Optimization -- RFO/linear search
 Update second derivatives using D2CorX and points    1    2
 DE= -6.06D-03 DEPred=-6.52D-03 R= 9.30D-01
 SS=  1.41D+00  RLast= 3.00D-01 DXNew= 5.0454D-01 8.9925D-01
 Trust test= 9.30D-01 RLast= 3.00D-01 DXMaxT set to 5.05D-01
 Use linear search instead of GDIIS.
     Eigenvalues ---    0.00979   0.00979   0.01827   0.01935   0.02041
     Eigenvalues ---    0.02151   0.02178   0.02230   0.02233   0.02271
     Eigenvalues ---    0.02273   0.03050   0.03330   0.15989   0.16000
     Eigenvalues ---    0.16000   0.16000   0.16000   0.16003   0.22010
     Eigenvalues ---    0.22972   0.23807   0.23994   0.25000   0.25000
     Eigenvalues ---    0.25158   0.35310   0.35337   0.35649   0.35674
     Eigenvalues ---    0.37712   0.41858   0.42687   0.45700   0.45898
     Eigenvalues ---    0.46425   0.46431   0.47618   0.48592   0.50830
     Eigenvalues ---    0.91379   0.926581000.000001000.000001000.00000
     Eigenvalues --- 1000.000001000.000001000.000001000.000001000.00000
     Eigenvalues --- 1000.000001000.000001000.000001000.000001000.00000
     Eigenvalues --- 1000.000001000.000001000.000001000.000001000.00000
     Eigenvalues --- 1000.000001000.000001000.000001000.000001000.00000
     Eigenvalues --- 1000.000001000.000001000.000001000.000001000.00000
     Eigenvalues --- 1000.000001000.00000
 RFO step:  Lambda=-1.35872295D-03 EMin= 9.79050804D-03
 Quartic linear search produced a step of  1.54141.
 Iteration  1 RMS(Cart)=  0.08348886 RMS(Int)=  0.01159500
 Iteration  2 RMS(Cart)=  0.01816568 RMS(Int)=  0.00309141
 Iteration  3 RMS(Cart)=  0.00031529 RMS(Int)=  0.00308415
 Iteration  4 RMS(Cart)=  0.00000090 RMS(Int)=  0.00308415
 Variable       Old X    -DE/DX   Delta X   Delta X   Delta X     New X
                                 (Linear)    (Quad)   (Total)
    R1        2.62547  -0.00224  -0.00582   0.00169  -0.00590   2.61957
    R2        2.60183  -0.00394  -0.01435   0.00800  -0.00635   2.59548
    R3        2.04267  -0.00123  -0.00503   0.00134  -0.00369   2.03898
    R4        2.62328  -0.00316  -0.00921   0.00348  -0.00749   2.61579
    R5        2.74225  -0.00194  -0.00797   0.00290  -0.00508   2.73717
    R6        2.60434  -0.00319  -0.01047   0.00420  -0.00627   2.59808
    R7        2.04260  -0.00121  -0.00515   0.00175  -0.00340   2.03920
    R8        2.65109  -0.00265  -0.00810  -0.00126  -0.00762   2.64347
    R9        2.04817  -0.00118  -0.00486   0.00128  -0.00358   2.04459
   R10        2.65686  -0.00204   0.00079  -0.01547  -0.01294   2.64392
   R11        2.59702  -0.00355  -0.00036  -0.01717  -0.01753   2.57948
   R12        2.04795  -0.00118  -0.00520   0.00192  -0.00328   2.04467
   R13        2.31063  -0.00706  -0.01030   0.00087  -0.00943   2.30120
   R14        2.31058  -0.00706  -0.01038   0.00103  -0.00935   2.30123
   R15        1.90234  -0.00069  -0.00177  -0.00027  -0.00203   1.90031
   R16        1.90231  -0.00066  -0.00181  -0.00001  -0.00182   1.90049
    A1        2.08291   0.00028  -0.00099   0.00461   0.00391   2.08683
    A2        2.08614   0.00008   0.00199  -0.00199  -0.00016   2.08598
    A3        2.11411  -0.00036  -0.00103  -0.00254  -0.00374   2.11037
    A4        2.11486  -0.00058   0.00115  -0.00341  -0.00371   2.11115
    A5        2.08439   0.00029  -0.00023   0.00096   0.00145   2.08584
    A6        2.08392   0.00030  -0.00095   0.00250   0.00227   2.08619
    A7        2.08447   0.00021   0.00140  -0.00113   0.00057   2.08504
    A8        2.08563   0.00013   0.00120   0.00028   0.00134   2.08696
    A9        2.11309  -0.00034  -0.00261   0.00084  -0.00192   2.11117
   A10        2.10433   0.00069  -0.00136  -0.00265  -0.00024   2.10409
   A11        2.09140  -0.00025   0.00151   0.00110   0.00071   2.09211
   A12        2.08745  -0.00044  -0.00015   0.00155  -0.00053   2.08692
   A13        2.07426  -0.00122  -0.00071   0.01048   0.00242   2.07668
   A14        2.10840  -0.00264   0.00676   0.00506  -0.00394   2.10446
   A15        2.07291   0.00530   0.05952  -0.01502   0.02891   2.10182
   A16        2.10525   0.00060   0.00005  -0.00656  -0.00273   2.10252
   A17        2.09091  -0.00009   0.00076   0.00503   0.00387   2.09478
   A18        2.08703  -0.00052  -0.00080   0.00154  -0.00117   2.08585
   A19        2.06295   0.00048   0.00527  -0.00580  -0.00059   2.06237
   A20        2.06255   0.00038   0.00466  -0.00561  -0.00101   2.06154
   A21        2.15768  -0.00086  -0.00993   0.01142   0.00143   2.15911
   A22        2.06690  -0.00081  -0.01057  -0.00164  -0.01274   2.05417
   A23        2.07085   0.00011  -0.00449   0.00016  -0.00485   2.06600
   A24        2.00948  -0.00011  -0.00838   0.00316  -0.00585   2.00364
    D1       -0.01311  -0.00045  -0.02096   0.02235   0.00185  -0.01127
    D2        3.13425  -0.00031  -0.01408   0.01162  -0.00209   3.13216
    D3        3.13491  -0.00024  -0.01001   0.00957  -0.00062   3.13429
    D4       -0.00091  -0.00010  -0.00312  -0.00116  -0.00456  -0.00547
    D5       -0.00264  -0.00005  -0.00498   0.01566   0.01019   0.00755
    D6        3.14004  -0.00010  -0.00939   0.01083   0.00016   3.14020
    D7        3.13241  -0.00027  -0.01611   0.02865   0.01271  -3.13807
    D8       -0.00809  -0.00032  -0.02053   0.02382   0.00268  -0.00541
    D9        0.00974   0.00026   0.01576  -0.01952  -0.00347   0.00626
   D10       -3.13027   0.00044   0.01715  -0.01732  -0.00067  -3.13094
   D11       -3.13762   0.00012   0.00887  -0.00880   0.00046  -3.13716
   D12        0.00555   0.00030   0.01027  -0.00660   0.00327   0.00882
   D13        3.13860  -0.00002  -0.00335   0.01701   0.01372  -3.13087
   D14       -0.00259  -0.00010  -0.00327  -0.00233  -0.00555  -0.00814
   D15        0.00268   0.00012   0.00341   0.00649   0.00985   0.01253
   D16       -3.13851   0.00004   0.00349  -0.01285  -0.00942   3.13525
   D17        0.00942   0.00044   0.01543  -0.02148  -0.00699   0.00243
   D18       -3.13009   0.00073   0.02474  -0.02032   0.00284  -3.12724
   D19       -3.13378   0.00026   0.01401  -0.02372  -0.00984   3.13957
   D20        0.00990   0.00055   0.02332  -0.02256   0.00000   0.00990
   D21       -0.02460  -0.00091  -0.04042   0.05792   0.01861  -0.00599
[...]
 ! D4    D(7,1,2,11)             0.0275         -DE/DX =    0.0                 !
 ! D5    D(2,1,6,5)              0.0262         -DE/DX =    0.0                 !
 ! D6    D(2,1,6,10)          -179.864          -DE/DX =    0.0                 !
 ! D7    D(7,1,6,5)           -179.9147         -DE/DX =    0.0                 !
 ! D8    D(7,1,6,10)             0.1952         -DE/DX =    0.0                 !
 ! D9    D(1,2,3,4)             -0.0068         -DE/DX =    0.0                 !
 ! D10   D(1,2,3,8)           -179.9485         -DE/DX =    0.0                 !
 ! D11   D(11,2,3,4)           179.9142         -DE/DX =    0.0                 !
 ! D12   D(11,2,3,8)            -0.0275         -DE/DX =    0.0                 !
 ! D13   D(1,2,11,12)          179.9555         -DE/DX =    0.0                 !
 ! D14   D(1,2,11,13)           -0.0346         -DE/DX =    0.0                 !
 ! D15   D(3,2,11,12)            0.0334         -DE/DX =    0.0                 !
 ! D16   D(3,2,11,13)         -179.9568         -DE/DX =    0.0                 !
 ! D17   D(2,3,4,5)             -0.0263         -DE/DX =    0.0                 !
 ! D18   D(2,3,4,9)            179.8638         -DE/DX =    0.0                 !
 ! D19   D(8,3,4,5)            179.9146         -DE/DX =    0.0                 !
 ! D20   D(8,3,4,9)             -0.1953         -DE/DX =    0.0                 !
 ! D21   D(3,4,5,6)              0.0581         -DE/DX =    0.0                 !
 ! D22   D(3,4,5,14)           178.3354         -DE/DX =    0.0                 !
 ! D23   D(9,4,5,6)           -179.8323         -DE/DX =    0.0                 !
 ! D24   D(9,4,5,14)            -1.5551         -DE/DX =    0.0                 !
 ! D25   D(4,5,6,1)             -0.0581         -DE/DX =    0.0                 !
 ! D26   D(4,5,6,10)           179.8324         -DE/DX =    0.0                 !
 ! D27   D(14,5,6,1)          -178.3354         -DE/DX =    0.0                 !
 ! D28   D(14,5,6,10)            1.5551         -DE/DX =    0.0                 !
 ! D29   D(4,5,14,15)           15.3837         -DE/DX =    0.0                 !
 ! D30   D(4,5,14,16)          166.3707         -DE/DX =    0.0                 !
 ! D31   D(6,5,14,15)         -166.3706         -DE/DX =    0.0                 !
 ! D32   D(6,5,14,16)          -15.3837         -DE/DX =    0.0                 !
 --------------------------------------------------------------------------------
 GradGradGradGradGradGradGradGradGradGradGradGradGradGradGradGradGradGrad

 1\1\GINC-DLT03\Freq\RCAM-B3LYP\Gen\C6H6N2O2\MATHEUSMAXIMO\26-Nov-2022\
 0\\#N Geom=AllCheck Guess=TCheck SCRF=Check GenChk RCAM-B3LYP/ChkBas F
 req\\NA CAM-B3LYP def2-TZVPD - solvent cpcm cyclohexane\\0,1\C,0.14881
 7064,0.1896298565,-0.0011991174\C,0.1847359499,0.8686694732,-1.2093193
 087\C,0.122973048,0.1847695526,-2.4136458432\C,0.0249022844,-1.1856199
 589,-2.4096188112\C,-0.0124995804,-1.8950801996,-1.2016378812\C,0.0507
 430192,-1.1807598844,0.0023968854\H,0.199204014,0.7443230591,0.9232786
 228\H,0.1535193316,0.735731289,-3.341218479\H,-0.0258977133,-1.7248644
 079,-3.3464901383\H,0.0200505,-1.716224686,0.9423057666\N,0.2900213455
 ,2.3134026127,-1.2133592278\O,0.3204981152,2.8857932618,-2.2882592574\
 O,0.3434715708,2.8901232585,-0.1416752927\N,-0.1439194541,-3.253453337
 5,-1.1974910656\H,0.0191440146,-3.7612189834,-2.0490085433\H,0.0373712
 504,-3.7577876156,-0.347621429\\Version=EM64L-G09RevA.02\State=1-A\HF=
 -492.0947849\RMSD=0.000e+00\RMSF=7.984e-07\ZeroPoint=0.12082\Thermal=0
 .1290522\Dipole=0.0267646,-3.2289071,0.0062214\DipoleDeriv=-0.0378289,
 0.0524268,-0.0072136,0.0565074,0.7030411,-0.1156443,-0.0267773,-0.3934
 181,0.0859964,-0.0307565,-0.0994911,-0.0017554,-0.1079801,-1.4038672,0
 .0035554,-0.0017384,0.0034617,-0.2133937,-0.0370494,0.0608453,0.009599
 1,0.059059,0.7050823,0.1119094,0.0291597,0.3897108,0.0831795,-0.217795
 4,-0.0208473,0.0090674,-0.0499929,-0.8244764,0.0423785,0.0657969,0.698
 3128,-0.011997,0.1683876,0.2534142,-0.0004937,0.2167327,2.4886109,-0.0
 069966,-0.0004202,-0.0073918,0.170012,-0.2193001,-0.0357946,-0.0044788
 ,-0.0511094,-0.8274399,-0.0380051,-0.0611184,-0.6944137,-0.0075221,0.1
 483293,-0.0030031,-0.0038738,-0.0015648,0.1270472,-0.0403837,-0.003301
 5,-0.0286547,0.063895,0.1484444,-0.0023777,0.00207,-0.000692,0.127325,
 0.040152,0.0014908,0.0284564,0.063503,0.1575923,-0.012311,-0.0067008,-
 0.0106877,0.0013356,-0.0746765,-0.0065842,-0.0764523,-0.0191057,0.1577
 963,-0.010652,0.0029494,-0.0090672,0.0019447,0.0748034,0.0028265,0.076
 613,-0.0199194,0.3047828,0.1951947,0.0175382,0.2028205,2.9964629,-0.00
 42173,0.0175211,-0.004137,1.9801644,-0.2959857,-0.0579417,0.0267818,-0
 .0601528,-1.1736486,0.4910038,0.0350452,0.5851541,-1.165171,-0.297701,
 -0.0705983,-0.045046,-0.070825,-1.177983,-0.4895489,-0.0533035,-0.5837
 237,-1.1591215,-0.6091672,-0.5623309,0.0057318,-0.2017775,-2.198677,0.
 0062317,0.0050049,0.0100943,-0.1800411,0.33092,0.1580766,0.0383589,0.0
 150124,0.2279676,0.053827,0.031874,0.1159391,0.16362,0.3293313,0.15539
 02,-0.0425346,0.0137171,0.2272747,-0.0543886,-0.0354756,-0.1195506,0.1
 659013\Polar=63.5139117,8.8744177,179.583702,0.5603915,-0.2201622,117.
 5022933\PG=C01 [X(C6H6N2O2)]\NImag=0\\0.15181338,0.04236148,0.72882527
 ,0.00946634,0.04247105,0.73802645,-0.06631239,-0.00538475,0.00517231,0
 .13972248,-0.00462590,-0.14668852,0.10548339,0.03175828,0.57780051,0.0
 0090296,0.04531520,-0.29360620,0.00663056,0.00003729,0.76461432,0.0091
 0926,0.00373130,-0.00242967,-0.06654618,-0.00690468,-0.00573881,0.1516
 7348,0.00322417,0.05815565,-0.02425775,-0.00639138,-0.14729847,-0.0457
 7936,0.04142954,0.72847836,0.00091626,0.02370361,-0.06086181,-0.010007
 53,-0.10595026,-0.29276470,0.00293322,-0.04332807,0.73851395,-0.003060
 28,-0.00251136,0.00205740,0.00819722,-0.00369970,-0.00475555,-0.063427
 57,-0.02352706,0.00142195,0.13259777,-0.00274034,-0.04621816,0.0332796
 4,-0.00446322,-0.04315933,-0.07753536,-0.02222815,-0.37370049,0.034721
 87,0.04546550,0.73991296,0.00131115,0.02057955,-0.01696444,-0.00106778
 ,-0.01799822,0.03321887,-0.00321057,-0.03649577,-0.13528606,0.00963845
 ,0.04483586,0.70463485,0.00142992,-0.00462505,-0.00191339,-0.00689929,
 0.00385467,-0.00077663,0.00160367,-0.00283336,0.00287497,-0.07326718,-
 0.00478033,0.00255971,0.17805005,-0.00262675,-0.03827148,-0.02996892,0
 .00211850,0.02396884,-0.00022946,-0.00195741,-0.03781489,0.03035545,-0
 .00417592,-0.15531299,0.09116438,0.03273175,0.72954910,-0.00523456,-0.
 08296291,0.04600247,-0.00077306,-0.00024818,-0.07865772,0.00619028,0.0
 8338034,0.04537204,-0.00009418,0.02778570,-0.27232106,0.00547468,-0.00
 042087,0.69516658,-0.06342013,-0.02273796,-0.00286889,0.00833369,-0.00
 328971,0.00529881,-0.00313856,-0.00295925,-0.00234030,0.00786778,0.003
 71924,-0.00157395,-0.07341102,-0.00614125,-0.00414237,0.13244362,-0.02
 294636,-0.37368949,-0.03327734,-0.00279246,-0.04277271,0.07791899,-0.0
 0345727,-0.04643445,-0.03309433,0.00340897,0.05997908,-0.01492020,-0.0
 0539838,-0.15579336,-0.02814533,0.04447815,0.73954934,0.00176150,0.037
 95184,-0.13530630,0.00161143,0.01837912,0.03269586,-0.00159265,-0.0204
 0203,-0.01666990,0.00043463,0.01442230,-0.04462906,-0.00679651,-0.0915
 2264,-0.27169537,0.00244598,-0.04594026,0.70515305,-0.04270632,-0.0078
 6442,-0.01183283,0.00574392,0.00032562,0.00061100,0.00486338,-0.000419
 70,0.00016659,-0.00122657,0.00001509,0.00009798,0.00867662,-0.00099068
 ,-0.00004052,0.00552627,-0.00103308,-0.00185987,0.02852385,-0.00787568
 ,-0.13196761,-0.12705876,0.00066709,0.01318556,0.01181305,-0.00043287,
 -0.00149927,0.00349861,0.00003104,-0.00085736,0.00060606,-0.00101876,-
 0.00472909,0.00085934,-0.00143329,-0.00990715,-0.02634490,0.00941538,0
 .13710001,-0.01170050,-0.12545831,-0.27722513,-0.00137598,-0.01533798,
 -0.01848092,0.00018859,0.00385699,-0.00323159,0.00006288,0.00061784,0.
 00047425,0.00006036,0.00154235,0.00121625,0.00016934,0.00224097,0.0063
 7252,0.01285046,0.13743757,0.28933228,0.00485210,-0.00050332,-0.000337
 64,0.00574921,0.00064937,-0.00113229,-0.04230957,-0.00514362,0.0068143
 1,0.00556293,-0.00107261,0.00188042,0.00867282,-0.00102340,-0.00011510
 ,-0.00122924,0.00000158,-0.00006147,0.00057778,0.00001424,-0.00007325,
 0.02809260,-0.00050890,-0.00152889,-0.00349536,0.00041698,0.01319920,-
 0.01195233,-0.00512106,-0.13095173,0.12660747,-0.00086851,-0.00980966,
 0.02643465,-0.00103726,-0.00473858,-0.00081330,0.00001793,-0.00086228,
 -0.00060120,-0.00000247,0.00064306,-0.00079368,0.00643489,0.13599413,-
 0.00035959,-0.00385394,-0.00319068,0.00085444,0.01519986,-0.01849982,0
 .00668197,0.12500706,-0.27863746,-0.00014840,-0.00215329,0.00623836,-0
 .00021590,-0.00149677,0.00122950,-0.00002642,-0.00061263,0.00048183,0.
 00004354,0.00078771,-0.00080757,-0.00727267,-0.13698826,0.29086921,-0.
 00088047,0.00003072,0.00003648,0.00760450,-0.00084444,0.00007232,0.002
 67682,-0.00101154,-0.00199821,-0.03578957,-0.00824434,-0.01183716,0.00
 436644,0.00010210,0.00090528,0.00522380,-0.00043914,0.00012506,-0.0005
 4380,0.00004546,-0.00000110,-0.00507195,0.00044850,0.00007700,0.024988
 72,-0.00000033,-0.00090351,0.00062788,-0.00087050,-0.00449275,0.001732
 57,-0.00142937,-0.01249558,-0.02914938,-0.00804867,-0.12782200,-0.1196
 5995,0.00056501,0.01003568,0.01466006,-0.00047371,-0.00111692,0.003044
 83,0.00004948,0.00002598,-0.00008369,0.00047374,0.00133550,0.00027542,
 0.00936389,0.13391405,0.00009291,0.00125462,-0.00014299,-0.00003608,0.
 00063474,0.00195726,0.00013686,0.00166666,0.00453180,-0.01167205,-0.11
 964573,-0.27247235,-0.00145692,-0.01675309,-0.01910533,0.00019858,0.00
 355397,-0.00315266,-0.00000298,-0.00006313,0.00000056,0.00006451,-0.00
 028664,0.00074075,0.01280084,0.12971909,0.28654812,0.00271763,-0.00103
 814,0.00204000,0.00760123,-0.00085810,-0.00018973,-0.00088290,0.000003
 76,-0.00002060,0.00521304,-0.00051613,-0.00030211,0.00436746,0.0004550
 9,-0.00140948,-0.03539420,-0.00564777,0.00677422,-0.00507238,0.0004544
 4,0.00004574,-0.00054346,0.00004683,0.00001256,-0.00026653,0.00007060,
 -0.00006007,0.02455984,-0.00080425,-0.01238446,0.02924136,-0.00090721,
 -0.00450211,-0.00168750,-0.00001409,-0.00091108,-0.00062462,-0.0005400
 7,-0.00114350,-0.00304205,0.00025438,0.01004356,-0.01478629,-0.0054525
 2,-0.12685984,0.11921712,0.00046768,0.00133550,-0.00028790,0.00005129,
 0.00002656,0.00008250,0.00005550,0.00054241,-0.00071851,0.00654879,0.1
 3287081,-0.00009466,-0.00157663,0.00437992,-0.00008119,-0.00059047,0.0
 0196991,-0.00007694,-0.00125189,-0.00013298,-0.00037553,-0.00355182,-0
 .00311536,0.00095217,0.01662968,-0.01911431,0.00660833,0.11920702,-0.2
 7382974,0.00005817,0.00027458,0.00074116,0.00001442,0.00006203,-0.0000
 0036,0.00004492,0.00071110,-0.00096169,-0.00720728,-0.12926948,0.28802
 007,-0.00468393,-0.00288900,0.00201179,-0.08388223,-0.00344455,-0.0003
 4503,-0.00476317,-0.00345308,-0.00158976,0.00781261,0.00073569,-0.0010
 6399,-0.00146427,-0.00163983,-0.00004101,0.00783937,0.00085692,0.00074
 826,-0.00429878,0.00035707,-0.00020280,-0.00429436,0.00035630,0.000224
 08,0.00137001,-0.00008488,0.00001733,0.00137177,-0.00004831,-0.0000412
 7,0.25630431,-0.00286982,-0.04783072,0.02477127,-0.00338016,-0.1302873
 0,0.00006364,-0.00340462,-0.04803492,-0.02445307,0.00036835,0.01811394
 ,-0.01240950,-0.00302178,-0.02357938,0.00006864,0.00063440,0.01818580,
 0.01229834,0.00034811,0.00054513,-0.00302692,0.00041261,0.00055697,0.0
 0300349,-0.00006296,0.00044905,0.00055810,-0.00007444,0.00045371,-0.00
 055748,0.03097178,0.67817051,0.00210999,0.02613524,0.01423869,-0.00034
 515,0.00006426,-0.11672625,-0.00168796,-0.02581618,0.01452195,-0.00050
 118,-0.00555054,-0.00670900,-0.00003828,0.00005381,-0.00560465,0.00018
 666,0.00543306,-0.00680772,0.00001574,0.00006621,-0.00323175,0.0000053
 7,-0.00008913,-0.00324808,-0.00012335,-0.00171192,0.00024471,0.0000994
 3,0.00171250,0.00023830,0.00729847,0.00020486,0.94396600,0.00408385,-0
 .00041654,-0.00065073,0.02077596,-0.00424047,0.00349511,0.00112155,-0.
 00020086,0.00017128,-0.00066359,-0.00010685,0.00023079,0.00027797,0.00
 036175,0.00015354,-0.00114388,-0.00032164,-0.00001213,0.00032393,0.000
 00481,0.00001304,0.00012373,-0.00029282,0.00009495,-0.00003901,-0.0000
 1490,-0.00001278,-0.00062925,-0.00002347,0.00000544,-0.08514160,-0.009
 76174,0.00926103,0.03184920,-0.00050662,-0.00143583,-0.00886974,-0.004
 11837,-0.04307560,0.05261507,-0.00003576,0.00001309,0.00370693,-0.0000
 6853,-0.00272668,0.00317900,0.00081917,0.00624419,0.00212178,-0.000276
 50,-0.00593848,-0.00071657,0.00001371,0.00058323,0.00006328,-0.0002812
 2,-0.00384397,0.00085720,-0.00001718,-0.00024170,-0.00020737,-0.000017
 79,-0.00099291,0.00004164,-0.00976737,-0.24327595,0.17501974,0.0136736
 8,0.24973297,-0.00014256,-0.00203117,0.00425975,0.00262307,0.04078517,
 -0.01206678,-0.00096744,-0.01192340,-0.00882066,0.00027944,0.00489853,
 -0.00075666,-0.00076034,-0.00594759,0.00010338,0.00025252,0.00357911,0
 .00298373,-0.00006568,-0.00116058,0.00124134,0.00000077,-0.00055864,0.
 00338542,0.00001665,0.00021577,0.00004745,0.00002007,0.00028576,-0.000
 04868,0.00922613,0.17401727,-0.41655865,-0.01022247,-0.21689666,0.5627
 3014,0.00113402,0.00005296,-0.00038456,0.02063041,-0.00512656,-0.00417
 214,0.00410094,-0.00036998,0.00065516,-0.00114711,-0.00039760,0.000102
 22,0.00029083,0.00048811,-0.00015946,-0.00067454,-0.00021252,-0.000231
 50,0.00012320,-0.00028069,-0.00002390,0.00032548,0.00002966,0.00000644
 ,-0.00062953,-0.00002953,0.00000712,-0.00003905,-0.00001945,0.00001470
 ,-0.08568783,-0.01354276,-0.01628210,0.02910278,0.00149456,-0.00104422
 ,0.03252832,-0.00011191,0.00004620,-0.00374112,-0.00525418,-0.04345117
 ,-0.05238788,-0.00031559,-0.00139177,0.00890131,-0.00026160,-0.0059498
 5,0.00075836,0.00077629,0.00625948,-0.00216373,-0.00013768,-0.00275919
 ,-0.00316868,-0.00029903,-0.00384492,-0.00082182,0.00001272,0.00058767
 ,-0.00006093,-0.00001870,-0.00099422,-0.00003744,-0.00001278,-0.000241
 73,0.00020886,-0.01356982,-0.24468586,-0.17546235,0.00171201,0.0508650
 0,0.00989865,0.01838990,0.25148616,0.00075406,0.01188909,-0.00886604,-
 0.00330012,-0.04055792,-0.01154548,0.00014716,0.00206237,0.00419858,-0
 .00016285,-0.00353540,0.00299833,0.00075296,0.00591363,0.00007523,-0.0
 0028044,-0.00488699,-0.00071319,0.00007028,0.00059391,0.00338699,0.000
 08526,0.00116284,0.00123537,-0.00000754,-0.00028138,-0.00004711,-0.000
 01475,-0.00021423,0.00004752,-0.01624708,-0.17446017,-0.41460238,-0.00
 251472,-0.01069035,-0.13684549,0.02148931,0.21780796,0.56029722,0.0050
 3235,0.00405368,-0.00046401,-0.00115790,-0.00692022,0.00010865,0.00504
 257,0.00391901,0.00011546,0.00949051,-0.00699221,0.00601932,-0.0432393
 4,0.00395032,-0.00096951,0.00925684,-0.00808968,-0.00614758,-0.0002594
 9,0.00012089,-0.00003103,-0.00025745,0.00014866,0.00004024,-0.00273868
 ,0.00019573,0.00010824,-0.00272962,0.00018611,-0.00000929,-0.00012245,
 0.00657137,-0.00000921,-0.00007893,-0.00176434,0.00154610,-0.00011119,
 -0.00176457,-0.00152733,0.05006122,0.00073623,0.01442164,-0.00360550,-
 0.00152243,-0.02362371,0.00007940,0.00081294,0.01441041,0.00348855,-0.
 00483869,-0.04902107,0.02158884,-0.03034996,-0.33389413,0.00073012,-0.
 00531733,-0.04930947,-0.02127395,-0.00006549,-0.00028923,-0.00002737,-
 0.00006463,-0.00028392,0.00003071,0.00022537,0.00211134,-0.00109047,0.
 00025060,0.00211395,0.00108461,0.00162056,0.02222175,-0.00006164,-0.00
 039330,-0.00623028,0.00512078,-0.00050244,-0.00624973,-0.00508421,-0.0
 6809634,0.74217004,-0.00035476,0.00624748,-0.01047880,0.00009778,0.000
 13725,0.00768185,0.00001915,-0.00643327,-0.01047776,0.00475169,0.05025
 979,0.00170731,-0.00090033,0.00036279,-0.13298211,-0.00488989,-0.04989
 213,0.00222917,-0.00005421,-0.00128999,0.00020045,0.00006423,0.0012890
 4,0.00019311,-0.00043141,0.00043519,0.00192541,0.00053018,-0.00044010,
 0.00191375,0.00000077,-0.00011469,0.00025432,-0.00002388,-0.00024569,0
 .00042307,0.00003734,0.00031047,0.00047480,0.00867398,0.00094112,0.846
 80460,0.00169337,-0.00167181,0.00000549,0.00021712,0.00170312,-0.00038
 323,-0.00081733,-0.00061577,-0.00008672,-0.00144660,0.00145676,-0.0011
 9146,-0.00480625,-0.01086805,-0.00624696,0.00333600,0.00020669,0.00156
 200,-0.00036740,-0.00006819,0.00001718,0.00011648,0.00000016,-0.000003
 67,0.00038031,0.00017472,-0.00013114,-0.00064877,0.00006169,0.00007348
 ,-0.00017994,-0.00161465,-0.00002973,0.00001781,0.00044576,-0.00037795
 ,0.00002779,0.00041865,0.00039063,-0.01265427,0.05218264,0.07315667,0.
 01783118,-0.00033190,-0.00004999,-0.00170726,0.00006599,0.00060339,0.0
 0035401,-0.00037779,-0.00048571,-0.00009993,-0.00047555,0.00247227,-0.
 00169836,0.00667495,-0.01605570,-0.03315611,-0.00019231,-0.00473576,0.
 00295426,-0.00000018,-0.00035523,0.00008833,0.00004031,0.00003164,0.00
 000866,0.00027531,-0.00043986,0.00127861,0.00008867,0.00009247,-0.0001
 3787,-0.00000064,-0.00050520,0.00000650,0.00001219,0.00013044,-0.00005
 359,0.00001309,0.00019534,0.00023005,0.03563733,-0.16492226,-0.1612804
 0,-0.03696989,0.17066385,-0.00003984,-0.00095985,0.00042598,0.00013744
 ,0.00191123,0.00010286,-0.00060702,-0.00128304,-0.00067030,-0.00019470
 ,0.00351199,0.00104991,-0.00089775,-0.00254862,0.00530874,0.00071258,0
 .00238432,0.00186129,-0.00002225,0.00003272,0.00002097,0.00003255,0.00
 005226,-0.00001074,0.00035466,-0.00040890,-0.00036791,0.00005341,0.000
 12605,0.00025171,0.00001824,-0.00188647,0.00001628,0.00000808,0.000505
 57,-0.00048916,0.00000470,0.00047584,0.00040063,0.05375592,-0.16197381
 ,-0.35572617,-0.05989850,0.17664700,0.36416907,-0.00080237,-0.00058779
 ,0.00009192,0.00022226,0.00166328,0.00037398,0.00169362,-0.00165090,-0
 .00002608,0.00328661,0.00014950,-0.00159303,-0.00464843,-0.01078432,0.
 00650244,-0.00141581,0.00138600,0.00123864,0.00011580,-0.00000095,0.00
 000097,-0.00036711,-0.00006891,-0.00000858,-0.00065108,0.00005873,-0.0
 0005437,0.00037518,0.00018392,0.00011453,-0.00017953,-0.00157370,0.000
 04027,0.00001948,0.00040681,-0.00038410,0.00002547,0.00043629,0.000365
 16,-0.01553417,0.05532226,-0.08067729,-0.00269950,-0.00445957,0.006582
 48,0.02055959,-0.00037311,-0.00048009,0.00010717,0.00005781,0.00059417
 ,-0.00035733,-0.00029512,-0.00003915,0.00171585,-0.00025821,-0.0047571
 7,-0.00292266,0.00738866,-0.01591126,0.03309073,-0.00043822,0.00246487
 ,0.00170242,0.00003998,0.00003139,-0.00000969,-0.00000195,-0.00035571,
 -0.00008679,0.00009143,0.00009252,0.00013659,0.00024637,-0.00044336,-0
 .00128388,-0.00000083,-0.00049754,-0.00000442,0.00000816,0.00019248,-0
 .00022942,0.00001326,0.00012859,0.00005081,0.03884427,-0.16362534,0.15
 971314,-0.00484184,0.01336031,-0.01658628,-0.04048065,0.16924529,0.000
 61131,0.00129514,-0.00069089,-0.00014015,-0.00194929,0.00010694,0.0000
 1382,0.00099732,0.00041489,-0.00074199,-0.00236137,0.00193211,0.001081
 21,0.00286587,0.00500638,0.00024946,-0.00354825,0.00102649,-0.00003542
 ,-0.00005242,-0.00000981,0.00003057,-0.00002974,0.00002116,-0.00003443
 ,-0.00012669,0.00025397,-0.00037161,0.00040538,-0.00035921,-0.00001412
 ,0.00192269,0.00000822,0.00000345,-0.00048382,0.00041181,-0.00001913,-
 0.00051753,-0.00049498,-0.06120996,0.16005282,-0.35414301,-0.00685608,
 0.01656611,-0.01634316,0.06743306,-0.17503624,0.36285909\\0.00000057,-
 0.00000001,0.00000020,0.00000055,-0.00000108,-0.00000057,0.00000062,0.
 00000068,0.00000040,-0.00000056,-0.00000062,0.00000030,-0.00000057,0.0
 0000069,-0.00000042,-0.00000051,-0.00000022,0.00000005,0.00000068,-0.0
 0000011,-0.00000006,0.00000069,0.,-0.00000008,-0.00000083,0.00000020,-
 0.00000001,-0.00000080,0.00000004,0.,0.00000187,0.00000063,-0.00000001
 ,0.00000202,-0.00000040,0.00000015,0.00000196,-0.00000008,-0.00000019,
 -0.00000170,-0.00000019,0.00000011,-0.00000200,0.00000022,0.00000006,-
 0.00000199,0.00000023,0.00000006\\\@


 LOVE IS BLIND, THAT'S WHY ALL THE WORLD LOVES A LOUVER.
 Job cpu time:  0 days  4 hours 41 minutes 21.3 seconds.
 File lengths (MBytes):  RWF=    251 Int=      0 D2E=      0 Chk=     16 Scr=      1
 Normal termination of Gaussian 09 at Sat Nov 26 09:42:06 2022.
