 Entering Link 1 = Z:\home\jakler\g09\G09W\l1.exe PID=       296.
  
 Copyright (c) 1988,1990,1992,1993,1995,1998,2003,2009,2013,
            Gaussian, Inc.  All Rights Reserved.
  
 This is part of the Gaussian(R) 09 program.  It is based on
 the Gaussian(R) 03 system (copyright 2003, Gaussian, Inc.),
 the Gaussian(R) 98 system (copyright 1998, Gaussian, Inc.),
 the Gaussian(R) 94 system (copyright 1995, Gaussian, Inc.),
 the Gaussian 92(TM) system (copyright 1992, Gaussian, Inc.),
 the Gaussian 90(TM) system (copyright 1990, Gaussian, Inc.),
 the Gaussian 88(TM) system (copyright 1988, Gaussian, Inc.),
 the Gaussian 86(TM) system (copyright 1986, Carnegie Mellon
 University), and the Gaussian 82(TM) system (copyright 1983,
 Carnegie Mellon University). Gaussian is a federally registered
 trademark of Gaussian, Inc.
  
 This software contains proprietary and confidential information,
 including trade secrets, belonging to Gaussian, Inc.
  
 This software is provided under written license and may be
 used, copied, transmitted, or stored only in accord with that
 written license.
  
 The following legend is applicable only to US Government
 contracts under FAR:
  
                    RESTRICTED RIGHTS LEGEND
  
 Use, reproduction and disclosure by the US Government is
 subject to restrictions as set forth in subparagraphs (a)
 and (c) of the Commercial Computer Software - Restricted
 Rights clause in FAR 52.227-19.
  
 Gaussian, Inc.
 340 Quinnipiac St., Bldg. 40, Wallingford CT 06492
  
  
 ---------------------------------------------------------------
 Warning -- This program may not be used in any manner that
 competes with the business of Gaussian, Inc. or will provide
 assistance to any competitor of Gaussian, Inc.  The licensee
 of this program is prohibited from giving any competitor of
 Gaussian, Inc. access to this program.  By using this program,
 the user acknowledges that Gaussian, Inc. is engaged in the
 business of creating and licensing software in the field of
 computational chemistry and represents and warrants to the
 licensee that it is not a competitor of Gaussian, Inc. and that
 it will not use this program in any manner prohibited above.
 ---------------------------------------------------------------
  

 Cite this work as:
 Gaussian 09, Revision D.01,
 M. J. Frisch, G. W. Trucks, H. B. Schlegel, G. E. Scuseria, 
 M. A. Robb, J. R. Cheeseman, G. Scalmani, V. Barone, B. Mennucci, 
 G. A. Petersson, H. Nakatsuji, M. Caricato, X. Li, H. P. Hratchian, 
 A. F. Izmaylov, J. Bloino, G. Zheng, J. L. Sonnenberg, M. Hada, 
 M. Ehara, K. Toyota, R. Fukuda, J. Hasegawa, M. Ishida, T. Nakajima, 
 Y. Honda, O. Kitao, H. Nakai, T. Vreven, J. A. Montgomery, Jr., 
 J. E. Peralta, F. Ogliaro, M. Bearpark, J. J. Heyd, E. Brothers, 
 K. N. Kudin, V. N. Staroverov, T. Keith, R. Kobayashi, J. Normand, 
 K. Raghavachari, A. Rendell, J. C. Burant, S. S. Iyengar, J. Tomasi, 
 M. Cossi, N. Rega, J. M. Millam, M. Klene, J. E. Knox, J. B. Cross, 
 V. Bakken, C. Adamo, J. Jaramillo, R. Gomperts, R. E. Stratmann, 
 O. Yazyev, A. J. Austin, R. Cammi, C. Pomelli, J. W. Ochterski, 
 R. L. Martin, K. Morokuma, V. G. Zakrzewski, G. A. Voth, 
 P. Salvador, J. J. Dannenberg, S. Dapprich, A. D. Daniels, 
 O. Farkas, J. B. Foresman, J. V. Ortiz, J. Cioslowski, 
 and D. J. Fox, Gaussian, Inc., Wallingford CT, 2013.
 
 ******************************************
 Gaussian 09:  IA32W-G09RevD.01 24-Apr-2013
                17-Mar-2023 
 ******************************************
 %nprocshared=8
 Will use up to    8 processors via shared memory.
 %chk=Z:\home\jakler\matheus\Solvent\dichloroethane\1.chk
 ----------------------------------------------------------------------
 # opt=tight freq cam-b3lyp/gen scrf=(cpcm,solvent=dichloroethane) scf=
 qc int=ultrafine
 ----------------------------------------------------------------------
 1/7=10,14=-1,18=20,19=15,26=4,38=1/1,3;
 2/9=110,12=2,17=6,18=5,40=1/2;
 3/5=7,11=2,16=1,25=1,30=1,70=2101,71=1,72=10,74=-40,75=-5/1,2,3;
 4//1;
 5/5=2,8=3,38=5,53=10/8;
 6/7=2,8=2,9=2,10=2,28=1/1;
 7//1,2,3,16;
 1/7=10,14=-1,18=20,19=15,26=4/3(2);
 2/9=110/2;
 99//99;
 2/9=110/2;
 3/5=7,6=1,11=2,16=1,25=1,30=1,70=2105,71=1,72=10,74=-40,75=-5,82=7/1,2,3;
 4/5=5,16=3,69=1/1;
 5/5=2,8=3,38=5,53=10/8;
 7//1,2,3,16;
 1/7=10,14=-1,18=20,19=15,26=4/3(-5);
 2/9=110/2;
 6/7=2,8=2,9=2,10=2,19=2,28=1/1;
 99/9=1/99;
 -----------------------------------------------------
 NA CAM-B3LYP def2-TZVPD - solvent CPCM dichloroethane
 -----------------------------------------------------
 Symbolic Z-matrix:
 Charge =  0 Multiplicity = 1
 C                     0.02842   1.20846  -0.00717 
 C                     0.70805   0.00002  -0.00061 
 C                     0.02368  -1.20539   0.00403 
 C                    -1.35261  -1.19576   0.01449 
 C                    -2.07009   0.00762  -0.00553 
 C                    -1.34765   1.20654  -0.02277 
 H                     0.58245   2.1347   -0.02316 
 H                     0.57367  -2.13407   0.02154 
 H                    -1.89892  -2.12849   0.03788 
 H                    -1.89027   2.14117  -0.04927 
 N                     2.15227  -0.00295   0.00155 
 O                     2.73044  -1.07746   0.00718 
 O                     2.73474   1.06924  -0.001 
 N                    -3.45412   0.02154  -0.01974 
 H                    -3.94733  -0.70743  -0.50234 
 H                    -3.9668    0.50083   0.69847 
 

 GradGradGradGradGradGradGradGradGradGradGradGradGradGradGradGradGradGrad
 Berny optimization.
 Initialization pass.
                           ----------------------------
                           !    Initial Parameters    !
                           ! (Angstroms and Degrees)  !
 --------------------------                            --------------------------
 ! Name  Definition              Value          Derivative Info.                !
 --------------------------------------------------------------------------------
 ! R1    R(1,2)                  1.3865         estimate D2E/DX2                !
 ! R2    R(1,6)                  1.3762         estimate D2E/DX2                !
 ! R3    R(1,7)                  1.0794         estimate D2E/DX2                !
 ! R4    R(2,3)                  1.3861         estimate D2E/DX2                !
 ! R5    R(2,11)                 1.4442         estimate D2E/DX2                !
 ! R6    R(3,4)                  1.3764         estimate D2E/DX2                !
 ! R7    R(3,8)                  1.0795         estimate D2E/DX2                !
 ! R8    R(4,5)                  1.4012         estimate D2E/DX2                !
 ! R9    R(4,9)                  1.0812         estimate D2E/DX2                !
 ! R10   R(5,6)                  1.3999         estimate D2E/DX2                !
 ! R11   R(5,14)                 1.3842         estimate D2E/DX2                !
 ! R12   R(6,10)                 1.0811         estimate D2E/DX2                !
 ! R13   R(11,12)                1.2202         estimate D2E/DX2                !
 ! R14   R(11,13)                1.2202         estimate D2E/DX2                !
 ! R15   R(14,15)                1.0038         estimate D2E/DX2                !
 ! R16   R(14,16)                1.0042         estimate D2E/DX2                !
 ! A1    A(2,1,6)              119.2744         estimate D2E/DX2                !
 ! A2    A(2,1,7)              119.7614         estimate D2E/DX2                !
 ! A3    A(6,1,7)              120.9488         estimate D2E/DX2                !
 ! A4    A(1,2,3)              121.0611         estimate D2E/DX2                !
 ! A5    A(1,2,11)             119.4714         estimate D2E/DX2                !
 ! A6    A(3,2,11)             119.4675         estimate D2E/DX2                !
 ! A7    A(2,3,4)              119.1856         estimate D2E/DX2                !
 ! A8    A(2,3,8)              119.7779         estimate D2E/DX2                !
 ! A9    A(4,3,8)              121.0224         estimate D2E/DX2                !
 ! A10   A(3,4,5)              121.1934         estimate D2E/DX2                !
 ! A11   A(3,4,9)              119.9596         estimate D2E/DX2                !
 ! A12   A(5,4,9)              118.847          estimate D2E/DX2                !
 ! A13   A(4,5,6)              118.1295         estimate D2E/DX2                !
 ! A14   A(4,5,14)             121.3851         estimate D2E/DX2                !
 ! A15   A(6,5,14)             120.483          estimate D2E/DX2                !
 ! A16   A(1,6,5)              121.138          estimate D2E/DX2                !
 ! A17   A(1,6,10)             120.0639         estimate D2E/DX2                !
 ! A18   A(5,6,10)             118.7981         estimate D2E/DX2                !
 ! A19   A(2,11,12)            118.4018         estimate D2E/DX2                !
 ! A20   A(2,11,13)            118.3951         estimate D2E/DX2                !
 ! A21   A(12,11,13)           123.203          estimate D2E/DX2                !
 ! A22   A(5,14,15)            119.2711         estimate D2E/DX2                !
 ! A23   A(5,14,16)            120.5271         estimate D2E/DX2                !
 ! A24   A(15,14,16)           116.0804         estimate D2E/DX2                !
 ! D1    D(6,1,2,3)             -0.6529         estimate D2E/DX2                !
 ! D2    D(6,1,2,11)           179.3525         estimate D2E/DX2                !
 ! D3    D(7,1,2,3)           -179.2377         estimate D2E/DX2                !
 ! D4    D(7,1,2,11)             0.7677         estimate D2E/DX2                !
 ! D5    D(2,1,6,5)              1.2699         estimate D2E/DX2                !
 ! D6    D(2,1,6,10)          -178.6993         estimate D2E/DX2                !
 ! D7    D(7,1,6,5)            179.8374         estimate D2E/DX2                !
 ! D8    D(7,1,6,10)            -0.1318         estimate D2E/DX2                !
 ! D9    D(1,2,3,4)             -0.5928         estimate D2E/DX2                !
 ! D10   D(1,2,3,8)           -179.24           estimate D2E/DX2                !
 ! D11   D(11,2,3,4)           179.4018         estimate D2E/DX2                !
 ! D12   D(11,2,3,8)             0.7546         estimate D2E/DX2                !
 ! D13   D(1,2,11,12)         -179.9912         estimate D2E/DX2                !
 ! D14   D(1,2,11,13)            0.0812         estimate D2E/DX2                !
 ! D15   D(3,2,11,12)            0.0141         estimate D2E/DX2                !
 ! D16   D(3,2,11,13)         -179.9135         estimate D2E/DX2                !
 ! D17   D(2,3,4,5)              1.2444         estimate D2E/DX2                !
 ! D18   D(2,3,4,9)           -178.7972         estimate D2E/DX2                !
 ! D19   D(8,3,4,5)            179.8743         estimate D2E/DX2                !
 ! D20   D(8,3,4,9)             -0.1673         estimate D2E/DX2                !
 ! D21   D(3,4,5,6)             -0.6424         estimate D2E/DX2                !
 ! D22   D(3,4,5,14)           178.8051         estimate D2E/DX2                !
 ! D23   D(9,4,5,6)            179.3987         estimate D2E/DX2                !
 ! D24   D(9,4,5,14)            -1.1537         estimate D2E/DX2                !
 ! D25   D(4,5,6,1)             -0.634          estimate D2E/DX2                !
 ! D26   D(4,5,6,10)           179.3356         estimate D2E/DX2                !
 ! D27   D(14,5,6,1)           179.9133         estimate D2E/DX2                !
 ! D28   D(14,5,6,10)           -0.1171         estimate D2E/DX2                !
 ! D29   D(4,5,14,15)          -33.6544         estimate D2E/DX2                !
 ! D30   D(4,5,14,16)          122.6374         estimate D2E/DX2                !
 ! D31   D(6,5,14,15)          145.7803         estimate D2E/DX2                !
 ! D32   D(6,5,14,16)          -57.9279         estimate D2E/DX2                !
 --------------------------------------------------------------------------------
 Trust Radius=3.00D-01 FncErr=1.00D-07 GrdErr=1.00D-06
 Number of steps in this run=     82 maximum allowed number of steps=    100.
 GradGradGradGradGradGradGradGradGradGradGradGradGradGradGradGradGradGrad

                          Input orientation:                          
 ---------------------------------------------------------------------
 Center     Atomic      Atomic             Coordinates (Angstroms)
 Number     Number       Type             X           Y           Z
 ---------------------------------------------------------------------
      1          6           0        0.028420    1.208463   -0.007169
      2          6           0        0.708049    0.000020   -0.000605
      3          6           0        0.023675   -1.205387    0.004034
      4          6           0       -1.352609   -1.195759    0.014495
      5          6           0       -2.070091    0.007617   -0.005526
      6          6           0       -1.347655    1.206537   -0.022766
      7          1           0        0.582449    2.134700   -0.023162
      8          1           0        0.573672   -2.134075    0.021544
      9          1           0       -1.898925   -2.128489    0.037876
     10          1           0       -1.890269    2.141175   -0.049275
     11          7           0        2.152265   -0.002951    0.001549
     12          8           0        2.730441   -1.077463    0.007182
     13          8           0        2.734741    1.069243   -0.000996
     14          7           0       -3.454119    0.021538   -0.019744
     15          1           0       -3.947329   -0.707427   -0.502344
     16          1           0       -3.966803    0.500832    0.698468
 ---------------------------------------------------------------------
                    Distance matrix (angstroms):
                    1          2          3          4          5
     1  C    0.000000
     2  C    1.386461   0.000000
     3  C    2.413881   1.386145   0.000000
     4  C    2.772723   2.382526   1.376358   0.000000
     5  C    2.417806   2.778156   2.419779   1.401176   0.000000
     6  C    1.376164   2.383714   2.774643   2.402590   1.399865
     7  H    1.079407   2.138491   3.386614   3.851990   3.400113
     8  H    3.386839   2.138436   1.079473   2.142672   3.402508
     9  H    3.853820   3.365761   2.132991   1.081199   2.143392
    10  H    2.133797   3.367220   3.855581   3.380573   2.141569
    11  N    2.445060   1.444221   2.444740   3.702311   4.222376
    12  O    3.539291   2.291527   2.709788   4.084770   4.921653
    13  O    2.709906   2.291444   3.538904   4.672997   4.920720
    14  N    3.679270   4.162268   3.687949   2.428853   1.384171
    15  H    4.440992   4.735480   4.034013   2.690383   2.069332
    16  H    4.118309   4.753289   4.395149   3.190650   2.082398
                    6          7          8          9         10
     6  C    0.000000
     7  H    2.141679   0.000000
     8  H    3.853978   4.269018   0.000000
     9  H    3.380824   4.933125   2.472657   0.000000
    10  H    1.081055   2.472864   4.934954   4.270562   0.000000
    11  N    3.703092   2.652261   2.652177   4.575082   4.576237
    12  O    4.674229   3.864296   2.401726   4.747275   5.631498
    13  O    4.084761   2.401676   3.864190   5.630084   4.747850
    14  N    2.416904   4.556243   4.568530   2.654160   2.634267
    15  H    3.263672   5.369003   4.769615   2.550925   3.542781
    16  H    2.806801   4.887327   5.293096   3.409667   2.749879
                   11         12         13         14         15
    11  N    0.000000
    12  O    1.220203   0.000000
    13  O    1.220198   2.146725   0.000000
    14  N    5.606479   6.281505   6.276944   0.000000
    15  H    6.160783   6.707395   6.932385   1.003766   0.000000
    16  H    6.179198   6.915342   6.761880   1.004189   1.703590
                   16
    16  H    0.000000
 Stoichiometry    C6H6N2O2
 Framework group  C1[X(C6H6N2O2)]
 Deg. of freedom    42
 Full point group                 C1      NOp   1
 Largest Abelian subgroup         C1      NOp   1
 Largest concise Abelian subgroup C1      NOp   1
                         Standard orientation:                         
 ---------------------------------------------------------------------
 Center     Atomic      Atomic             Coordinates (Angstroms)
 Number     Number       Type             X           Y           Z
 ---------------------------------------------------------------------
      1          6           0        0.028420    1.208463   -0.007169
      2          6           0        0.708049    0.000020   -0.000605
      3          6           0        0.023675   -1.205387    0.004034
      4          6           0       -1.352609   -1.195759    0.014495
      5          6           0       -2.070091    0.007617   -0.005526
      6          6           0       -1.347655    1.206537   -0.022766
      7          1           0        0.582449    2.134700   -0.023162
      8          1           0        0.573672   -2.134075    0.021544
      9          1           0       -1.898925   -2.128489    0.037876
     10          1           0       -1.890269    2.141175   -0.049275
     11          7           0        2.152265   -0.002951    0.001549
     12          8           0        2.730441   -1.077463    0.007182
     13          8           0        2.734741    1.069243   -0.000996
     14          7           0       -3.454119    0.021538   -0.019744
     15          1           0       -3.947329   -0.707427   -0.502344
     16          1           0       -3.966803    0.500832    0.698468
 ---------------------------------------------------------------------
 Rotational constants (GHZ):      4.0001446      0.8265132      0.6864043
 General basis read from cards:  (5D, 7F)
 There are   490 symmetry adapted cartesian basis functions of A   symmetry.
 There are   430 symmetry adapted basis functions of A   symmetry.
   430 basis functions,   652 primitive gaussians,   490 cartesian basis functions
    36 alpha electrons       36 beta electrons
       nuclear repulsion energy       497.8182701604 Hartrees.
 NAtoms=   16 NActive=   16 NUniq=   16 SFac= 1.00D+00 NAtFMM=   60 NAOKFM=F Big=F
 Integral buffers will be    262144 words long.
 Raffenetti 2 integral format.
 Two-electron integral symmetry is turned on.
 ------------------------------------------------------------------------------
 Polarizable Continuum Model (PCM)
 =================================
 Model                : C-PCM.
 Atomic radii         : UFF (Universal Force Field).
 Polarization charges : Total charges.
 Charge compensation  : None.
 Solution method      : On-the-fly selection.
 Cavity type          : Scaled VdW (van der Waals Surface) (Alpha=1.100).
 Cavity algorithm     : GePol (No added spheres)
                        Default sphere list used, NSphG=   16.
                        Lebedev-Laikov grids with approx.  5.0 points / Ang**2.
                        Smoothing algorithm: Karplus/York (Gamma=1.0000).
                        Polarization charges: spherical gaussians, with
                                              point-specific exponents (IZeta= 3).
                        Self-potential: point-specific (ISelfS= 7).
                        Self-field    : sphere-specific E.n sum rule (ISelfD= 2).
 1st derivatives      : Analytical E(r).r(x)/FMM algorithm (CHGder, D1EAlg=3).
                        Cavity 1st derivative terms included.
 Solvent              : DiChloroEthane, Eps=  10.125000 Eps(inf)=   2.087447
 ------------------------------------------------------------------------------
 Spheres list:
 ISph  on   Nord     Re0    Alpha      Xe            Ye            Ze
    1   C      1    1.9255  1.100      0.028420      1.208463     -0.007169
    2   C      2    1.9255  1.100      0.708049      0.000020     -0.000605
    3   C      3    1.9255  1.100      0.023675     -1.205387      0.004034
    4   C      4    1.9255  1.100     -1.352609     -1.195759      0.014495
    5   C      5    1.9255  1.100     -2.070091      0.007617     -0.005526
    6   C      6    1.9255  1.100     -1.347655      1.206537     -0.022766
    7   H      7    1.4430  1.100      0.582449      2.134700     -0.023162
    8   H      8    1.4430  1.100      0.573672     -2.134075      0.021544
    9   H      9    1.4430  1.100     -1.898925     -2.128489      0.037876
   10   H     10    1.4430  1.100     -1.890269      2.141175     -0.049275
   11   N     11    1.8300  1.100      2.152265     -0.002951      0.001549
   12   O     12    1.7500  1.100      2.730441     -1.077463      0.007182
   13   O     13    1.7500  1.100      2.734741      1.069243     -0.000996
   14   N     14    1.8300  1.100     -3.454119      0.021538     -0.019744
   15   H     15    1.4430  1.100     -3.947329     -0.707427     -0.502344
   16   H     16    1.4430  1.100     -3.966803      0.500832      0.698468
 ------------------------------------------------------------------------------
 One-electron integrals computed using PRISM.
 PrsmSu:  requested number of processors reduced to:   4 ShMem   1 Linda.
 NBasis=   430 RedAO= T EigKep=  1.29D-06  NBF=   430
 NBsUse=   429 1.00D-06 EigRej=  5.34D-07 NBFU=   429
 ExpMin= 4.85D-02 ExpMax= 2.70D+04 ExpMxC= 9.22D+02 IAcc=3 IRadAn=         5 AccDes= 0.00D+00
 Harris functional with IExCor=20419 and IRadAn=       5 diagonalized for initial guess.
 HarFok:  IExCor=20419 AccDes= 0.00D+00 IRadAn=         5 IDoV= 1 UseB2=F ITyADJ=14
 ICtDFT=  3500011 ScaDFX=  1.000000  1.000000  1.000000  1.000000
 FoFCou: FMM=F IPFlag=           0 FMFlag=      100000 FMFlg1=           0
         NFxFlg=           0 DoJE=T BraDBF=F KetDBF=T FulRan=T
         wScrn=  0.000000 ICntrl=     500 IOpCl=  0 I1Cent=   200000004 NGrid=           0
         NMat0=    1 NMatS0=      1 NMatT0=    0 NMatD0=    1 NMtDS0=    0 NMtDT0=    0
 Petite list used in FoFCou.
 Inv3:  Mode=1 IEnd=     6421107.
 Iteration    1 A*A^-1 deviation from unit magnitude is 2.66D-15 for    707.
 Iteration    1 A*A^-1 deviation from orthogonality  is 1.93D-15 for   1362   1155.
 Iteration    1 A^-1*A deviation from unit magnitude is 2.44D-15 for    622.
 Iteration    1 A^-1*A deviation from orthogonality  is 1.61D-15 for   1281   1204.
 Gradient too large for Newton-Raphson -- use scaled steepest descent instead.
     Minimum is close to point  3 DX=  4.37D-02 DF= -1.59D-03 DXR=  8.04D-02 DFR=  6.48D-03 which will be used.
 Gradient too large for Newton-Raphson -- use scaled steepest descent instead.
     Minimum is close to point  3 DX=  5.61D-02 DF= -7.47D-05 DXR=  6.55D-02 DFR=  4.29D-03 which will be used.
 Gradient too large for Newton-Raphson -- use scaled steepest descent instead.
     Accept linear search using points  1 and  2.
 Gradient too large for Newton-Raphson -- use scaled steepest descent instead.
     Accept linear search using points  2 and  3.
 Gradient too large for Newton-Raphson -- use scaled steepest descent instead.
     Accept linear search using points  1 and  2.
 LinEq1:  Iter=  0 NonCon=     1 RMS=2.78D-05 Max=1.39D-03 NDo=     1
 AX will form     1 AO Fock derivatives at one time.
 LinEq1:  Iter=  1 NonCon=     1 RMS=6.13D-06 Max=2.42D-04 NDo=     1
 LinEq1:  Iter=  2 NonCon=     1 RMS=4.05D-06 Max=2.10D-04 NDo=     1
 LinEq1:  Iter=  3 NonCon=     1 RMS=2.51D-06 Max=8.71D-05 NDo=     1
 LinEq1:  Iter=  4 NonCon=     1 RMS=1.14D-06 Max=6.16D-05 NDo=     1
 LinEq1:  Iter=  5 NonCon=     1 RMS=9.91D-07 Max=5.29D-05 NDo=     1
 LinEq1:  Iter=  6 NonCon=     1 RMS=5.04D-07 Max=1.45D-05 NDo=     1
 LinEq1:  Iter=  7 NonCon=     1 RMS=2.40D-07 Max=1.09D-05 NDo=     1
 LinEq1:  Iter=  8 NonCon=     1 RMS=1.18D-07 Max=5.44D-06 NDo=     1
 LinEq1:  Iter=  9 NonCon=     1 RMS=4.21D-08 Max=1.23D-06 NDo=     1
 LinEq1:  Iter= 10 NonCon=     1 RMS=1.41D-08 Max=5.58D-07 NDo=     1
 LinEq1:  Iter= 11 NonCon=     1 RMS=6.08D-09 Max=2.03D-07 NDo=     1
 LinEq1:  Iter= 12 NonCon=     0 RMS=2.98D-09 Max=1.01D-07 NDo=     1
 Linear equations converged to 1.682D-08 1.682D-07 after    12 iterations.
     Accept linear search using points  1 and  2.
     Minimum is close to point  2 DX= -1.37D-04 DF= -2.84D-13 DXR=  1.37D-04 DFR=  1.86D-08 which will be used.
 LinEq1:  Iter=  0 NonCon=     1 RMS=4.40D-08 Max=1.99D-06 NDo=     1
 LinEq1:  Iter=  1 NonCon=     1 RMS=2.08D-08 Max=1.16D-06 NDo=     1
 LinEq1:  Iter=  2 NonCon=     1 RMS=1.34D-08 Max=5.50D-07 NDo=     1
 LinEq1:  Iter=  3 NonCon=     1 RMS=3.75D-09 Max=1.54D-07 NDo=     1
 LinEq1:  Iter=  4 NonCon=     1 RMS=2.52D-09 Max=1.46D-07 NDo=     1
 LinEq1:  Iter=  5 NonCon=     1 RMS=1.65D-09 Max=8.84D-08 NDo=     1
 LinEq1:  Iter=  6 NonCon=     1 RMS=1.21D-09 Max=6.18D-08 NDo=     1
 LinEq1:  Iter=  7 NonCon=     1 RMS=4.85D-10 Max=1.78D-08 NDo=     1
 LinEq1:  Iter=  8 NonCon=     1 RMS=2.22D-10 Max=1.24D-08 NDo=     1
 LinEq1:  Iter=  9 NonCon=     1 RMS=1.06D-10 Max=4.60D-09 NDo=     1
 LinEq1:  Iter= 10 NonCon=     1 RMS=4.63D-11 Max=1.68D-09 NDo=     1
 LinEq1:  Iter= 11 NonCon=     1 RMS=2.61D-11 Max=9.90D-10 NDo=     1
 LinEq1:  Iter= 12 NonCon=     0 RMS=1.43D-11 Max=4.57D-10 NDo=     1
 Linear equations converged to 6.670D-11 6.670D-10 after    12 iterations.
 Error on total polarization charges =  0.01288
 SCF Done:  E(RCAM-B3LYP) =  -492.090057205     a.u. after    8 cycles
            Convg  =    0.1345D-08                    40 Fock formations.
              S**2 =  0.0000                  -V/T =  2.0040

 **********************************************************************

            Population analysis using the SCF density.

 **********************************************************************

 Orbital symmetries:
       Occupied  (A) (A) (A) (A) (A) (A) (A) (A) (A) (A) (A) (A)
                 (A) (A) (A) (A) (A) (A) (A) (A) (A) (A) (A) (A)
                 (A) (A) (A) (A) (A) (A) (A) (A) (A) (A) (A) (A)
       Virtual   (A) (A) (A) (A) (A) (A) (A) (A) (A) (A) (A) (A)
                 (A) (A) (A) (A) (A) (A) (A) (A) (A) (A) (A) (A)
                 (A) (A) (A) (A) (A) (A) (A) (A) (A) (A) (A) (A)
                 (A) (A) (A) (A) (A) (A) (A) (A) (A) (A) (A) (A)
                 (A) (A) (A) (A) (A) (A) (A) (A) (A) (A) (A) (A)
                 (A) (A) (A) (A) (A) (A) (A) (A) (A) (A) (A) (A)
                 (A) (A) (A) (A) (A) (A) (A) (A) (A) (A) (A) (A)
                 (A) (A) (A) (A) (A) (A) (A) (A) (A) (A) (A) (A)
                 (A) (A) (A) (A) (A) (A) (A) (A) (A) (A) (A) (A)
                 (A) (A) (A) (A) (A) (A) (A) (A) (A) (A) (A) (A)
                 (A) (A) (A) (A) (A) (A) (A) (A) (A) (A) (A) (A)
                 (A) (A) (A) (A) (A) (A) (A) (A) (A) (A) (A) (A)
                 (A) (A) (A) (A) (A) (A) (A) (A) (A) (A) (A) (A)
                 (A) (A) (A) (A) (A) (A) (A) (A) (A) (A) (A) (A)
                 (A) (A) (A) (A) (A) (A) (A) (A) (A) (A) (A) (A)
                 (A) (A) (A) (A) (A) (A) (A) (A) (A) (A) (A) (A)
                 (A) (A) (A) (A) (A) (A) (A) (A) (A) (A) (A) (A)
                 (A) (A) (A) (A) (A) (A) (A) (A) (A) (A) (A) (A)
                 (A) (A) (A) (A) (A) (A) (A) (A) (A) (A) (A) (A)
                 (A) (A) (A) (A) (A) (A) (A) (A) (A) (A) (A) (A)
                 (A) (A) (A) (A) (A) (A) (A) (A) (A) (A) (A) (A)
                 (A) (A) (A) (A) (A) (A) (A) (A) (A) (A) (A) (A)
                 (A) (A) (A) (A) (A) (A) (A) (A) (A) (A) (A) (A)
                 (A) (A) (A) (A) (A) (A) (A) (A) (A) (A) (A) (A)
                 (A) (A) (A) (A) (A) (A) (A) (A) (A) (A) (A) (A)
                 (A) (A) (A) (A) (A) (A) (A) (A) (A) (A) (A) (A)
                 (A) (A) (A) (A) (A) (A) (A) (A) (A) (A) (A) (A)
                 (A) (A) (A) (A) (A) (A) (A) (A) (A) (A) (A) (A)
                 (A) (A) (A) (A) (A) (A) (A) (A) (A) (A) (A) (A)
                 (A) (A) (A) (A) (A) (A) (A) (A) (A) (A) (A) (A)
                 (A) (A) (A) (A) (A) (A) (A) (A) (A) (A) (A) (A)
                 (A) (A) (A) (A) (A) (A) (A) (A) (A) (A) (A) (A)
                 (A) (A) (A) (A) (A) (A) (A) (A) (A)
 The electronic state is 1-A.
 Alpha  occ. eigenvalues --  -19.24051 -19.24049 -14.64131 -14.39658 -10.31308
 Alpha  occ. eigenvalues --  -10.30578 -10.27558 -10.27535 -10.26214 -10.26149
 Alpha  occ. eigenvalues --   -1.33034  -1.14886  -1.01592  -0.96699  -0.88048
 Alpha  occ. eigenvalues --   -0.85585  -0.77277  -0.71484  -0.67601  -0.64713
 Alpha  occ. eigenvalues --   -0.62705  -0.60910  -0.60328  -0.59091  -0.54233
 Alpha  occ. eigenvalues --   -0.53061  -0.51342  -0.48586  -0.46774  -0.43291
 Alpha  occ. eigenvalues --   -0.39668  -0.39220  -0.38061  -0.37412  -0.33663
 Alpha  occ. eigenvalues --   -0.29418
 Alpha virt. eigenvalues --   -0.05522   0.01377   0.03065   0.04395   0.04567
 Alpha virt. eigenvalues --    0.05223   0.06700   0.07285   0.07388   0.09161
 Alpha virt. eigenvalues --    0.10410   0.10932   0.11634   0.12436   0.12531
 Alpha virt. eigenvalues --    0.14681   0.15672   0.16181   0.16377   0.16390
 Alpha virt. eigenvalues --    0.18338   0.19440   0.20213   0.20532   0.21319
 Alpha virt. eigenvalues --    0.21530   0.22128   0.22672   0.23127   0.23518
 Alpha virt. eigenvalues --    0.24251   0.24975   0.25572   0.26127   0.26472
 Alpha virt. eigenvalues --    0.27484   0.28445   0.28776   0.29068   0.29202
 Alpha virt. eigenvalues --    0.29900   0.30393   0.31259   0.31685   0.31801
 Alpha virt. eigenvalues --    0.32973   0.33726   0.34399   0.34956   0.35311
 Alpha virt. eigenvalues --    0.35844   0.36268   0.36871   0.36973   0.38035
 Alpha virt. eigenvalues --    0.38586   0.39794   0.39938   0.40623   0.41554
 Alpha virt. eigenvalues --    0.41981   0.42321   0.42695   0.43637   0.43884
 Alpha virt. eigenvalues --    0.44429   0.44544   0.45533   0.45726   0.46281
 Alpha virt. eigenvalues --    0.46598   0.47938   0.48028   0.49002   0.49610
 Alpha virt. eigenvalues --    0.50713   0.51010   0.52049   0.52277   0.53188
 Alpha virt. eigenvalues --    0.53495   0.53900   0.54850   0.55400   0.56746
 Alpha virt. eigenvalues --    0.56804   0.58785   0.59144   0.60025   0.60595
 Alpha virt. eigenvalues --    0.61013   0.61788   0.62607   0.63121   0.63467
 Alpha virt. eigenvalues --    0.64890   0.65663   0.66239   0.67280   0.68160
 Alpha virt. eigenvalues --    0.68581   0.69049   0.69543   0.70248   0.71486
 Alpha virt. eigenvalues --    0.72248   0.73040   0.73260   0.73646   0.73858
 Alpha virt. eigenvalues --    0.74151   0.74971   0.75640   0.75964   0.77186
 Alpha virt. eigenvalues --    0.78181   0.78381   0.79121   0.79754   0.80620
 Alpha virt. eigenvalues --    0.81453   0.81748   0.82605   0.82903   0.83226
 Alpha virt. eigenvalues --    0.83914   0.85545   0.85947   0.87084   0.87821
 Alpha virt. eigenvalues --    0.87966   0.89609   0.92567   0.94988   0.95725
 Alpha virt. eigenvalues --    0.96792   0.97360   0.99390   0.99649   0.99989
 Alpha virt. eigenvalues --    1.00911   1.02197   1.03144   1.03927   1.04684
 Alpha virt. eigenvalues --    1.05636   1.07078   1.08737   1.10914   1.11497
 Alpha virt. eigenvalues --    1.11739   1.16166   1.17532   1.18158   1.20253
 Alpha virt. eigenvalues --    1.23703   1.24264   1.27262   1.30851   1.31454
 Alpha virt. eigenvalues --    1.33437   1.34127   1.35324   1.37676   1.38009
 Alpha virt. eigenvalues --    1.40001   1.40819   1.44165   1.47388   1.48553
 Alpha virt. eigenvalues --    1.48769   1.51236   1.52893   1.54302   1.56678
 Alpha virt. eigenvalues --    1.58319   1.59399   1.60631   1.61907   1.65191
 Alpha virt. eigenvalues --    1.66408   1.70672   1.72247   1.73981   1.77922
 Alpha virt. eigenvalues --    1.78042   1.78416   1.79269   1.79810   1.83083
 Alpha virt. eigenvalues --    1.83927   1.86653   1.88319   1.89850   1.90598
 Alpha virt. eigenvalues --    1.90729   1.94148   1.94835   1.96376   1.97703
 Alpha virt. eigenvalues --    1.98054   1.99569   2.01070   2.03001   2.06240
 Alpha virt. eigenvalues --    2.07452   2.08618   2.09459   2.10865   2.14880
 Alpha virt. eigenvalues --    2.16124   2.19346   2.20556   2.24256   2.28951
 Alpha virt. eigenvalues --    2.29406   2.31512   2.33151   2.34451   2.35060
 Alpha virt. eigenvalues --    2.36607   2.38796   2.41107   2.41671   2.43544
 Alpha virt. eigenvalues --    2.43700   2.48972   2.53904   2.55275   2.61011
 Alpha virt. eigenvalues --    2.63310   2.65031   2.65592   2.67582   2.70198
 Alpha virt. eigenvalues --    2.72145   2.72338   2.73300   2.75702   2.81251
 Alpha virt. eigenvalues --    2.83616   2.84630   2.86075   2.86767   2.87262
 Alpha virt. eigenvalues --    2.88029   2.88375   2.90667   2.93176   2.94204
 Alpha virt. eigenvalues --    2.95061   2.95634   3.00350   3.01555   3.03103
 Alpha virt. eigenvalues --    3.06975   3.09772   3.10223   3.11811   3.12158
 Alpha virt. eigenvalues --    3.12686   3.14849   3.16553   3.17602   3.21133
 Alpha virt. eigenvalues --    3.22914   3.24462   3.27466   3.28721   3.29771
 Alpha virt. eigenvalues --    3.30575   3.34274   3.35336   3.38809   3.39464
 Alpha virt. eigenvalues --    3.40837   3.41512   3.43904   3.44527   3.47025
 Alpha virt. eigenvalues --    3.47602   3.48416   3.48825   3.50791   3.52135
 Alpha virt. eigenvalues --    3.54923   3.56256   3.57709   3.58903   3.60651
 Alpha virt. eigenvalues --    3.62438   3.63744   3.65040   3.66331   3.68106
 Alpha virt. eigenvalues --    3.69538   3.72658   3.78950   3.81364   3.84812
 Alpha virt. eigenvalues --    3.90161   3.95668   3.96887   3.99603   4.00636
 Alpha virt. eigenvalues --    4.05405   4.06199   4.13346   4.16868   4.18229
 Alpha virt. eigenvalues --    4.19490   4.21087   4.24271   4.26526   4.28157
 Alpha virt. eigenvalues --    4.30555   4.31916   4.33321   4.33842   4.34807
 Alpha virt. eigenvalues --    4.36869   4.43057   4.46976   4.53979   4.60939
 Alpha virt. eigenvalues --    4.66860   4.69587   4.72972   4.75715   4.76121
 Alpha virt. eigenvalues --    4.78907   4.80939   4.82213   4.83551   4.92360
 Alpha virt. eigenvalues --    4.93069   4.94697   4.96339   4.99592   5.02482
 Alpha virt. eigenvalues --    5.03870   5.04886   5.07889   5.15481   5.18202
 Alpha virt. eigenvalues --    5.19881   5.22949   5.26236   5.27014   5.30208
 Alpha virt. eigenvalues --    5.33702   5.39238   5.39430   5.41490   5.45250
 Alpha virt. eigenvalues --    5.47032   5.53706   5.57058   5.60566   5.69985
 Alpha virt. eigenvalues --    5.71292   5.71774   5.74509   5.80213   5.98416
 Alpha virt. eigenvalues --    6.05499   6.09979   6.16129   6.43549   6.43635
 Alpha virt. eigenvalues --    6.51808   6.57609   6.59848   6.62847   6.94418
 Alpha virt. eigenvalues --    6.94985   6.97467   7.11138   7.31183   7.44736
 Alpha virt. eigenvalues --    7.53936   7.80031   7.81474  22.67597  22.88199
 Alpha virt. eigenvalues --   22.96925  23.01770  23.15665  23.48048  32.48551
 Alpha virt. eigenvalues --   32.84597  44.45828  44.63625
          Condensed to atoms (all electrons):
               1          2          3          4          5          6
     1  C    6.778911   0.193894  -0.635399   0.122468  -0.037588  -0.122476
     2  C    0.193894   5.736080   0.288644  -0.167869  -0.133138  -0.095104
     3  C   -0.635399   0.288644   7.246069  -0.555918  -0.181936   0.101961
     4  C    0.122468  -0.167869  -0.555918   7.033778   0.023228  -0.276510
     5  C   -0.037588  -0.133138  -0.181936   0.023228   6.279398   0.084208
     6  C   -0.122476  -0.095104   0.101961  -0.276510   0.084208   6.544755
     7  H    0.406763  -0.113055  -0.014380   0.012267   0.022747  -0.148763
     8  H   -0.017351  -0.108171   0.504023  -0.238186   0.006786   0.008289
     9  H    0.024586   0.012505  -0.242592   0.554669  -0.190843  -0.000994
    10  H   -0.164263   0.034262   0.021501   0.005508  -0.189666   0.424527
    11  N   -0.156055   0.508268  -0.165350  -0.028580   0.015735  -0.035052
    12  O    0.035277  -0.051065  -0.048141   0.022037  -0.008791  -0.002437
    13  O   -0.045652  -0.049894   0.038522  -0.005451  -0.009457   0.020272
    14  N   -0.087335   0.007262  -0.022764  -0.032962   0.077376  -0.011075
    15  H    0.012329  -0.001837  -0.031241   0.078863  -0.083309  -0.036925
    16  H   -0.012128   0.000833   0.008338  -0.027923  -0.028555   0.034505
               7          8          9         10         11         12
     1  C    0.406763  -0.017351   0.024586  -0.164263  -0.156055   0.035277
     2  C   -0.113055  -0.108171   0.012505   0.034262   0.508268  -0.051065
     3  C   -0.014380   0.504023  -0.242592   0.021501  -0.165350  -0.048141
     4  C    0.012267  -0.238186   0.554669   0.005508  -0.028580   0.022037
     5  C    0.022747   0.006786  -0.190843  -0.189666   0.015735  -0.008791
     6  C   -0.148763   0.008289  -0.000994   0.424527  -0.035052  -0.002437
     7  H    0.422219  -0.000935   0.000945  -0.032068   0.012344  -0.001706
     8  H   -0.000935   0.447993  -0.047554   0.000827   0.006519  -0.009387
     9  H    0.000945  -0.047554   0.487567  -0.001198  -0.001457   0.001750
    10  H   -0.032068   0.000827  -0.001198   0.455599  -0.002086  -0.000007
    11  N    0.012344   0.006519  -0.001457  -0.002086   5.717847   0.108172
    12  O   -0.001706  -0.009387   0.001750  -0.000007   0.108172   8.682956
    13  O   -0.008748  -0.001324  -0.000119   0.001527   0.104429  -0.113953
    14  N   -0.004867  -0.000387   0.027266   0.043380  -0.000401   0.000069
    15  H    0.000400  -0.001679   0.024712  -0.003968   0.000016   0.000061
    16  H   -0.000739   0.000320  -0.003795   0.009230  -0.000016  -0.000010
              13         14         15         16
     1  C   -0.045652  -0.087335   0.012329  -0.012128
     2  C   -0.049894   0.007262  -0.001837   0.000833
     3  C    0.038522  -0.022764  -0.031241   0.008338
     4  C   -0.005451  -0.032962   0.078863  -0.027923
     5  C   -0.009457   0.077376  -0.083309  -0.028555
     6  C    0.020272  -0.011075  -0.036925   0.034505
     7  H   -0.008748  -0.004867   0.000400  -0.000739
     8  H   -0.001324  -0.000387  -0.001679   0.000320
     9  H   -0.000119   0.027266   0.024712  -0.003795
    10  H    0.001527   0.043380  -0.003968   0.009230
    11  N    0.104429  -0.000401   0.000016  -0.000016
    12  O   -0.113953   0.000069   0.000061  -0.000010
    13  O    8.685035   0.000279  -0.000026   0.000039
    14  N    0.000279   6.653771   0.377211   0.430375
    15  H   -0.000026   0.377211   0.497283  -0.057770
    16  H    0.000039   0.430375  -0.057770   0.426857
 Mulliken charges:
               1
     1  C   -0.295980
     2  C   -0.061615
     3  C   -0.311337
     4  C   -0.519417
     5  C    0.353804
     6  C   -0.489182
     7  H    0.447575
     8  H    0.450219
     9  H    0.354553
    10  H    0.396896
    11  N    0.915665
    12  O   -0.614823
    13  O   -0.615479
    14  N   -0.457199
    15  H    0.225879
    16  H    0.220439
 Sum of Mulliken charges =   0.00000
 Mulliken charges with hydrogens summed into heavy atoms:
               1
     1  C    0.151594
     2  C   -0.061615
     3  C    0.138882
     4  C   -0.164863
     5  C    0.353804
     6  C   -0.092285
    11  N    0.915665
    12  O   -0.614823
    13  O   -0.615479
    14  N   -0.010880
 Electronic spatial extent (au):  <R**2>=           1550.2593
 Charge=              0.0000 electrons
 Dipole moment (field-independent basis, Debye):
    X=             -8.1443    Y=             -0.4302    Z=              0.4518  Tot=              8.1681
 Quadrupole moment (field-independent basis, Debye-Ang):
   XX=            -60.1909   YY=            -54.0582   ZZ=            -58.5389
   XY=              1.8443   XZ=             -1.9361   YZ=              1.5613
 Traceless Quadrupole moment (field-independent basis, Debye-Ang):
   XX=             -2.5949   YY=              3.5378   ZZ=             -0.9429
   XY=              1.8443   XZ=             -1.9361   YZ=              1.5613
 Octapole moment (field-independent basis, Debye-Ang**2):
  XXX=           -106.4783  YYY=             -0.6808  ZZZ=              0.8607  XYY=            -12.3349
  XXY=             -7.4368  XXZ=              7.8563  XZZ=              5.9105  YZZ=             -0.0320
  YYZ=             -0.0243  XYZ=             -6.5348
 Hexadecapole moment (field-independent basis, Debye-Ang**3):
 XXXX=          -1431.9232 YYYY=           -357.3881 ZZZZ=            -64.5821 XXXY=             31.0909
 XXXZ=            -33.3957 YYYX=              3.1685 YYYZ=              0.4543 ZZZX=             -3.2788
 ZZZY=              1.9055 XXYY=           -325.1564 XXZZ=           -251.9007 YYZZ=            -81.8533
 XXYZ=             26.5882 YYXZ=              0.0014 ZZXY=              0.0288
 N-N= 4.978182701604D+02 E-N=-2.145527518463D+03  KE= 4.901304004038D+02
 PrsmSu:  requested number of processors reduced to:   4 ShMem   1 Linda.
 D1PCM: C-PCM CHGder 1st derivatives, ID1Alg=3 FixD1E=F DoIter=F DoCFld=F I1PDM=0.
 Calling FoFJK, ICntrl=      2127 FMM=F ISym2X=0 I1Cent= 0 IOpClX= 0 NMat=1 NMatS=1 NMatT=0.
 ***** Axes restored to original set *****
 -------------------------------------------------------------------
 Center     Atomic                   Forces (Hartrees/Bohr)
 Number     Number              X              Y              Z
 -------------------------------------------------------------------
      1        6           0.000410842    0.000131871   -0.000167983
      2        6          -0.004522297   -0.000034819   -0.000009620
      3        6           0.000529058    0.000068829   -0.000109090
      4        6          -0.002878697    0.000242518   -0.005012443
      5        6           0.003429784   -0.001692752    0.002416635
      6        6          -0.002488480    0.000460852    0.004739845
      7        1          -0.000354842   -0.000063431    0.000080262
      8        1          -0.000425087    0.000067606   -0.000039174
      9        1           0.000232433   -0.000607976    0.000270952
     10        1           0.000186052    0.000481758   -0.000278428
     11        7           0.004550707    0.000022355    0.000191679
     12        8          -0.000733321    0.001872270   -0.000126637
     13        8          -0.000726104   -0.001892211   -0.000006926
     14        7           0.001016243    0.002327022   -0.006252935
     15        1           0.000923634   -0.005337053    0.006234433
     16        1           0.000850075    0.003953160   -0.001930568
 -------------------------------------------------------------------
 Cartesian Forces:  Max     0.006252935 RMS     0.002361500

 GradGradGradGradGradGradGradGradGradGradGradGradGradGradGradGradGradGrad
 Berny optimization.
 FormGI is forming the generalized inverse of G from B-inverse, IUseBI=4.
 Internal  Forces:  Max     0.006994846 RMS     0.001574002
 Search for a local minimum.
 Step number   1 out of a maximum of   82
 All quantities printed in internal units (Hartrees-Bohrs-Radians)
 Mixed Optimization -- RFO/linear search
 Second derivative matrix not updated -- first step.
 ITU=  0
     Eigenvalues ---    0.01107   0.01107   0.01901   0.01915   0.02037
     Eigenvalues ---    0.02134   0.02223   0.02251   0.02299   0.02305
     Eigenvalues ---    0.02343   0.02349   0.02468   0.15995   0.15996
     Eigenvalues ---    0.16000   0.16000   0.16000   0.16000   0.22000
     Eigenvalues ---    0.22967   0.23999   0.24999   0.25000   0.25000
     Eigenvalues ---    0.25000   0.35850   0.35867   0.36058   0.36066
     Eigenvalues ---    0.39012   0.42423   0.43304   0.46675   0.46959
     Eigenvalues ---    0.47023   0.47032   0.48348   0.48521   0.49791
     Eigenvalues ---    0.95294   0.95296
 RFO step:  Lambda=-5.03786755D-03 EMin= 1.10682452D-02
 Linear search not attempted -- first point.
 Iteration  1 RMS(Cart)=  0.04750566 RMS(Int)=  0.01330647
 Iteration  2 RMS(Cart)=  0.01368549 RMS(Int)=  0.00068111
 Iteration  3 RMS(Cart)=  0.00047069 RMS(Int)=  0.00047136
 Iteration  4 RMS(Cart)=  0.00000054 RMS(Int)=  0.00047136
 Variable       Old X    -DE/DX   Delta X   Delta X   Delta X     New X
                                 (Linear)    (Quad)   (Total)
    R1        2.62003   0.00008   0.00000   0.00028   0.00027   2.62030
    R2        2.60057  -0.00071   0.00000  -0.00141  -0.00141   2.59917
    R3        2.03978  -0.00024   0.00000  -0.00065  -0.00065   2.03913
    R4        2.61943   0.00010   0.00000   0.00031   0.00030   2.61974
    R5        2.72918   0.00309   0.00000   0.00782   0.00782   2.73700
    R6        2.60094  -0.00056   0.00000  -0.00113  -0.00113   2.59981
    R7        2.03991  -0.00028   0.00000  -0.00075  -0.00075   2.03916
    R8        2.64784  -0.00194   0.00000  -0.00434  -0.00433   2.64351
    R9        2.04317   0.00041   0.00000   0.00114   0.00114   2.04431
   R10        2.64536  -0.00119   0.00000  -0.00268  -0.00268   2.64268
   R11        2.61570  -0.00276   0.00000  -0.00565  -0.00565   2.61005
   R12        2.04290   0.00033   0.00000   0.00091   0.00091   2.04381
   R13        2.30585  -0.00200   0.00000  -0.00209  -0.00209   2.30376
   R14        2.30584  -0.00201   0.00000  -0.00210  -0.00210   2.30374
   R15        1.89684   0.00043   0.00000   0.00090   0.00090   1.89774
   R16        1.89764   0.00007   0.00000   0.00015   0.00015   1.89779
    A1        2.08173  -0.00055   0.00000  -0.00183  -0.00183   2.07990
    A2        2.09023   0.00055   0.00000   0.00258   0.00259   2.09282
    A3        2.11095   0.00000   0.00000  -0.00077  -0.00076   2.11019
    A4        2.11292   0.00089   0.00000   0.00417   0.00416   2.11707
    A5        2.08517  -0.00044   0.00000  -0.00207  -0.00206   2.08311
    A6        2.08510  -0.00045   0.00000  -0.00210  -0.00210   2.08300
    A7        2.08018  -0.00033   0.00000  -0.00093  -0.00094   2.07924
    A8        2.09052   0.00050   0.00000   0.00249   0.00249   2.09301
    A9        2.11224  -0.00017   0.00000  -0.00158  -0.00158   2.11066
   A10        2.11522  -0.00154   0.00000  -0.00678  -0.00677   2.10845
   A11        2.09369   0.00025   0.00000   0.00023   0.00023   2.09392
   A12        2.07427   0.00129   0.00000   0.00655   0.00655   2.08082
   A13        2.06175   0.00295   0.00000   0.01147   0.01148   2.07323
   A14        2.11857  -0.00117   0.00000  -0.00456  -0.00457   2.11400
   A15        2.10282  -0.00179   0.00000  -0.00698  -0.00699   2.09583
   A16        2.11426  -0.00142   0.00000  -0.00613  -0.00612   2.10813
   A17        2.09551   0.00030   0.00000   0.00058   0.00057   2.09608
   A18        2.07342   0.00112   0.00000   0.00555   0.00554   2.07896
   A19        2.06650   0.00017   0.00000   0.00067   0.00066   2.06716
   A20        2.06638   0.00022   0.00000   0.00086   0.00085   2.06723
   A21        2.15030  -0.00039   0.00000  -0.00152  -0.00153   2.14876
   A22        2.08167  -0.00169   0.00000  -0.02142  -0.02354   2.05813
   A23        2.10359  -0.00080   0.00000  -0.01597  -0.01808   2.08551
   A24        2.02599   0.00111   0.00000  -0.00537  -0.00780   2.01819
    D1       -0.01140   0.00000   0.00000   0.00050   0.00050  -0.01090
    D2        3.13029  -0.00001   0.00000  -0.00028  -0.00029   3.13000
    D3       -3.12829   0.00002   0.00000   0.00110   0.00109  -3.12719
    D4        0.01340   0.00001   0.00000   0.00031   0.00031   0.01371
    D5        0.02216   0.00003   0.00000   0.00121   0.00121   0.02338
    D6       -3.11889   0.00016   0.00000   0.00594   0.00593  -3.11296
    D7        3.13875   0.00002   0.00000   0.00066   0.00066   3.13942
    D8       -0.00230   0.00015   0.00000   0.00538   0.00538   0.00307
    D9       -0.01035  -0.00005   0.00000  -0.00169  -0.00169  -0.01204
   D10       -3.12833  -0.00001   0.00000  -0.00044  -0.00044  -3.12877
   D11        3.13115  -0.00004   0.00000  -0.00091  -0.00091   3.13024
   D12        0.01317   0.00000   0.00000   0.00035   0.00035   0.01352
   D13       -3.14144   0.00013   0.00000   0.00780   0.00780  -3.13364
   D14        0.00142   0.00000   0.00000  -0.00034  -0.00034   0.00107
   D15        0.00025   0.00011   0.00000   0.00703   0.00703   0.00728
   D16       -3.14008  -0.00002   0.00000  -0.00111  -0.00111  -3.14120
   D17        0.02172   0.00002   0.00000   0.00096   0.00096   0.02267
   D18       -3.12060   0.00009   0.00000   0.00360   0.00359  -3.11701
   D19        3.13940  -0.00001   0.00000  -0.00026  -0.00026   3.13914
   D20       -0.00292   0.00006   0.00000   0.00239   0.00238  -0.00054
   D21       -0.01121   0.00002   0.00000   0.00074   0.00075  -0.01047
   D22        3.12074  -0.00018   0.00000  -0.00667  -0.00668   3.11405
   D23        3.13110  -0.00005   0.00000  -0.00188  -0.00187   3.12923
   D24       -0.02014  -0.00025   0.00000  -0.00928  -0.00930  -0.02944
   D25       -0.01107  -0.00005   0.00000  -0.00187  -0.00188  -0.01295
   D26        3.13000  -0.00018   0.00000  -0.00653  -0.00655   3.12345
   D27        3.14008   0.00014   0.00000   0.00545   0.00546  -3.13765
   D28       -0.00204   0.00001   0.00000   0.00079   0.00079  -0.00125
   D29       -0.58738   0.00699   0.00000   0.27699   0.27644  -0.31094
   D30        2.14043   0.00348   0.00000   0.15858   0.15908   2.29951
   D31        2.54435   0.00682   0.00000   0.26951   0.26901   2.81336
   D32       -1.01103   0.00330   0.00000   0.15111   0.15166  -0.85937
         Item               Value     Threshold  Converged?
 Maximum Force            0.006995     0.000015     NO 
 RMS     Force            0.001574     0.000010     NO 
 Maximum Displacement     0.320923     0.000060     NO 
 RMS     Displacement     0.058404     0.000040     NO 
 Predicted change in Energy=-3.005586D-03
 GradGradGradGradGradGradGradGradGradGradGradGradGradGradGradGradGradGrad

                          Input orientation:                          
 ---------------------------------------------------------------------
 Center     Atomic      Atomic             Coordinates (Angstroms)
 Number     Number       Type             X           Y           Z
 ---------------------------------------------------------------------
      1          6           0        0.023659    1.210273    0.004739
      2          6           0        0.700629    0.000164    0.000706
      3          6           0        0.018507   -1.206627   -0.013665
      4          6           0       -1.357221   -1.198441   -0.009622
      5          6           0       -2.066488    0.007269   -0.018532
      6          6           0       -1.351559    1.209156   -0.018842
      7          1           0        0.577249    2.136508    0.002530
      8          1           0        0.567683   -2.135457   -0.004542
      9          1           0       -1.903207   -2.132276    0.002349
     10          1           0       -1.894333    2.144324   -0.042853
     11          7           0        2.148950   -0.003164    0.010851
     12          8           0        2.727163   -1.076347   -0.001410
     13          8           0        2.731984    1.067387    0.023870
     14          7           0       -3.447283    0.023082   -0.047103
     15          1           0       -3.921365   -0.814941   -0.332519
     16          1           0       -3.948456    0.607663    0.597604
 ---------------------------------------------------------------------
                    Distance matrix (angstroms):
                    1          2          3          4          5
     1  C    0.000000
     2  C    1.386603   0.000000
     3  C    2.416976   1.386306   0.000000
     4  C    2.776498   2.381493   1.375759   0.000000
     5  C    2.411737   2.767193   2.412628   1.398884   0.000000
     6  C    1.375421   2.381915   2.777250   2.407622   1.398448
     7  H    1.079063   2.139904   3.389544   3.855413   3.394620
     8  H    3.389684   2.139762   1.079075   2.140860   3.395634
     9  H    3.858168   3.365601   2.133089   1.081800   2.145869
    10  H    2.133872   3.366474   3.858585   3.385804   2.144116
    11  N    2.447311   1.448361   2.446980   3.704368   4.215554
    12  O    3.540848   2.294716   2.711815   4.086217   4.914632
    13  O    2.712159   2.294755   3.540551   4.675114   4.914364
    14  N    3.668726   4.148251   3.677635   2.421132   1.381181
    15  H    4.447298   4.705132   3.972113   2.612694   2.053092
    16  H    4.061075   4.726451   4.404781   3.216401   2.069275
                    6          7          8          9         10
     6  C    0.000000
     7  H    2.140266   0.000000
     8  H    3.856181   4.271981   0.000000
     9  H    3.386730   4.937123   2.470902   0.000000
    10  H    1.081535   2.472011   4.937562   4.276849   0.000000
    11  N    3.704615   2.654903   2.654678   4.577463   4.578508
    12  O    4.675447   3.865822   2.405219   4.749245   5.633176
    13  O    4.086226   2.405484   3.865645   5.632344   4.750479
    14  N    2.408242   4.545975   4.558624   2.651827   2.628943
    15  H    3.286224   5.390811   4.690723   2.433202   3.598613
    16  H    2.735996   4.813885   5.318157   3.470539   2.644038
                   11         12         13         14         15
    11  N    0.000000
    12  O    1.219099   0.000000
    13  O    1.219089   2.143889   0.000000
    14  N    5.596595   6.271732   6.267292   0.000000
    15  H    6.133973   6.661899   6.923671   1.004240   0.000000
    16  H    6.155953   6.910760   6.720773   1.004269   1.699901
                   16
    16  H    0.000000
 Stoichiometry    C6H6N2O2
 Framework group  C1[X(C6H6N2O2)]
 Deg. of freedom    42
 Full point group                 C1      NOp   1
 Largest Abelian subgroup         C1      NOp   1
 Largest concise Abelian subgroup C1      NOp   1
                         Standard orientation:                         
 ---------------------------------------------------------------------
 Center     Atomic      Atomic             Coordinates (Angstroms)
 Number     Number       Type             X           Y           Z
 ---------------------------------------------------------------------
      1          6           0        0.025334    1.210220   -0.006676
      2          6           0        0.702476    0.000221    0.000479
      3          6           0        0.020494   -1.206733    0.002608
      4          6           0       -1.355209   -1.198658    0.011971
      5          6           0       -2.064697    0.006790   -0.007948
      6          6           0       -1.349966    1.208677   -0.024831
      7          1           0        0.578764    2.136432   -0.021666
      8          1           0        0.569849   -2.135335    0.020201
      9          1           0       -1.900995   -2.132357    0.036780
     10          1           0       -1.892978    2.143446   -0.057408
     11          7           0        2.150826   -0.002826    0.004961
     12          8           0        2.729157   -1.076013    0.002710
     13          8           0        2.733736    1.067870    0.003430
     14          7           0       -3.445596    0.022118   -0.031264
     15          1           0       -3.920665   -0.819172   -0.305200
     16          1           0       -3.944322    0.613984    0.608676
 ---------------------------------------------------------------------
 Rotational constants (GHZ):      3.9936353      0.8291732      0.6875384
 Basis read from rwf:  (5D, 7F)
 There are   490 symmetry adapted cartesian basis functions of A   symmetry.
 There are   430 symmetry adapted basis functions of A   symmetry.
   430 basis functions,   652 primitive gaussians,   490 cartesian basis functions
    36 alpha electrons       36 beta electrons
       nuclear repulsion energy       498.1511658969 Hartrees.
 NAtoms=   16 NActive=   16 NUniq=   16 SFac= 1.00D+00 NAtFMM=   60 NAOKFM=F Big=F
 Integral buffers will be    262144 words long.
 Raffenetti 2 integral format.
 Two-electron integral symmetry is turned on.
 ------------------------------------------------------------------------------
 Polarizable Continuum Model (PCM)
 =================================
 Model                : C-PCM.
 Atomic radii         : UFF (Universal Force Field).
 Polarization charges : Total charges.
 Charge compensation  : None.
 Solution method      : On-the-fly selection.
 Cavity type          : Scaled VdW (van der Waals Surface) (Alpha=1.100).
 Cavity algorithm     : GePol (No added spheres)
                        Default sphere list used, NSphG=   16.
                        Lebedev-Laikov grids with approx.  5.0 points / Ang**2.
                        Smoothing algorithm: Karplus/York (Gamma=1.0000).
                        Polarization charges: spherical gaussians, with
                                              point-specific exponents (IZeta= 3).
                        Self-potential: point-specific (ISelfS= 7).
                        Self-field    : sphere-specific E.n sum rule (ISelfD= 2).
 1st derivatives      : Analytical E(r).r(x)/FMM algorithm (CHGder, D1EAlg=3).
                        Cavity 1st derivative terms included.
 Solvent              : DiChloroEthane, Eps=  10.125000 Eps(inf)=   2.087447
 ------------------------------------------------------------------------------
 Spheres list:
 ISph  on   Nord     Re0    Alpha      Xe            Ye            Ze
    1   C      1    1.9255  1.100      0.025334      1.210220     -0.006676
    2   C      2    1.9255  1.100      0.702476      0.000221      0.000479
    3   C      3    1.9255  1.100      0.020494     -1.206733      0.002608
    4   C      4    1.9255  1.100     -1.355209     -1.198658      0.011971
    5   C      5    1.9255  1.100     -2.064697      0.006790     -0.007948
    6   C      6    1.9255  1.100     -1.349966      1.208677     -0.024831
    7   H      7    1.4430  1.100      0.578764      2.136432     -0.021666
    8   H      8    1.4430  1.100      0.569849     -2.135335      0.020201
    9   H      9    1.4430  1.100     -1.900995     -2.132357      0.036780
   10   H     10    1.4430  1.100     -1.892978      2.143446     -0.057408
   11   N     11    1.8300  1.100      2.150826     -0.002826      0.004961
   12   O     12    1.7500  1.100      2.729157     -1.076013      0.002710
   13   O     13    1.7500  1.100      2.733736      1.067870      0.003430
   14   N     14    1.8300  1.100     -3.445596      0.022118     -0.031264
   15   H     15    1.4430  1.100     -3.920665     -0.819172     -0.305200
   16   H     16    1.4430  1.100     -3.944322      0.613984      0.608676
 ------------------------------------------------------------------------------
 One-electron integrals computed using PRISM.
 PrsmSu:  requested number of processors reduced to:   4 ShMem   1 Linda.
 NBasis=   430 RedAO= T EigKep=  1.25D-06  NBF=   430
 NBsUse=   429 1.00D-06 EigRej=  5.30D-07 NBFU=   429
 Initial guess from the checkpoint file:  "Z:\home\jakler\matheus\Solvent\dichloroethane\1.chk"
 B after Tr=     0.000000    0.000000    0.000000
         Rot=    0.999999    0.001618   -0.000007   -0.000006 Ang=   0.19 deg.
 ExpMin= 4.85D-02 ExpMax= 2.70D+04 ExpMxC= 9.22D+02 IAcc=2 IRadAn=         4 AccDes= 0.00D+00
 Harris functional with IExCor=20419 and IRadAn=       4 diagonalized for initial guess.
 HarFok:  IExCor=20419 AccDes= 0.00D+00 IRadAn=         4 IDoV= 1 UseB2=F ITyADJ=14
 ICtDFT=  3500011 ScaDFX=  1.000000  1.000000  1.000000  1.000000
 FoFCou: FMM=F IPFlag=           0 FMFlag=      100000 FMFlg1=           0
         NFxFlg=           0 DoJE=T BraDBF=F KetDBF=T FulRan=T
         wScrn=  0.000000 ICntrl=     500 IOpCl=  0 I1Cent=   200000004 NGrid=           0
         NMat0=    1 NMatS0=      1 NMatT0=    0 NMatD0=    1 NMtDS0=    0 NMtDT0=    0
 Petite list used in FoFCou.
 Inv3:  Mode=1 IEnd=     6342348.
 Iteration    1 A*A^-1 deviation from unit magnitude is 3.11D-15 for   1356.
 Iteration    1 A*A^-1 deviation from orthogonality  is 9.99D-16 for   1446   1363.
 Iteration    1 A^-1*A deviation from unit magnitude is 3.11D-15 for   1356.
 Iteration    1 A^-1*A deviation from orthogonality  is 1.44D-15 for   1273   1197.
 Gradient too large for Newton-Raphson -- use scaled steepest descent instead.
     Accept linear search using points  3 and  4.
 Gradient too large for Newton-Raphson -- use scaled steepest descent instead.
     Minimum is close to point  2 DX=  2.77D-02 DF= -2.80D-06 DXR=  5.25D-02 DFR=  2.77D-03 which will be used.
 Gradient too large for Newton-Raphson -- use scaled steepest descent instead.
 Gradient too large for Newton-Raphson -- use scaled steepest descent instead.
     Accept linear search using points  1 and  2.
 Gradient too large for Newton-Raphson -- use scaled steepest descent instead.
     Minimum is close to point  2 DX= -9.31D-04 DF= -1.93D-09 DXR=  3.11D-03 DFR=  9.68D-06 which will be used.
 Gradient too large for Newton-Raphson -- use scaled steepest descent instead.
     Accept linear search using points  1 and  2.
 Gradient too large for Newton-Raphson -- use scaled steepest descent instead.
     Accept linear search using points  4 and  5.
     Minimum is close to point  5 DX= -5.08D-02 DF= -4.14D-07 DXR=  2.16D-02 DFR=  6.11D-04 which will be used.
 Gradient too large for Newton-Raphson -- use scaled steepest descent instead.
 Restarting incremental Fock formation.
 Gradient too large for Newton-Raphson -- use scaled steepest descent instead.
     Accept linear search using points  1 and  2.
 Gradient too large for Newton-Raphson -- use scaled steepest descent instead.
 Gradient too large for Newton-Raphson -- use scaled steepest descent instead.
     Accept linear search using points  1 and  2.
 Gradient too large for Newton-Raphson -- use scaled steepest descent instead.
 Gradient too large for Newton-Raphson -- use scaled steepest descent instead.
     Accept linear search using points  1 and  2.
 Gradient too large for Newton-Raphson -- use scaled steepest descent instead.
     Accept linear search using points  1 and  2.
 LinEq1:  Iter=  0 NonCon=     1 RMS=7.73D-05 Max=4.13D-03 NDo=     1
 AX will form     1 AO Fock derivatives at one time.
 LinEq1:  Iter=  1 NonCon=     1 RMS=1.32D-05 Max=3.28D-04 NDo=     1
 LinEq1:  Iter=  2 NonCon=     1 RMS=1.25D-05 Max=9.26D-04 NDo=     1
 LinEq1:  Iter=  3 NonCon=     1 RMS=2.89D-06 Max=1.64D-04 NDo=     1
 LinEq1:  Iter=  4 NonCon=     1 RMS=1.67D-06 Max=4.33D-05 NDo=     1
 LinEq1:  Iter=  5 NonCon=     1 RMS=8.41D-07 Max=3.76D-05 NDo=     1
 LinEq1:  Iter=  6 NonCon=     1 RMS=4.62D-07 Max=1.54D-05 NDo=     1
 LinEq1:  Iter=  7 NonCon=     1 RMS=2.22D-07 Max=1.01D-05 NDo=     1
 LinEq1:  Iter=  8 NonCon=     1 RMS=1.18D-07 Max=5.92D-06 NDo=     1
 LinEq1:  Iter=  9 NonCon=     1 RMS=8.55D-08 Max=4.85D-06 NDo=     1
 LinEq1:  Iter= 10 NonCon=     1 RMS=6.57D-08 Max=2.49D-06 NDo=     1
 LinEq1:  Iter= 11 NonCon=     1 RMS=3.12D-08 Max=1.14D-06 NDo=     1
 LinEq1:  Iter= 12 NonCon=     1 RMS=1.31D-08 Max=3.67D-07 NDo=     1
 LinEq1:  Iter= 13 NonCon=     1 RMS=4.41D-09 Max=1.79D-07 NDo=     1
 LinEq1:  Iter= 14 NonCon=     0 RMS=2.07D-09 Max=3.60D-08 NDo=     1
 Linear equations converged to 1.682D-08 1.682D-07 after    14 iterations.
     Accept linear search using points  1 and  2.
     Minimum is close to point  2 DX= -1.89D-03 DF= -4.42D-10 DXR=  1.89D-03 DFR=  3.59D-06 which will be used.
 LinEq1:  Iter=  0 NonCon=     1 RMS=6.39D-07 Max=3.46D-05 NDo=     1
 LinEq1:  Iter=  1 NonCon=     1 RMS=2.49D-07 Max=7.97D-06 NDo=     1
 LinEq1:  Iter=  2 NonCon=     1 RMS=8.98D-08 Max=4.44D-06 NDo=     1
 LinEq1:  Iter=  3 NonCon=     1 RMS=4.63D-08 Max=1.93D-06 NDo=     1
 LinEq1:  Iter=  4 NonCon=     1 RMS=2.90D-08 Max=1.17D-06 NDo=     1
 LinEq1:  Iter=  5 NonCon=     1 RMS=1.72D-08 Max=7.66D-07 NDo=     1
 LinEq1:  Iter=  6 NonCon=     1 RMS=1.24D-08 Max=7.03D-07 NDo=     1
 LinEq1:  Iter=  7 NonCon=     1 RMS=6.62D-09 Max=1.96D-07 NDo=     1
 LinEq1:  Iter=  8 NonCon=     1 RMS=3.76D-09 Max=1.19D-07 NDo=     1
 LinEq1:  Iter=  9 NonCon=     1 RMS=1.61D-09 Max=6.90D-08 NDo=     1
 LinEq1:  Iter= 10 NonCon=     1 RMS=7.03D-10 Max=2.28D-08 NDo=     1
 LinEq1:  Iter= 11 NonCon=     1 RMS=2.68D-10 Max=1.73D-08 NDo=     1
 LinEq1:  Iter= 12 NonCon=     0 RMS=1.18D-10 Max=4.87D-09 NDo=     1
 Linear equations converged to 8.804D-10 8.804D-09 after    12 iterations.
 Error on total polarization charges =  0.01282
 SCF Done:  E(RCAM-B3LYP) =  -492.094683734     a.u. after   17 cycles
            Convg  =    0.4647D-08                    65 Fock formations.
              S**2 =  0.0000                  -V/T =  2.0040
 PrsmSu:  requested number of processors reduced to:   4 ShMem   1 Linda.
 D1PCM: C-PCM CHGder 1st derivatives, ID1Alg=3 FixD1E=F DoIter=F DoCFld=F I1PDM=0.
 Calling FoFJK, ICntrl=      2127 FMM=F ISym2X=0 I1Cent= 0 IOpClX= 0 NMat=1 NMatS=1 NMatT=0.
 ***** Axes restored to original set *****
 -------------------------------------------------------------------
 Center     Atomic                   Forces (Hartrees/Bohr)
 Number     Number              X              Y              Z
 -------------------------------------------------------------------
      1        6          -0.001123130   -0.000093904   -0.000502060
      2        6           0.000815510   -0.000333148    0.000282610
      3        6          -0.000502557    0.000497341    0.000313006
      4        6          -0.000222552   -0.001056231   -0.004286165
      5        6          -0.004544469   -0.000330386    0.002263736
      6        6           0.000489846    0.001717320    0.003825022
      7        1          -0.000025610   -0.000014520    0.000140502
      8        1          -0.000041040    0.000001609   -0.000072277
      9        1           0.000284565   -0.000164523    0.000093046
     10        1           0.000205133    0.000109322    0.000035686
     11        7          -0.000090536   -0.000019186   -0.001199136
     12        8          -0.000018798   -0.000222352    0.000379554
     13        8          -0.000054738    0.000199784    0.000475547
     14        7           0.005241944   -0.000829117   -0.005759031
     15        1          -0.000285477   -0.002952043    0.005944006
     16        1          -0.000128091    0.003490035   -0.001934044
 -------------------------------------------------------------------
 Cartesian Forces:  Max     0.005944006 RMS     0.001988108

 GradGradGradGradGradGradGradGradGradGradGradGradGradGradGradGradGradGrad
 Berny optimization.
 Using GEDIIS/GDIIS optimizer.
 FormGI is forming the generalized inverse of G from B-inverse, IUseBI=4.
 Internal  Forces:  Max     0.005628742 RMS     0.001248949
 Search for a local minimum.
 Step number   2 out of a maximum of   82
 All quantities printed in internal units (Hartrees-Bohrs-Radians)
 Mixed Optimization -- RFO/linear search
 Update second derivatives using D2CorX and points    1    2
 DE= -4.63D-03 DEPred=-3.01D-03 R= 1.54D+00
 TightC=F SS=  1.41D+00  RLast= 4.46D-01 DXNew= 5.0454D-01 1.3383D+00
 Trust test= 1.54D+00 RLast= 4.46D-01 DXMaxT set to 5.05D-01
 ITU=  1  0
 Use linear search instead of GDIIS.
     Eigenvalues ---    0.00363   0.01107   0.01221   0.01917   0.02042
     Eigenvalues ---    0.02134   0.02227   0.02252   0.02298   0.02315
     Eigenvalues ---    0.02344   0.02349   0.02848   0.15990   0.15995
     Eigenvalues ---    0.15996   0.16000   0.16000   0.16135   0.22002
     Eigenvalues ---    0.22940   0.24693   0.24997   0.25000   0.25000
     Eigenvalues ---    0.25206   0.35856   0.35877   0.36060   0.36069
     Eigenvalues ---    0.39616   0.43175   0.43373   0.46669   0.46965
     Eigenvalues ---    0.47020   0.47319   0.48510   0.49237   0.49788
     Eigenvalues ---    0.95295   0.96143
 RFO step:  Lambda=-1.18631680D-03 EMin= 3.62627450D-03
 Quartic linear search produced a step of  1.63112.
 Iteration  1 RMS(Cart)=  0.05790713 RMS(Int)=  0.06460673
 Iteration  2 RMS(Cart)=  0.04938610 RMS(Int)=  0.02498453
 Iteration  3 RMS(Cart)=  0.02635753 RMS(Int)=  0.00305233
 Iteration  4 RMS(Cart)=  0.00171178 RMS(Int)=  0.00245495
 Iteration  5 RMS(Cart)=  0.00000753 RMS(Int)=  0.00245494
 Iteration  6 RMS(Cart)=  0.00000009 RMS(Int)=  0.00245494
 Variable       Old X    -DE/DX   Delta X   Delta X   Delta X     New X
                                 (Linear)    (Quad)   (Total)
    R1        2.62030   0.00048   0.00044   0.00199   0.00241   2.62271
    R2        2.59917  -0.00072  -0.00229  -0.00197  -0.00426   2.59491
    R3        2.03913  -0.00003  -0.00106   0.00059  -0.00047   2.03867
    R4        2.61974   0.00005   0.00050  -0.00037   0.00011   2.61984
    R5        2.73700  -0.00017   0.01276  -0.01037   0.00239   2.73939
    R6        2.59981  -0.00033  -0.00185  -0.00035  -0.00220   2.59760
    R7        2.03916  -0.00002  -0.00123   0.00074  -0.00049   2.03866
    R8        2.64351   0.00052  -0.00707   0.00825   0.00120   2.64471
    R9        2.04431   0.00000   0.00185  -0.00136   0.00049   2.04480
   R10        2.64268   0.00120  -0.00437   0.01006   0.00571   2.64839
   R11        2.61005  -0.00479  -0.00922  -0.01837  -0.02759   2.58247
   R12        2.04381  -0.00001   0.00148  -0.00115   0.00033   2.04414
   R13        2.30376   0.00018  -0.00340   0.00291  -0.00049   2.30327
   R14        2.30374   0.00015  -0.00342   0.00284  -0.00058   2.30316
   R15        1.89774   0.00091   0.00146   0.00381   0.00527   1.90301
   R16        1.89779   0.00086   0.00024   0.00442   0.00467   1.90246
    A1        2.07990   0.00032  -0.00299   0.00566   0.00265   2.08254
    A2        2.09282  -0.00015   0.00422  -0.00461  -0.00041   2.09241
    A3        2.11019  -0.00017  -0.00125  -0.00079  -0.00206   2.10813
    A4        2.11707  -0.00006   0.00678  -0.00640   0.00035   2.11742
    A5        2.08311   0.00007  -0.00336   0.00360   0.00025   2.08336
    A6        2.08300  -0.00001  -0.00342   0.00281  -0.00060   2.08240
    A7        2.07924   0.00039  -0.00153   0.00520   0.00364   2.08289
    A8        2.09301  -0.00016   0.00406  -0.00444  -0.00039   2.09262
    A9        2.11066  -0.00023  -0.00258  -0.00048  -0.00307   2.10759
   A10        2.10845  -0.00055  -0.01105   0.00253  -0.00850   2.09995
   A11        2.09392  -0.00006   0.00037  -0.00255  -0.00220   2.09172
   A12        2.08082   0.00061   0.01068   0.00002   0.01068   2.09150
   A13        2.07323   0.00045   0.01872  -0.00848   0.01019   2.08341
   A14        2.11400  -0.00027  -0.00746   0.00230  -0.00529   2.10871
   A15        2.09583  -0.00019  -0.01141   0.00599  -0.00555   2.09028
   A16        2.10813  -0.00055  -0.00999   0.00185  -0.00811   2.10002
   A17        2.09608   0.00004   0.00093  -0.00155  -0.00065   2.09543
   A18        2.07896   0.00052   0.00904  -0.00029   0.00872   2.08768
   A19        2.06716  -0.00007   0.00108  -0.00112  -0.00536   2.06181
   A20        2.06723  -0.00012   0.00139  -0.00190  -0.00582   2.06141
   A21        2.14876   0.00020  -0.00250   0.00429  -0.00363   2.14514
   A22        2.05813  -0.00065  -0.03840   0.00368  -0.04373   2.01440
   A23        2.08551  -0.00048  -0.02949  -0.00051  -0.03892   2.04660
   A24        2.01819  -0.00001  -0.01272  -0.00739  -0.03191   1.98628
    D1       -0.01090   0.00002   0.00081   0.00228   0.00313  -0.00776
    D2        3.13000   0.00003  -0.00047   0.00443   0.00399   3.13399
    D3       -3.12719  -0.00007   0.00178  -0.00903  -0.00724  -3.13443
    D4        0.01371  -0.00007   0.00050  -0.00689  -0.00638   0.00733
    D5        0.02338  -0.00008   0.00198  -0.01005  -0.00804   0.01533
    D6       -3.11296   0.00000   0.00967  -0.01167  -0.00203  -3.11500
    D7        3.13942   0.00002   0.00108   0.00133   0.00245  -3.14132
    D8        0.00307   0.00009   0.00877  -0.00029   0.00846   0.01153
    D9       -0.01204   0.00005  -0.00276   0.00914   0.00640  -0.00564
   D10       -3.12877  -0.00005  -0.00072  -0.00394  -0.00466  -3.13343
   D11        3.13024   0.00004  -0.00148   0.00700   0.00555   3.13579
   D12        0.01352  -0.00005   0.00056  -0.00609  -0.00552   0.00799
   D13       -3.13364  -0.00039   0.01273  -0.10031  -0.08714   3.06241
   D14        0.00107   0.00047  -0.00056   0.09946   0.09846   0.09953
   D15        0.00728  -0.00038   0.01147  -0.09821  -0.08630  -0.07902
   D16       -3.14120   0.00048  -0.00182   0.10156   0.09930  -3.04190
   D17        0.02267  -0.00011   0.00156  -0.01290  -0.01134   0.01134
   D18       -3.11701  -0.00007   0.00586  -0.01389  -0.00807  -3.12508
   D19        3.13914  -0.00001  -0.00042   0.00027  -0.00013   3.13901
   D20       -0.00054   0.00004   0.00389  -0.00073   0.00314   0.00260
   D21       -0.01047   0.00007   0.00122   0.00538   0.00663  -0.00384
   D22        3.11405  -0.00018  -0.01090  -0.00802  -0.01901   3.09504
   D23        3.12923   0.00002  -0.00305   0.00636   0.00334   3.13257
   D24       -0.02944  -0.00022  -0.01517  -0.00704  -0.02229  -0.05173
   D25       -0.01295   0.00003  -0.00307   0.00639   0.00325  -0.00970
   D26        3.12345  -0.00004  -0.01068   0.00799  -0.00276   3.12068
   D27       -3.13765   0.00027   0.00890   0.01968   0.02861  -3.10903
   D28       -0.00125   0.00020   0.00129   0.02128   0.02260   0.02135
   D29       -0.31094   0.00563   0.45090   0.11457   0.56192   0.25097
   D30        2.29951   0.00334   0.25949   0.10387   0.36667   2.66618
   D31        2.81336   0.00539   0.43879   0.10086   0.53633  -2.93350
   D32       -0.85937   0.00310   0.24737   0.09016   0.34109  -0.51829
         Item               Value     Threshold  Converged?
 Maximum Force            0.005629     0.000015     NO 
 RMS     Force            0.001249     0.000010     NO 
 Maximum Displacement     0.779144     0.000060     NO 
 RMS     Displacement     0.124841     0.000040     NO 
 Predicted change in Energy=-7.079119D-03
 GradGradGradGradGradGradGradGradGradGradGradGradGradGradGradGradGradGrad

                          Input orientation:                          
 ---------------------------------------------------------------------
 Center     Atomic      Atomic             Coordinates (Angstroms)
 Number     Number       Type             X           Y           Z
 ---------------------------------------------------------------------
      1          6           0        0.008442    1.205789    0.007740
      2          6           0        0.692163   -0.001566   -0.024306
      3          6           0        0.016534   -1.211562   -0.062170
      4          6           0       -1.358051   -1.215785   -0.061341
      5          6           0       -2.068230   -0.010100   -0.036347
      6          6           0       -1.364635    1.201610   -0.007480
      7          1           0        0.557596    2.134104    0.030217
      8          1           0        0.571056   -2.136800   -0.078964
      9          1           0       -1.893696   -2.155864   -0.075242
     10          1           0       -1.909338    2.136168   -0.007758
     11          7           0        2.141769    0.001960   -0.017872
     12          8           0        2.718837   -1.070126    0.038601
     13          8           0        2.712807    1.069503    0.122465
     14          7           0       -3.433731   -0.000586   -0.089869
     15          1           0       -3.879117   -0.887694    0.079786
     16          1           0       -3.906493    0.779523    0.336099
 ---------------------------------------------------------------------
                    Distance matrix (angstroms):
                    1          2          3          4          5
     1  C    0.000000
     2  C    1.387879   0.000000
     3  C    2.418375   1.386362   0.000000
     4  C    2.781383   2.383081   1.374592   0.000000
     5  C    2.406843   2.760433   2.406330   1.399520   0.000000
     6  C    1.373168   2.382926   2.781010   2.418003   1.401470
     7  H    1.078816   2.140600   3.390393   3.860031   3.390723
     8  H    3.390716   2.139364   1.078815   2.137764   3.389765
     9  H    3.863382   3.366045   2.130929   1.082062   2.153202
    10  H    2.131601   3.367193   3.862543   3.397407   2.152331
    11  N    2.449683   1.449624   2.447697   3.705877   4.210057
    12  O    3.539348   2.291982   2.707877   4.080713   4.903599
    13  O    2.710227   2.291666   3.536557   4.672067   4.903986
    14  N    3.648756   4.126415   3.656714   2.405404   1.366582
    15  H    4.415990   4.657538   3.911667   2.546239   2.015680
    16  H    3.951739   4.678422   4.417373   3.260946   2.035051
                    6          7          8          9         10
     6  C    0.000000
     7  H    2.136806   0.000000
     8  H    3.859662   4.272321   0.000000
     9  H    3.399577   4.942042   2.464829   0.000000
    10  H    1.081712   2.467227   4.941222   4.292590   0.000000
    11  N    3.705960   2.656681   2.654272   4.576513   4.578910
    12  O    4.673077   3.864986   2.400953   4.739963   5.630495
    13  O    4.081651   2.405581   3.861094   5.626895   4.745415
    14  N    2.394414   4.527915   4.538926   2.648989   2.626068
    15  H    3.270385   5.368253   4.624879   2.360971   3.609907
    16  H    2.599471   4.675099   5.359633   3.582883   2.438719
                   11         12         13         14         15
    11  N    0.000000
    12  O    1.218837   0.000000
    13  O    1.218781   2.141280   0.000000
    14  N    5.575965   6.246159   6.242604   0.000000
    15  H    6.087042   6.600603   6.876474   1.007031   0.000000
    16  H    6.108304   6.885108   6.629093   1.006739   1.687026
                   16
    16  H    0.000000
 Stoichiometry    C6H6N2O2
 Framework group  C1[X(C6H6N2O2)]
 Deg. of freedom    42
 Full point group                 C1      NOp   1
 Largest Abelian subgroup         C1      NOp   1
 Largest concise Abelian subgroup C1      NOp   1
                         Standard orientation:                         
 ---------------------------------------------------------------------
 Center     Atomic      Atomic             Coordinates (Angstroms)
 Number     Number       Type             X           Y           Z
 ---------------------------------------------------------------------
      1          6           0        0.017941    1.209939   -0.024777
      2          6           0        0.698636    0.000465   -0.030824
      3          6           0        0.020042   -1.208434   -0.022377
      4          6           0       -1.354382   -1.209204   -0.000966
      5          6           0       -2.061641   -0.001545   -0.001522
      6          6           0       -1.355216    1.208728   -0.019429
      7          1           0        0.569268    2.137140   -0.038284
      8          1           0        0.572358   -2.135139   -0.019707
      9          1           0       -1.892098   -2.147941    0.021265
     10          1           0       -1.897949    2.144214   -0.039586
     11          7           0        2.148179    0.000570   -0.046073
[...]
   D10       -3.14056   0.00000   0.00000   0.00000   0.00000  -3.14056
   D11        3.14008   0.00000   0.00000   0.00000   0.00000   3.14008
   D12       -0.00035   0.00000   0.00000   0.00000   0.00000  -0.00036
   D13        3.14083   0.00000   0.00000   0.00003   0.00003   3.14086
   D14       -0.00067   0.00000   0.00000   0.00003   0.00003  -0.00064
   D15        0.00060   0.00000   0.00000   0.00003   0.00003   0.00064
   D16       -3.14089   0.00000   0.00000   0.00003   0.00003  -3.14086
   D17       -0.00053   0.00000   0.00000   0.00000   0.00000  -0.00053
   D18        3.14062   0.00000   0.00000   0.00000   0.00000   3.14062
   D19        3.13989   0.00000   0.00000   0.00000   0.00000   3.13989
   D20       -0.00214   0.00000   0.00000   0.00000   0.00000  -0.00214
   D21        0.00117   0.00000   0.00000   0.00000   0.00000   0.00117
   D22        3.11951   0.00000   0.00000   0.00000   0.00000   3.11951
   D23       -3.13999   0.00000   0.00000   0.00000   0.00000  -3.13999
   D24       -0.02164   0.00000   0.00000   0.00000   0.00000  -0.02164
   D25       -0.00116   0.00000   0.00000   0.00000   0.00000  -0.00117
   D26        3.13999   0.00000   0.00000  -0.00001  -0.00001   3.13999
   D27       -3.11951   0.00000   0.00000   0.00000   0.00000  -3.11951
   D28        0.02165   0.00000   0.00000   0.00000   0.00000   0.02164
   D29        0.20452   0.00000   0.00000   0.00001   0.00001   0.20453
   D30        2.96078   0.00000   0.00000  -0.00001  -0.00001   2.96077
   D31       -2.96078   0.00000   0.00000   0.00001   0.00001  -2.96077
   D32       -0.20451   0.00000   0.00000  -0.00001  -0.00001  -0.20453
         Item               Value     Threshold  Converged?
 Maximum Force            0.000001     0.000015     YES
 RMS     Force            0.000000     0.000010     YES
 Maximum Displacement     0.000065     0.000060     NO 
 RMS     Displacement     0.000011     0.000040     YES
 Predicted change in Energy=-2.289415D-11
 GradGradGradGradGradGradGradGradGradGradGradGradGradGradGradGradGradGrad

 1|1|UNPC-QUANTUM-RYZEN5|Freq|RCAM-B3LYP|Gen|C6H6N2O2|JAKLER|18-Mar-202
 3|0||#N Geom=AllCheck Guess=TCheck SCRF=Check GenChk RCAM-B3LYP/ChkBas
  Freq||NA CAM-B3LYP def2-TZVPD - solvent CPCM dichloroethane||0,1|C,0.
 010628496,1.200923861,0.0328066026|C,0.7028975675,-0.0030447576,-0.001
 7822737|C,0.022585863,-1.2136842409,-0.0406010918|C,-1.3490935736,-1.2
 20987494,-0.0446948285|C,-2.0712675583,-0.0165512762,-0.0093800792|C,-
 1.3610592505,1.1948904936,0.0287533837|H,0.5565532572,2.1313498265,0.0
 636742686|H,0.5776991343,-2.138819802,-0.0661440118|H,-1.8836302068,-2
 .1610753675,-0.0757687737|H,-1.9048764252,2.1297971507,0.0546884931|N,
 2.1424093456,0.003896287,0.0043884708|O,2.7319951732,-1.0654608193,-0.
 0256160909|O,2.7213765122,1.0788845441,0.039509292|N,-3.4268552578,-0.
 0223614601,-0.0391526489|H,-3.9274949803,-0.8837954924,0.090471893|H,-
 3.9359564065,0.824611587,0.1424083047||Version=IA32W-G09RevD.01|State=
 1-A|HF=-492.1007149|RMSD=0.000e+000|RMSF=2.115e-006|ZeroPoint=0.120527
 6|Thermal=0.1288568|Dipole=-3.8168163,-0.0251188,0.2045001|DipoleDeriv
 =1.0097139,-0.1492888,0.0049202,-0.5531482,0.1091603,0.0020934,-0.0110
 488,0.0042804,-0.0442506,-2.0440261,-0.008292,-0.0180977,-0.0086223,-0
 .2602667,-0.0067292,-0.0065611,-0.00665,-0.0418819,1.0026641,0.1575703
 ,0.0142199,0.5616274,0.1160133,0.0075293,0.0227985,0.0052222,-0.044114
 6,-1.0971583,0.0297847,-0.0105763,0.8984703,-0.0306431,0.0221208,0.039
 1608,0.0087472,-0.2505695,3.1551164,0.0125253,0.0625596,0.0114023,0.24
 04726,0.0016842,0.1001965,0.0018428,0.1955838,-1.0878797,-0.0395697,-0
 .0125489,-0.9096679,-0.0388956,-0.0090579,-0.0157964,0.0046336,-0.2516
 894,0.140766,-0.0460286,-0.0011244,-0.0365111,0.0617731,-0.0035219,-0.
 0026098,-0.0033228,0.1657843,0.1399399,0.0467855,0.0016996,0.0373811,0
 .0625739,-0.0027797,-0.000354,-0.0029931,0.1658374,0.007983,-0.0809577
 ,-0.0020145,-0.0839383,-0.0162731,-0.0056277,-0.0014286,-0.004355,0.17
 83653,0.0063501,0.0811604,0.0029235,0.0840913,-0.0145203,-0.0061731,0.
 0036918,-0.0074238,0.1782722,3.968591,0.0073372,0.0244985,0.007667,2.3
 35026,0.0611502,0.013124,0.0611244,0.326068,-1.4892024,0.5882379,0.010
 8698,0.8746931,-1.3605277,-0.0250881,0.0220209,-0.0287545,-0.3315513,-
 1.4747061,-0.5889335,-0.0248135,-0.8755286,-1.3744707,-0.0379087,-0.03
 11178,-0.0342466,-0.3320855,-2.7809023,-0.0100582,-0.0857938,0.000835,
 -0.2211993,0.0123191,-0.4444371,0.0105026,-0.6396949,0.2702987,0.06094
 7,0.0183976,0.151537,0.1954987,0.0138755,0.1607781,0.0247383,0.3644231
 ,0.2724519,-0.0612196,0.0148805,-0.160288,0.1962787,-0.0238863,0.15158
 31,-0.0333457,0.3615037|Polar=222.9656205,0.3940285,135.4165097,1.2930
 721,1.9425106,71.7622221|PG=C01 [X(C6H6N2O2)]|NImag=0||0.73348461,0.04
 471239,0.73431500,0.00336667,0.01818066,0.14954701,-0.14072592,0.10125
 792,0.00288362,0.57624922,0.04685144,-0.28954216,-0.00666624,-0.000957
 17,0.75966839,0.00112333,-0.00650585,-0.06559995,0.00148173,0.01897800
 ,0.13624727,0.05329337,-0.02080013,-0.00052537,-0.13927237,-0.04534331
 ,-0.00167866,0.73437444,0.02190941,-0.05935771,-0.00204162,-0.09975648
 ,-0.29096259,-0.00716837,-0.04484083,0.73347184,0.00077284,-0.00210875
 ,0.00887282,-0.00322871,-0.00701254,-0.06562895,0.00065299,0.01740443,
 0.14950228,-0.04227619,0.03115271,0.00083071,-0.04728428,-0.07478753,-
 0.00239322,-0.38074022,0.03205379,-0.00015702,0.74736168,0.01697973,-0
 .01465941,-0.00030585,-0.01548221,0.03060456,0.00057518,-0.03903748,-0
 .13554401,-0.00220407,0.04926161,0.70081464,0.00062055,-0.00038654,-0.
 00289977,-0.00041795,0.00081014,0.00884262,-0.00268059,-0.00234014,-0.
 06189314,0.00409584,0.01753373,0.12967084,-0.04196376,-0.02893331,-0.0
 0055704,0.03273864,0.00052858,0.00006446,-0.04303650,0.02805477,0.0011
 7568,-0.14967440,0.08456681,0.00290222,0.72979521,-0.08026657,0.043751
 81,0.00122849,0.00047825,-0.07436492,-0.00203101,0.07946855,0.04481124
 ,0.00137316,0.02863769,-0.26865907,-0.00584596,0.00033701,0.68938796,-
 0.00344714,0.00112620,0.00155791,0.00172331,-0.00202709,-0.00760862,0.
 00140975,0.00146576,0.00157142,0.00153560,-0.00735151,-0.07363936,-0.0
 0450020,0.01554088,0.17797936,-0.38078136,-0.03441185,-0.00217280,-0.0
 4817075,0.07401522,0.00212853,-0.04179612,-0.03141436,-0.00106957,0.05
 641097,-0.01062365,-0.00027271,-0.14856495,-0.02748956,-0.00018449,0.7
 4832917,0.03670156,-0.13550203,-0.00228601,0.01469986,0.03149484,0.000
 77389,-0.01725462,-0.01513749,-0.00042529,0.01159121,-0.04161076,-0.00
 143304,-0.08339834,-0.26985374,-0.00454915,-0.04895096,0.69986651,-0.0
 0037506,-0.00215698,-0.06188931,0.00050058,0.00054850,0.00883964,-0.00
 042294,-0.00034347,-0.00289873,0.00040445,-0.00155208,0.00742458,-0.00
 220363,-0.00605863,-0.07355583,0.00110836,0.01722298,0.12964793,-0.129
 89943,-0.12585861,-0.00419230,0.01314086,0.01225702,0.00040468,-0.0016
 6590,0.00336769,0.00007372,-0.00075723,0.00047021,0.00001391,-0.004832
 78,0.00088742,-0.00007019,-0.00997071,-0.02674391,-0.00090128,0.135092
 58,-0.12457434,-0.27989310,-0.00784225,-0.01492007,-0.01824683,-0.0007
 9141,0.00392906,-0.00302807,-0.00022599,0.00049940,0.00052271,0.000056
 26,0.00156215,0.00120293,-0.00021026,0.00204053,0.00600287,0.00000535,
 0.13644810,0.29183618,-0.00416403,-0.00787021,-0.04225538,-0.00047292,
 -0.00067328,0.00555048,0.00010190,-0.00021990,0.00466946,-0.00000089,0
 .00008398,-0.00122928,-0.00003954,-0.00025054,0.00898247,0.00006391,-0
 .00007182,0.00597551,0.00460795,0.00870289,0.02771035,-0.00159387,-0.0
 0335161,-0.00013047,0.01311153,-0.01194834,-0.00033185,-0.13239448,0.1
 2734301,0.00349930,-0.01021389,0.02658886,0.00072031,-0.00480777,-0.00
 094094,-0.00012631,-0.00074755,-0.00048266,-0.00001464,0.00060654,-0.0
 0075803,-0.00002288,0.13781083,-0.00391364,-0.00309867,-0.00024395,0.0
 1523196,-0.01821828,-0.00065691,0.12605896,-0.27747587,-0.00655087,-0.
 00220040,0.00624135,0.00000059,-0.00161641,0.00117921,-0.00026301,-0.0
 0051092,0.00051496,0.00004834,0.00077181,-0.00078575,-0.00004049,-0.13
 800323,0.28920075,-0.00013687,-0.00025121,0.00466915,0.00044497,-0.000
 77388,0.00555064,0.00344886,-0.00652469,-0.04217741,-0.00006492,0.0000
 8041,0.00597890,-0.00013636,-0.00022422,0.00898204,-0.00003146,0.00002
 266,-0.00123209,0.00002374,-0.00004804,0.00067237,-0.00372927,0.007298
 23,0.02762717,-0.00087631,0.00054553,0.00001269,-0.00445834,0.00170502
 ,0.00000559,-0.01249299,-0.02914442,-0.00092570,-0.12725688,-0.1198159
 8,-0.00389720,0.01011535,0.01529763,0.00047303,-0.00130342,0.00302404,
 0.00004375,0.00004668,-0.00009277,0.00000460,0.00145534,0.00026594,0.0
 0003180,0.13322427,0.00129335,-0.00018425,0.00001852,0.00049734,0.0018
 9802,-0.00018395,0.00184729,0.00458010,0.00005862,-0.11989945,-0.27507
 521,-0.00788953,-0.01594755,-0.01891724,-0.00073210,0.00340290,-0.0030
 9398,-0.00021175,-0.00007512,0.00000094,0.00001285,-0.00027319,0.00074
 129,0.00019419,0.12956438,0.28879311,0.00006267,0.00000801,-0.00082421
 ,0.00000800,-0.00014437,0.00772348,0.00002635,0.00000679,0.00286996,-0
 .00396315,-0.00798865,-0.03553612,-0.00060075,-0.00060051,0.00433956,0
 .00007383,-0.00024916,0.00511337,0.00000343,0.00001592,-0.00054319,0.0
 0000411,0.00017811,-0.00529196,0.00415271,0.00871751,0.02459292,-0.012
 76171,0.02897549,0.00084068,-0.00443581,-0.00176483,-0.00009961,-0.000
 85825,-0.00055198,-0.00002143,-0.00123983,-0.00300291,-0.00013854,0.01
 010599,-0.01501061,-0.00044907,-0.12964455,0.12127245,0.00342751,0.001
 45524,-0.00026045,0.00001602,0.00004501,0.00009274,0.00001035,0.000551
 20,-0.00070052,-0.00001499,0.13580482,-0.00201656,0.00484630,0.0000531
 3,-0.00055985,0.00187691,-0.00017117,-0.00130118,-0.00020309,0.0000200
 1,-0.00338288,-0.00315507,-0.00028919,0.01624207,-0.01890249,-0.000683
 99,0.12135964,-0.27276866,-0.00662395,0.00027944,0.00074171,0.00017301
 ,0.00007513,0.00000233,0.00002005,0.00071475,-0.00092503,-0.00001454,-
 0.13109360,0.28629684,-0.00009128,0.00010483,0.00287195,-0.00002414,-0
 .00021090,0.00772199,-0.00001615,0.00003055,-0.00082447,-0.00013247,-0
 .00025237,0.00511282,0.00037924,-0.00081516,0.00433312,0.00336503,-0.0
 0652652,-0.03545447,0.00002072,0.00018927,-0.00529259,0.00000798,0.000
 01746,-0.00054297,0.00002805,-0.00002047,-0.00035213,-0.00376576,0.007
 29178,0.02450891,-0.05666544,0.02881992,0.00070830,-0.12520321,-0.0000
 3099,-0.00015760,-0.05611302,-0.02950175,-0.00106095,0.02440706,-0.016
 54898,-0.00070862,-0.03373431,-0.00008815,-0.00164587,0.02419037,0.016
 86459,0.00030921,0.00008356,-0.00304355,-0.00004859,0.00004816,0.00307
 192,0.00013628,0.00052361,0.00074162,-0.00000779,0.00051482,-0.0007372
 7,-0.00005314,0.66477538,0.02625050,0.01392637,0.00070420,-0.00002906,
 -0.11818752,-0.00107500,-0.02692878,0.01338994,0.00045604,-0.00501830,
 -0.00647607,-0.00041024,-0.00013381,-0.00581460,-0.00014727,0.00531337
 ,-0.00626452,-0.00043779,-0.00047915,-0.00308180,0.00003022,0.00050891
 ,-0.00304707,0.00004045,-0.00161952,0.00027034,-0.00003135,0.00162257,
 0.00027950,-0.00004559,-0.00123796,0.90398236,0.00058449,0.00072019,-0
 .00547569,-0.00022397,-0.00107862,-0.08281268,-0.00103094,0.00044281,-
 0.00548955,-0.00004039,-0.00050729,0.00765018,-0.00015170,-0.00013670,
 -0.00133907,0.00027302,-0.00034512,0.00765598,0.00000505,0.00002914,-0
 .00423280,0.00003490,0.00004275,-0.00423268,-0.00005519,-0.00004271,0.
 00152063,0.00004320,-0.00003311,0.00151987,0.00168200,0.01969565,0.256
 39737,0.00097192,-0.01050108,-0.00034656,-0.04852663,0.05286161,0.0013
 2005,0.00205093,0.00495766,0.00015515,-0.00434482,0.00434839,0.0001726
 2,0.00913469,0.00236872,0.00051128,-0.00783767,-0.00190720,-0.00000182
 ,0.00067248,0.00009149,-0.00000313,-0.00344383,0.00081855,0.00000824,-
 0.00028457,-0.00026238,-0.00000152,-0.00105697,0.00006779,0.00001665,-
 0.23816468,0.16714152,0.00441333,0.24897902,-0.00467744,0.00600004,0.0
 0003221,0.04569947,-0.01146662,-0.00079392,-0.01388035,-0.00980282,-0.
 00037600,0.00630330,-0.00216350,-0.00009980,-0.00884555,-0.00006007,-0
 .00042339,0.00550031,0.00409312,0.00011146,-0.00088772,0.00114127,0.00
 003502,-0.00097049,0.00339162,0.00009358,0.00017296,0.00009942,-0.0000
 0183,0.00034481,-0.00009356,0.00000885,0.16404766,-0.39312224,-0.00866
 025,-0.21087089,0.54039352,-0.00014706,-0.00001048,0.00469567,0.001106
 59,-0.00075389,0.02080954,-0.00041274,-0.00030438,0.00104575,0.0001689
 8,-0.00002450,-0.00072548,-0.00024143,-0.00000032,0.00027420,0.0001296
 8,0.00014503,-0.00110648,-0.00002708,0.00002730,0.00022319,-0.00004235
 ,0.00009365,0.00038197,0.00000267,0.00000389,-0.00003173,0.00000987,0.
 00001652,-0.00070411,0.00433108,-0.00866507,-0.08519089,-0.00549582,0.
 01459455,0.03133997,0.00196140,-0.00484165,-0.00014314,-0.04754704,-0.
 05320086,-0.00189923,0.00082196,0.01045124,0.00028897,-0.00780078,0.00
 178599,0.00011138,0.00906961,-0.00230455,0.00036434,-0.00423909,-0.004
 37128,-0.00009272,-0.00344471,-0.00088520,-0.00004354,0.00066468,-0.00
 009583,-0.00000827,-0.00105278,-0.00007823,0.00001188,-0.00028540,0.00
 025810,0.00001443,-0.23490073,-0.16553392,-0.00568367,0.05036721,0.010
 68093,0.00042332,0.24483184,0.01399600,-0.00971445,-0.00028090,-0.0460
 3833,-0.01241937,-0.00120188,0.00462515,0.00614615,0.00005359,-0.00561
 479,0.00405206,0.00020059,0.00893449,-0.00001982,0.00041081,-0.0063218
 8,-0.00227114,0.00000583,0.00090357,0.00339251,0.00008995,0.00088300,0
 .00114916,0.00002130,-0.00035441,-0.00009815,0.00002850,-0.00017667,0.
 00010001,0.00001055,-0.16244099,-0.39629746,-0.01016190,-0.00881381,-0
 .13876098,-0.00513108,0.20788767,0.54442906,0.00043467,-0.00035327,0.0
 0104661,-0.00167757,-0.00123843,0.02078414,0.00013506,0.00009348,0.004
 69646,-0.00020781,0.00016961,-0.00109970,0.00029861,-0.00001926,0.0002
 9716,-0.00021459,-0.00006617,-0.00072276,0.00001458,0.00008930,0.00038
 140,0.00002684,0.00002859,0.00022338,-0.00001148,0.00002032,-0.0007038
 2,-0.00000777,0.00000388,-0.00003093,-0.00557791,-0.01015795,-0.085279
 10,-0.00016930,-0.00506453,0.02895963,0.00721348,0.01648399,0.03145136
 ,0.01871853,-0.00534452,-0.00010752,-0.03146591,-0.00019276,-0.0000083
 2,0.01872546,0.00563277,0.00021973,-0.05495780,0.02541654,-0.00005677,
 -0.34106434,-0.00079740,-0.00718310,-0.05419947,-0.02592719,-0.0016075
 9,-0.00023184,-0.00011346,-0.00004062,-0.00024622,0.00011092,-0.000032
 95,0.00222765,-0.00129508,-0.00007458,0.00221826,0.00130071,0.00000145
 ,0.03182018,0.00015220,0.00011719,-0.00897418,0.00784992,0.00020504,-0
 .00889866,-0.00794049,-0.00027439,0.75304892,0.00635189,-0.01071563,-0
 .00094367,-0.00002578,0.00768201,0.00025206,-0.00626286,-0.01077470,0.
 00001457,0.05080769,0.00225367,0.00094297,-0.00165697,-0.13589708,-0.0
 0286299,-0.05115350,0.00183212,-0.00145513,-0.00135197,0.00018737,0.00
 004491,0.00133997,0.00020118,-0.00001442,0.00033772,0.00186930,-0.0002
 2004,-0.00032826,0.00186153,0.00048268,-0.00001330,0.00048881,0.000031
 17,-0.00028846,0.00036654,0.00000134,0.00028714,0.00037633,0.00002064,
 0.00224457,0.85926572,0.00351987,-0.00080410,0.00453302,-0.00551669,0.
 00022677,-0.00063380,0.00313343,-0.00009543,0.00458352,-0.00199877,0.0
 0408689,0.01043269,0.02108513,-0.00272516,-0.04292724,-0.00505495,-0.0
 0462121,0.01009572,0.00008575,-0.00002355,-0.00030822,0.00016757,0.000
 05544,-0.00030763,-0.00008925,0.00019904,-0.00245760,-0.00010874,0.000
 06278,-0.00244078,0.00554210,0.00005682,-0.00051377,-0.00151110,0.0014
 2283,0.00005060,-0.00147974,-0.00141477,-0.00003530,-0.09124392,0.0243
 8188,0.04312342,-0.00027896,-0.00159096,-0.00017467,0.00091173,0.00030
 228,0.00002928,-0.00058988,-0.00015008,-0.00029827,0.00258026,-0.00178
 714,-0.00065388,-0.01646420,-0.03310186,0.00480059,-0.00427247,0.00304
 013,0.00037305,-0.00034744,0.00008419,0.00000040,0.00005174,0.00000530
 ,0.00004115,-0.00049239,0.00106214,0.00028678,0.00007347,-0.00012573,0
 .00002498,-0.00077876,0.00003571,0.00001709,0.00019857,-0.00016198,-0.
 00000069,0.00024895,0.00030145,0.00000832,-0.16176295,-0.16073719,0.03
 159328,0.16741676,-0.00113849,0.00059503,0.00001468,0.00230030,0.00011
 333,0.00001437,-0.00149431,-0.00075088,-0.00038400,0.00350443,0.000772
 23,-0.00029768,-0.00257834,0.00602590,-0.00041437,0.00279734,0.0020310
 4,0.00045068,0.00004018,0.00002591,-0.00001843,0.00002986,-0.00001929,
 0.00001896,-0.00046742,-0.00019611,0.00027713,0.00013126,0.00023374,0.
 00003662,-0.00242398,-0.00003756,0.00010563,0.00065896,-0.00063736,-0.
 00003415,0.00063977,0.00060580,-0.00000504,-0.16245431,-0.36470808,0.0
 4176249,0.17635909,0.37119944,-0.00144229,0.00015268,0.00186969,0.0017
 7949,-0.00028370,0.00009864,-0.00077209,-0.00016348,-0.00075290,0.0012
 0246,-0.00099237,-0.00184850,-0.00880387,-0.00303461,-0.00474846,0.000
 88102,0.00125236,0.00386835,-0.00005789,0.00002304,-0.00043898,-0.0000
 0303,-0.00001251,0.00013612,0.00021793,-0.00011849,0.00025813,0.000013
 51,0.00008126,-0.00067327,-0.00179954,-0.00003652,-0.00008686,0.000497
 86,-0.00045428,-0.00001794,0.00046969,0.00046596,0.00002208,0.04479126
 ,0.05615114,-0.00798491,-0.03198326,-0.04688523,0.01335750,-0.00060690
 ,0.00016974,-0.00029278,0.00093827,-0.00029536,0.00001084,-0.00030644,
 0.00158955,-0.00007670,-0.00421364,-0.00311981,0.00018943,-0.01681649,
 0.03252435,0.00678848,0.00259760,0.00184231,-0.00054724,0.00005209,-0.
 00000702,0.00004137,-0.00034621,-0.00008765,-0.00000529,0.00007357,0.0
 0012249,0.00003302,-0.00048629,-0.00108056,0.00022441,-0.00080299,-0.0
 0004431,0.00001560,0.00025852,-0.00030493,-0.00001006,0.00020353,0.000
 17003,0.00000927,-0.16495763,0.16044931,0.04187602,0.01350557,-0.01590
 435,-0.00499125,0.17090745,0.00154078,-0.00076710,0.00037860,-0.002396
 16,0.00007024,-0.00001402,0.00121484,0.00063796,-0.00009289,-0.0029084
 8,0.00208188,-0.00055217,0.00288439,0.00612999,0.00112147,-0.00355262,
 0.00066686,0.00044663,-0.00002895,-0.00001886,-0.00002816,-0.00004022,
 0.00002308,0.00004662,-0.00013345,0.00023744,0.00001847,0.00045049,-0.
 00019097,-0.00030158,0.00252119,-0.00000848,-0.00010164,-0.00067086,0.
 00062163,0.00004158,-0.00067934,-0.00066972,-0.00000514,0.16135755,-0.
 35428907,-0.06257071,0.01646465,-0.01525316,-0.00614526,-0.17602380,0.
 36072827,-0.00068138,0.00015482,-0.00071952,0.00163368,0.00029955,0.00
 011554,-0.00136885,-0.00024234,0.00185347,0.00072059,-0.00135111,0.003
 75871,-0.00867081,0.00359954,-0.00449867,0.00097718,0.00115657,-0.0017
 6143,-0.00000480,0.00000303,0.00013520,-0.00006021,0.00000457,-0.00043
 701,0.00000601,-0.00002594,-0.00067731,0.00024479,0.00009353,0.0002470
 7,-0.00164896,0.00002339,-0.00009095,0.00043408,-0.00042450,-0.0000039
 0,0.00045284,0.00041948,0.00000939,0.05529509,-0.07682711,-0.01520971,
 -0.00406413,0.00535832,-0.00305871,-0.04326512,0.06775820,0.02033782||
 0.00000158,-0.00000049,0.00000120,-0.00000197,0.00000082,0.00000233,0.
 00000044,-0.00000039,0.00000078,0.00000017,-0.00000009,-0.00000106,0.0
 0000126,0.00000137,-0.00000225,-0.00000203,-0.00000115,-0.00000134,-0.
 00000005,-0.00000008,0.00000196,-0.00000016,-0.00000008,0.00000209,-0.
 00000002,0.00000009,-0.00000205,0.00000034,0.00000026,-0.00000188,0.00
 000197,-0.00000011,0.00000449,-0.00000043,0.00000032,0.00000565,-0.000
 00047,-0.00000071,0.00000541,-0.00000089,-0.00000030,-0.00000433,0.000
 00010,0.00000033,-0.00000551,0.00000015,0.00000022,-0.00000549|||@


 "ANNA, YOU MUSN'T SPEAK OF OXIDIZED MURIATIC ACID
 ANYMORE, FROM NOW ON YOU MUST SAY CHLORINE."
   -- JENS JACOB BERZELIUS, IN 1820, TO HIS COOK, WHO HAD
 COMPLAINED OF THE SMELL OF THE FLASK SHE WAS CLEANING.
 Job cpu time:       0 days  4 hours 38 minutes 25.0 seconds.
 File lengths (MBytes):  RWF=    370 Int=      0 D2E=      0 Chk=     16 Scr=      1
 Normal termination of Gaussian 09 at Sat Mar 18 12:57:33 2023.
