 Entering Gaussian System, Link 0=g09
 Initial command:
 /apps/software//g09/l1.exe /scratch/matheusmaximo/54056.cluster.abaxnet/Gau-151415.inp -scrdir=/scratch/matheusmaximo/54056.cluster.abaxnet/
 Entering Link 1 = /apps/software//g09/l1.exe PID=    151416.
  
 Copyright (c) 1988,1990,1992,1993,1995,1998,2003,2009, Gaussian, Inc.
                  All Rights Reserved.
  
 This is part of the Gaussian(R) 09 program.  It is based on
 the Gaussian(R) 03 system (copyright 2003, Gaussian, Inc.),
 the Gaussian(R) 98 system (copyright 1998, Gaussian, Inc.),
 the Gaussian(R) 94 system (copyright 1995, Gaussian, Inc.),
 the Gaussian 92(TM) system (copyright 1992, Gaussian, Inc.),
 the Gaussian 90(TM) system (copyright 1990, Gaussian, Inc.),
 the Gaussian 88(TM) system (copyright 1988, Gaussian, Inc.),
 the Gaussian 86(TM) system (copyright 1986, Carnegie Mellon
 University), and the Gaussian 82(TM) system (copyright 1983,
 Carnegie Mellon University). Gaussian is a federally registered
 trademark of Gaussian, Inc.
  
 This software contains proprietary and confidential information,
 including trade secrets, belonging to Gaussian, Inc.
  
 This software is provided under written license and may be
 used, copied, transmitted, or stored only in accord with that
 written license.
  
 The following legend is applicable only to US Government
 contracts under FAR:
  
                    RESTRICTED RIGHTS LEGEND
  
 Use, reproduction and disclosure by the US Government is
 subject to restrictions as set forth in subparagraphs (a)
 and (c) of the Commercial Computer Software - Restricted
 Rights clause in FAR 52.227-19.
  
 Gaussian, Inc.
 340 Quinnipiac St., Bldg. 40, Wallingford CT 06492
  
  
 ---------------------------------------------------------------
 Warning -- This program may not be used in any manner that
 competes with the business of Gaussian, Inc. or will provide
 assistance to any competitor of Gaussian, Inc.  The licensee
 of this program is prohibited from giving any competitor of
 Gaussian, Inc. access to this program.  By using this program,
 the user acknowledges that Gaussian, Inc. is engaged in the
 business of creating and licensing software in the field of
 computational chemistry and represents and warrants to the
 licensee that it is not a competitor of Gaussian, Inc. and that
 it will not use this program in any manner prohibited above.
 ---------------------------------------------------------------
  

 Cite this work as:
 Gaussian 09, Revision A.02,
 M. J. Frisch, G. W. Trucks, H. B. Schlegel, G. E. Scuseria, 
 M. A. Robb, J. R. Cheeseman, G. Scalmani, V. Barone, B. Mennucci, 
 G. A. Petersson, H. Nakatsuji, M. Caricato, X. Li, H. P. Hratchian, 
 A. F. Izmaylov, J. Bloino, G. Zheng, J. L. Sonnenberg, M. Hada, 
 M. Ehara, K. Toyota, R. Fukuda, J. Hasegawa, M. Ishida, T. Nakajima, 
 Y. Honda, O. Kitao, H. Nakai, T. Vreven, J. A. Montgomery, Jr., 
 J. E. Peralta, F. Ogliaro, M. Bearpark, J. J. Heyd, E. Brothers, 
 K. N. Kudin, V. N. Staroverov, R. Kobayashi, J. Normand, 
 K. Raghavachari, A. Rendell, J. C. Burant, S. S. Iyengar, J. Tomasi, 
 M. Cossi, N. Rega, J. M. Millam, M. Klene, J. E. Knox, J. B. Cross, 
 V. Bakken, C. Adamo, J. Jaramillo, R. Gomperts, R. E. Stratmann, 
 O. Yazyev, A. J. Austin, R. Cammi, C. Pomelli, J. W. Ochterski, 
 R. L. Martin, K. Morokuma, V. G. Zakrzewski, G. A. Voth, 
 P. Salvador, J. J. Dannenberg, S. Dapprich, A. D. Daniels, 
 O. Farkas, J. B. Foresman, J. V. Ortiz, J. Cioslowski, 
 and D. J. Fox, Gaussian, Inc., Wallingford CT, 2009.
 
 ******************************************
 Gaussian 09:  EM64L-G09RevA.02 11-Jun-2009
                17-Jan-2023 
 ******************************************
 %chk=/home/matheusmaximo/Gaussian/S0solvents/DMSO/1.chk
 ----------------------------------------------------------------------
 # opt=tight freq cam-b3lyp/gen geom=connectivity scf=qc int=ultrafine 
 scrf=(cpcm,solvent=DMSO)
 ----------------------------------------------------------------------
 1/7=10,14=-1,18=20,19=15,26=3,38=1,57=2/1,3;
 2/9=110,12=2,17=6,18=5,40=1/2;
 3/5=7,11=2,16=1,25=1,30=1,70=2101,71=1,72=21,74=-40,75=-5/1,2,3;
 4//1;
 5/5=2,8=3,38=5,53=21/8;
 6/7=2,8=2,9=2,10=2,28=1/1;
 7//1,2,3,16;
 1/7=10,14=-1,18=20,19=15/3(2);
 2/9=110/2;
 99//99;
 2/9=110/2;
 3/5=7,6=1,11=2,16=1,25=1,30=1,70=2105,71=1,72=21,74=-40,75=-5,82=7/1,2,3;
 4/5=5,16=3/1;
 5/5=2,8=3,38=5,53=21/8;
 7//1,2,3,16;
 1/7=10,14=-1,18=20,19=15/3(-5);
 2/9=110/2;
 6/7=2,8=2,9=2,10=2,19=2,28=1/1;
 99/9=1/99;
 -------------------------------------------
 NA CAM-B3LYP def2-TZVPD - solvent CPCM DMSO
 -------------------------------------------
 Symbolic Z-matrix:
 Charge =  0 Multiplicity = 1
 C                     0.18939   0.18182   0. 
 C                     0.18968   0.86558  -1.21174 
 C                     0.18939   0.18182  -2.42347 
 C                     0.18939  -1.19994  -2.42212 
 C                     0.19039  -1.91472  -1.21174 
 C                     0.18939  -1.19994  -0.00136 
 H                     0.18981   0.74124   0.92693 
 H                     0.18981   0.74124  -3.35041 
 H                     0.18489  -1.73987  -3.36381 
 H                     0.18489  -1.73987   0.94034 
 N                     0.19194   2.31945  -1.21174 
 O                     0.19303   2.89519  -2.29444 
 O                     0.19303   2.89519  -0.12903 
 N                    -0.27633  -3.20653  -1.16287 
 H                    -0.38663  -3.71586  -2.02486 
 H                    -0.06897  -3.76737  -0.35227 
 

 GradGradGradGradGradGradGradGradGradGradGradGradGradGradGradGradGradGrad
 Berny optimization.
 Initialization pass.
                           ----------------------------
                           !    Initial Parameters    !
                           ! (Angstroms and Degrees)  !
 --------------------------                            --------------------------
 ! Name  Definition              Value          Derivative Info.                !
 --------------------------------------------------------------------------------
 ! R1    R(1,2)                  1.3913         estimate D2E/DX2                !
 ! R2    R(1,6)                  1.3818         estimate D2E/DX2                !
 ! R3    R(1,7)                  1.0827         estimate D2E/DX2                !
 ! R4    R(2,3)                  1.3913         estimate D2E/DX2                !
 ! R5    R(2,11)                 1.4539         estimate D2E/DX2                !
 ! R6    R(3,4)                  1.3818         estimate D2E/DX2                !
 ! R7    R(3,8)                  1.0827         estimate D2E/DX2                !
 ! R8    R(4,5)                  1.4057         estimate D2E/DX2                !
 ! R9    R(4,9)                  1.0855         estimate D2E/DX2                !
 ! R10   R(5,6)                  1.4057         estimate D2E/DX2                !
 ! R11   R(5,14)                 1.3744         estimate D2E/DX2                !
 ! R12   R(6,10)                 1.0855         estimate D2E/DX2                !
 ! R13   R(11,12)                1.2263         estimate D2E/DX2                !
 ! R14   R(11,13)                1.2263         estimate D2E/DX2                !
 ! R15   R(14,15)                1.0073         estimate D2E/DX2                !
 ! R16   R(14,16)                1.0073         estimate D2E/DX2                !
 ! A1    A(2,1,6)              119.3789         estimate D2E/DX2                !
 ! A2    A(2,1,7)              119.453          estimate D2E/DX2                !
 ! A3    A(6,1,7)              121.1681         estimate D2E/DX2                !
 ! A4    A(1,2,3)              121.1297         estimate D2E/DX2                !
 ! A5    A(1,2,11)             119.4351         estimate D2E/DX2                !
 ! A6    A(3,2,11)             119.4351         estimate D2E/DX2                !
 ! A7    A(2,3,4)              119.3789         estimate D2E/DX2                !
 ! A8    A(2,3,8)              119.453          estimate D2E/DX2                !
 ! A9    A(4,3,8)              121.1681         estimate D2E/DX2                !
 ! A10   A(3,4,5)              120.6198         estimate D2E/DX2                !
 ! A11   A(3,4,9)              119.7722         estimate D2E/DX2                !
 ! A12   A(5,4,9)              119.6076         estimate D2E/DX2                !
 ! A13   A(4,5,6)              118.8727         estimate D2E/DX2                !
 ! A14   A(4,5,14)             120.5512         estimate D2E/DX2                !
 ! A15   A(6,5,14)             116.5567         estimate D2E/DX2                !
 ! A16   A(1,6,5)              120.6198         estimate D2E/DX2                !
 ! A17   A(1,6,10)             119.7722         estimate D2E/DX2                !
 ! A18   A(5,6,10)             119.6076         estimate D2E/DX2                !
 ! A19   A(2,11,12)            118.0025         estimate D2E/DX2                !
 ! A20   A(2,11,13)            118.0025         estimate D2E/DX2                !
 ! A21   A(12,11,13)           123.995          estimate D2E/DX2                !
 ! A22   A(5,14,15)            118.818          estimate D2E/DX2                !
 ! A23   A(5,14,16)            118.818          estimate D2E/DX2                !
 ! A24   A(15,14,16)           115.4465         estimate D2E/DX2                !
 ! D1    D(6,1,2,3)              0.0277         estimate D2E/DX2                !
 ! D2    D(6,1,2,11)          -179.8976         estimate D2E/DX2                !
 ! D3    D(7,1,2,3)            179.9891         estimate D2E/DX2                !
 ! D4    D(7,1,2,11)             0.0637         estimate D2E/DX2                !
 ! D5    D(2,1,6,5)              0.0337         estimate D2E/DX2                !
 ! D6    D(2,1,6,10)          -179.7399         estimate D2E/DX2                !
 ! D7    D(7,1,6,5)           -179.927          estimate D2E/DX2                !
 ! D8    D(7,1,6,10)             0.2995         estimate D2E/DX2                !
 ! D9    D(1,2,3,4)             -0.0277         estimate D2E/DX2                !
 ! D10   D(1,2,3,8)           -179.9891         estimate D2E/DX2                !
 ! D11   D(11,2,3,4)           179.8976         estimate D2E/DX2                !
 ! D12   D(11,2,3,8)            -0.0637         estimate D2E/DX2                !
 ! D13   D(1,2,11,12)          179.9532         estimate D2E/DX2                !
 ! D14   D(1,2,11,13)           -0.0265         estimate D2E/DX2                !
 ! D15   D(3,2,11,12)            0.0265         estimate D2E/DX2                !
 ! D16   D(3,2,11,13)         -179.9532         estimate D2E/DX2                !
 ! D17   D(2,3,4,5)             -0.0337         estimate D2E/DX2                !
 ! D18   D(2,3,4,9)            179.7399         estimate D2E/DX2                !
 ! D19   D(8,3,4,5)            179.927          estimate D2E/DX2                !
 ! D20   D(8,3,4,9)             -0.2995         estimate D2E/DX2                !
 ! D21   D(3,4,5,6)              0.093          estimate D2E/DX2                !
 ! D22   D(3,4,5,14)           156.7742         estimate D2E/DX2                !
 ! D23   D(9,4,5,6)           -179.6809         estimate D2E/DX2                !
 ! D24   D(9,4,5,14)           -22.9997         estimate D2E/DX2                !
 ! D25   D(4,5,6,1)             -0.093          estimate D2E/DX2                !
 ! D26   D(4,5,6,10)           179.6809         estimate D2E/DX2                !
 ! D27   D(14,5,6,1)          -157.691          estimate D2E/DX2                !
 ! D28   D(14,5,6,10)           22.0829         estimate D2E/DX2                !
 ! D29   D(4,5,14,15)           16.1258         estimate D2E/DX2                !
 ! D30   D(4,5,14,16)          165.7128         estimate D2E/DX2                !
 ! D31   D(6,5,14,15)          173.325          estimate D2E/DX2                !
 ! D32   D(6,5,14,16)          -37.088          estimate D2E/DX2                !
 --------------------------------------------------------------------------------
 Trust Radius=3.00D-01 FncErr=1.00D-07 GrdErr=1.00D-06
 Number of steps in this run=  82 maximum allowed number of steps= 100.
 GradGradGradGradGradGradGradGradGradGradGradGradGradGradGradGradGradGrad

                          Input orientation:                          
 ---------------------------------------------------------------------
 Center     Atomic      Atomic             Coordinates (Angstroms)
 Number     Number       Type             X           Y           Z
 ---------------------------------------------------------------------
      1          6           0        0.189394    0.181818    0.000000
      2          6           0        0.189682    0.865575   -1.211735
      3          6           0        0.189394    0.181818   -2.423471
      4          6           0        0.189394   -1.199937   -2.422115
      5          6           0        0.190393   -1.914717   -1.211735
      6          6           0        0.189394   -1.199937   -0.001356
      7          1           0        0.189810    0.741243    0.926934
      8          1           0        0.189810    0.741243   -3.350405
      9          1           0        0.184892   -1.739874   -3.363808
     10          1           0        0.184892   -1.739874    0.940337
     11          7           0        0.191945    2.319446   -1.211735
     12          8           0        0.193033    2.895192   -2.294443
     13          8           0        0.193033    2.895192   -0.129027
     14          7           0       -0.276330   -3.206527   -1.162873
     15          1           0       -0.386626   -3.715865   -2.024863
     16          1           0       -0.068974   -3.767365   -0.352268
 ---------------------------------------------------------------------
                    Distance matrix (angstroms):
                    1          2          3          4          5
     1  C    0.000000
     2  C    1.391340   0.000000
     3  C    2.423471   1.391340   0.000000
     4  C    2.788528   2.394026   1.381755   0.000000
     5  C    2.421520   2.780292   2.421520   1.405678   0.000000
     6  C    1.381755   2.394026   2.788528   2.420760   1.405678
     7  H    1.082665   2.142281   3.396788   3.870958   3.409990
     8  H    3.396788   2.142281   1.082665   2.151721   3.409990
     9  H    3.874032   3.379320   2.139429   1.085513   2.159170
    10  H    2.139429   3.379320   3.874032   3.405530   2.159170
    11  N    2.457186   1.453873   2.457186   3.721704   4.234163
    12  O    3.553432   2.300351   2.716442   4.097120   4.930262
    13  O    2.716442   2.300351   3.553432   4.693436   4.930262
    14  N    3.612486   4.098972   3.645119   2.414331   1.374406
    15  H    4.429876   4.688593   3.960129   2.611418   2.058704
    16  H    3.973273   4.719081   4.466843   3.307977   2.058704
                    6          7          8          9         10
     6  C    0.000000
     7  H    2.151721   0.000000
     8  H    3.870958   4.277339   0.000000
     9  H    3.405530   4.956454   2.481159   0.000000
    10  H    1.085513   2.481159   4.956454   4.304144   0.000000
    11  N    3.721704   2.657939   2.657939   4.594513   4.594513
    12  O    4.693436   3.875149   2.398867   4.756832   5.652230
    13  O    4.097120   2.398867   3.875149   5.652230   4.756832
    14  N    2.364831   4.491044   4.537342   2.684755   2.605242
    15  H    3.279676   5.376914   4.685633   2.454373   3.608820
    16  H    2.604147   4.693706   5.420641   3.639305   2.417849
                   11         12         13         14         15
    11  N    0.000000
    12  O    1.226271   0.000000
    13  O    1.226271   2.165416   0.000000
    14  N    5.545994   6.223482   6.206458   0.000000
    15  H    6.117263   6.641894   6.901904   1.007282   0.000000
    16  H    6.152726   6.944808   6.671443   1.007282   1.703271
                   16
    16  H    0.000000
 Stoichiometry    C6H6N2O2
 Framework group  C1[X(C6H6N2O2)]
 Deg. of freedom    42
 Full point group                 C1      NOp   1
 Largest Abelian subgroup         C1      NOp   1
 Largest concise Abelian subgroup C1      NOp   1
                         Standard orientation:                         
 ---------------------------------------------------------------------
 Center     Atomic      Atomic             Coordinates (Angstroms)
 Number     Number       Type             X           Y           Z
 ---------------------------------------------------------------------
      1          6           0        0.009303   -1.206537   -0.052318
      2          6           0        0.699073    0.001467   -0.024578
      3          6           0        0.022717    1.216889   -0.058010
      4          6           0       -1.357615    1.223028   -0.120398
      5          6           0       -2.078310    0.016544   -0.150828
      6          6           0       -1.371015   -1.197688   -0.114713
      7          1           0        0.563037   -2.136490   -0.025296
      8          1           0        0.586713    2.140772   -0.035342
      9          1           0       -1.891985    2.167644   -0.142492
     10          1           0       -1.915810   -2.136423   -0.132383
     11          7           0        2.151542   -0.006424    0.038809
     12          8           0        2.732734    1.073138    0.061176
     13          8           0        2.720748   -1.092238    0.066262
     14          7           0       -3.390123   -0.024099    0.257202
     15          1           0       -3.899141    0.840924    0.342363
     16          1           0       -3.945508   -0.832186    0.026638
 ---------------------------------------------------------------------
 Rotational constants (GHZ):      3.8934928      0.8338086      0.6903421
 General basis read from cards:  (5D, 7F)
 There are   430 symmetry adapted basis functions of A   symmetry.
 Integral buffers will be    131072 words long.
 Raffenetti 2 integral format.
 Two-electron integral symmetry is turned on.
   430 basis functions,   652 primitive gaussians,   490 cartesian basis functions
    36 alpha electrons       36 beta electrons
       nuclear repulsion energy       497.1257036331 Hartrees.
 NAtoms=   16 NActive=   16 NUniq=   16 SFac= 7.50D-01 NAtFMM=   80 NAOKFM=F Big=F
 ------------------------------------------------------------------------------
 Polarizable Continuum Model (PCM)
 =================================
 Model                : C-PCM.
 Atomic radii         : UFF (Universal Force Field).
 Polarization charges : Total charges.
 Charge compensation  : None.
 Solution method      : Matrix inversion.
 Cavity type          : Scaled VdW (van der Waals Surface) (Alpha=1.100).
 Cavity algorithm     : GePol (No added spheres)
                        Default sphere list used, NSphG=   16.
                        Lebedev-Laikov grids with approx.  5.0 points / Ang**2.
                        Smoothing algorithm: Karplus/York (Gamma=1.0000).
                        Polarization charges: spherical gaussians, with
                                              point-specific exponents (IZeta= 3).
                        Self-potential: point-specific (ISelfS= 7).
                        Self-field    : sphere-specific E.n sum rule (ISelfD= 2).
 1st derivatives      : Analytical E(r).r(x)/FMM algorithm (CHGder, D1EAlg=3).
                        Cavity 1st derivative terms included.
 Solvent              : DiMethylSulfoxide, Eps=  46.826000 Eps(inf)=   2.007889
 ------------------------------------------------------------------------------
 Spheres list:
 ISph  on   Nord    Re0     Alpha      Xe            Ye            Ze
    1   C      1    1.926   1.100      0.009303     -1.206537     -0.052318
    2   C      2    1.926   1.100      0.699073      0.001467     -0.024578
    3   C      3    1.926   1.100      0.022717      1.216889     -0.058010
    4   C      4    1.926   1.100     -1.357615      1.223028     -0.120398
    5   C      5    1.926   1.100     -2.078310      0.016544     -0.150828
    6   C      6    1.926   1.100     -1.371015     -1.197688     -0.114713
    7   H      7    1.443   1.100      0.563037     -2.136490     -0.025296
    8   H      8    1.443   1.100      0.586713      2.140772     -0.035342
    9   H      9    1.443   1.100     -1.891985      2.167644     -0.142492
   10   H     10    1.443   1.100     -1.915810     -2.136423     -0.132383
   11   N     11    1.830   1.100      2.151542     -0.006424      0.038809
   12   O     12    1.750   1.100      2.732734      1.073138      0.061176
   13   O     13    1.750   1.100      2.720748     -1.092238      0.066262
   14   N     14    1.830   1.100     -3.390123     -0.024099      0.257202
   15   H     15    1.443   1.100     -3.899141      0.840924      0.342363
   16   H     16    1.443   1.100     -3.945508     -0.832186      0.026638
 ------------------------------------------------------------------------------
 One-electron integrals computed using PRISM.
 NBasis=   430 RedAO= T  NBF=   430
 NBsUse=   429 1.00D-06 NBFU=   429
 Harris functional with IExCor=20419 diagonalized for initial guess.
 ExpMin= 4.85D-02 ExpMax= 2.70D+04 ExpMxC= 9.22D+02 IAcc=3 IRadAn=         5 AccDes= 0.00D+00
 HarFok:  IExCor=20419 AccDes= 0.00D+00 IRadAn=         5 IDoV= 1
 ScaDFX=  1.000000  1.000000  1.000000  1.000000
 FoFCou: FMM=F IPFlag=           0 FMFlag=      100000 FMFlg1=           0
         NFxFlg=           0 DoJE=T BraDBF=F KetDBF=T FulRan=T
         Omega=  0.000000  0.000000  1.000000  0.000000  0.000000 ICntrl=     500 IOpCl=  0
         NMat0=    1 NMatS0=    1 NMatT0=    0 NMatD0=    1 NMtDS0=    0 NMtDT0=    0
         I1Cent=           4 NGrid=           0.
 Petite list used in FoFCou.
 Initial guess orbital symmetries:
       Occupied  (A) (A) (A) (A) (A) (A) (A) (A) (A) (A) (A) (A)
                 (A) (A) (A) (A) (A) (A) (A) (A) (A) (A) (A) (A)
                 (A) (A) (A) (A) (A) (A) (A) (A) (A) (A) (A) (A)
       Virtual   (A) (A) (A) (A) (A) (A) (A) (A) (A) (A) (A) (A)
                 (A) (A) (A) (A) (A) (A) (A) (A) (A) (A) (A) (A)
                 (A) (A) (A) (A) (A) (A) (A) (A) (A) (A) (A) (A)
                 (A) (A) (A) (A) (A) (A) (A) (A) (A) (A) (A) (A)
                 (A) (A) (A) (A) (A) (A) (A) (A) (A) (A) (A) (A)
                 (A) (A) (A) (A) (A) (A) (A) (A) (A) (A) (A) (A)
                 (A) (A) (A) (A) (A) (A) (A) (A) (A) (A) (A) (A)
                 (A) (A) (A) (A) (A) (A) (A) (A) (A) (A) (A) (A)
                 (A) (A) (A) (A) (A) (A) (A) (A) (A) (A) (A) (A)
                 (A) (A) (A) (A) (A) (A) (A) (A) (A) (A) (A) (A)
                 (A) (A) (A) (A) (A) (A) (A) (A) (A) (A) (A) (A)
                 (A) (A) (A) (A) (A) (A) (A) (A) (A) (A) (A) (A)
                 (A) (A) (A) (A) (A) (A) (A) (A) (A) (A) (A) (A)
                 (A) (A) (A) (A) (A) (A) (A) (A) (A) (A) (A) (A)
                 (A) (A) (A) (A) (A) (A) (A) (A) (A) (A) (A) (A)
                 (A) (A) (A) (A) (A) (A) (A) (A) (A) (A) (A) (A)
                 (A) (A) (A) (A) (A) (A) (A) (A) (A) (A) (A) (A)
                 (A) (A) (A) (A) (A) (A) (A) (A) (A) (A) (A) (A)
                 (A) (A) (A) (A) (A) (A) (A) (A) (A) (A) (A) (A)
                 (A) (A) (A) (A) (A) (A) (A) (A) (A) (A) (A) (A)
                 (A) (A) (A) (A) (A) (A) (A) (A) (A) (A) (A) (A)
                 (A) (A) (A) (A) (A) (A) (A) (A) (A) (A) (A) (A)
                 (A) (A) (A) (A) (A) (A) (A) (A) (A) (A) (A) (A)
                 (A) (A) (A) (A) (A) (A) (A) (A) (A) (A) (A) (A)
                 (A) (A) (A) (A) (A) (A) (A) (A) (A) (A) (A) (A)
                 (A) (A) (A) (A) (A) (A) (A) (A) (A) (A) (A) (A)
                 (A) (A) (A) (A) (A) (A) (A) (A) (A) (A) (A) (A)
                 (A) (A) (A) (A) (A) (A) (A) (A) (A) (A) (A) (A)
                 (A) (A) (A) (A) (A) (A) (A) (A) (A) (A) (A) (A)
                 (A) (A) (A) (A) (A) (A) (A) (A) (A) (A) (A) (A)
                 (A) (A) (A) (A) (A) (A) (A) (A) (A) (A) (A) (A)
                 (A) (A) (A) (A) (A) (A) (A) (A) (A) (A) (A) (A)
                 (A) (A) (A) (A) (A) (A) (A) (A) (A)
 The electronic state of the initial guess is 1-A.
 FoFJK:  IHMeth= 1 ICntrl=     0 DoSepK=T KAlg= 1 I1Cent= 0 FoldK=F
 Gradient too large for Newton-Raphson -- use scaled steepest descent instead.
 FoFJK:  IHMeth= 1 ICntrl=     0 DoSepK=T KAlg= 1 I1Cent= 0 FoldK=F
 FoFJK:  IHMeth= 1 ICntrl=     0 DoSepK=T KAlg= 1 I1Cent= 0 FoldK=F
 FoFJK:  IHMeth= 1 ICntrl=     0 DoSepK=T KAlg= 1 I1Cent= 0 FoldK=F
 FoFJK:  IHMeth= 1 ICntrl=     0 DoSepK=T KAlg= 1 I1Cent= 0 FoldK=F
 Gradient too large for Newton-Raphson -- use scaled steepest descent instead.
 FoFJK:  IHMeth= 1 ICntrl=     0 DoSepK=T KAlg= 1 I1Cent= 0 FoldK=F
 FoFJK:  IHMeth= 1 ICntrl=     0 DoSepK=T KAlg= 1 I1Cent= 0 FoldK=F
 FoFJK:  IHMeth= 1 ICntrl=     0 DoSepK=T KAlg= 1 I1Cent= 0 FoldK=F
 FoFJK:  IHMeth= 1 ICntrl=     0 DoSepK=T KAlg= 1 I1Cent= 0 FoldK=F
 FoFJK:  IHMeth= 1 ICntrl=     0 DoSepK=T KAlg= 1 I1Cent= 0 FoldK=F
 Gradient too large for Newton-Raphson -- use scaled steepest descent instead.
 FoFJK:  IHMeth= 1 ICntrl=     0 DoSepK=T KAlg= 1 I1Cent= 0 FoldK=F
 FoFJK:  IHMeth= 1 ICntrl=     0 DoSepK=T KAlg= 1 I1Cent= 0 FoldK=F
 FoFJK:  IHMeth= 1 ICntrl=     0 DoSepK=T KAlg= 1 I1Cent= 0 FoldK=F
 Gradient too large for Newton-Raphson -- use scaled steepest descent instead.
 FoFJK:  IHMeth= 1 ICntrl=     0 DoSepK=T KAlg= 1 I1Cent= 0 FoldK=F
 FoFJK:  IHMeth= 1 ICntrl=     0 DoSepK=T KAlg= 1 I1Cent= 0 FoldK=F
 FoFJK:  IHMeth= 1 ICntrl=     0 DoSepK=T KAlg= 1 I1Cent= 0 FoldK=F
 FoFJK:  IHMeth= 1 ICntrl=     0 DoSepK=T KAlg= 1 I1Cent= 0 FoldK=F
 FoFJK:  IHMeth= 1 ICntrl=     0 DoSepK=T KAlg= 1 I1Cent= 0 FoldK=F
 Gradient too large for Newton-Raphson -- use scaled steepest descent instead.
 FoFJK:  IHMeth= 1 ICntrl=     0 DoSepK=T KAlg= 1 I1Cent= 0 FoldK=F
 FoFJK:  IHMeth= 1 ICntrl=     0 DoSepK=T KAlg= 1 I1Cent= 0 FoldK=F
 FoFJK:  IHMeth= 1 ICntrl=     0 DoSepK=T KAlg= 1 I1Cent= 0 FoldK=F
 LinEq1:  Iter=  0 NonCon=     1 RMS=7.32D-05 Max=6.65D-03
 AX will form     1 AO Fock derivatives at one time.
 FoFJK:  IHMeth= 1 ICntrl=     0 DoSepK=T KAlg= 1 I1Cent= 0 FoldK=F
 LinEq1:  Iter=  1 NonCon=     1 RMS=5.01D-05 Max=2.78D-03
 FoFJK:  IHMeth= 1 ICntrl=     0 DoSepK=T KAlg= 1 I1Cent= 0 FoldK=F
 LinEq1:  Iter=  2 NonCon=     1 RMS=1.11D-05 Max=4.67D-04
 FoFJK:  IHMeth= 1 ICntrl=     0 DoSepK=T KAlg= 1 I1Cent= 0 FoldK=F
 LinEq1:  Iter=  3 NonCon=     1 RMS=2.13D-06 Max=1.31D-04
 FoFJK:  IHMeth= 1 ICntrl=     0 DoSepK=T KAlg= 1 I1Cent= 0 FoldK=F
 LinEq1:  Iter=  4 NonCon=     1 RMS=2.14D-06 Max=1.05D-04
 FoFJK:  IHMeth= 1 ICntrl=     0 DoSepK=T KAlg= 1 I1Cent= 0 FoldK=F
 LinEq1:  Iter=  5 NonCon=     1 RMS=9.01D-07 Max=2.64D-05
 FoFJK:  IHMeth= 1 ICntrl=     0 DoSepK=T KAlg= 1 I1Cent= 0 FoldK=F
 LinEq1:  Iter=  6 NonCon=     1 RMS=4.30D-07 Max=2.72D-05
 FoFJK:  IHMeth= 1 ICntrl=     0 DoSepK=T KAlg= 1 I1Cent= 0 FoldK=F
 LinEq1:  Iter=  7 NonCon=     1 RMS=2.22D-07 Max=6.20D-06
 FoFJK:  IHMeth= 1 ICntrl=     0 DoSepK=T KAlg= 1 I1Cent= 0 FoldK=F
 LinEq1:  Iter=  8 NonCon=     1 RMS=4.86D-08 Max=1.62D-06
 FoFJK:  IHMeth= 1 ICntrl=     0 DoSepK=T KAlg= 1 I1Cent= 0 FoldK=F
 LinEq1:  Iter=  9 NonCon=     1 RMS=1.56D-08 Max=3.44D-07
 FoFJK:  IHMeth= 1 ICntrl=     0 DoSepK=T KAlg= 1 I1Cent= 0 FoldK=F
 LinEq1:  Iter= 10 NonCon=     1 RMS=7.64D-09 Max=2.17D-07
 FoFJK:  IHMeth= 1 ICntrl=     0 DoSepK=T KAlg= 1 I1Cent= 0 FoldK=F
 LinEq1:  Iter= 11 NonCon=     0 RMS=2.05D-09 Max=1.06D-07
 Linear equations converged to 1.682D-08 1.682D-07 after    11 iterations.
 FoFJK:  IHMeth= 1 ICntrl=     0 DoSepK=T KAlg= 1 I1Cent= 0 FoldK=F
 FoFJK:  IHMeth= 1 ICntrl=     0 DoSepK=T KAlg= 1 I1Cent= 0 FoldK=F
 FoFJK:  IHMeth= 1 ICntrl=     0 DoSepK=T KAlg= 1 I1Cent= 0 FoldK=F
 LinEq1:  Iter=  0 NonCon=     1 RMS=7.30D-07 Max=3.88D-05
 FoFJK:  IHMeth= 1 ICntrl=     0 DoSepK=T KAlg= 1 I1Cent= 0 FoldK=F
 LinEq1:  Iter=  1 NonCon=     1 RMS=1.89D-07 Max=1.00D-05
 FoFJK:  IHMeth= 1 ICntrl=     0 DoSepK=T KAlg= 1 I1Cent= 0 FoldK=F
 LinEq1:  Iter=  2 NonCon=     1 RMS=1.07D-07 Max=3.54D-06
 FoFJK:  IHMeth= 1 ICntrl=     0 DoSepK=T KAlg= 1 I1Cent= 0 FoldK=F
 LinEq1:  Iter=  3 NonCon=     1 RMS=5.54D-08 Max=3.67D-06
 FoFJK:  IHMeth= 1 ICntrl=     0 DoSepK=T KAlg= 1 I1Cent= 0 FoldK=F
 LinEq1:  Iter=  4 NonCon=     1 RMS=2.47D-08 Max=1.22D-06
 FoFJK:  IHMeth= 1 ICntrl=     0 DoSepK=T KAlg= 1 I1Cent= 0 FoldK=F
 LinEq1:  Iter=  5 NonCon=     1 RMS=9.46D-09 Max=2.85D-07
 FoFJK:  IHMeth= 1 ICntrl=     0 DoSepK=T KAlg= 1 I1Cent= 0 FoldK=F
 LinEq1:  Iter=  6 NonCon=     1 RMS=4.21D-09 Max=1.33D-07
 FoFJK:  IHMeth= 1 ICntrl=     0 DoSepK=T KAlg= 1 I1Cent= 0 FoldK=F
 LinEq1:  Iter=  7 NonCon=     1 RMS=2.30D-09 Max=1.06D-07
 FoFJK:  IHMeth= 1 ICntrl=     0 DoSepK=T KAlg= 1 I1Cent= 0 FoldK=F
 LinEq1:  Iter=  8 NonCon=     1 RMS=1.59D-09 Max=9.05D-08
 FoFJK:  IHMeth= 1 ICntrl=     0 DoSepK=T KAlg= 1 I1Cent= 0 FoldK=F
 LinEq1:  Iter=  9 NonCon=     1 RMS=1.04D-09 Max=3.55D-08
 FoFJK:  IHMeth= 1 ICntrl=     0 DoSepK=T KAlg= 1 I1Cent= 0 FoldK=F
 LinEq1:  Iter= 10 NonCon=     1 RMS=4.85D-10 Max=2.09D-08
 FoFJK:  IHMeth= 1 ICntrl=     0 DoSepK=T KAlg= 1 I1Cent= 0 FoldK=F
 LinEq1:  Iter= 11 NonCon=     0 RMS=1.92D-10 Max=4.57D-09
 Linear equations converged to 1.072D-09 1.072D-08 after    11 iterations.
 FoFJK:  IHMeth= 1 ICntrl=     0 DoSepK=T KAlg= 1 I1Cent= 0 FoldK=F
 Error on total polarization charges =  0.01403
 SCF Done:  E(RCAM-B3LYP) =  -492.091671860     a.u. after    8 cycles
            Convg  =    0.1447D-07                    47 Fock formations.
              S**2 =  0.0000                  -V/T =  2.0043

 **********************************************************************

            Population analysis using the SCF density.

 **********************************************************************

 Orbital symmetries:
       Occupied  (A) (A) (A) (A) (A) (A) (A) (A) (A) (A) (A) (A)
                 (A) (A) (A) (A) (A) (A) (A) (A) (A) (A) (A) (A)
                 (A) (A) (A) (A) (A) (A) (A) (A) (A) (A) (A) (A)
       Virtual   (A) (A) (A) (A) (A) (A) (A) (A) (A) (A) (A) (A)
                 (A) (A) (A) (A) (A) (A) (A) (A) (A) (A) (A) (A)
                 (A) (A) (A) (A) (A) (A) (A) (A) (A) (A) (A) (A)
                 (A) (A) (A) (A) (A) (A) (A) (A) (A) (A) (A) (A)
                 (A) (A) (A) (A) (A) (A) (A) (A) (A) (A) (A) (A)
                 (A) (A) (A) (A) (A) (A) (A) (A) (A) (A) (A) (A)
                 (A) (A) (A) (A) (A) (A) (A) (A) (A) (A) (A) (A)
                 (A) (A) (A) (A) (A) (A) (A) (A) (A) (A) (A) (A)
                 (A) (A) (A) (A) (A) (A) (A) (A) (A) (A) (A) (A)
                 (A) (A) (A) (A) (A) (A) (A) (A) (A) (A) (A) (A)
                 (A) (A) (A) (A) (A) (A) (A) (A) (A) (A) (A) (A)
                 (A) (A) (A) (A) (A) (A) (A) (A) (A) (A) (A) (A)
                 (A) (A) (A) (A) (A) (A) (A) (A) (A) (A) (A) (A)
                 (A) (A) (A) (A) (A) (A) (A) (A) (A) (A) (A) (A)
                 (A) (A) (A) (A) (A) (A) (A) (A) (A) (A) (A) (A)
                 (A) (A) (A) (A) (A) (A) (A) (A) (A) (A) (A) (A)
                 (A) (A) (A) (A) (A) (A) (A) (A) (A) (A) (A) (A)
                 (A) (A) (A) (A) (A) (A) (A) (A) (A) (A) (A) (A)
                 (A) (A) (A) (A) (A) (A) (A) (A) (A) (A) (A) (A)
                 (A) (A) (A) (A) (A) (A) (A) (A) (A) (A) (A) (A)
                 (A) (A) (A) (A) (A) (A) (A) (A) (A) (A) (A) (A)
                 (A) (A) (A) (A) (A) (A) (A) (A) (A) (A) (A) (A)
                 (A) (A) (A) (A) (A) (A) (A) (A) (A) (A) (A) (A)
                 (A) (A) (A) (A) (A) (A) (A) (A) (A) (A) (A) (A)
                 (A) (A) (A) (A) (A) (A) (A) (A) (A) (A) (A) (A)
                 (A) (A) (A) (A) (A) (A) (A) (A) (A) (A) (A) (A)
                 (A) (A) (A) (A) (A) (A) (A) (A) (A) (A) (A) (A)
                 (A) (A) (A) (A) (A) (A) (A) (A) (A) (A) (A) (A)
                 (A) (A) (A) (A) (A) (A) (A) (A) (A) (A) (A) (A)
                 (A) (A) (A) (A) (A) (A) (A) (A) (A) (A) (A) (A)
                 (A) (A) (A) (A) (A) (A) (A) (A) (A) (A) (A) (A)
                 (A) (A) (A) (A) (A) (A) (A) (A) (A) (A) (A) (A)
                 (A) (A) (A) (A) (A) (A) (A) (A) (A)
 The electronic state is 1-A.
 Alpha  occ. eigenvalues --  -19.23959 -19.23947 -14.63952 -14.41021 -10.31833
 Alpha  occ. eigenvalues --  -10.30141 -10.27674 -10.27549 -10.26210 -10.26137
 Alpha  occ. eigenvalues --   -1.32253  -1.14462  -1.02583  -0.96318  -0.87600
 Alpha  occ. eigenvalues --   -0.85338  -0.77087  -0.71720  -0.67585  -0.64416
 Alpha  occ. eigenvalues --   -0.62161  -0.61246  -0.60386  -0.58957  -0.52971
 Alpha  occ. eigenvalues --   -0.52385  -0.51074  -0.49453  -0.47005  -0.42924
 Alpha  occ. eigenvalues --   -0.40446  -0.39363  -0.39126  -0.37592  -0.33530
 Alpha  occ. eigenvalues --   -0.28249
 Alpha virt. eigenvalues --   -0.05352   0.01426   0.03111   0.04068   0.04873
 Alpha virt. eigenvalues --    0.05208   0.06758   0.07204   0.07415   0.08915
 Alpha virt. eigenvalues --    0.10405   0.10550   0.10840   0.12450   0.13288
 Alpha virt. eigenvalues --    0.14617   0.14901   0.16074   0.16606   0.16826
 Alpha virt. eigenvalues --    0.18190   0.19169   0.19784   0.20463   0.21184
 Alpha virt. eigenvalues --    0.21496   0.22299   0.22389   0.23137   0.23223
 Alpha virt. eigenvalues --    0.23895   0.24667   0.24962   0.25626   0.26701
 Alpha virt. eigenvalues --    0.27817   0.28305   0.28555   0.29299   0.29516
 Alpha virt. eigenvalues --    0.29943   0.30937   0.30980   0.31228   0.31840
 Alpha virt. eigenvalues --    0.32321   0.33836   0.34222   0.34405   0.35029
 Alpha virt. eigenvalues --    0.35879   0.36336   0.37136   0.37723   0.38382
 Alpha virt. eigenvalues --    0.38886   0.39115   0.39588   0.39926   0.41132
 Alpha virt. eigenvalues --    0.41497   0.42473   0.43026   0.43284   0.43713
 Alpha virt. eigenvalues --    0.44263   0.44898   0.45915   0.46541   0.47068
 Alpha virt. eigenvalues --    0.47254   0.47823   0.48003   0.48641   0.49443
 Alpha virt. eigenvalues --    0.49923   0.50465   0.50918   0.52679   0.53208
 Alpha virt. eigenvalues --    0.53637   0.53893   0.55386   0.55604   0.57199
 Alpha virt. eigenvalues --    0.58063   0.59048   0.59267   0.60411   0.60724
 Alpha virt. eigenvalues --    0.60936   0.61579   0.61953   0.62804   0.63648
 Alpha virt. eigenvalues --    0.64385   0.64930   0.65958   0.66770   0.67960
 Alpha virt. eigenvalues --    0.68175   0.68743   0.69041   0.69769   0.70386
 Alpha virt. eigenvalues --    0.71007   0.71823   0.72474   0.72987   0.73341
 Alpha virt. eigenvalues --    0.73726   0.74048   0.74427   0.75391   0.76851
 Alpha virt. eigenvalues --    0.77315   0.78483   0.78521   0.79793   0.80114
 Alpha virt. eigenvalues --    0.80348   0.80611   0.82387   0.82454   0.83422
 Alpha virt. eigenvalues --    0.84318   0.85078   0.85391   0.87054   0.87654
 Alpha virt. eigenvalues --    0.89438   0.91782   0.93647   0.95562   0.96082
 Alpha virt. eigenvalues --    0.97065   0.97597   0.98302   0.99420   0.99930
 Alpha virt. eigenvalues --    1.00533   1.01970   1.02672   1.03784   1.05136
 Alpha virt. eigenvalues --    1.05880   1.07826   1.09387   1.10299   1.10504
 Alpha virt. eigenvalues --    1.11182   1.14375   1.17184   1.19446   1.19973
 Alpha virt. eigenvalues --    1.23890   1.25117   1.27090   1.31324   1.31611
 Alpha virt. eigenvalues --    1.33833   1.34540   1.36160   1.36781   1.38467
 Alpha virt. eigenvalues --    1.40639   1.41763   1.43302   1.44211   1.47461
 Alpha virt. eigenvalues --    1.48883   1.49331   1.52124   1.53114   1.55158
 Alpha virt. eigenvalues --    1.57390   1.59451   1.60768   1.61573   1.62743
 Alpha virt. eigenvalues --    1.68413   1.70753   1.72440   1.74110   1.75979
 Alpha virt. eigenvalues --    1.77623   1.78153   1.79049   1.79506   1.82933
 Alpha virt. eigenvalues --    1.83582   1.84599   1.88188   1.89112   1.90582
 Alpha virt. eigenvalues --    1.91047   1.92814   1.94098   1.94336   1.96320
 Alpha virt. eigenvalues --    1.98409   1.99691   2.00877   2.02027   2.03518
 Alpha virt. eigenvalues --    2.05927   2.07566   2.08865   2.09157   2.14944
 Alpha virt. eigenvalues --    2.18783   2.19527   2.23674   2.25967   2.27585
 Alpha virt. eigenvalues --    2.28147   2.30376   2.32105   2.33590   2.34653
 Alpha virt. eigenvalues --    2.36390   2.39705   2.41115   2.41333   2.44296
 Alpha virt. eigenvalues --    2.46818   2.50770   2.53663   2.54228   2.56123
 Alpha virt. eigenvalues --    2.57314   2.63523   2.64151   2.67245   2.68812
 Alpha virt. eigenvalues --    2.71126   2.72240   2.73740   2.75425   2.79634
 Alpha virt. eigenvalues --    2.80870   2.82670   2.85256   2.86490   2.86839
 Alpha virt. eigenvalues --    2.87797   2.88236   2.91044   2.93088   2.93910
 Alpha virt. eigenvalues --    2.94609   2.97901   3.00068   3.00830   3.01940
 Alpha virt. eigenvalues --    3.03202   3.09362   3.09852   3.11009   3.11399
 Alpha virt. eigenvalues --    3.13553   3.14709   3.16101   3.20345   3.21569
 Alpha virt. eigenvalues --    3.23839   3.25632   3.26481   3.28153   3.30193
 Alpha virt. eigenvalues --    3.31488   3.33012   3.35157   3.36115   3.37806
 Alpha virt. eigenvalues --    3.40191   3.41139   3.42819   3.43862   3.45237
 Alpha virt. eigenvalues --    3.45867   3.47273   3.48846   3.49728   3.50470
 Alpha virt. eigenvalues --    3.52115   3.54828   3.54971   3.56885   3.59295
 Alpha virt. eigenvalues --    3.61731   3.62880   3.63291   3.67410   3.68951
 Alpha virt. eigenvalues --    3.69902   3.72138   3.73569   3.79133   3.85013
 Alpha virt. eigenvalues --    3.89420   3.90118   3.95647   3.97718   4.01053
 Alpha virt. eigenvalues --    4.04242   4.06043   4.13152   4.16223   4.18401
 Alpha virt. eigenvalues --    4.18902   4.19461   4.25510   4.26219   4.27282
 Alpha virt. eigenvalues --    4.29116   4.30586   4.30635   4.32472   4.33811
 Alpha virt. eigenvalues --    4.35721   4.41401   4.46876   4.52025   4.57450
 Alpha virt. eigenvalues --    4.62664   4.66812   4.68571   4.75208   4.76741
 Alpha virt. eigenvalues --    4.78269   4.81128   4.81993   4.83912   4.87881
 Alpha virt. eigenvalues --    4.89531   4.93901   4.98180   5.00275   5.02166
 Alpha virt. eigenvalues --    5.04532   5.06512   5.07288   5.14672   5.19841
 Alpha virt. eigenvalues --    5.20124   5.22893   5.25508   5.27857   5.29596
 Alpha virt. eigenvalues --    5.30702   5.39089   5.40512   5.43606   5.44461
 Alpha virt. eigenvalues --    5.48754   5.52544   5.56678   5.58421   5.66465
 Alpha virt. eigenvalues --    5.68220   5.69340   5.71726   5.77959   5.96030
 Alpha virt. eigenvalues --    5.98872   6.07276   6.11504   6.41730   6.42991
 Alpha virt. eigenvalues --    6.51190   6.57425   6.59397   6.61858   6.92652
 Alpha virt. eigenvalues --    6.93847   6.96821   7.10030   7.28879   7.43399
 Alpha virt. eigenvalues --    7.51901   7.79998   7.82400  22.66028  22.84580
 Alpha virt. eigenvalues --   22.94554  22.99034  23.12670  23.43413  32.43182
 Alpha virt. eigenvalues --   32.80430  44.45313  44.61765
          Condensed to atoms (all electrons):
              1          2          3          4          5          6
     1  C    6.549317   0.227234  -0.441400  -0.028724  -0.380985   0.352919
     2  C    0.227234   6.356167   0.602158  -0.334703  -0.678096  -0.240142
     3  C   -0.441400   0.602158   6.836211   0.096285  -0.758250  -0.034336
     4  C   -0.028724  -0.334703   0.096285   6.856335   0.084302  -0.444453
     5  C   -0.380985  -0.678096  -0.758250   0.084302   7.756915  -0.169399
     6  C    0.352919  -0.240142  -0.034336  -0.444453  -0.169399   6.746416
     7  H    0.249014  -0.278241  -0.006608   0.007929   0.108893  -0.013599
     8  H    0.035760  -0.172247   0.188011   0.009269   0.059318  -0.005218
     9  H    0.008162   0.048536   0.042936   0.318603  -0.289950   0.042568
    10  H    0.027677   0.095956   0.037041   0.025098  -0.454252   0.361306
    11  N   -0.163602   0.395876  -0.194481   0.009915   0.045106  -0.007578
    12  O    0.025281  -0.041241  -0.028131   0.007277  -0.009850  -0.002107
    13  O   -0.034836  -0.025296   0.027895  -0.004334  -0.011938   0.010757
    14  N    0.022861   0.044019   0.044686  -0.005702  -0.104242   0.014682
    15  H   -0.005271  -0.001717   0.000749   0.043327  -0.017625  -0.052834
    16  H    0.002068  -0.003023  -0.006456  -0.025667   0.023316   0.016256
              7          8          9         10         11         12
     1  C    0.249014   0.035760   0.008162   0.027677  -0.163602   0.025281
     2  C   -0.278241  -0.172247   0.048536   0.095956   0.395876  -0.041241
     3  C   -0.006608   0.188011   0.042936   0.037041  -0.194481  -0.028131
     4  C    0.007929   0.009269   0.318603   0.025098   0.009915   0.007277
     5  C    0.108893   0.059318  -0.289950  -0.454252   0.045106  -0.009850
     6  C   -0.013599  -0.005218   0.042568   0.361306  -0.007578  -0.002107
     7  H    0.515745   0.008905  -0.002261  -0.042048   0.042487  -0.004348
     8  H    0.008905   0.440735  -0.011332  -0.002589   0.025777  -0.007187
     9  H   -0.002261  -0.011332   0.457182   0.009138  -0.001896   0.000511
    10  H   -0.042048  -0.002589   0.009138   0.551838  -0.004866   0.000279
    11  N    0.042487   0.025777  -0.001896  -0.004866   5.741084   0.101428
    12  O   -0.004348  -0.007187   0.000511   0.000279   0.101428   8.687034
    13  O   -0.014251  -0.004384   0.000232   0.001373   0.095230  -0.105576
    14  N   -0.005779  -0.002226   0.035160   0.083270  -0.001561   0.000144
    15  H    0.000088   0.000263  -0.001298  -0.009674   0.000060   0.000012
    16  H    0.000244   0.000066  -0.007736  -0.005520   0.000044   0.000000
             13         14         15         16
     1  C   -0.034836   0.022861  -0.005271   0.002068
     2  C   -0.025296   0.044019  -0.001717  -0.003023
     3  C    0.027895   0.044686   0.000749  -0.006456
     4  C   -0.004334  -0.005702   0.043327  -0.025667
     5  C   -0.011938  -0.104242  -0.017625   0.023316
     6  C    0.010757   0.014682  -0.052834   0.016256
     7  H   -0.014251  -0.005779   0.000088   0.000244
     8  H   -0.004384  -0.002226   0.000263   0.000066
     9  H    0.000232   0.035160  -0.001298  -0.007736
    10  H    0.001373   0.083270  -0.009674  -0.005520
    11  N    0.095230  -0.001561   0.000060   0.000044
    12  O   -0.105576   0.000144   0.000012   0.000000
    13  O    8.687037   0.000247  -0.000011   0.000008
    14  N    0.000247   6.576239   0.381946   0.364170
    15  H   -0.000011   0.381946   0.465420  -0.025977
    16  H    0.000008   0.364170  -0.025977   0.422175
 Mulliken atomic charges:
              1
     1  C   -0.445475
     2  C    0.004759
     3  C   -0.406312
     4  C   -0.614758
     5  C    0.796738
     6  C   -0.575238
     7  H    0.433830
     8  H    0.437080
     9  H    0.351446
    10  H    0.325972
    11  N    0.916977
    12  O   -0.623527
    13  O   -0.622155
    14  N   -0.447914
    15  H    0.222543
    16  H    0.246033
 Sum of Mulliken atomic charges =   0.00000
 Mulliken charges with hydrogens summed into heavy atoms:
              1
     1  C   -0.011644
     2  C    0.004759
     3  C    0.030769
     4  C   -0.263312
     5  C    0.796738
     6  C   -0.249266
    11  N    0.916977
    12  O   -0.623527
    13  O   -0.622155
    14  N    0.020662
 Sum of Mulliken charges with hydrogens summed into heavy atoms =   0.00000
 Electronic spatial extent (au):  <R**2>=           1542.4036
 Charge=              0.0000 electrons
 Dipole moment (field-independent basis, Debye):
    X=             -9.5846    Y=              0.1242    Z=             -0.4423  Tot=              9.5956
 Quadrupole moment (field-independent basis, Debye-Ang):
   XX=            -56.8190   YY=            -52.7384   ZZ=            -60.5570
   XY=             -0.1212   XZ=              0.3595   YZ=              0.6339
 Traceless Quadrupole moment (field-independent basis, Debye-Ang):
   XX=             -0.1142   YY=              3.9664   ZZ=             -3.8522
   XY=             -0.1212   XZ=              0.3595   YZ=              0.6339
 Octapole moment (field-independent basis, Debye-Ang**2):
  XXX=           -128.7803  YYY=              0.3100  ZZZ=              1.3804  XYY=            -19.8192
  XXY=              0.4110  XXZ=             -3.1096  XZZ=             11.6008  YZZ=              0.2454
  YYZ=              0.0499  XYZ=             -2.4438
 Hexadecapole moment (field-independent basis, Debye-Ang**3):
 XXXX=          -1353.0423 YYYY=           -360.9868 ZZZZ=            -70.5098 XXXY=              0.5703
 XXXZ=             -6.5216 YYYX=              0.2438 YYYZ=              0.6711 ZZZX=              1.6264
 ZZZY=              0.5873 XXYY=           -298.5926 XXZZ=           -273.7310 YYZZ=            -84.4854
 XXYZ=              9.8196 YYXZ=             -1.3683 ZZXY=             -1.1223
 N-N= 4.971257036331D+02 E-N=-2.144153288472D+03  KE= 4.899868575228D+02
 D1PCM: C-PCM CHGder 1st derivatives, ID1Alg=3 FixD1E=F DoIter=F DoCFld=F I1PDM=0.
 Calling FoFJK, ICntrl=      2127 FMM=F ISym2X=0 I1Cent= 0 IOpClX= 0 NMat=1 NMatS=1 NMatT=0.
 FoFJK:  IHMeth= 1 ICntrl=  2127 DoSepK=T KAlg= 1 I1Cent= 0 FoldK=F
 ***** Axes restored to original set *****
 -------------------------------------------------------------------
 Center     Atomic                   Forces (Hartrees/Bohr)
 Number     Number              X              Y              Z
 -------------------------------------------------------------------
      1        6           0.005678511   -0.007152707    0.000437204
      2        6          -0.000205455    0.003343890   -0.001797600
      3        6           0.004238219   -0.003791371    0.002247710
      4        6           0.008272852    0.003507599   -0.001791082
      5        6          -0.044694988    0.002203644    0.004886023
      6        6           0.013246685    0.013544197    0.002821594
      7        1          -0.000764824   -0.002151591   -0.001633821
      8        1          -0.000375587   -0.002255454    0.001636357
      9        1          -0.002172325    0.001101399    0.002336205
     10        1          -0.002639156    0.001176421   -0.002416898
     11        7          -0.000668619   -0.006455590   -0.000145038
     12        8           0.000004349   -0.000147537    0.010525016
     13        8           0.000009064   -0.000297984   -0.010553816
     14        7           0.016805843   -0.002057841   -0.006696618
     15        1           0.003941230   -0.000728545    0.000492043
     16        1          -0.000675798    0.000161470   -0.000347281
 -------------------------------------------------------------------
 Cartesian Forces:  Max     0.044694988 RMS     0.008249815

 GradGradGradGradGradGradGradGradGradGradGradGradGradGradGradGradGradGrad
 Berny optimization.
 Internal  Forces:  Max     0.012041629 RMS     0.004255717
 Search for a local minimum.
 Step number   1 out of a maximum of   82
 All quantities printed in internal units (Hartrees-Bohrs-Radians)
 Mixed Optimization -- RFO/linear search
 Second derivative matrix not updated -- first step.
     Eigenvalues ---    0.00979   0.00979   0.01836   0.02030   0.02053
     Eigenvalues ---    0.02151   0.02179   0.02227   0.02234   0.02273
     Eigenvalues ---    0.02277   0.02404   0.02988   0.16000   0.16000
     Eigenvalues ---    0.16000   0.16000   0.16000   0.16000   0.22000
     Eigenvalues ---    0.22701   0.23152   0.23696   0.25000   0.25000
     Eigenvalues ---    0.25000   0.35336   0.35336   0.35674   0.35674
     Eigenvalues ---    0.37742   0.41592   0.42599   0.45808   0.46149
     Eigenvalues ---    0.46431   0.46431   0.47592   0.48783   0.50139
     Eigenvalues ---    0.92658   0.926581000.000001000.000001000.00000
     Eigenvalues --- 1000.000001000.000001000.000001000.000001000.00000
     Eigenvalues --- 1000.000001000.000001000.000001000.000001000.00000
     Eigenvalues --- 1000.000001000.000001000.000001000.000001000.00000
     Eigenvalues --- 1000.000001000.000001000.000001000.000001000.00000
     Eigenvalues --- 1000.000001000.000001000.000001000.000001000.00000
     Eigenvalues --- 1000.000001000.00000
 RFO step:  Lambda=-1.56969524D-02 EMin= 9.79144978D-03
 Linear search not attempted -- first point.
 Maximum step size (   0.300) exceeded in Quadratic search.
    -- Step size scaled by   0.501
 Iteration  1 RMS(Cart)=  0.04408744 RMS(Int)=  0.00179369
 Iteration  2 RMS(Cart)=  0.00262100 RMS(Int)=  0.00083705
 Iteration  3 RMS(Cart)=  0.00000401 RMS(Int)=  0.00083705
 Iteration  4 RMS(Cart)=  0.00000000 RMS(Int)=  0.00083705
 Variable       Old X    -DE/DX   Delta X   Delta X   Delta X     New X
                                 (Linear)    (Quad)   (Total)
    R1        2.62925  -0.00217   0.00000  -0.00119  -0.00167   2.62758
    R2        2.61114  -0.01072   0.00000  -0.01064  -0.01064   2.60050
    R3        2.04594  -0.00251   0.00000  -0.00338  -0.00338   2.04256
    R4        2.62925  -0.00425   0.00000  -0.00337  -0.00384   2.62541
    R5        2.74742  -0.00690   0.00000  -0.00880  -0.00880   2.73862
    R6        2.61114  -0.00819   0.00000  -0.00818  -0.00818   2.60296
    R7        2.04594  -0.00257   0.00000  -0.00345  -0.00345   2.04249
    R8        2.65635  -0.00248   0.00000  -0.00377  -0.00330   2.65304
    R9        2.05132  -0.00257   0.00000  -0.00348  -0.00348   2.04784
   R10        2.65635   0.00280   0.00000   0.00198   0.00246   2.65881
   R11        2.59725  -0.00458   0.00000  -0.00444  -0.00444   2.59281
   R12        2.05132  -0.00267   0.00000  -0.00363  -0.00363   2.04770
   R13        2.31732  -0.00936   0.00000  -0.00498  -0.00498   2.31234
   R14        2.31732  -0.00946   0.00000  -0.00503  -0.00503   2.31229
   R15        1.90349  -0.00049   0.00000  -0.00051  -0.00051   1.90298
   R16        1.90349  -0.00051   0.00000  -0.00053  -0.00053   1.90296
    A1        2.08356  -0.00013   0.00000  -0.00072  -0.00067   2.08289
    A2        2.08485   0.00108   0.00000   0.00327   0.00323   2.08808
    A3        2.11478  -0.00095   0.00000  -0.00254  -0.00258   2.11220
    A4        2.11411  -0.00002   0.00000   0.00133   0.00092   2.11503
    A5        2.08454   0.00013   0.00000  -0.00045  -0.00024   2.08429
    A6        2.08454  -0.00011   0.00000  -0.00089  -0.00069   2.08385
    A7        2.08356   0.00070   0.00000   0.00083   0.00089   2.08445
    A8        2.08485   0.00076   0.00000   0.00276   0.00273   2.08757
    A9        2.11478  -0.00146   0.00000  -0.00359  -0.00362   2.11117
   A10        2.10521   0.00122   0.00000  -0.00227  -0.00128   2.10394
   A11        2.09042  -0.00038   0.00000   0.00178   0.00128   2.09170
   A12        2.08755  -0.00084   0.00000   0.00051   0.00000   2.08755
   A13        2.07472  -0.00330   0.00000   0.00226   0.00018   2.07490
   A14        2.10401  -0.00462   0.00000   0.00835   0.00401   2.10802
   A15        2.03430   0.01204   0.00000   0.04215   0.03843   2.07273
   A16        2.10521   0.00154   0.00000  -0.00139  -0.00037   2.10484
   A17        2.09042  -0.00058   0.00000   0.00125   0.00074   2.09115
   A18        2.08755  -0.00096   0.00000   0.00015  -0.00036   2.08719
   A19        2.05953   0.00380   0.00000   0.00717   0.00717   2.06670
   A20        2.05953   0.00354   0.00000   0.00667   0.00667   2.06620
   A21        2.16412  -0.00734   0.00000  -0.01384  -0.01384   2.15028
   A22        2.07376  -0.00122   0.00000  -0.00684  -0.00698   2.06679
   A23        2.07376   0.00032   0.00000  -0.00244  -0.00258   2.07119
   A24        2.01492  -0.00040   0.00000  -0.00499  -0.00515   2.00977
    D1        0.00048  -0.00125   0.00000  -0.01379  -0.01365  -0.01317
    D2       -3.13981  -0.00084   0.00000  -0.00923  -0.00913   3.13425
    D3        3.14140  -0.00050   0.00000  -0.00654  -0.00658   3.13482
    D4        0.00111  -0.00009   0.00000  -0.00198  -0.00206  -0.00095
    D5        0.00059  -0.00029   0.00000  -0.00428  -0.00443  -0.00384
    D6       -3.13705  -0.00011   0.00000  -0.00635  -0.00674   3.13939
    D7       -3.14032  -0.00105   0.00000  -0.01166  -0.01160   3.13127
    D8        0.00523  -0.00087   0.00000  -0.01373  -0.01391  -0.00868
    D9       -0.00048   0.00071   0.00000   0.01045   0.01054   0.01006
   D10       -3.14140   0.00112   0.00000   0.01125   0.01110  -3.13031
   D11        3.13981   0.00031   0.00000   0.00590   0.00602  -3.13736
   D12       -0.00111   0.00072   0.00000   0.00670   0.00657   0.00546
   D13        3.14078  -0.00020   0.00000  -0.00228  -0.00227   3.13851
   D14       -0.00046  -0.00019   0.00000  -0.00216  -0.00214  -0.00261
   D15        0.00046   0.00020   0.00000   0.00219   0.00218   0.00264
   D16       -3.14078   0.00020   0.00000   0.00232   0.00230  -3.13848
   D17       -0.00059   0.00135   0.00000   0.01095   0.01066   0.01008
   D18        3.13705   0.00193   0.00000   0.01611   0.01563  -3.13050
   D19        3.14032   0.00094   0.00000   0.01014   0.01011  -3.13276
   D20       -0.00523   0.00152   0.00000   0.01530   0.01507   0.00984
   D21        0.00162  -0.00284   0.00000  -0.02838  -0.02810  -0.02647
   D22        2.73623   0.01133   0.00000   0.12727   0.12588   2.86211
   D23       -3.13602  -0.00342   0.00000  -0.03353  -0.03305   3.11411
   D24       -0.40142   0.01075   0.00000   0.12212   0.12092  -0.28050
   D25       -0.00162   0.00230   0.00000   0.02500   0.02495   0.02333
   D26        3.13602   0.00212   0.00000   0.02707   0.02726  -3.11990
   D27       -2.75223  -0.00765   0.00000  -0.11720  -0.11819  -2.87041
   D28        0.38542  -0.00783   0.00000  -0.11512  -0.11588   0.26954
   D29        0.28145  -0.00202   0.00000  -0.03068  -0.03161   0.24984
   D30        2.89223  -0.00479   0.00000  -0.06107  -0.06192   2.83031
   D31        3.02509   0.00850   0.00000   0.11278   0.11364   3.13873
   D32       -0.64731   0.00574   0.00000   0.08239   0.08332  -0.56399
         Item               Value     Threshold  Converged?
 Maximum Force            0.012042     0.000015     NO 
 RMS     Force            0.004256     0.000010     NO 
 Maximum Displacement     0.203307     0.000060     NO 
 RMS     Displacement     0.043912     0.000040     NO 
 Predicted change in Energy=-6.633084D-03
 GradGradGradGradGradGradGradGradGradGradGradGradGradGradGradGradGradGrad

                          Input orientation:                          
 ---------------------------------------------------------------------
 Center     Atomic      Atomic             Coordinates (Angstroms)
 Number     Number       Type             X           Y           Z
 ---------------------------------------------------------------------
      1          6           0        0.181181    0.188045    0.003477
      2          6           0        0.187833    0.867325   -1.209741
      3          6           0        0.172419    0.181819   -2.418053
      4          6           0        0.138081   -1.195175   -2.414602
      5          6           0        0.106512   -1.905111   -1.203812
      6          6           0        0.143135   -1.187554    0.005883
      7          1           0        0.199890    0.746383    0.928791
      8          1           0        0.188663    0.735302   -3.346278
      9          1           0        0.136302   -1.736952   -3.353118
     10          1           0        0.139759   -1.724773    0.946925
     11          7           0        0.218618    2.316208   -1.214238
     12          8           0        0.227323    2.895056   -2.292267
     13          8           0        0.235155    2.901018   -0.139555
     14          7           0       -0.252097   -3.229168   -1.175348
     15          1           0       -0.279041   -3.737168   -2.044420
     16          1           0       -0.010597   -3.777824   -0.366208
 ---------------------------------------------------------------------
                    Distance matrix (angstroms):
                    1          2          3          4          5
     1  C    0.000000
     2  C    1.390454   0.000000
     3  C    2.421554   1.389307   0.000000
     4  C    2.786084   2.389157   1.377426   0.000000
     5  C    2.417525   2.773635   2.415368   1.403930   0.000000
     6  C    1.376127   2.387942   2.784153   2.420503   1.406980
     7  H    1.080878   2.141983   3.394238   3.866748   3.403988
     8  H    3.394173   2.140613   1.080838   2.144136   3.401279
     9  H    3.869672   3.373274   2.134792   1.083669   2.156081
    10  H    2.133233   3.372312   3.867717   3.402990   2.158540
    11  N    2.452205   1.449217   2.450902   3.711761   4.222821
    12  O    3.549715   2.298938   2.716706   4.093033   4.923509
    13  O    2.717277   2.298575   3.548173   4.686583   4.924233
    14  N    3.640701   4.120191   3.655046   2.413528   1.372055
    15  H    4.451178   4.702767   3.962560   2.602452   2.052244
    16  H    3.987677   4.725286   4.463444   3.299712   2.054835
                    6          7          8          9         10
     6  C    0.000000
     7  H    2.143616   0.000000
     8  H    3.864769   4.275099   0.000000
     9  H    3.403642   4.950328   2.472818   0.000000
    10  H    1.083594   2.471954   4.948329   4.300062   0.000000
    11  N    3.710895   2.656553   2.654385   4.583633   4.583271
    12  O    4.685754   3.872049   2.403533   4.752809   5.642947
    13  O    4.092193   2.405216   3.869827   5.643362   4.752629
    14  N    2.391590   4.520696   4.541391   2.668379   2.630741
    15  H    3.298865   5.401073   4.681514   2.426122   3.629500
    16  H    2.621371   4.710602   5.411916   3.620549   2.441709
                   11         12         13         14         15
    11  N    0.000000
    12  O    1.223637   0.000000
    13  O    1.223609   2.152734   0.000000
    14  N    5.565454   6.243675   6.236142   0.000000
    15  H    6.130272   6.656143   6.925202   1.007013   0.000000
    16  H    6.157022   6.949363   6.687204   1.007002   1.700032
                   16
    16  H    0.000000
 Stoichiometry    C6H6N2O2
 Framework group  C1[X(C6H6N2O2)]
 Deg. of freedom    42
 Full point group                 C1      NOp   1
 Largest Abelian subgroup         C1      NOp   1
 Largest concise Abelian subgroup C1      NOp   1
                         Standard orientation:                         
 ---------------------------------------------------------------------
 Center     Atomic      Atomic             Coordinates (Angstroms)
 Number     Number       Type             X           Y           Z
 ---------------------------------------------------------------------
      1          6           0        0.015827   -1.209879   -0.042959
      2          6           0        0.700247    0.000232   -0.019223
      3          6           0        0.020677    1.211666   -0.047271
      4          6           0       -1.356159    1.214566   -0.087469
      5          6           0       -2.072527    0.007157   -0.087996
      6          6           0       -1.359812   -1.205920   -0.079385
      7          1           0        0.569942   -2.137771   -0.026568
      8          1           0        0.578647    2.137302   -0.038421
      9          1           0       -1.892761    2.155493   -0.119938
     10          1           0       -1.900907   -2.144515   -0.100136
     11          7           0        2.148680   -0.001924    0.028407
     12          8           0        2.732283    1.073440    0.045370
     13          8           0        2.728399   -1.079288    0.049184
     14          7           0       -3.414160   -0.013407    0.198592
     15          1           0       -3.918727    0.858065    0.193443
     16          1           0       -3.952803   -0.821401   -0.067985
 ---------------------------------------------------------------------
 Rotational constants (GHZ):      3.9369307      0.8320046      0.6887556
 Basis read from rwf:  (5D, 7F)
 There are   430 symmetry adapted basis functions of A   symmetry.
 Integral buffers will be    131072 words long.
 Raffenetti 2 integral format.
 Two-electron integral symmetry is turned on.
   430 basis functions,   652 primitive gaussians,   490 cartesian basis functions
    36 alpha electrons       36 beta electrons
       nuclear repulsion energy       497.5946011504 Hartrees.
 NAtoms=   16 NActive=   16 NUniq=   16 SFac= 7.50D-01 NAtFMM=   80 NAOKFM=F Big=F
 ------------------------------------------------------------------------------
 Polarizable Continuum Model (PCM)
 =================================
 Model                : C-PCM.
 Atomic radii         : UFF (Universal Force Field).
 Polarization charges : Total charges.
 Charge compensation  : None.
 Solution method      : Matrix inversion.
 Cavity type          : Scaled VdW (van der Waals Surface) (Alpha=1.100).
 Cavity algorithm     : GePol (No added spheres)
                        Default sphere list used, NSphG=   16.
                        Lebedev-Laikov grids with approx.  5.0 points / Ang**2.
                        Smoothing algorithm: Karplus/York (Gamma=1.0000).
                        Polarization charges: spherical gaussians, with
                                              point-specific exponents (IZeta= 3).
                        Self-potential: point-specific (ISelfS= 7).
                        Self-field    : sphere-specific E.n sum rule (ISelfD= 2).
 1st derivatives      : Analytical E(r).r(x)/FMM algorithm (CHGder, D1EAlg=3).
                        Cavity 1st derivative terms included.
 Solvent              : DiMethylSulfoxide, Eps=  46.826000 Eps(inf)=   2.007889
 ------------------------------------------------------------------------------
 Spheres list:
 ISph  on   Nord    Re0     Alpha      Xe            Ye            Ze
    1   C      1    1.926   1.100      0.015827     -1.209879     -0.042959
    2   C      2    1.926   1.100      0.700247      0.000232     -0.019223
    3   C      3    1.926   1.100      0.020677      1.211666     -0.047271
    4   C      4    1.926   1.100     -1.356159      1.214566     -0.087469
    5   C      5    1.926   1.100     -2.072527      0.007157     -0.087996
    6   C      6    1.926   1.100     -1.359812     -1.205920     -0.079385
    7   H      7    1.443   1.100      0.569942     -2.137771     -0.026568
    8   H      8    1.443   1.100      0.578647      2.137302     -0.038421
    9   H      9    1.443   1.100     -1.892761      2.155493     -0.119938
   10   H     10    1.443   1.100     -1.900907     -2.144515     -0.100136
   11   N     11    1.830   1.100      2.148680     -0.001924      0.028407
   12   O     12    1.750   1.100      2.732283      1.073440      0.045370
   13   O     13    1.750   1.100      2.728399     -1.079288      0.049184
   14   N     14    1.830   1.100     -3.414160     -0.013407      0.198592
   15   H     15    1.443   1.100     -3.918727      0.858065      0.193443
   16   H     16    1.443   1.100     -3.952803     -0.821401     -0.067985
 ------------------------------------------------------------------------------
 One-electron integrals computed using PRISM.
 NBasis=   430 RedAO= T  NBF=   430
 NBsUse=   429 1.00D-06 NBFU=   429
 Initial guess read from the read-write file.
 B after Tr=     0.000000    0.000000    0.000000
         Rot=    1.000000    0.000000    0.000000    0.000000 Ang=   0.00 deg.
 Initial guess orbital symmetries:
       Occupied  (A) (A) (A) (A) (A) (A) (A) (A) (A) (A) (A) (A)
                 (A) (A) (A) (A) (A) (A) (A) (A) (A) (A) (A) (A)
                 (A) (A) (A) (A) (A) (A) (A) (A) (A) (A) (A) (A)
       Virtual   (A) (A) (A) (A) (A) (A) (A) (A) (A) (A) (A) (A)
                 (A) (A) (A) (A) (A) (A) (A) (A) (A) (A) (A) (A)
                 (A) (A) (A) (A) (A) (A) (A) (A) (A) (A) (A) (A)
                 (A) (A) (A) (A) (A) (A) (A) (A) (A) (A) (A) (A)
                 (A) (A) (A) (A) (A) (A) (A) (A) (A) (A) (A) (A)
                 (A) (A) (A) (A) (A) (A) (A) (A) (A) (A) (A) (A)
                 (A) (A) (A) (A) (A) (A) (A) (A) (A) (A) (A) (A)
                 (A) (A) (A) (A) (A) (A) (A) (A) (A) (A) (A) (A)
                 (A) (A) (A) (A) (A) (A) (A) (A) (A) (A) (A) (A)
                 (A) (A) (A) (A) (A) (A) (A) (A) (A) (A) (A) (A)
                 (A) (A) (A) (A) (A) (A) (A) (A) (A) (A) (A) (A)
                 (A) (A) (A) (A) (A) (A) (A) (A) (A) (A) (A) (A)
                 (A) (A) (A) (A) (A) (A) (A) (A) (A) (A) (A) (A)
                 (A) (A) (A) (A) (A) (A) (A) (A) (A) (A) (A) (A)
                 (A) (A) (A) (A) (A) (A) (A) (A) (A) (A) (A) (A)
                 (A) (A) (A) (A) (A) (A) (A) (A) (A) (A) (A) (A)
                 (A) (A) (A) (A) (A) (A) (A) (A) (A) (A) (A) (A)
                 (A) (A) (A) (A) (A) (A) (A) (A) (A) (A) (A) (A)
                 (A) (A) (A) (A) (A) (A) (A) (A) (A) (A) (A) (A)
                 (A) (A) (A) (A) (A) (A) (A) (A) (A) (A) (A) (A)
                 (A) (A) (A) (A) (A) (A) (A) (A) (A) (A) (A) (A)
                 (A) (A) (A) (A) (A) (A) (A) (A) (A) (A) (A) (A)
                 (A) (A) (A) (A) (A) (A) (A) (A) (A) (A) (A) (A)
                 (A) (A) (A) (A) (A) (A) (A) (A) (A) (A) (A) (A)
                 (A) (A) (A) (A) (A) (A) (A) (A) (A) (A) (A) (A)
                 (A) (A) (A) (A) (A) (A) (A) (A) (A) (A) (A) (A)
                 (A) (A) (A) (A) (A) (A) (A) (A) (A) (A) (A) (A)
                 (A) (A) (A) (A) (A) (A) (A) (A) (A) (A) (A) (A)
                 (A) (A) (A) (A) (A) (A) (A) (A) (A) (A) (A) (A)
                 (A) (A) (A) (A) (A) (A) (A) (A) (A) (A) (A) (A)
                 (A) (A) (A) (A) (A) (A) (A) (A) (A) (A) (A) (A)
                 (A) (A) (A) (A) (A) (A) (A) (A) (A) (A) (A) (A)
                 (A) (A) (A) (A) (A) (A) (A) (A) (A)
 Harris functional with IExCor=20419 diagonalized for initial guess.
 ExpMin= 4.85D-02 ExpMax= 2.70D+04 ExpMxC= 9.22D+02 IAcc=3 IRadAn=         5 AccDes= 0.00D+00
 HarFok:  IExCor=20419 AccDes= 0.00D+00 IRadAn=         5 IDoV= 1
 ScaDFX=  1.000000  1.000000  1.000000  1.000000
 FoFCou: FMM=F IPFlag=           0 FMFlag=      100000 FMFlg1=           0
         NFxFlg=           0 DoJE=T BraDBF=F KetDBF=T FulRan=T
         Omega=  0.000000  0.000000  1.000000  0.000000  0.000000 ICntrl=     500 IOpCl=  0
         NMat0=    1 NMatS0=    1 NMatT0=    0 NMatD0=    1 NMtDS0=    0 NMtDT0=    0
         I1Cent=           4 NGrid=           0.
 Petite list used in FoFCou.
 FoFJK:  IHMeth= 1 ICntrl=     0 DoSepK=T KAlg= 1 I1Cent= 0 FoldK=F
 Gradient too large for Newton-Raphson -- use scaled steepest descent instead.
 FoFJK:  IHMeth= 1 ICntrl=     0 DoSepK=T KAlg= 1 I1Cent= 0 FoldK=F
 FoFJK:  IHMeth= 1 ICntrl=     0 DoSepK=T KAlg= 1 I1Cent= 0 FoldK=F
 FoFJK:  IHMeth= 1 ICntrl=     0 DoSepK=T KAlg= 1 I1Cent= 0 FoldK=F
 FoFJK:  IHMeth= 1 ICntrl=     0 DoSepK=T KAlg= 1 I1Cent= 0 FoldK=F
 FoFJK:  IHMeth= 1 ICntrl=     0 DoSepK=T KAlg= 1 I1Cent= 0 FoldK=F
 FoFJK:  IHMeth= 1 ICntrl=     0 DoSepK=T KAlg= 1 I1Cent= 0 FoldK=F
 FoFJK:  IHMeth= 1 ICntrl=     0 DoSepK=T KAlg= 1 I1Cent= 0 FoldK=F
 Gradient too large for Newton-Raphson -- use scaled steepest descent instead.
 FoFJK:  IHMeth= 1 ICntrl=     0 DoSepK=T KAlg= 1 I1Cent= 0 FoldK=F
 FoFJK:  IHMeth= 1 ICntrl=     0 DoSepK=T KAlg= 1 I1Cent= 0 FoldK=F
 FoFJK:  IHMeth= 1 ICntrl=     0 DoSepK=T KAlg= 1 I1Cent= 0 FoldK=F
 LinEq1:  Iter=  0 NonCon=     1 RMS=3.74D-05 Max=1.37D-03
 AX will form     1 AO Fock derivatives at one time.
 FoFJK:  IHMeth= 1 ICntrl=     0 DoSepK=T KAlg= 1 I1Cent= 0 FoldK=F
 LinEq1:  Iter=  1 NonCon=     1 RMS=2.98D-05 Max=1.09D-03
 FoFJK:  IHMeth= 1 ICntrl=     0 DoSepK=T KAlg= 1 I1Cent= 0 FoldK=F
 LinEq1:  Iter=  2 NonCon=     1 RMS=1.20D-05 Max=5.23D-04
 FoFJK:  IHMeth= 1 ICntrl=     0 DoSepK=T KAlg= 1 I1Cent= 0 FoldK=F
 LinEq1:  Iter=  3 NonCon=     1 RMS=6.96D-06 Max=4.16D-04
 FoFJK:  IHMeth= 1 ICntrl=     0 DoSepK=T KAlg= 1 I1Cent= 0 FoldK=F
 LinEq1:  Iter=  4 NonCon=     1 RMS=5.80D-06 Max=2.61D-04
 FoFJK:  IHMeth= 1 ICntrl=     0 DoSepK=T KAlg= 1 I1Cent= 0 FoldK=F
 LinEq1:  Iter=  5 NonCon=     1 RMS=2.82D-06 Max=1.06D-04
 FoFJK:  IHMeth= 1 ICntrl=     0 DoSepK=T KAlg= 1 I1Cent= 0 FoldK=F
 LinEq1:  Iter=  6 NonCon=     1 RMS=1.75D-06 Max=7.26D-05
 FoFJK:  IHMeth= 1 ICntrl=     0 DoSepK=T KAlg= 1 I1Cent= 0 FoldK=F
 LinEq1:  Iter=  7 NonCon=     1 RMS=7.14D-07 Max=2.01D-05
 FoFJK:  IHMeth= 1 ICntrl=     0 DoSepK=T KAlg= 1 I1Cent= 0 FoldK=F
 LinEq1:  Iter=  8 NonCon=     1 RMS=3.23D-07 Max=6.72D-06
 FoFJK:  IHMeth= 1 ICntrl=     0 DoSepK=T KAlg= 1 I1Cent= 0 FoldK=F
 LinEq1:  Iter=  9 NonCon=     1 RMS=1.06D-07 Max=5.49D-06
 FoFJK:  IHMeth= 1 ICntrl=     0 DoSepK=T KAlg= 1 I1Cent= 0 FoldK=F
 LinEq1:  Iter= 10 NonCon=     1 RMS=5.40D-08 Max=2.18D-06
 FoFJK:  IHMeth= 1 ICntrl=     0 DoSepK=T KAlg= 1 I1Cent= 0 FoldK=F
 LinEq1:  Iter= 11 NonCon=     1 RMS=2.04D-08 Max=4.78D-07
 FoFJK:  IHMeth= 1 ICntrl=     0 DoSepK=T KAlg= 1 I1Cent= 0 FoldK=F
 LinEq1:  Iter= 12 NonCon=     1 RMS=7.76D-09 Max=2.79D-07
 FoFJK:  IHMeth= 1 ICntrl=     0 DoSepK=T KAlg= 1 I1Cent= 0 FoldK=F
 LinEq1:  Iter= 13 NonCon=     0 RMS=3.48D-09 Max=1.49D-07
 Linear equations converged to 1.682D-08 1.682D-07 after    13 iterations.
 FoFJK:  IHMeth= 1 ICntrl=     0 DoSepK=T KAlg= 1 I1Cent= 0 FoldK=F
 FoFJK:  IHMeth= 1 ICntrl=     0 DoSepK=T KAlg= 1 I1Cent= 0 FoldK=F
 FoFJK:  IHMeth= 1 ICntrl=     0 DoSepK=T KAlg= 1 I1Cent= 0 FoldK=F
 LinEq1:  Iter=  0 NonCon=     1 RMS=4.78D-08 Max=1.87D-06
 FoFJK:  IHMeth= 1 ICntrl=     0 DoSepK=T KAlg= 1 I1Cent= 0 FoldK=F
 LinEq1:  Iter=  1 NonCon=     1 RMS=3.75D-08 Max=1.86D-06
 FoFJK:  IHMeth= 1 ICntrl=     0 DoSepK=T KAlg= 1 I1Cent= 0 FoldK=F
 LinEq1:  Iter=  2 NonCon=     1 RMS=1.26D-08 Max=6.03D-07
 FoFJK:  IHMeth= 1 ICntrl=     0 DoSepK=T KAlg= 1 I1Cent= 0 FoldK=F
 LinEq1:  Iter=  3 NonCon=     1 RMS=1.07D-08 Max=4.67D-07
 FoFJK:  IHMeth= 1 ICntrl=     0 DoSepK=T KAlg= 1 I1Cent= 0 FoldK=F
 LinEq1:  Iter=  4 NonCon=     1 RMS=5.12D-09 Max=2.86D-07
 FoFJK:  IHMeth= 1 ICntrl=     0 DoSepK=T KAlg= 1 I1Cent= 0 FoldK=F
 LinEq1:  Iter=  5 NonCon=     1 RMS=3.63D-09 Max=1.13D-07
 FoFJK:  IHMeth= 1 ICntrl=     0 DoSepK=T KAlg= 1 I1Cent= 0 FoldK=F
 LinEq1:  Iter=  6 NonCon=     1 RMS=1.53D-09 Max=3.73D-08
 FoFJK:  IHMeth= 1 ICntrl=     0 DoSepK=T KAlg= 1 I1Cent= 0 FoldK=F
 LinEq1:  Iter=  7 NonCon=     1 RMS=8.47D-10 Max=2.65D-08
 FoFJK:  IHMeth= 1 ICntrl=     0 DoSepK=T KAlg= 1 I1Cent= 0 FoldK=F
 LinEq1:  Iter=  8 NonCon=     1 RMS=3.29D-10 Max=1.64D-08
 FoFJK:  IHMeth= 1 ICntrl=     0 DoSepK=T KAlg= 1 I1Cent= 0 FoldK=F
 LinEq1:  Iter=  9 NonCon=     1 RMS=1.48D-10 Max=7.78D-09
 FoFJK:  IHMeth= 1 ICntrl=     0 DoSepK=T KAlg= 1 I1Cent= 0 FoldK=F
 LinEq1:  Iter= 10 NonCon=     1 RMS=8.65D-11 Max=4.10D-09
 FoFJK:  IHMeth= 1 ICntrl=     0 DoSepK=T KAlg= 1 I1Cent= 0 FoldK=F
 LinEq1:  Iter= 11 NonCon=     1 RMS=2.97D-11 Max=9.87D-10
 FoFJK:  IHMeth= 1 ICntrl=     0 DoSepK=T KAlg= 1 I1Cent= 0 FoldK=F
 LinEq1:  Iter= 12 NonCon=     0 RMS=1.49D-11 Max=3.70D-10
 Linear equations converged to 6.514D-11 6.514D-10 after    12 iterations.
 FoFJK:  IHMeth= 1 ICntrl=     0 DoSepK=T KAlg= 1 I1Cent= 0 FoldK=F
 Error on total polarization charges =  0.01393
 SCF Done:  E(RCAM-B3LYP) =  -492.097832626     a.u. after    5 cycles
            Convg  =    0.1425D-08                    40 Fock formations.
              S**2 =  0.0000                  -V/T =  2.0042
 D1PCM: C-PCM CHGder 1st derivatives, ID1Alg=3 FixD1E=F DoIter=F DoCFld=F I1PDM=0.
 Calling FoFJK, ICntrl=      2127 FMM=F ISym2X=0 I1Cent= 0 IOpClX= 0 NMat=1 NMatS=1 NMatT=0.
 FoFJK:  IHMeth= 1 ICntrl=  2127 DoSepK=T KAlg= 1 I1Cent= 0 FoldK=F
 ***** Axes restored to original set *****
 -------------------------------------------------------------------
 Center     Atomic                   Forces (Hartrees/Bohr)
 Number     Number              X              Y              Z
 -------------------------------------------------------------------
      1        6           0.002918003   -0.003433666   -0.000534326
      2        6           0.000027820    0.003694114   -0.000711017
      3        6           0.002470987   -0.002232211    0.001204122
      4        6           0.004555568    0.001657794   -0.000666390
      5        6          -0.026567777   -0.001263416    0.003862380
      6        6           0.007767764    0.004701413    0.000035801
      7        1          -0.000195403   -0.001149541   -0.000790487
      8        1          -0.000071783   -0.001151461    0.000766066
      9        1          -0.001957246    0.000554438    0.001196895
     10        1          -0.002128841    0.000490337   -0.001216179
     11        7          -0.000214168   -0.003204094   -0.000051570
     12        8          -0.000061219   -0.000729033    0.004621378
     13        8          -0.000072793   -0.000786695   -0.004581461
     14        7           0.011934034    0.002874996   -0.003658492
     15        1           0.002635465   -0.000269175    0.000451245
     16        1          -0.001040411    0.000246200    0.000072033
 -------------------------------------------------------------------
 Cartesian Forces:  Max     0.026567777 RMS     0.004826183

 GradGradGradGradGradGradGradGradGradGradGradGradGradGradGradGradGradGrad
 Berny optimization.
 Using GEDIIS/GDIIS optimizer.
 Internal  Forces:  Max     0.006354305 RMS     0.002338720
 Search for a local minimum.
 Step number   2 out of a maximum of   82
 All quantities printed in internal units (Hartrees-Bohrs-Radians)
 Mixed Optimization -- RFO/linear search
 Update second derivatives using D2CorX and points    1    2
 DE= -6.16D-03 DEPred=-6.63D-03 R= 9.29D-01
 SS=  1.41D+00  RLast= 3.00D-01 DXNew= 5.0454D-01 8.9925D-01
 Trust test= 9.29D-01 RLast= 3.00D-01 DXMaxT set to 5.05D-01
 Use linear search instead of GDIIS.
     Eigenvalues ---    0.00979   0.00979   0.01829   0.01933   0.02043
     Eigenvalues ---    0.02151   0.02179   0.02230   0.02233   0.02270
     Eigenvalues ---    0.02273   0.03012   0.03377   0.15974   0.16000
     Eigenvalues ---    0.16000   0.16000   0.16000   0.16003   0.22008
     Eigenvalues ---    0.22947   0.23738   0.23996   0.25000   0.25000
     Eigenvalues ---    0.25396   0.35294   0.35337   0.35641   0.35674
     Eigenvalues ---    0.37431   0.41820   0.42685   0.45893   0.45995
     Eigenvalues ---    0.46428   0.46431   0.47613   0.48188   0.50653
     Eigenvalues ---    0.92432   0.926581000.000001000.000001000.00000
     Eigenvalues --- 1000.000001000.000001000.000001000.000001000.00000
     Eigenvalues --- 1000.000001000.000001000.000001000.000001000.00000
     Eigenvalues --- 1000.000001000.000001000.000001000.000001000.00000
     Eigenvalues --- 1000.000001000.000001000.000001000.000001000.00000
     Eigenvalues --- 1000.000001000.000001000.000001000.000001000.00000
     Eigenvalues --- 1000.000001000.00000
 RFO step:  Lambda=-1.49658513D-03 EMin= 9.78995091D-03
 Quartic linear search produced a step of  1.52672.
 Iteration  1 RMS(Cart)=  0.08155828 RMS(Int)=  0.01124182
 Iteration  2 RMS(Cart)=  0.01758783 RMS(Int)=  0.00313403
 Iteration  3 RMS(Cart)=  0.00030133 RMS(Int)=  0.00312738
 Iteration  4 RMS(Cart)=  0.00000088 RMS(Int)=  0.00312738
 Variable       Old X    -DE/DX   Delta X   Delta X   Delta X     New X
                                 (Linear)    (Quad)   (Total)
    R1        2.62758  -0.00111  -0.00255   0.00130  -0.00305   2.62453
    R2        2.60050  -0.00478  -0.01624   0.00743  -0.00881   2.59169
    R3        2.04256  -0.00127  -0.00516   0.00130  -0.00385   2.03871
    R4        2.62541  -0.00199  -0.00587   0.00314  -0.00450   2.62091
    R5        2.73862  -0.00473  -0.01343  -0.00475  -0.01818   2.72044
    R6        2.60296  -0.00409  -0.01249   0.00358  -0.00890   2.59406
    R7        2.04249  -0.00125  -0.00527   0.00171  -0.00356   2.03893
    R8        2.65304  -0.00142  -0.00504  -0.00037  -0.00365   2.64939
    R9        2.04784  -0.00131  -0.00532   0.00128  -0.00404   2.04380
   R10        2.65881  -0.00080   0.00376  -0.01428  -0.00876   2.65005
   R11        2.59281  -0.00635  -0.00678  -0.01848  -0.02526   2.56755
   R12        2.04770  -0.00129  -0.00554   0.00184  -0.00369   2.04400
   R13        2.31234  -0.00441  -0.00760   0.00283  -0.00477   2.30757
   R14        2.31229  -0.00440  -0.00768   0.00301  -0.00467   2.30762
   R15        1.90298  -0.00033  -0.00077  -0.00024  -0.00101   1.90197
   R16        1.90296  -0.00032  -0.00081  -0.00015  -0.00096   1.90200
    A1        2.08289   0.00032  -0.00102   0.00509   0.00437   2.08726
    A2        2.08808   0.00043   0.00493  -0.00249   0.00228   2.09035
    A3        2.11220  -0.00075  -0.00394  -0.00253  -0.00664   2.10557
    A4        2.11503  -0.00061   0.00140  -0.00422  -0.00429   2.11074
    A5        2.08429   0.00031  -0.00037   0.00151   0.00186   2.08616
    A6        2.08385   0.00030  -0.00105   0.00276   0.00243   2.08628
    A7        2.08445   0.00026   0.00136  -0.00052   0.00114   2.08559
    A8        2.08757   0.00048   0.00416  -0.00022   0.00379   2.09137
    A9        2.11117  -0.00074  -0.00552   0.00074  -0.00494   2.10622
   A10        2.10394   0.00066  -0.00195  -0.00176   0.00010   2.10403
   A11        2.09170  -0.00016   0.00195   0.00160   0.00163   2.09333
   A12        2.08755  -0.00051   0.00001   0.00016  -0.00179   2.08577
   A13        2.07490  -0.00123   0.00027   0.00845   0.00129   2.07619
   A14        2.10802  -0.00270   0.00612   0.00576  -0.00409   2.10394
   A15        2.07273   0.00538   0.05868  -0.01271   0.03017   2.10290
   A16        2.10484   0.00057  -0.00057  -0.00564  -0.00238   2.10246
   A17        2.09115  -0.00004   0.00112   0.00498   0.00414   2.09530
   A18        2.08719  -0.00053  -0.00055   0.00067  -0.00181   2.08538
   A19        2.06670   0.00122   0.01095  -0.00991   0.00095   2.06765
   A20        2.06620   0.00113   0.01019  -0.00927   0.00082   2.06703
   A21        2.15028  -0.00234  -0.02114   0.01919  -0.00204   2.14824
   A22        2.06679  -0.00073  -0.01065   0.00215  -0.00882   2.05797
   A23        2.07119   0.00025  -0.00393   0.00352  -0.00073   2.07046
   A24        2.00977  -0.00018  -0.00786   0.00363  -0.00461   2.00516
    D1       -0.01317  -0.00046  -0.02084   0.02092   0.00055  -0.01262
    D2        3.13425  -0.00031  -0.01393   0.01149  -0.00207   3.13219
    D3        3.13482  -0.00026  -0.01005   0.00702  -0.00321   3.13161
    D4       -0.00095  -0.00011  -0.00314  -0.00240  -0.00582  -0.00677
    D5       -0.00384  -0.00010  -0.00676   0.01572   0.00846   0.00462
    D6        3.13939  -0.00015  -0.01029   0.00807  -0.00353   3.13586
    D7        3.13127  -0.00030  -0.01771   0.02981   0.01228  -3.13963
    D8       -0.00868  -0.00035  -0.02124   0.02217   0.00029  -0.00839
    D9        0.01006   0.00028   0.01610  -0.01817  -0.00177   0.00829
   D10       -3.13031   0.00046   0.01694  -0.01419   0.00223  -3.12807
   D11       -3.13736   0.00013   0.00919  -0.00875   0.00084  -3.13652
   D12        0.00546   0.00031   0.01004  -0.00477   0.00485   0.01031
   D13        3.13851  -0.00001  -0.00346   0.01964   0.01623  -3.12845
   D14       -0.00261  -0.00012  -0.00327  -0.00511  -0.00833  -0.01093
   D15        0.00264   0.00014   0.00332   0.01040   0.01367   0.01631
   D16       -3.13848   0.00004   0.00351  -0.01434  -0.01089   3.13382
   D17        0.01008   0.00047   0.01628  -0.02137  -0.00608   0.00400
   D18       -3.13050   0.00074   0.02386  -0.01744   0.00479  -3.12571
   D19       -3.13276   0.00028   0.01543  -0.02540  -0.01011   3.14031
   D20        0.00984   0.00056   0.02301  -0.02147   0.00076   0.01060
   D21       -0.02647  -0.00099  -0.04290   0.05653   0.01476  -0.01172
   D22        2.86211   0.00632   0.19218   0.06145   0.24875   3.11085
   D23        3.11411  -0.00127  -0.05046   0.05260   0.00393   3.11804
   D24       -0.28050   0.00605   0.18462   0.05752   0.23793  -0.04257
   D25        0.02333   0.00081   0.03810  -0.05376  -0.01598   0.00735
[...]
 ! D5    D(2,1,6,5)              0.0327         -DE/DX =    0.0                 !
 ! D6    D(2,1,6,10)          -179.9595         -DE/DX =    0.0                 !
 ! D7    D(7,1,6,5)           -179.9033         -DE/DX =    0.0                 !
 ! D8    D(7,1,6,10)             0.1045         -DE/DX =    0.0                 !
 ! D9    D(1,2,3,4)             -0.0138         -DE/DX =    0.0                 !
 ! D10   D(1,2,3,8)           -179.9504         -DE/DX =    0.0                 !
 ! D11   D(11,2,3,4)           179.9127         -DE/DX =    0.0                 !
 ! D12   D(11,2,3,8)            -0.024          -DE/DX =    0.0                 !
 ! D13   D(1,2,11,12)          179.9605         -DE/DX =    0.0                 !
 ! D14   D(1,2,11,13)           -0.0339         -DE/DX =    0.0                 !
 ! D15   D(3,2,11,12)            0.0333         -DE/DX =    0.0                 !
 ! D16   D(3,2,11,13)         -179.9612         -DE/DX =    0.0                 !
 ! D17   D(2,3,4,5)             -0.0328         -DE/DX =    0.0                 !
 ! D18   D(2,3,4,9)            179.9594         -DE/DX =    0.0                 !
 ! D19   D(8,3,4,5)            179.9033         -DE/DX =    0.0                 !
 ! D20   D(8,3,4,9)             -0.1045         -DE/DX =    0.0                 !
 ! D21   D(3,4,5,6)              0.0777         -DE/DX =    0.0                 !
 ! D22   D(3,4,5,14)           178.9279         -DE/DX =    0.0                 !
 ! D23   D(9,4,5,6)           -179.9146         -DE/DX =    0.0                 !
 ! D24   D(9,4,5,14)            -1.0643         -DE/DX =    0.0                 !
 ! D25   D(4,5,6,1)             -0.0776         -DE/DX =    0.0                 !
 ! D26   D(4,5,6,10)           179.9146         -DE/DX =    0.0                 !
 ! D27   D(14,5,6,1)          -178.9279         -DE/DX =    0.0                 !
 ! D28   D(14,5,6,10)            1.0644         -DE/DX =    0.0                 !
 ! D29   D(4,5,14,15)           10.0811         -DE/DX =    0.0                 !
 ! D30   D(4,5,14,16)          171.0919         -DE/DX =    0.0                 !
 ! D31   D(6,5,14,15)         -171.0915         -DE/DX =    0.0                 !
 ! D32   D(6,5,14,16)          -10.0808         -DE/DX =    0.0                 !
 --------------------------------------------------------------------------------
 GradGradGradGradGradGradGradGradGradGradGradGradGradGradGradGradGradGrad

 1\1\GINC-DLT02\Freq\RCAM-B3LYP\Gen\C6H6N2O2\MATHEUSMAXIMO\20-Jan-2023\
 0\\#N Geom=AllCheck Guess=TCheck SCRF=Check GenChk RCAM-B3LYP/ChkBas F
 req\\NA CAM-B3LYP def2-TZVPD - solvent CPCM DMSO\\0,1\C,0.1519285499,0
 .1891036316,0.0008035403\C,0.1847584429,0.8724365199,-1.2093220364\C,0
 .1261225875,0.1842391418,-2.415709561\C,0.0351697436,-1.1837538993,-2.
 4128987926\C,0.0013588518,-1.8967600649,-1.2017891191\C,0.0609959827,-
 1.1788853778,0.0054425468\H,0.1992322768,0.7393968215,0.927942159\H,0.
 1535918795,0.730793159,-3.3458548633\H,-0.011392498,-1.7237132143,-3.3
 491574111\H,0.0344633311,-1.7150697863,0.9446478404\N,0.2819717142,2.3
 060504594,-1.2132454961\O,0.3102535032,2.8890112167,-2.2873928219\O,0.
 3331486554,2.8933285679,-0.1423015696\N,-0.1101205229,-3.2453569439,-1
 .19788373\H,-0.0183114248,-3.7634166559,-2.0537838029\H,-0.0000363129,
 -3.7599702854,-0.342060005\\Version=EM64L-G09RevA.02\State=1-A\HF=-492
 .1020581\RMSD=0.000e+00\RMSF=2.378e-06\ZeroPoint=0.1204063\Thermal=0.1
 287896\Dipole=-0.0753907,-3.9878263,0.0088323\DipoleDeriv=-0.0398726,0
 .0713485,-0.0092101,0.0800878,1.0895069,-0.1670507,-0.0400029,-0.60931
 68,0.1231501,-0.0569112,-0.1458539,-0.0020232,-0.1569774,-2.2279031,0.
 0056089,-0.0020009,0.0054885,-0.27389,-0.0387549,0.0843422,0.0123214,0
 .0837631,1.0926135,0.1613961,0.0430984,0.6037505,0.1189296,-0.262844,-
 0.0368132,0.0059555,-0.0683893,-1.1645098,0.0353497,0.0781194,0.964285
 4,-0.044227,0.2308107,0.2917319,-0.0002852,0.2561632,3.3158547,-0.0088
 895,-0.0002139,-0.0092711,0.25908,-0.2645334,-0.0573609,-0.0010169,-0.
 0693849,-1.1685085,-0.0293486,-0.0730927,-0.9587477,-0.0385352,0.16958
 56,-0.0034828,-0.0043181,-0.0019044,0.1439077,-0.0478525,-0.0039475,-0
 .0389593,0.0614601,0.1697131,-0.0026392,0.0020142,-0.000874,0.1442557,
 0.0475485,0.0016367,0.0386913,0.0609842,0.1824327,-0.0103056,-0.005553
 ,-0.011699,0.008741,-0.0822311,-0.007294,-0.0856372,-0.0140075,0.18261
 81,-0.0084618,0.001383,-0.0099202,0.0094171,0.0823674,0.0031301,0.0857
 431,-0.0148695,0.3497497,0.2630635,0.0215659,0.2741787,4.2401148,-0.00
 65913,0.0215429,-0.006472,2.4197419,-0.3450938,-0.0724831,0.0302173,-0
 .0786442,-1.5621708,0.6121901,0.0567635,0.9671167,-1.4219962,-0.347432
 5,-0.0932709,-0.0527562,-0.0919605,-1.5685185,-0.6097742,-0.0792928,-0
 .9647532,-1.413309,-0.6975305,-0.5517221,0.0061029,-0.2200439,-2.89161
 21,0.0077082,0.0054352,0.0112489,-0.2300264,0.3846208,0.1377718,0.0265
 291,0.0085006,0.2698591,0.0601942,0.0245109,0.1631523,0.2027149,0.3834
 421,0.1341357,-0.0309266,0.0071042,0.2689523,-0.0606252,-0.0283924,-0.
 1663193,0.2047999\Polar=74.5598504,11.5389899,234.4782499,0.6708195,-0
 .314271,139.5550506\PG=C01 [X(C6H6N2O2)]\NImag=0\\0.15178906,0.0396093
 6,0.73236264,0.00934036,0.04480679,0.73284160,-0.06547353,-0.00439233,
 0.00421290,0.13718401,-0.00374707,-0.13720361,0.09842751,0.02943675,0.
 57334512,0.00071362,0.04592349,-0.28996178,0.00657901,0.00005941,0.758
 76014,0.00910445,0.00303580,-0.00207089,-0.06568056,-0.00586741,-0.005
 47884,0.15165193,0.00260370,0.05154816,-0.02073331,-0.00540523,-0.1377
 8696,-0.04643150,0.03863068,0.73199741,0.00060567,0.02022815,-0.058956
 73,-0.00897769,-0.09893746,-0.28917201,0.00292072,-0.04563807,0.733343
 66,-0.00299016,-0.00216278,0.00182141,0.00859820,-0.00379632,-0.004334
 36,-0.06326533,-0.02213246,0.00130773,0.13201498,-0.00218147,-0.040399
 04,0.03067399,-0.00459141,-0.04901660,-0.07304788,-0.02108896,-0.38105
 847,0.03367073,0.04230392,0.74679185,0.00095727,0.01613284,-0.01445573
 ,-0.00073741,-0.01394821,0.03072654,-0.00312242,-0.03721960,-0.1356545
 1,0.00929415,0.04946177,0.69927611,0.00115986,-0.00464601,-0.00142143,
 -0.00737712,0.00429545,-0.00071104,0.00130876,-0.00295782,0.00234792,-
 0.07369602,-0.00375262,0.00184801,0.17955888,-0.00290250,-0.04377257,-
 0.02768603,0.00278789,0.03501832,-0.00024748,-0.00228629,-0.04334358,0
 .02809350,-0.00353185,-0.14669541,0.08160949,0.03108839,0.72850715,-0.
 00462296,-0.07846760,0.04417730,-0.00070795,-0.00026365,-0.07313900,0.
 00554452,0.07890093,0.04359933,-0.00023696,0.02786086,-0.26893518,0.00
 537074,-0.00041329,0.68829215,-0.06325766,-0.02133014,-0.00276692,0.00
 871687,-0.00347568,0.00481542,-0.00305449,-0.00251352,-0.00205351,0.00
 759350,0.00321449,-0.00123447,-0.07381912,-0.00528661,-0.00390842,0.13
 187325,-0.02178292,-0.38103945,-0.03222502,-0.00302302,-0.04866472,0.0
 7344858,-0.00283927,-0.04058686,-0.03051504,0.00300319,0.05501734,-0.0
 1025202,-0.00436774,-0.14713760,-0.02826391,0.04122229,0.74639020,0.00
 166208,0.03867154,-0.13568217,0.00121909,0.01434532,0.03025599,-0.0011
 8871,-0.01597755,-0.01420359,0.00018885,0.00979995,-0.04076815,-0.0059
 9475,-0.08200512,-0.26836905,0.00266252,-0.05054341,0.69981957,-0.0426
 1615,-0.00736795,-0.01115161,0.00555776,0.00030948,0.00056420,0.004591
 41,-0.00037153,0.00014735,-0.00122906,0.00002116,0.00007417,0.00899510
 ,-0.00094867,-0.00003545,0.00597957,-0.00100633,-0.00176918,0.02808816
 ,-0.00736493,-0.13106443,-0.12646849,0.00063862,0.01308088,0.01205809,
 -0.00038910,-0.00161563,0.00331634,0.00003677,-0.00071841,0.00044033,-
 0.00096215,-0.00476424,0.00095561,-0.00139473,-0.01010780,-0.02662350,
 0.00883648,0.13634927,-0.01105117,-0.12526372,-0.27837715,-0.00127377,
 -0.01506391,-0.01819460,0.00017844,0.00393226,-0.00305613,0.00005293,0
 .00047849,0.00052808,0.00004300,0.00162485,0.00116774,0.00014347,0.002
 13922,0.00614221,0.01213725,0.13713318,0.29010710,0.00458102,-0.000456
 41,-0.00030851,0.00556204,0.00062654,-0.00107364,-0.04224921,-0.004662
 72,0.00612107,0.00601443,-0.00104395,0.00177498,0.00899144,-0.00098311
 ,-0.00012767,-0.00123097,0.00001077,-0.00003662,0.00069676,0.00000189,
 -0.00006788,0.02768884,-0.00046094,-0.00164480,-0.00331293,0.00038371,
 0.01309244,-0.01219501,-0.00463434,-0.13005278,0.12599860,-0.00082570,
 -0.01000887,0.02671218,-0.00098259,-0.00477446,-0.00091091,0.00002728,
 -0.00072209,-0.00043598,-0.00001409,0.00059935,-0.00076021,0.00587484,
 0.13524684,-0.00033955,-0.00392909,-0.00301655,0.00076412,0.01492793,-
 0.01821043,0.00602059,0.12479420,-0.27975586,-0.00013733,-0.00205236,0
 .00600840,-0.00020610,-0.00158029,0.00118160,-0.00001545,-0.00047379,0
 .00053367,0.00003628,0.00075477,-0.00078352,-0.00654959,-0.13666587,0.
 29160891,-0.00080741,0.00003452,0.00003057,0.00770023,-0.00076996,0.00
 008494,0.00280633,-0.00101034,-0.00187382,-0.03592569,-0.00748772,-0.0
 1083795,0.00436384,0.00008334,0.00081946,0.00505204,-0.00039419,0.0001
 0411,-0.00053925,0.00004192,-0.00000109,-0.00532200,0.00044317,0.00007
 530,0.02499592,-0.00000078,-0.00085410,0.00053259,-0.00079714,-0.00436
 793,0.00175825,-0.00133167,-0.01264102,-0.02892317,-0.00746299,-0.1287
 0184,-0.12073148,0.00053517,0.01010342,0.01516208,-0.00041311,-0.00125
 527,0.00299994,0.00004277,0.00004551,-0.00009523,0.00045831,0.00144213
 ,0.00025204,0.00859275,0.13468975,0.00008973,0.00131027,-0.00021306,-0
 .00003412,0.00052410,0.00185957,0.00015853,0.00204560,0.00485124,-0.01
 075703,-0.12085207,-0.27367719,-0.00128584,-0.01597933,-0.01888964,0.0
 0015961,0.00334469,-0.00314735,-0.00000234,-0.00007777,0.00000326,0.00
 005492,-0.00028100,0.00074889,0.01166123,0.13045143,0.28711898,0.00284
 398,-0.00104542,0.00191967,0.00769657,-0.00078131,-0.00020641,-0.00080
 970,0.00000647,-0.00001782,0.00504270,-0.00046638,-0.00027704,0.004363
 16,0.00041903,-0.00131720,-0.03557262,-0.00487775,0.00576606,-0.005322
 06,0.00044899,0.00005258,-0.00053894,0.00004360,0.00001250,-0.00036826
 ,0.00007134,-0.00005356,0.02461697,-0.00071345,-0.01253245,0.02901494,
 -0.00083433,-0.00437694,-0.00171571,-0.00001246,-0.00086151,-0.0005298
 3,-0.00047815,-0.00128080,-0.00299792,0.00021416,0.01010620,-0.0152868
 2,-0.00485594,-0.12773117,0.12027470,0.00045282,0.00144220,-0.00026456
 ,0.00004482,0.00004620,0.00009412,0.00005649,0.00054771,-0.00070789,0.
 00577559,0.13364133,-0.00011269,-0.00195373,0.00470503,-0.00008719,-0.
 00048242,0.00187227,-0.00007688,-0.00130810,-0.00020335,-0.00033249,-0
 .00334300,-0.00311249,0.00078758,0.01585722,-0.01889176,0.00568506,0.1
 2039580,-0.27500095,0.00007293,0.00026868,0.00074887,0.00001373,0.0000
 7669,0.00000225,0.00004158,0.00070062,-0.00091689,-0.00607136,-0.12998
 618,0.28854629,-0.00595512,-0.00329563,0.00229039,-0.08270027,-0.00281
 879,-0.00037808,-0.00603825,-0.00387402,-0.00185942,0.00766366,0.00123
 669,-0.00137900,-0.00161107,-0.00240362,-0.00004108,0.00769654,0.00135
 032,0.00107543,-0.00418194,0.00027354,-0.00019065,-0.00417665,0.000287
 59,0.00021431,0.00155413,-0.00008795,0.00003366,0.00155513,-0.00005409
 ,-0.00006056,0.25813928,-0.00320473,-0.05850614,0.03067114,-0.00275281
 ,-0.12334632,0.00003896,-0.00386305,-0.05873633,-0.03030532,0.00079533
 ,0.02604154,-0.01804361,-0.00379910,-0.03662230,0.00010242,0.00118029,
 0.02613432,0.01789214,0.00027002,-0.00008968,-0.00307838,0.00033569,-0
 .00007483,0.00306007,-0.00009452,0.00054490,0.00079129,-0.00011102,0.0
 0054813,-0.00079016,0.02727553,0.65783833,0.00203058,0.02686847,0.0133
 4835,-0.00037821,0.00003959,-0.11862804,-0.00159977,-0.02650155,0.0136
 6160,-0.00046369,-0.00516845,-0.00622477,-0.00003830,0.00008747,-0.005
 91223,0.00016136,0.00501049,-0.00635050,-0.00003408,-0.00062844,-0.003
 01060,0.00005762,0.00061063,-0.00303074,-0.00010726,-0.00159380,0.0002
 8443,0.00008050,0.00159425,0.00028020,0.00673605,0.00018489,0.89429959
 ,0.00482775,-0.00026851,-0.00072620,0.02051172,-0.00422318,0.00326751,
 0.00103130,-0.00004285,0.00024216,-0.00074163,-0.00020764,0.00030082,0
 .00035858,0.00054029,0.00015619,-0.00112452,-0.00043496,-0.00009319,0.
 00019891,0.00002259,0.00001610,0.00041486,-0.00026293,0.00008924,-0.00
 002926,-0.00001731,-0.00001608,-0.00072747,-0.00001846,0.00001046,-0.0
 8553489,-0.00835225,0.00787715,0.03165538,-0.00035021,0.00159295,-0.01
 090280,-0.00416888,-0.04895505,0.05318495,0.00015850,0.00259915,0.0052
 2590,-0.00016750,-0.00473778,0.00471989,0.00105102,0.00990404,0.002344
 20,-0.00043302,-0.00833532,-0.00215017,0.00002725,0.00068508,0.0001064
 3,-0.00024674,-0.00332833,0.00087043,-0.00001109,-0.00029327,-0.000273
 75,-0.00000424,-0.00106831,0.00008566,-0.00831617,-0.23256266,0.163372
 89,0.01227339,0.24368039,-0.00033818,-0.00542342,0.00666003,0.00287887
 ,0.04755537,-0.01229453,-0.00109377,-0.01458659,-0.01006732,0.00036326
 ,0.00679120,-0.00270193,-0.00103558,-0.00983246,-0.00003365,0.00041105
 ,0.00618854,0.00441972,-0.00003612,-0.00082960,0.00112101,-0.00003237,
 -0.00100366,0.00340171,0.00000336,0.00016589,0.00011650,0.00001861,0.0
 0037058,-0.00011182,0.00759927,0.15909366,-0.39048821,-0.00865129,-0.2
 0613428,0.53867252,0.00104441,0.00026655,-0.00048030,0.02036608,-0.005
 25023,-0.00394139,0.00485133,-0.00014941,0.00076490,-0.00112875,-0.000
 56580,0.00021388,0.00037709,0.00074899,-0.00016789,-0.00075667,-0.0003
 5377,-0.00034070,0.00041503,-0.00024138,-0.00002444,0.00019976,0.00004
 028,0.00000341,-0.00072780,-0.00002633,0.00000281,-0.00002892,-0.00002
 076,0.00001926,-0.08600306,-0.01179747,-0.01432327,0.02921121,0.001316
 46,-0.00113832,0.03225413,0.00005033,0.00263653,-0.00527928,-0.0053145
 4,-0.04935967,-0.05293430,-0.00011561,0.00165879,0.01092787,-0.0003879
 1,-0.00835134,0.00221037,0.00100441,0.00993395,-0.00240634,-0.00026971
 ,-0.00478405,-0.00470681,-0.00026471,-0.00332772,-0.00083788,0.0000251
 9,0.00068800,-0.00010525,-0.00000608,-0.00107013,-0.00008169,-0.000005
 23,-0.00029283,0.00027557,-0.01185170,-0.23386238,-0.16378731,0.001523
 10,0.04998504,0.00940734,0.01673939,0.24534367,0.00085560,0.01453305,-
 0.01011791,-0.00355275,-0.04730481,-0.01174438,0.00037706,0.00544799,0
 .00657067,-0.00029075,-0.00612644,0.00443995,0.00102235,0.00977854,-0.
 00008211,-0.00040343,-0.00677679,-0.00264059,0.00009716,0.00103614,0.0
 0340088,0.00005569,0.00083067,0.00111724,-0.00000541,-0.00036624,-0.00
 010966,-0.00000024,-0.00016384,0.00011572,-0.01404533,-0.15950830,-0.3
 8872037,-0.00245835,-0.01019841,-0.13899204,0.01938678,0.20700438,0.53
 641074,0.00475501,0.00410517,-0.00095735,-0.00109524,-0.00721403,0.000
 10836,0.00477193,0.00397316,0.00060780,0.00993720,-0.00688073,0.005583
 88,-0.04319646,-0.00024326,-0.00099999,0.00972408,-0.00799395,-0.00572
 034,-0.00031238,0.00010725,-0.00004010,-0.00031014,0.00013647,0.000050
 40,-0.00235877,0.00021477,0.00001345,-0.00235239,0.00020774,0.00007581
 ,-0.00000872,0.00746553,-0.00000891,-0.00011060,-0.00203346,0.00193699
 ,-0.00015118,-0.00203503,-0.00191855,0.02825575,0.00093717,0.01965459,
 -0.00611381,-0.00209834,-0.03320659,0.00010471,0.00106621,0.01965350,0
 .00596967,-0.00462074,-0.05528250,0.02666604,-0.02512004,-0.34359125,0
 .00068429,-0.00520400,-0.05559467,-0.02632964,-0.00002362,-0.00022794,
 -0.00012974,-0.00002058,-0.00022194,0.00013190,0.00025752,0.00223879,-
 0.00136084,0.00028757,0.00224291,0.00135350,0.00233493,0.03417008,-0.0
 0009257,-0.00055605,-0.00958562,0.00869367,-0.00074097,-0.00961934,-0.
 00863977,-0.03286428,0.76885201,-0.00017865,0.00622199,-0.01083092,0.0
 0009805,0.00015936,0.00768943,-0.00015866,-0.00643102,-0.01084670,0.00
 425054,0.05125173,0.00177761,-0.00094993,0.00041876,-0.13689164,-0.004
 39714,-0.05086145,0.00230296,-0.00005393,-0.00136031,0.00019803,0.0000
 6481,0.00135939,0.00018979,-0.00022278,0.00033161,0.00186853,0.0003117
 9,-0.00033764,0.00185805,0.00000141,-0.00014736,0.00056384,-0.00002101
 ,-0.00024766,0.00031180,0.00003387,0.00033117,0.00038612,0.00899445,0.
 00054340,0.86440333,0.00178598,-0.00142034,0.00008845,0.00021602,0.001
 66373,-0.00023248,-0.00080434,-0.00069971,-0.00017647,-0.00189054,0.00
 129248,-0.00105916,-0.00495067,-0.00857942,-0.00483040,0.00404556,0.00
 026631,0.00135756,-0.00046677,-0.00004425,0.00001952,0.00014522,-0.000
 01108,-0.00000930,0.00028723,0.00016689,0.00000222,-0.00068025,0.00005
 827,0.00004647,-0.00020051,-0.00170203,-0.00001851,0.00002287,0.000468
 66,-0.00044189,0.00004594,0.00045299,0.00045575,-0.00290521,0.03150023
 ,0.04293960,0.00918048,-0.00025315,-0.00022824,-0.00156747,0.00006917,
 0.00087940,0.00030648,-0.00024355,-0.00055693,-0.00015799,-0.00027312,
 0.00256227,-0.00176233,0.00385243,-0.01650634,-0.03236493,-0.00023276,
 -0.00413795,0.00302856,0.00000565,-0.00033992,0.00008565,0.00003150,0.
 00005359,0.00000547,0.00018970,-0.00048958,0.00102007,0.00007181,0.000
 06096,-0.00012775,-0.00002792,-0.00074354,0.00005280,0.00001414,0.0001
 8546,-0.00016612,0.00001695,0.00023825,0.00029161,0.01982338,-0.170410
 52,-0.16673060,-0.02040015,0.17519432,-0.00003641,-0.00121503,0.000676
 84,0.00016959,0.00244218,0.00008546,-0.00042351,-0.00154238,-0.0007773
 9,-0.00006814,0.00353245,0.00064602,-0.00074673,-0.00251682,0.00649579
 ,0.00061796,0.00295114,0.00206019,-0.00002298,0.00004669,0.00002594,0.
 00001998,0.00002165,-0.00002153,0.00022999,-0.00051137,-0.00013026,0.0
 0002142,0.00013264,0.00023160,-0.00007931,-0.00262551,-0.00002993,0.00
 002525,0.00070905,-0.00070027,0.00003234,0.00070463,0.00067233,0.03068
 663,-0.16715696,-0.36168941,-0.03417085,0.18158565,0.36738880,-0.00079
 148,-0.00066588,0.00017945,0.00021723,0.00161205,0.00022319,0.00178445
 ,-0.00139439,-0.00010657,0.00400250,0.00019795,-0.00139971,-0.00482623
 ,-0.00850260,0.00510507,-0.00186537,0.00122101,0.00110781,0.00014492,-
 0.00001151,0.00000579,-0.00046647,-0.00004527,-0.00000882,-0.00068130,
 0.00005528,-0.00002719,0.00028209,0.00017775,-0.00001172,-0.00019827,-
 0.00164542,0.00002874,0.00003579,0.00043604,-0.00044390,0.00003141,0.0
 0045511,0.00042442,-0.00464289,0.03486500,-0.05071240,-0.00383100,-0.0
 0264409,0.00374477,0.01080464,-0.00023842,-0.00055004,0.00016219,0.000
 06188,0.00086824,-0.00031103,-0.00021948,-0.00021695,0.00157612,-0.000
 29969,-0.00416193,-0.00299774,0.00454704,-0.01636532,0.03236708,-0.000
 23512,0.00255507,0.00176002,0.00003128,0.00005348,-0.00000644,0.000003
 95,-0.00034044,-0.00008428,0.00007448,0.00006094,0.00012688,0.00016694
 ,-0.00049161,-0.00102241,-0.00002869,-0.00073310,-0.00004937,0.0000106
 4,0.00023422,-0.00029012,0.00001751,0.00018324,0.00016221,0.02323128,-
 0.16907152,0.16549864,-0.00301259,0.01423877,-0.01655799,-0.02411102,0
 .17373695,0.00042471,0.00155601,-0.00079713,-0.00017255,-0.00248031,0.
 00009540,0.00001359,0.00124869,0.00066710,-0.00065811,-0.00293096,0.00
 212724,0.00097009,0.00279100,0.00623033,0.00012288,-0.00356702,0.00062
 805,-0.00002366,-0.00002172,-0.00002111,0.00003348,-0.00004426,0.00002
 617,-0.00000222,-0.00013316,0.00023266,-0.00023951,0.00050917,-0.00012
 301,0.00008291,0.00266407,-0.00004261,-0.00001876,-0.00071234,0.000686
 51,-0.00004092,-0.00072248,-0.00070659,-0.03841253,0.16567615,-0.36129
 082,-0.00397050,0.01650090,-0.01493418,0.04189108,-0.18033376,0.367222
 01\\0.00000127,0.00000023,0.,0.00000260,-0.00000124,-0.00000016,0.0000
 0128,0.00000048,0.00000014,-0.00000139,-0.00000024,0.00000018,-0.00000
 288,0.00000005,-0.00000015,-0.00000132,0.00000018,0.00000001,0.0000023
 7,-0.00000011,-0.00000004,0.00000236,-0.00000018,0.00000002,-0.0000023
 6,0.00000017,0.00000002,-0.00000234,0.00000016,0.,0.00000542,0.0000010
 4,-0.00000006,0.00000652,-0.00000069,0.00000036,0.00000646,-0.00000081
 ,-0.00000049,-0.00000528,0.00000033,0.00000004,-0.00000632,0.00000032,
 0.00000006,-0.00000639,0.00000033,0.00000007\\\@


 I KNOW YOU BELIEVE YOU UNDERSTAND WHAT YOU THINK I SAID,
 BUT I AM NOT SURE YOU REALIZE THAT WHAT YOU HEARD IS NOT WHAT I MEANT.
 Job cpu time:  0 days  7 hours 35 minutes 49.8 seconds.
 File lengths (MBytes):  RWF=    251 Int=      0 D2E=      0 Chk=     15 Scr=      1
 Normal termination of Gaussian 09 at Fri Jan 20 01:54:50 2023.
