 Entering Gaussian System, Link 0=g09
 Initial command:
 /apps/software//g09/l1.exe /scratch/matheusmaximo/54055.cluster.abaxnet/Gau-6174.inp -scrdir=/scratch/matheusmaximo/54055.cluster.abaxnet/
 Entering Link 1 = /apps/software//g09/l1.exe PID=      6175.
  
 Copyright (c) 1988,1990,1992,1993,1995,1998,2003,2009, Gaussian, Inc.
                  All Rights Reserved.
  
 This is part of the Gaussian(R) 09 program.  It is based on
 the Gaussian(R) 03 system (copyright 2003, Gaussian, Inc.),
 the Gaussian(R) 98 system (copyright 1998, Gaussian, Inc.),
 the Gaussian(R) 94 system (copyright 1995, Gaussian, Inc.),
 the Gaussian 92(TM) system (copyright 1992, Gaussian, Inc.),
 the Gaussian 90(TM) system (copyright 1990, Gaussian, Inc.),
 the Gaussian 88(TM) system (copyright 1988, Gaussian, Inc.),
 the Gaussian 86(TM) system (copyright 1986, Carnegie Mellon
 University), and the Gaussian 82(TM) system (copyright 1983,
 Carnegie Mellon University). Gaussian is a federally registered
 trademark of Gaussian, Inc.
  
 This software contains proprietary and confidential information,
 including trade secrets, belonging to Gaussian, Inc.
  
 This software is provided under written license and may be
 used, copied, transmitted, or stored only in accord with that
 written license.
  
 The following legend is applicable only to US Government
 contracts under FAR:
  
                    RESTRICTED RIGHTS LEGEND
  
 Use, reproduction and disclosure by the US Government is
 subject to restrictions as set forth in subparagraphs (a)
 and (c) of the Commercial Computer Software - Restricted
 Rights clause in FAR 52.227-19.
  
 Gaussian, Inc.
 340 Quinnipiac St., Bldg. 40, Wallingford CT 06492
  
  
 ---------------------------------------------------------------
 Warning -- This program may not be used in any manner that
 competes with the business of Gaussian, Inc. or will provide
 assistance to any competitor of Gaussian, Inc.  The licensee
 of this program is prohibited from giving any competitor of
 Gaussian, Inc. access to this program.  By using this program,
 the user acknowledges that Gaussian, Inc. is engaged in the
 business of creating and licensing software in the field of
 computational chemistry and represents and warrants to the
 licensee that it is not a competitor of Gaussian, Inc. and that
 it will not use this program in any manner prohibited above.
 ---------------------------------------------------------------
  

 Cite this work as:
 Gaussian 09, Revision A.02,
 M. J. Frisch, G. W. Trucks, H. B. Schlegel, G. E. Scuseria, 
 M. A. Robb, J. R. Cheeseman, G. Scalmani, V. Barone, B. Mennucci, 
 G. A. Petersson, H. Nakatsuji, M. Caricato, X. Li, H. P. Hratchian, 
 A. F. Izmaylov, J. Bloino, G. Zheng, J. L. Sonnenberg, M. Hada, 
 M. Ehara, K. Toyota, R. Fukuda, J. Hasegawa, M. Ishida, T. Nakajima, 
 Y. Honda, O. Kitao, H. Nakai, T. Vreven, J. A. Montgomery, Jr., 
 J. E. Peralta, F. Ogliaro, M. Bearpark, J. J. Heyd, E. Brothers, 
 K. N. Kudin, V. N. Staroverov, R. Kobayashi, J. Normand, 
 K. Raghavachari, A. Rendell, J. C. Burant, S. S. Iyengar, J. Tomasi, 
 M. Cossi, N. Rega, J. M. Millam, M. Klene, J. E. Knox, J. B. Cross, 
 V. Bakken, C. Adamo, J. Jaramillo, R. Gomperts, R. E. Stratmann, 
 O. Yazyev, A. J. Austin, R. Cammi, C. Pomelli, J. W. Ochterski, 
 R. L. Martin, K. Morokuma, V. G. Zakrzewski, G. A. Voth, 
 P. Salvador, J. J. Dannenberg, S. Dapprich, A. D. Daniels, 
 O. Farkas, J. B. Foresman, J. V. Ortiz, J. Cioslowski, 
 and D. J. Fox, Gaussian, Inc., Wallingford CT, 2009.
 
 ******************************************
 Gaussian 09:  EM64L-G09RevA.02 11-Jun-2009
                22-Dec-2018 
 ******************************************
 %chk=/home/matheusmaximo/Gaussian/S0solvents/Toluene/1.chk
 ----------------------------------------------------------------------
 # opt=tight freq cam-b3lyp/gen geom=connectivity scf=qc int=ultrafine 
 scrf=(cpcm,solvent=Toluene)
 ----------------------------------------------------------------------
 1/7=10,14=-1,18=20,19=15,26=3,38=1,57=2/1,3;
 2/9=110,12=2,17=6,18=5,40=1/2;
 3/5=7,11=2,16=1,25=1,30=1,70=2101,71=1,72=13,74=-40,75=-5/1,2,3;
 4//1;
 5/5=2,8=3,38=5,53=13/8;
 6/7=2,8=2,9=2,10=2,28=1/1;
 7//1,2,3,16;
 1/7=10,14=-1,18=20,19=15/3(2);
 2/9=110/2;
 99//99;
 2/9=110/2;
 3/5=7,6=1,11=2,16=1,25=1,30=1,70=2105,71=1,72=13,74=-40,75=-5,82=7/1,2,3;
 4/5=5,16=3/1;
 5/5=2,8=3,38=5,53=13/8;
 7//1,2,3,16;
 1/7=10,14=-1,18=20,19=15/3(-5);
 2/9=110/2;
 6/7=2,8=2,9=2,10=2,19=2,28=1/1;
 99/9=1/99;
 ----------------------------------------------
 NA CAM-B3LYP def2-TZVPD - solvent CPCM Toluene
 ----------------------------------------------
 Symbolic Z-matrix:
 Charge =  0 Multiplicity = 1
 C                     0.18939   0.18182   0. 
 C                     0.18968   0.86558  -1.21174 
 C                     0.18939   0.18182  -2.42347 
 C                     0.18939  -1.19994  -2.42212 
 C                     0.19039  -1.91472  -1.21174 
 C                     0.18939  -1.19994  -0.00136 
 H                     0.18981   0.74124   0.92693 
 H                     0.18981   0.74124  -3.35041 
 H                     0.18489  -1.73987  -3.36381 
 H                     0.18489  -1.73987   0.94034 
 N                     0.19194   2.31945  -1.21174 
 O                     0.19303   2.89519  -2.29444 
 O                     0.19303   2.89519  -0.12903 
 N                    -0.27633  -3.20653  -1.16287 
 H                    -0.38663  -3.71586  -2.02486 
 H                    -0.06897  -3.76737  -0.35227 
 

 GradGradGradGradGradGradGradGradGradGradGradGradGradGradGradGradGradGrad
 Berny optimization.
 Initialization pass.
                           ----------------------------
                           !    Initial Parameters    !
                           ! (Angstroms and Degrees)  !
 --------------------------                            --------------------------
 ! Name  Definition              Value          Derivative Info.                !
 --------------------------------------------------------------------------------
 ! R1    R(1,2)                  1.3913         estimate D2E/DX2                !
 ! R2    R(1,6)                  1.3818         estimate D2E/DX2                !
 ! R3    R(1,7)                  1.0827         estimate D2E/DX2                !
 ! R4    R(2,3)                  1.3913         estimate D2E/DX2                !
 ! R5    R(2,11)                 1.4539         estimate D2E/DX2                !
 ! R6    R(3,4)                  1.3818         estimate D2E/DX2                !
 ! R7    R(3,8)                  1.0827         estimate D2E/DX2                !
 ! R8    R(4,5)                  1.4057         estimate D2E/DX2                !
 ! R9    R(4,9)                  1.0855         estimate D2E/DX2                !
 ! R10   R(5,6)                  1.4057         estimate D2E/DX2                !
 ! R11   R(5,14)                 1.3744         estimate D2E/DX2                !
 ! R12   R(6,10)                 1.0855         estimate D2E/DX2                !
 ! R13   R(11,12)                1.2263         estimate D2E/DX2                !
 ! R14   R(11,13)                1.2263         estimate D2E/DX2                !
 ! R15   R(14,15)                1.0073         estimate D2E/DX2                !
 ! R16   R(14,16)                1.0073         estimate D2E/DX2                !
 ! A1    A(2,1,6)              119.3789         estimate D2E/DX2                !
 ! A2    A(2,1,7)              119.453          estimate D2E/DX2                !
 ! A3    A(6,1,7)              121.1681         estimate D2E/DX2                !
 ! A4    A(1,2,3)              121.1297         estimate D2E/DX2                !
 ! A5    A(1,2,11)             119.4351         estimate D2E/DX2                !
 ! A6    A(3,2,11)             119.4351         estimate D2E/DX2                !
 ! A7    A(2,3,4)              119.3789         estimate D2E/DX2                !
 ! A8    A(2,3,8)              119.453          estimate D2E/DX2                !
 ! A9    A(4,3,8)              121.1681         estimate D2E/DX2                !
 ! A10   A(3,4,5)              120.6198         estimate D2E/DX2                !
 ! A11   A(3,4,9)              119.7722         estimate D2E/DX2                !
 ! A12   A(5,4,9)              119.6076         estimate D2E/DX2                !
 ! A13   A(4,5,6)              118.8727         estimate D2E/DX2                !
 ! A14   A(4,5,14)             120.5512         estimate D2E/DX2                !
 ! A15   A(6,5,14)             116.5567         estimate D2E/DX2                !
 ! A16   A(1,6,5)              120.6198         estimate D2E/DX2                !
 ! A17   A(1,6,10)             119.7722         estimate D2E/DX2                !
 ! A18   A(5,6,10)             119.6076         estimate D2E/DX2                !
 ! A19   A(2,11,12)            118.0025         estimate D2E/DX2                !
 ! A20   A(2,11,13)            118.0025         estimate D2E/DX2                !
 ! A21   A(12,11,13)           123.995          estimate D2E/DX2                !
 ! A22   A(5,14,15)            118.818          estimate D2E/DX2                !
 ! A23   A(5,14,16)            118.818          estimate D2E/DX2                !
 ! A24   A(15,14,16)           115.4465         estimate D2E/DX2                !
 ! D1    D(6,1,2,3)              0.0277         estimate D2E/DX2                !
 ! D2    D(6,1,2,11)          -179.8976         estimate D2E/DX2                !
 ! D3    D(7,1,2,3)            179.9891         estimate D2E/DX2                !
 ! D4    D(7,1,2,11)             0.0637         estimate D2E/DX2                !
 ! D5    D(2,1,6,5)              0.0337         estimate D2E/DX2                !
 ! D6    D(2,1,6,10)          -179.7399         estimate D2E/DX2                !
 ! D7    D(7,1,6,5)           -179.927          estimate D2E/DX2                !
 ! D8    D(7,1,6,10)             0.2995         estimate D2E/DX2                !
 ! D9    D(1,2,3,4)             -0.0277         estimate D2E/DX2                !
 ! D10   D(1,2,3,8)           -179.9891         estimate D2E/DX2                !
 ! D11   D(11,2,3,4)           179.8976         estimate D2E/DX2                !
 ! D12   D(11,2,3,8)            -0.0637         estimate D2E/DX2                !
 ! D13   D(1,2,11,12)          179.9532         estimate D2E/DX2                !
 ! D14   D(1,2,11,13)           -0.0265         estimate D2E/DX2                !
 ! D15   D(3,2,11,12)            0.0265         estimate D2E/DX2                !
 ! D16   D(3,2,11,13)         -179.9532         estimate D2E/DX2                !
 ! D17   D(2,3,4,5)             -0.0337         estimate D2E/DX2                !
 ! D18   D(2,3,4,9)            179.7399         estimate D2E/DX2                !
 ! D19   D(8,3,4,5)            179.927          estimate D2E/DX2                !
 ! D20   D(8,3,4,9)             -0.2995         estimate D2E/DX2                !
 ! D21   D(3,4,5,6)              0.093          estimate D2E/DX2                !
 ! D22   D(3,4,5,14)           156.7742         estimate D2E/DX2                !
 ! D23   D(9,4,5,6)           -179.6809         estimate D2E/DX2                !
 ! D24   D(9,4,5,14)           -22.9997         estimate D2E/DX2                !
 ! D25   D(4,5,6,1)             -0.093          estimate D2E/DX2                !
 ! D26   D(4,5,6,10)           179.6809         estimate D2E/DX2                !
 ! D27   D(14,5,6,1)          -157.691          estimate D2E/DX2                !
 ! D28   D(14,5,6,10)           22.0829         estimate D2E/DX2                !
 ! D29   D(4,5,14,15)           16.1258         estimate D2E/DX2                !
 ! D30   D(4,5,14,16)          165.7128         estimate D2E/DX2                !
 ! D31   D(6,5,14,15)          173.325          estimate D2E/DX2                !
 ! D32   D(6,5,14,16)          -37.088          estimate D2E/DX2                !
 --------------------------------------------------------------------------------
 Trust Radius=3.00D-01 FncErr=1.00D-07 GrdErr=1.00D-06
 Number of steps in this run=  82 maximum allowed number of steps= 100.
 GradGradGradGradGradGradGradGradGradGradGradGradGradGradGradGradGradGrad

                          Input orientation:                          
 ---------------------------------------------------------------------
 Center     Atomic      Atomic             Coordinates (Angstroms)
 Number     Number       Type             X           Y           Z
 ---------------------------------------------------------------------
      1          6           0        0.189394    0.181818    0.000000
      2          6           0        0.189682    0.865575   -1.211735
      3          6           0        0.189394    0.181818   -2.423471
      4          6           0        0.189394   -1.199937   -2.422115
      5          6           0        0.190393   -1.914717   -1.211735
      6          6           0        0.189394   -1.199937   -0.001356
      7          1           0        0.189810    0.741243    0.926934
      8          1           0        0.189810    0.741243   -3.350405
      9          1           0        0.184892   -1.739874   -3.363808
     10          1           0        0.184892   -1.739874    0.940337
     11          7           0        0.191945    2.319446   -1.211735
     12          8           0        0.193033    2.895192   -2.294443
     13          8           0        0.193033    2.895192   -0.129027
     14          7           0       -0.276330   -3.206527   -1.162873
     15          1           0       -0.386626   -3.715865   -2.024863
     16          1           0       -0.068974   -3.767365   -0.352268
 ---------------------------------------------------------------------
                    Distance matrix (angstroms):
                    1          2          3          4          5
     1  C    0.000000
     2  C    1.391340   0.000000
     3  C    2.423471   1.391340   0.000000
     4  C    2.788528   2.394026   1.381755   0.000000
     5  C    2.421520   2.780292   2.421520   1.405678   0.000000
     6  C    1.381755   2.394026   2.788528   2.420760   1.405678
     7  H    1.082665   2.142281   3.396788   3.870958   3.409990
     8  H    3.396788   2.142281   1.082665   2.151721   3.409990
     9  H    3.874032   3.379320   2.139429   1.085513   2.159170
    10  H    2.139429   3.379320   3.874032   3.405530   2.159170
    11  N    2.457186   1.453873   2.457186   3.721704   4.234163
    12  O    3.553432   2.300351   2.716442   4.097120   4.930262
    13  O    2.716442   2.300351   3.553432   4.693436   4.930262
    14  N    3.612486   4.098972   3.645119   2.414331   1.374406
    15  H    4.429876   4.688593   3.960129   2.611418   2.058704
    16  H    3.973273   4.719081   4.466843   3.307977   2.058704
                    6          7          8          9         10
     6  C    0.000000
     7  H    2.151721   0.000000
     8  H    3.870958   4.277339   0.000000
     9  H    3.405530   4.956454   2.481159   0.000000
    10  H    1.085513   2.481159   4.956454   4.304144   0.000000
    11  N    3.721704   2.657939   2.657939   4.594513   4.594513
    12  O    4.693436   3.875149   2.398867   4.756832   5.652230
    13  O    4.097120   2.398867   3.875149   5.652230   4.756832
    14  N    2.364831   4.491044   4.537342   2.684755   2.605242
    15  H    3.279676   5.376914   4.685633   2.454373   3.608820
    16  H    2.604147   4.693706   5.420641   3.639305   2.417849
                   11         12         13         14         15
    11  N    0.000000
    12  O    1.226271   0.000000
    13  O    1.226271   2.165416   0.000000
    14  N    5.545994   6.223482   6.206458   0.000000
    15  H    6.117263   6.641894   6.901904   1.007282   0.000000
    16  H    6.152726   6.944808   6.671443   1.007282   1.703271
                   16
    16  H    0.000000
 Stoichiometry    C6H6N2O2
 Framework group  C1[X(C6H6N2O2)]
 Deg. of freedom    42
 Full point group                 C1      NOp   1
 Largest Abelian subgroup         C1      NOp   1
 Largest concise Abelian subgroup C1      NOp   1
                         Standard orientation:                         
 ---------------------------------------------------------------------
 Center     Atomic      Atomic             Coordinates (Angstroms)
 Number     Number       Type             X           Y           Z
 ---------------------------------------------------------------------
      1          6           0        0.009303   -1.206537   -0.052318
      2          6           0        0.699073    0.001467   -0.024578
      3          6           0        0.022717    1.216889   -0.058010
      4          6           0       -1.357615    1.223028   -0.120398
      5          6           0       -2.078310    0.016544   -0.150828
      6          6           0       -1.371015   -1.197688   -0.114713
      7          1           0        0.563037   -2.136490   -0.025296
      8          1           0        0.586713    2.140772   -0.035342
      9          1           0       -1.891985    2.167644   -0.142492
     10          1           0       -1.915810   -2.136423   -0.132383
     11          7           0        2.151542   -0.006424    0.038809
     12          8           0        2.732734    1.073138    0.061176
     13          8           0        2.720748   -1.092238    0.066262
     14          7           0       -3.390123   -0.024099    0.257202
     15          1           0       -3.899141    0.840924    0.342363
     16          1           0       -3.945508   -0.832186    0.026638
 ---------------------------------------------------------------------
 Rotational constants (GHZ):      3.8934928      0.8338086      0.6903421
 General basis read from cards:  (5D, 7F)
 There are   430 symmetry adapted basis functions of A   symmetry.
 Integral buffers will be    131072 words long.
 Raffenetti 2 integral format.
 Two-electron integral symmetry is turned on.
   430 basis functions,   652 primitive gaussians,   490 cartesian basis functions
    36 alpha electrons       36 beta electrons
       nuclear repulsion energy       497.1257036331 Hartrees.
 NAtoms=   16 NActive=   16 NUniq=   16 SFac= 7.50D-01 NAtFMM=   80 NAOKFM=F Big=F
 ------------------------------------------------------------------------------
 Polarizable Continuum Model (PCM)
 =================================
 Model                : C-PCM.
 Atomic radii         : UFF (Universal Force Field).
 Polarization charges : Total charges.
 Charge compensation  : None.
 Solution method      : Matrix inversion.
 Cavity type          : Scaled VdW (van der Waals Surface) (Alpha=1.100).
 Cavity algorithm     : GePol (No added spheres)
                        Default sphere list used, NSphG=   16.
                        Lebedev-Laikov grids with approx.  5.0 points / Ang**2.
                        Smoothing algorithm: Karplus/York (Gamma=1.0000).
                        Polarization charges: spherical gaussians, with
                                              point-specific exponents (IZeta= 3).
                        Self-potential: point-specific (ISelfS= 7).
                        Self-field    : sphere-specific E.n sum rule (ISelfD= 2).
 1st derivatives      : Analytical E(r).r(x)/FMM algorithm (CHGder, D1EAlg=3).
                        Cavity 1st derivative terms included.
 Solvent              : Toluene, Eps=   2.374100 Eps(inf)=   2.238315
 ------------------------------------------------------------------------------
 Spheres list:
 ISph  on   Nord    Re0     Alpha      Xe            Ye            Ze
    1   C      1    1.926   1.100      0.009303     -1.206537     -0.052318
    2   C      2    1.926   1.100      0.699073      0.001467     -0.024578
    3   C      3    1.926   1.100      0.022717      1.216889     -0.058010
    4   C      4    1.926   1.100     -1.357615      1.223028     -0.120398
    5   C      5    1.926   1.100     -2.078310      0.016544     -0.150828
    6   C      6    1.926   1.100     -1.371015     -1.197688     -0.114713
    7   H      7    1.443   1.100      0.563037     -2.136490     -0.025296
    8   H      8    1.443   1.100      0.586713      2.140772     -0.035342
    9   H      9    1.443   1.100     -1.891985      2.167644     -0.142492
   10   H     10    1.443   1.100     -1.915810     -2.136423     -0.132383
   11   N     11    1.830   1.100      2.151542     -0.006424      0.038809
   12   O     12    1.750   1.100      2.732734      1.073138      0.061176
   13   O     13    1.750   1.100      2.720748     -1.092238      0.066262
   14   N     14    1.830   1.100     -3.390123     -0.024099      0.257202
   15   H     15    1.443   1.100     -3.899141      0.840924      0.342363
   16   H     16    1.443   1.100     -3.945508     -0.832186      0.026638
 ------------------------------------------------------------------------------
 One-electron integrals computed using PRISM.
 NBasis=   430 RedAO= T  NBF=   430
 NBsUse=   429 1.00D-06 NBFU=   429
 Harris functional with IExCor=20419 diagonalized for initial guess.
 ExpMin= 4.85D-02 ExpMax= 2.70D+04 ExpMxC= 9.22D+02 IAcc=3 IRadAn=         5 AccDes= 0.00D+00
 HarFok:  IExCor=20419 AccDes= 0.00D+00 IRadAn=         5 IDoV= 1
 ScaDFX=  1.000000  1.000000  1.000000  1.000000
 FoFCou: FMM=F IPFlag=           0 FMFlag=      100000 FMFlg1=           0
         NFxFlg=           0 DoJE=T BraDBF=F KetDBF=T FulRan=T
         Omega=  0.000000  0.000000  1.000000  0.000000  0.000000 ICntrl=     500 IOpCl=  0
         NMat0=    1 NMatS0=    1 NMatT0=    0 NMatD0=    1 NMtDS0=    0 NMtDT0=    0
         I1Cent=           4 NGrid=           0.
 Petite list used in FoFCou.
 Initial guess orbital symmetries:
       Occupied  (A) (A) (A) (A) (A) (A) (A) (A) (A) (A) (A) (A)
                 (A) (A) (A) (A) (A) (A) (A) (A) (A) (A) (A) (A)
                 (A) (A) (A) (A) (A) (A) (A) (A) (A) (A) (A) (A)
       Virtual   (A) (A) (A) (A) (A) (A) (A) (A) (A) (A) (A) (A)
                 (A) (A) (A) (A) (A) (A) (A) (A) (A) (A) (A) (A)
                 (A) (A) (A) (A) (A) (A) (A) (A) (A) (A) (A) (A)
                 (A) (A) (A) (A) (A) (A) (A) (A) (A) (A) (A) (A)
                 (A) (A) (A) (A) (A) (A) (A) (A) (A) (A) (A) (A)
                 (A) (A) (A) (A) (A) (A) (A) (A) (A) (A) (A) (A)
                 (A) (A) (A) (A) (A) (A) (A) (A) (A) (A) (A) (A)
                 (A) (A) (A) (A) (A) (A) (A) (A) (A) (A) (A) (A)
                 (A) (A) (A) (A) (A) (A) (A) (A) (A) (A) (A) (A)
                 (A) (A) (A) (A) (A) (A) (A) (A) (A) (A) (A) (A)
                 (A) (A) (A) (A) (A) (A) (A) (A) (A) (A) (A) (A)
                 (A) (A) (A) (A) (A) (A) (A) (A) (A) (A) (A) (A)
                 (A) (A) (A) (A) (A) (A) (A) (A) (A) (A) (A) (A)
                 (A) (A) (A) (A) (A) (A) (A) (A) (A) (A) (A) (A)
                 (A) (A) (A) (A) (A) (A) (A) (A) (A) (A) (A) (A)
                 (A) (A) (A) (A) (A) (A) (A) (A) (A) (A) (A) (A)
                 (A) (A) (A) (A) (A) (A) (A) (A) (A) (A) (A) (A)
                 (A) (A) (A) (A) (A) (A) (A) (A) (A) (A) (A) (A)
                 (A) (A) (A) (A) (A) (A) (A) (A) (A) (A) (A) (A)
                 (A) (A) (A) (A) (A) (A) (A) (A) (A) (A) (A) (A)
                 (A) (A) (A) (A) (A) (A) (A) (A) (A) (A) (A) (A)
                 (A) (A) (A) (A) (A) (A) (A) (A) (A) (A) (A) (A)
                 (A) (A) (A) (A) (A) (A) (A) (A) (A) (A) (A) (A)
                 (A) (A) (A) (A) (A) (A) (A) (A) (A) (A) (A) (A)
                 (A) (A) (A) (A) (A) (A) (A) (A) (A) (A) (A) (A)
                 (A) (A) (A) (A) (A) (A) (A) (A) (A) (A) (A) (A)
                 (A) (A) (A) (A) (A) (A) (A) (A) (A) (A) (A) (A)
                 (A) (A) (A) (A) (A) (A) (A) (A) (A) (A) (A) (A)
                 (A) (A) (A) (A) (A) (A) (A) (A) (A) (A) (A) (A)
                 (A) (A) (A) (A) (A) (A) (A) (A) (A) (A) (A) (A)
                 (A) (A) (A) (A) (A) (A) (A) (A) (A) (A) (A) (A)
                 (A) (A) (A) (A) (A) (A) (A) (A) (A) (A) (A) (A)
                 (A) (A) (A) (A) (A) (A) (A) (A) (A)
 The electronic state of the initial guess is 1-A.
 FoFJK:  IHMeth= 1 ICntrl=     0 DoSepK=T KAlg= 1 I1Cent= 0 FoldK=F
 Gradient too large for Newton-Raphson -- use scaled steepest descent instead.
 FoFJK:  IHMeth= 1 ICntrl=     0 DoSepK=T KAlg= 1 I1Cent= 0 FoldK=F
 FoFJK:  IHMeth= 1 ICntrl=     0 DoSepK=T KAlg= 1 I1Cent= 0 FoldK=F
 FoFJK:  IHMeth= 1 ICntrl=     0 DoSepK=T KAlg= 1 I1Cent= 0 FoldK=F
 FoFJK:  IHMeth= 1 ICntrl=     0 DoSepK=T KAlg= 1 I1Cent= 0 FoldK=F
 Gradient too large for Newton-Raphson -- use scaled steepest descent instead.
 FoFJK:  IHMeth= 1 ICntrl=     0 DoSepK=T KAlg= 1 I1Cent= 0 FoldK=F
 FoFJK:  IHMeth= 1 ICntrl=     0 DoSepK=T KAlg= 1 I1Cent= 0 FoldK=F
 FoFJK:  IHMeth= 1 ICntrl=     0 DoSepK=T KAlg= 1 I1Cent= 0 FoldK=F
 FoFJK:  IHMeth= 1 ICntrl=     0 DoSepK=T KAlg= 1 I1Cent= 0 FoldK=F
 FoFJK:  IHMeth= 1 ICntrl=     0 DoSepK=T KAlg= 1 I1Cent= 0 FoldK=F
 Gradient too large for Newton-Raphson -- use scaled steepest descent instead.
 FoFJK:  IHMeth= 1 ICntrl=     0 DoSepK=T KAlg= 1 I1Cent= 0 FoldK=F
 FoFJK:  IHMeth= 1 ICntrl=     0 DoSepK=T KAlg= 1 I1Cent= 0 FoldK=F
 FoFJK:  IHMeth= 1 ICntrl=     0 DoSepK=T KAlg= 1 I1Cent= 0 FoldK=F
 Gradient too large for Newton-Raphson -- use scaled steepest descent instead.
 FoFJK:  IHMeth= 1 ICntrl=     0 DoSepK=T KAlg= 1 I1Cent= 0 FoldK=F
 FoFJK:  IHMeth= 1 ICntrl=     0 DoSepK=T KAlg= 1 I1Cent= 0 FoldK=F
 FoFJK:  IHMeth= 1 ICntrl=     0 DoSepK=T KAlg= 1 I1Cent= 0 FoldK=F
 FoFJK:  IHMeth= 1 ICntrl=     0 DoSepK=T KAlg= 1 I1Cent= 0 FoldK=F
 FoFJK:  IHMeth= 1 ICntrl=     0 DoSepK=T KAlg= 1 I1Cent= 0 FoldK=F
 Gradient too large for Newton-Raphson -- use scaled steepest descent instead.
 FoFJK:  IHMeth= 1 ICntrl=     0 DoSepK=T KAlg= 1 I1Cent= 0 FoldK=F
 FoFJK:  IHMeth= 1 ICntrl=     0 DoSepK=T KAlg= 1 I1Cent= 0 FoldK=F
 FoFJK:  IHMeth= 1 ICntrl=     0 DoSepK=T KAlg= 1 I1Cent= 0 FoldK=F
 LinEq1:  Iter=  0 NonCon=     1 RMS=7.55D-05 Max=6.91D-03
 AX will form     1 AO Fock derivatives at one time.
 FoFJK:  IHMeth= 1 ICntrl=     0 DoSepK=T KAlg= 1 I1Cent= 0 FoldK=F
 LinEq1:  Iter=  1 NonCon=     1 RMS=5.21D-05 Max=2.67D-03
 FoFJK:  IHMeth= 1 ICntrl=     0 DoSepK=T KAlg= 1 I1Cent= 0 FoldK=F
 LinEq1:  Iter=  2 NonCon=     1 RMS=1.01D-05 Max=3.74D-04
 FoFJK:  IHMeth= 1 ICntrl=     0 DoSepK=T KAlg= 1 I1Cent= 0 FoldK=F
 LinEq1:  Iter=  3 NonCon=     1 RMS=2.89D-06 Max=2.15D-04
 FoFJK:  IHMeth= 1 ICntrl=     0 DoSepK=T KAlg= 1 I1Cent= 0 FoldK=F
 LinEq1:  Iter=  4 NonCon=     1 RMS=2.30D-06 Max=9.73D-05
 FoFJK:  IHMeth= 1 ICntrl=     0 DoSepK=T KAlg= 1 I1Cent= 0 FoldK=F
 LinEq1:  Iter=  5 NonCon=     1 RMS=8.93D-07 Max=2.81D-05
 FoFJK:  IHMeth= 1 ICntrl=     0 DoSepK=T KAlg= 1 I1Cent= 0 FoldK=F
 LinEq1:  Iter=  6 NonCon=     1 RMS=3.63D-07 Max=2.12D-05
 FoFJK:  IHMeth= 1 ICntrl=     0 DoSepK=T KAlg= 1 I1Cent= 0 FoldK=F
 LinEq1:  Iter=  7 NonCon=     1 RMS=2.13D-07 Max=5.65D-06
 FoFJK:  IHMeth= 1 ICntrl=     0 DoSepK=T KAlg= 1 I1Cent= 0 FoldK=F
 LinEq1:  Iter=  8 NonCon=     1 RMS=5.17D-08 Max=1.81D-06
 FoFJK:  IHMeth= 1 ICntrl=     0 DoSepK=T KAlg= 1 I1Cent= 0 FoldK=F
 LinEq1:  Iter=  9 NonCon=     1 RMS=2.44D-08 Max=5.14D-07
 FoFJK:  IHMeth= 1 ICntrl=     0 DoSepK=T KAlg= 1 I1Cent= 0 FoldK=F
 LinEq1:  Iter= 10 NonCon=     1 RMS=9.98D-09 Max=4.14D-07
 FoFJK:  IHMeth= 1 ICntrl=     0 DoSepK=T KAlg= 1 I1Cent= 0 FoldK=F
 LinEq1:  Iter= 11 NonCon=     1 RMS=4.04D-09 Max=2.26D-07
 FoFJK:  IHMeth= 1 ICntrl=     0 DoSepK=T KAlg= 1 I1Cent= 0 FoldK=F
 LinEq1:  Iter= 12 NonCon=     0 RMS=2.17D-09 Max=1.04D-07
 Linear equations converged to 1.682D-08 1.682D-07 after    12 iterations.
 FoFJK:  IHMeth= 1 ICntrl=     0 DoSepK=T KAlg= 1 I1Cent= 0 FoldK=F
 FoFJK:  IHMeth= 1 ICntrl=     0 DoSepK=T KAlg= 1 I1Cent= 0 FoldK=F
 FoFJK:  IHMeth= 1 ICntrl=     0 DoSepK=T KAlg= 1 I1Cent= 0 FoldK=F
 LinEq1:  Iter=  0 NonCon=     1 RMS=7.38D-07 Max=4.45D-05
 FoFJK:  IHMeth= 1 ICntrl=     0 DoSepK=T KAlg= 1 I1Cent= 0 FoldK=F
 LinEq1:  Iter=  1 NonCon=     1 RMS=1.94D-07 Max=8.82D-06
 FoFJK:  IHMeth= 1 ICntrl=     0 DoSepK=T KAlg= 1 I1Cent= 0 FoldK=F
 LinEq1:  Iter=  2 NonCon=     1 RMS=9.49D-08 Max=3.04D-06
 FoFJK:  IHMeth= 1 ICntrl=     0 DoSepK=T KAlg= 1 I1Cent= 0 FoldK=F
 LinEq1:  Iter=  3 NonCon=     1 RMS=5.01D-08 Max=2.83D-06
 FoFJK:  IHMeth= 1 ICntrl=     0 DoSepK=T KAlg= 1 I1Cent= 0 FoldK=F
 LinEq1:  Iter=  4 NonCon=     1 RMS=2.52D-08 Max=1.31D-06
 FoFJK:  IHMeth= 1 ICntrl=     0 DoSepK=T KAlg= 1 I1Cent= 0 FoldK=F
 LinEq1:  Iter=  5 NonCon=     1 RMS=1.06D-08 Max=3.70D-07
 FoFJK:  IHMeth= 1 ICntrl=     0 DoSepK=T KAlg= 1 I1Cent= 0 FoldK=F
 LinEq1:  Iter=  6 NonCon=     1 RMS=7.13D-09 Max=3.91D-07
 FoFJK:  IHMeth= 1 ICntrl=     0 DoSepK=T KAlg= 1 I1Cent= 0 FoldK=F
 LinEq1:  Iter=  7 NonCon=     1 RMS=4.72D-09 Max=2.42D-07
 FoFJK:  IHMeth= 1 ICntrl=     0 DoSepK=T KAlg= 1 I1Cent= 0 FoldK=F
 LinEq1:  Iter=  8 NonCon=     1 RMS=2.83D-09 Max=7.77D-08
 FoFJK:  IHMeth= 1 ICntrl=     0 DoSepK=T KAlg= 1 I1Cent= 0 FoldK=F
 LinEq1:  Iter=  9 NonCon=     1 RMS=1.33D-09 Max=4.62D-08
 FoFJK:  IHMeth= 1 ICntrl=     0 DoSepK=T KAlg= 1 I1Cent= 0 FoldK=F
 LinEq1:  Iter= 10 NonCon=     1 RMS=5.97D-10 Max=1.56D-08
 FoFJK:  IHMeth= 1 ICntrl=     0 DoSepK=T KAlg= 1 I1Cent= 0 FoldK=F
 LinEq1:  Iter= 11 NonCon=     0 RMS=1.90D-10 Max=7.12D-09
 Linear equations converged to 1.020D-09 1.020D-08 after    11 iterations.
 FoFJK:  IHMeth= 1 ICntrl=     0 DoSepK=T KAlg= 1 I1Cent= 0 FoldK=F
 Error on total polarization charges =  0.00828
 SCF Done:  E(RCAM-B3LYP) =  -492.085666139     a.u. after    8 cycles
            Convg  =    0.3481D-08                    48 Fock formations.
              S**2 =  0.0000                  -V/T =  2.0043

 **********************************************************************

            Population analysis using the SCF density.

 **********************************************************************

 Orbital symmetries:
       Occupied  (A) (A) (A) (A) (A) (A) (A) (A) (A) (A) (A) (A)
                 (A) (A) (A) (A) (A) (A) (A) (A) (A) (A) (A) (A)
                 (A) (A) (A) (A) (A) (A) (A) (A) (A) (A) (A) (A)
       Virtual   (A) (A) (A) (A) (A) (A) (A) (A) (A) (A) (A) (A)
                 (A) (A) (A) (A) (A) (A) (A) (A) (A) (A) (A) (A)
                 (A) (A) (A) (A) (A) (A) (A) (A) (A) (A) (A) (A)
                 (A) (A) (A) (A) (A) (A) (A) (A) (A) (A) (A) (A)
                 (A) (A) (A) (A) (A) (A) (A) (A) (A) (A) (A) (A)
                 (A) (A) (A) (A) (A) (A) (A) (A) (A) (A) (A) (A)
                 (A) (A) (A) (A) (A) (A) (A) (A) (A) (A) (A) (A)
                 (A) (A) (A) (A) (A) (A) (A) (A) (A) (A) (A) (A)
                 (A) (A) (A) (A) (A) (A) (A) (A) (A) (A) (A) (A)
                 (A) (A) (A) (A) (A) (A) (A) (A) (A) (A) (A) (A)
                 (A) (A) (A) (A) (A) (A) (A) (A) (A) (A) (A) (A)
                 (A) (A) (A) (A) (A) (A) (A) (A) (A) (A) (A) (A)
                 (A) (A) (A) (A) (A) (A) (A) (A) (A) (A) (A) (A)
                 (A) (A) (A) (A) (A) (A) (A) (A) (A) (A) (A) (A)
                 (A) (A) (A) (A) (A) (A) (A) (A) (A) (A) (A) (A)
                 (A) (A) (A) (A) (A) (A) (A) (A) (A) (A) (A) (A)
                 (A) (A) (A) (A) (A) (A) (A) (A) (A) (A) (A) (A)
                 (A) (A) (A) (A) (A) (A) (A) (A) (A) (A) (A) (A)
                 (A) (A) (A) (A) (A) (A) (A) (A) (A) (A) (A) (A)
                 (A) (A) (A) (A) (A) (A) (A) (A) (A) (A) (A) (A)
                 (A) (A) (A) (A) (A) (A) (A) (A) (A) (A) (A) (A)
                 (A) (A) (A) (A) (A) (A) (A) (A) (A) (A) (A) (A)
                 (A) (A) (A) (A) (A) (A) (A) (A) (A) (A) (A) (A)
                 (A) (A) (A) (A) (A) (A) (A) (A) (A) (A) (A) (A)
                 (A) (A) (A) (A) (A) (A) (A) (A) (A) (A) (A) (A)
                 (A) (A) (A) (A) (A) (A) (A) (A) (A) (A) (A) (A)
                 (A) (A) (A) (A) (A) (A) (A) (A) (A) (A) (A) (A)
                 (A) (A) (A) (A) (A) (A) (A) (A) (A) (A) (A) (A)
                 (A) (A) (A) (A) (A) (A) (A) (A) (A) (A) (A) (A)
                 (A) (A) (A) (A) (A) (A) (A) (A) (A) (A) (A) (A)
                 (A) (A) (A) (A) (A) (A) (A) (A) (A) (A) (A) (A)
                 (A) (A) (A) (A) (A) (A) (A) (A) (A) (A) (A) (A)
                 (A) (A) (A) (A) (A) (A) (A) (A) (A)
 The electronic state is 1-A.
 Alpha  occ. eigenvalues --  -19.23275 -19.23264 -14.63332 -14.41732 -10.32130
 Alpha  occ. eigenvalues --  -10.30171 -10.27803 -10.27684 -10.26569 -10.26480
 Alpha  occ. eigenvalues --   -1.31564  -1.13752  -1.03188  -0.96430  -0.87634
 Alpha  occ. eigenvalues --   -0.85583  -0.77155  -0.72000  -0.67604  -0.64129
 Alpha  occ. eigenvalues --   -0.61535  -0.61496  -0.60672  -0.58554  -0.53295
 Alpha  occ. eigenvalues --   -0.52711  -0.51374  -0.49725  -0.47290  -0.43224
 Alpha  occ. eigenvalues --   -0.40744  -0.38624  -0.38286  -0.36827  -0.33721
 Alpha  occ. eigenvalues --   -0.28602
 Alpha virt. eigenvalues --   -0.04877   0.01161   0.02599   0.04139   0.04663
 Alpha virt. eigenvalues --    0.04856   0.06780   0.07128   0.07290   0.09346
 Alpha virt. eigenvalues --    0.10303   0.10458   0.10685   0.12804   0.13096
 Alpha virt. eigenvalues --    0.14410   0.14899   0.15766   0.16475   0.16604
 Alpha virt. eigenvalues --    0.18088   0.18671   0.19611   0.20054   0.20876
 Alpha virt. eigenvalues --    0.21335   0.21862   0.21884   0.23003   0.23371
 Alpha virt. eigenvalues --    0.23847   0.24305   0.24901   0.25558   0.26591
 Alpha virt. eigenvalues --    0.27816   0.28056   0.28283   0.28912   0.29654
 Alpha virt. eigenvalues --    0.29897   0.30349   0.30787   0.30927   0.31564
 Alpha virt. eigenvalues --    0.31812   0.33424   0.33842   0.34165   0.35552
 Alpha virt. eigenvalues --    0.35757   0.36118   0.36969   0.37390   0.38106
 Alpha virt. eigenvalues --    0.38784   0.39087   0.39142   0.39505   0.40981
 Alpha virt. eigenvalues --    0.41705   0.42148   0.42903   0.43218   0.43397
 Alpha virt. eigenvalues --    0.44254   0.44834   0.45900   0.46672   0.47116
 Alpha virt. eigenvalues --    0.47511   0.47870   0.48198   0.48607   0.49362
 Alpha virt. eigenvalues --    0.49615   0.50277   0.50788   0.52720   0.53076
 Alpha virt. eigenvalues --    0.53584   0.53727   0.55428   0.55615   0.57145
 Alpha virt. eigenvalues --    0.58316   0.58889   0.59233   0.60509   0.60698
 Alpha virt. eigenvalues --    0.60987   0.61481   0.61760   0.62643   0.63522
 Alpha virt. eigenvalues --    0.64437   0.64940   0.65871   0.66407   0.67919
 Alpha virt. eigenvalues --    0.68232   0.68591   0.68945   0.69814   0.70113
 Alpha virt. eigenvalues --    0.70732   0.71887   0.72504   0.72620   0.73278
 Alpha virt. eigenvalues --    0.73550   0.74045   0.74617   0.75252   0.76749
 Alpha virt. eigenvalues --    0.77332   0.78113   0.78569   0.79590   0.80011
 Alpha virt. eigenvalues --    0.80247   0.80414   0.82295   0.82502   0.83477
 Alpha virt. eigenvalues --    0.84600   0.85032   0.85131   0.86867   0.87545
 Alpha virt. eigenvalues --    0.89615   0.91420   0.93297   0.95522   0.95867
 Alpha virt. eigenvalues --    0.97032   0.97455   0.98105   0.99206   0.99701
 Alpha virt. eigenvalues --    1.00535   1.02246   1.02618   1.04331   1.04898
 Alpha virt. eigenvalues --    1.05824   1.07923   1.09564   1.10351   1.10652
 Alpha virt. eigenvalues --    1.11961   1.14377   1.17846   1.19484   1.20785
 Alpha virt. eigenvalues --    1.23574   1.24713   1.26873   1.31386   1.31462
 Alpha virt. eigenvalues --    1.33674   1.34687   1.35968   1.36604   1.38309
 Alpha virt. eigenvalues --    1.40601   1.41815   1.43274   1.43963   1.47366
 Alpha virt. eigenvalues --    1.49144   1.49536   1.52182   1.52879   1.54899
 Alpha virt. eigenvalues --    1.57153   1.59289   1.60537   1.61481   1.62435
 Alpha virt. eigenvalues --    1.68484   1.71066   1.72146   1.73927   1.75761
 Alpha virt. eigenvalues --    1.77341   1.77978   1.78778   1.79807   1.82915
 Alpha virt. eigenvalues --    1.83646   1.83979   1.87949   1.89032   1.90365
 Alpha virt. eigenvalues --    1.91098   1.92705   1.94153   1.94705   1.96132
 Alpha virt. eigenvalues --    1.98244   1.99642   2.00617   2.01791   2.03136
 Alpha virt. eigenvalues --    2.05375   2.07366   2.08906   2.09377   2.14664
 Alpha virt. eigenvalues --    2.19091   2.19330   2.23185   2.25445   2.27379
 Alpha virt. eigenvalues --    2.27880   2.30183   2.32306   2.33477   2.34660
 Alpha virt. eigenvalues --    2.36244   2.40079   2.41524   2.41994   2.44065
 Alpha virt. eigenvalues --    2.46605   2.50388   2.53453   2.53934   2.55791
 Alpha virt. eigenvalues --    2.57038   2.63278   2.63896   2.66952   2.69099
 Alpha virt. eigenvalues --    2.70956   2.72108   2.73516   2.75267   2.79255
 Alpha virt. eigenvalues --    2.80571   2.82373   2.85000   2.86392   2.86879
 Alpha virt. eigenvalues --    2.87572   2.87893   2.90758   2.92972   2.93786
 Alpha virt. eigenvalues --    2.94597   2.97674   2.99559   3.00544   3.01894
 Alpha virt. eigenvalues --    3.02941   3.09737   3.09744   3.10936   3.11186
 Alpha virt. eigenvalues --    3.13512   3.14437   3.16361   3.20136   3.21435
 Alpha virt. eigenvalues --    3.23506   3.25392   3.26270   3.27892   3.30507
 Alpha virt. eigenvalues --    3.31308   3.32818   3.34961   3.35922   3.37453
 Alpha virt. eigenvalues --    3.40009   3.40940   3.42598   3.43711   3.45013
 Alpha virt. eigenvalues --    3.45660   3.47155   3.48629   3.49572   3.50352
 Alpha virt. eigenvalues --    3.51901   3.54717   3.54988   3.56635   3.59811
 Alpha virt. eigenvalues --    3.61544   3.62879   3.63311   3.67314   3.68692
 Alpha virt. eigenvalues --    3.70426   3.71966   3.73235   3.78986   3.84728
 Alpha virt. eigenvalues --    3.89391   3.89922   3.95739   3.97493   4.01024
 Alpha virt. eigenvalues --    4.04078   4.06013   4.13490   4.15998   4.18088
 Alpha virt. eigenvalues --    4.18805   4.19638   4.25322   4.26032   4.27092
 Alpha virt. eigenvalues --    4.29069   4.30420   4.30453   4.32376   4.33742
 Alpha virt. eigenvalues --    4.35577   4.41324   4.46428   4.52061   4.57004
 Alpha virt. eigenvalues --    4.62533   4.66779   4.68557   4.75391   4.76922
 Alpha virt. eigenvalues --    4.78378   4.81138   4.82170   4.83871   4.87631
 Alpha virt. eigenvalues --    4.89171   4.94453   4.98144   5.00100   5.01959
 Alpha virt. eigenvalues --    5.04537   5.06054   5.06883   5.14721   5.20342
 Alpha virt. eigenvalues --    5.20736   5.23683   5.26028   5.28017   5.29282
 Alpha virt. eigenvalues --    5.30613   5.39723   5.40203   5.43759   5.44376
 Alpha virt. eigenvalues --    5.48117   5.52246   5.56656   5.58193   5.66333
 Alpha virt. eigenvalues --    5.68407   5.70100   5.71814   5.78416   5.96369
 Alpha virt. eigenvalues --    5.98703   6.07838   6.10914   6.42463   6.43721
 Alpha virt. eigenvalues --    6.51961   6.58176   6.60176   6.62636   6.93401
 Alpha virt. eigenvalues --    6.94621   6.97604   7.10786   7.29692   7.44153
 Alpha virt. eigenvalues --    7.52624   7.80736   7.83120  22.65787  22.84306
 Alpha virt. eigenvalues --   22.94332  22.98825  23.12477  23.43253  32.42466
 Alpha virt. eigenvalues --   32.81047  44.46016  44.62468
          Condensed to atoms (all electrons):
              1          2          3          4          5          6
     1  C    6.503135   0.274700  -0.447810  -0.041644  -0.348290   0.334744
     2  C    0.274700   6.341738   0.663918  -0.369977  -0.643779  -0.244282
     3  C   -0.447810   0.663918   6.827752   0.048885  -0.761022  -0.041246
     4  C   -0.041644  -0.369977   0.048885   6.882699   0.075541  -0.427697
     5  C   -0.348290  -0.643779  -0.761022   0.075541   7.692888  -0.200451
     6  C    0.334744  -0.244282  -0.041246  -0.427697  -0.200451   6.726568
     7  H    0.255385  -0.268218  -0.002742   0.010088   0.103884  -0.035120
     8  H    0.038498  -0.166990   0.188597  -0.000553   0.056014  -0.004897
     9  H    0.007783   0.048553   0.037076   0.348417  -0.306506   0.040102
    10  H    0.013517   0.095839   0.038325   0.023638  -0.472383   0.397625
    11  N   -0.162113   0.391940  -0.189279   0.010625   0.042612  -0.008724
    12  O    0.024130  -0.047412  -0.023712   0.008596  -0.009630  -0.002453
    13  O   -0.030106  -0.031487   0.025903  -0.005076  -0.011666   0.012815
    14  N    0.017508   0.040733   0.043200  -0.010939  -0.085490   0.013225
    15  H   -0.005506  -0.001914  -0.000882   0.043725  -0.016939  -0.055617
    16  H    0.002488  -0.003251  -0.007664  -0.027449   0.026098   0.013298
              7          8          9         10         11         12
     1  C    0.255385   0.038498   0.007783   0.013517  -0.162113   0.024130
     2  C   -0.268218  -0.166990   0.048553   0.095839   0.391940  -0.047412
     3  C   -0.002742   0.188597   0.037076   0.038325  -0.189279  -0.023712
     4  C    0.010088  -0.000553   0.348417   0.023638   0.010625   0.008596
     5  C    0.103884   0.056014  -0.306506  -0.472383   0.042612  -0.009630
     6  C   -0.035120  -0.004897   0.040102   0.397625  -0.008724  -0.002453
     7  H    0.527652   0.009107  -0.002168  -0.043263   0.040290  -0.004296
     8  H    0.009107   0.450640  -0.009791  -0.002552   0.023791  -0.006030
     9  H   -0.002168  -0.009791   0.497190   0.008494  -0.001911   0.000520
    10  H   -0.043263  -0.002552   0.008494   0.597986  -0.004926   0.000294
    11  N    0.040290   0.023791  -0.001911  -0.004926   5.747050   0.103248
    12  O   -0.004296  -0.006030   0.000520   0.000294   0.103248   8.667265
    13  O   -0.012997  -0.004481   0.000240   0.001435   0.096993  -0.104953
    14  N   -0.005976  -0.002247   0.033567   0.082192  -0.001486   0.000146
    15  H    0.000118   0.000325  -0.002088  -0.010873   0.000069   0.000014
    16  H    0.000356   0.000067  -0.008602  -0.006330   0.000055   0.000000
             13         14         15         16
     1  C   -0.030106   0.017508  -0.005506   0.002488
     2  C   -0.031487   0.040733  -0.001914  -0.003251
     3  C    0.025903   0.043200  -0.000882  -0.007664
     4  C   -0.005076  -0.010939   0.043725  -0.027449
     5  C   -0.011666  -0.085490  -0.016939   0.026098
     6  C    0.012815   0.013225  -0.055617   0.013298
     7  H   -0.012997  -0.005976   0.000118   0.000356
     8  H   -0.004481  -0.002247   0.000325   0.000067
     9  H    0.000240   0.033567  -0.002088  -0.008602
    10  H    0.001435   0.082192  -0.010873  -0.006330
    11  N    0.096993  -0.001486   0.000069   0.000055
    12  O   -0.104953   0.000146   0.000014   0.000000
    13  O    8.667350   0.000252  -0.000011   0.000008
    14  N    0.000252   6.571187   0.381406   0.364205
    15  H   -0.000011   0.381406   0.494342  -0.031935
    16  H    0.000008   0.364205  -0.031935   0.449795
 Mulliken atomic charges:
              1
     1  C   -0.436419
     2  C   -0.080111
     3  C   -0.399299
     4  C   -0.568878
     5  C    0.859118
     6  C   -0.517889
     7  H    0.427901
     8  H    0.430503
     9  H    0.309125
    10  H    0.280982
    11  N    0.911766
    12  O   -0.605725
    13  O   -0.604218
    14  N   -0.441483
    15  H    0.205766
    16  H    0.228861
 Sum of Mulliken atomic charges =   0.00000
 Mulliken charges with hydrogens summed into heavy atoms:
              1
     1  C   -0.008518
     2  C   -0.080111
     3  C    0.031204
     4  C   -0.259753
     5  C    0.859118
     6  C   -0.236907
    11  N    0.911766
    12  O   -0.605725
    13  O   -0.604218
    14  N   -0.006855
 Sum of Mulliken charges with hydrogens summed into heavy atoms =   0.00000
 Electronic spatial extent (au):  <R**2>=           1542.8520
 Charge=              0.0000 electrons
 Dipole moment (field-independent basis, Debye):
    X=             -8.3972    Y=              0.1052    Z=             -0.3858  Tot=              8.4067
 Quadrupole moment (field-independent basis, Debye-Ang):
   XX=            -57.2080   YY=            -52.9919   ZZ=            -60.5177
   XY=             -0.1059   XZ=              0.3099   YZ=              0.6087
 Traceless Quadrupole moment (field-independent basis, Debye-Ang):
   XX=             -0.3021   YY=              3.9140   ZZ=             -3.6118
   XY=             -0.1059   XZ=              0.3099   YZ=              0.6087
 Octapole moment (field-independent basis, Debye-Ang**2):
  XXX=           -113.4716  YYY=              0.2173  ZZZ=              1.4917  XYY=            -17.4809
  XXY=              0.3287  XXZ=             -2.7363  XZZ=             12.3042  YZZ=              0.2290
  YYZ=              0.1511  XYZ=             -2.3835
 Hexadecapole moment (field-independent basis, Debye-Ang**3):
 XXXX=          -1364.4223 YYYY=           -363.6427 ZZZZ=            -70.3622 XXXY=              0.6777
 XXXZ=             -6.4339 YYYX=              0.3106 YYYZ=              0.5938 ZZZX=              1.4980
 ZZZY=              0.5412 XXYY=           -299.4518 XXZZ=           -273.8599 YYZZ=            -84.5236
 XXYZ=              9.6031 YYXZ=             -1.4448 ZZXY=             -1.1025
 N-N= 4.971257036331D+02 E-N=-2.144067639918D+03  KE= 4.899872675312D+02
 D1PCM: C-PCM CHGder 1st derivatives, ID1Alg=3 FixD1E=F DoIter=F DoCFld=F I1PDM=0.
 Calling FoFJK, ICntrl=      2127 FMM=F ISym2X=0 I1Cent= 0 IOpClX= 0 NMat=1 NMatS=1 NMatT=0.
 FoFJK:  IHMeth= 1 ICntrl=  2127 DoSepK=T KAlg= 1 I1Cent= 0 FoldK=F
 ***** Axes restored to original set *****
 -------------------------------------------------------------------
 Center     Atomic                   Forces (Hartrees/Bohr)
 Number     Number              X              Y              Z
 -------------------------------------------------------------------
      1        6           0.005750992   -0.005867266   -0.000696950
      2        6          -0.000248058   -0.000436885   -0.001831550
      3        6           0.004262735   -0.002440365    0.003392442
      4        6           0.008105749    0.001747506    0.000185913
      5        6          -0.042961466    0.006935349    0.004781091
      6        6           0.012927044    0.011899286    0.000870764
      7        1          -0.000701015   -0.001630581   -0.001865548
      8        1          -0.000332036   -0.001732439    0.001868038
      9        1          -0.002185285    0.001023446    0.002139544
     10        1          -0.002771608    0.001109470   -0.002270911
     11        7          -0.000643053    0.002535209   -0.000121704
     12        8          -0.000005612   -0.003409800    0.011972236
     13        8           0.000000052   -0.003541689   -0.012015276
     14        7           0.015512366   -0.006119240   -0.006495767
     15        1           0.003860205   -0.000464574    0.000961563
     16        1          -0.000571010    0.000392573   -0.000873883
 -------------------------------------------------------------------
 Cartesian Forces:  Max     0.042961466 RMS     0.008031334

 GradGradGradGradGradGradGradGradGradGradGradGradGradGradGradGradGradGrad
 Berny optimization.
 Internal  Forces:  Max     0.012272520 RMS     0.004258591
 Search for a local minimum.
 Step number   1 out of a maximum of   82
 All quantities printed in internal units (Hartrees-Bohrs-Radians)
 Mixed Optimization -- RFO/linear search
 Second derivative matrix not updated -- first step.
     Eigenvalues ---    0.00979   0.00979   0.01836   0.02030   0.02053
     Eigenvalues ---    0.02151   0.02179   0.02227   0.02234   0.02273
     Eigenvalues ---    0.02277   0.02404   0.02988   0.16000   0.16000
     Eigenvalues ---    0.16000   0.16000   0.16000   0.16000   0.22000
     Eigenvalues ---    0.22701   0.23152   0.23696   0.25000   0.25000
     Eigenvalues ---    0.25000   0.35336   0.35336   0.35674   0.35674
     Eigenvalues ---    0.37742   0.41592   0.42599   0.45808   0.46149
     Eigenvalues ---    0.46431   0.46431   0.47592   0.48783   0.50139
     Eigenvalues ---    0.92658   0.926581000.000001000.000001000.00000
     Eigenvalues --- 1000.000001000.000001000.000001000.000001000.00000
     Eigenvalues --- 1000.000001000.000001000.000001000.000001000.00000
     Eigenvalues --- 1000.000001000.000001000.000001000.000001000.00000
     Eigenvalues --- 1000.000001000.000001000.000001000.000001000.00000
     Eigenvalues --- 1000.000001000.000001000.000001000.000001000.00000
     Eigenvalues --- 1000.000001000.00000
 RFO step:  Lambda=-1.54521177D-02 EMin= 9.79144978D-03
 Linear search not attempted -- first point.
 Maximum step size (   0.300) exceeded in Quadratic search.
    -- Step size scaled by   0.501
 Iteration  1 RMS(Cart)=  0.04477866 RMS(Int)=  0.00181024
 Iteration  2 RMS(Cart)=  0.00264477 RMS(Int)=  0.00083598
 Iteration  3 RMS(Cart)=  0.00000402 RMS(Int)=  0.00083598
 Iteration  4 RMS(Cart)=  0.00000000 RMS(Int)=  0.00083598
 Variable       Old X    -DE/DX   Delta X   Delta X   Delta X     New X
                                 (Linear)    (Quad)   (Total)
    R1        2.62925  -0.00393   0.00000  -0.00302  -0.00351   2.62575
    R2        2.61114  -0.00955   0.00000  -0.00947  -0.00947   2.60167
    R3        2.04594  -0.00244   0.00000  -0.00328  -0.00328   2.04266
    R4        2.62925  -0.00604   0.00000  -0.00522  -0.00570   2.62355
    R5        2.74742  -0.00442   0.00000  -0.00563  -0.00563   2.74179
    R6        2.61114  -0.00697   0.00000  -0.00696  -0.00696   2.60418
    R7        2.04594  -0.00249   0.00000  -0.00336  -0.00336   2.04259
    R8        2.65635  -0.00406   0.00000  -0.00547  -0.00500   2.65135
    R9        2.05132  -0.00236   0.00000  -0.00320  -0.00320   2.04812
   R10        2.65635   0.00122   0.00000   0.00029   0.00077   2.65712
   R11        2.59725  -0.00079   0.00000  -0.00077  -0.00077   2.59648
   R12        2.05132  -0.00251   0.00000  -0.00341  -0.00341   2.04791
   R13        2.31732  -0.01217   0.00000  -0.00647  -0.00647   2.31085
   R14        2.31732  -0.01227   0.00000  -0.00652  -0.00652   2.31080
   R15        1.90349  -0.00101   0.00000  -0.00106  -0.00106   1.90243
   R16        1.90349  -0.00104   0.00000  -0.00108  -0.00108   1.90240
    A1        2.08356  -0.00011   0.00000  -0.00070  -0.00065   2.08291
    A2        2.08485   0.00049   0.00000   0.00161   0.00157   2.08642
    A3        2.11478  -0.00039   0.00000  -0.00090  -0.00094   2.11384
    A4        2.11411  -0.00006   0.00000   0.00119   0.00078   2.11489
    A5        2.08454   0.00015   0.00000  -0.00037  -0.00016   2.08437
    A6        2.08454  -0.00009   0.00000  -0.00083  -0.00063   2.08391
    A7        2.08356   0.00072   0.00000   0.00084   0.00090   2.08446
    A8        2.08485   0.00017   0.00000   0.00109   0.00106   2.08591
    A9        2.11478  -0.00089   0.00000  -0.00193  -0.00197   2.11282
   A10        2.10521   0.00137   0.00000  -0.00194  -0.00093   2.10428
   A11        2.09042  -0.00049   0.00000   0.00152   0.00102   2.09143
   A12        2.08755  -0.00088   0.00000   0.00043  -0.00008   2.08747
   A13        2.07472  -0.00360   0.00000   0.00169  -0.00038   2.07434
   A14        2.10401  -0.00445   0.00000   0.00867   0.00434   2.10836
   A15        2.03430   0.01214   0.00000   0.04229   0.03859   2.07289
   A16        2.10521   0.00169   0.00000  -0.00105  -0.00002   2.10519
   A17        2.09042  -0.00067   0.00000   0.00103   0.00052   2.09094
   A18        2.08755  -0.00102   0.00000   0.00002  -0.00049   2.08705
   A19        2.05953   0.00209   0.00000   0.00394   0.00394   2.06347
   A20        2.05953   0.00187   0.00000   0.00353   0.00353   2.06306
   A21        2.16412  -0.00396   0.00000  -0.00746  -0.00746   2.15666
   A22        2.07376  -0.00115   0.00000  -0.00675  -0.00689   2.06687
   A23        2.07376   0.00025   0.00000  -0.00274  -0.00288   2.07088
   A24        2.01492  -0.00044   0.00000  -0.00524  -0.00540   2.00952
    D1        0.00048  -0.00124   0.00000  -0.01374  -0.01360  -0.01312
    D2       -3.13981  -0.00084   0.00000  -0.00924  -0.00913   3.13425
    D3        3.14140  -0.00049   0.00000  -0.00646  -0.00651   3.13490
    D4        0.00111  -0.00009   0.00000  -0.00195  -0.00203  -0.00092
    D5        0.00059  -0.00022   0.00000  -0.00324  -0.00339  -0.00280
    D6       -3.13705  -0.00007   0.00000  -0.00580  -0.00618   3.13995
    D7       -3.14032  -0.00098   0.00000  -0.01066  -0.01061   3.13226
    D8        0.00523  -0.00083   0.00000  -0.01322  -0.01340  -0.00817
    D9       -0.00048   0.00069   0.00000   0.01018   0.01026   0.00978
   D10       -3.14140   0.00112   0.00000   0.01127   0.01112  -3.13028
   D11        3.13981   0.00029   0.00000   0.00567   0.00579  -3.13759
   D12       -0.00111   0.00072   0.00000   0.00677   0.00664   0.00553
   D13        3.14078  -0.00020   0.00000  -0.00221  -0.00219   3.13859
   D14       -0.00046  -0.00019   0.00000  -0.00214  -0.00212  -0.00258
   D15        0.00046   0.00020   0.00000   0.00222   0.00220   0.00267
   D16       -3.14078   0.00020   0.00000   0.00229   0.00227  -3.13850
   D17       -0.00059   0.00131   0.00000   0.01038   0.01010   0.00951
   D18        3.13705   0.00195   0.00000   0.01646   0.01598  -3.13015
   D19        3.14032   0.00087   0.00000   0.00927   0.00923  -3.13364
   D20       -0.00523   0.00151   0.00000   0.01535   0.01511   0.00989
   D21        0.00162  -0.00272   0.00000  -0.02676  -0.02647  -0.02485
   D22        2.73623   0.01138   0.00000   0.12861   0.12722   2.86345
   D23       -3.13602  -0.00336   0.00000  -0.03283  -0.03235   3.11482
   D24       -0.40142   0.01074   0.00000   0.12254   0.12134  -0.28008
   D25       -0.00162   0.00216   0.00000   0.02315   0.02309   0.02147
   D26        3.13602   0.00202   0.00000   0.02570   0.02588  -3.12128
   D27       -2.75223  -0.00774   0.00000  -0.11883  -0.11980  -2.87203
   D28        0.38542  -0.00788   0.00000  -0.11627  -0.11701   0.26841
   D29        0.28145  -0.00206   0.00000  -0.03201  -0.03296   0.24849
   D30        2.89223  -0.00490   0.00000  -0.06338  -0.06425   2.82798
   D31        3.02509   0.00831   0.00000   0.11102   0.11190   3.13699
   D32       -0.64731   0.00546   0.00000   0.07965   0.08060  -0.56670
         Item               Value     Threshold  Converged?
 Maximum Force            0.012273     0.000015     NO 
 RMS     Force            0.004259     0.000010     NO 
 Maximum Displacement     0.202764     0.000060     NO 
 RMS     Displacement     0.044596     0.000040     NO 
 Predicted change in Energy=-6.525873D-03
 GradGradGradGradGradGradGradGradGradGradGradGradGradGradGradGradGradGrad

                          Input orientation:                          
 ---------------------------------------------------------------------
 Center     Atomic      Atomic             Coordinates (Angstroms)
 Number     Number       Type             X           Y           Z
 ---------------------------------------------------------------------
      1          6           0        0.180790    0.188785    0.002604
      2          6           0        0.187808    0.867657   -1.209730
      3          6           0        0.172028    0.182546   -2.417131
      4          6           0        0.137257   -1.195081   -2.413587
      5          6           0        0.106340   -1.904910   -1.203756
      6          6           0        0.142030   -1.187410    0.004961
      7          1           0        0.199759    0.748620    0.927067
      8          1           0        0.188633    0.737517   -3.344523
      9          1           0        0.135523   -1.736754   -3.352338
     10          1           0        0.137845   -1.724503    0.946205
     11          7           0        0.219359    2.318201   -1.214263
     12          8           0        0.228208    2.893163   -2.293475
     13          8           0        0.236111    2.899269   -0.138452
     14          7           0       -0.251582   -3.231163   -1.175138
     15          1           0       -0.279328   -3.738854   -2.044029
     16          1           0       -0.007648   -3.779650   -0.366979
 ---------------------------------------------------------------------
                    Distance matrix (angstroms):
                    1          2          3          4          5
     1  C    0.000000
     2  C    1.389485   0.000000
     3  C    2.419759   1.388324   0.000000
     4  C    2.784773   2.388873   1.378071   0.000000
     5  C    2.417521   2.773770   2.415382   1.403034   0.000000
     6  C    1.376743   2.387649   2.782842   2.418565   1.406085
     7  H    1.080929   2.140143   3.391883   3.865469   3.404461
     8  H    3.391817   2.138756   1.080890   2.145743   3.401775
     9  H    3.868513   3.372901   2.135336   1.083820   2.155350
    10  H    2.133752   3.371919   3.866528   3.401248   2.157746
    11  N    2.452889   1.450895   2.451562   3.713256   4.224636
    12  O    3.547941   2.297567   2.714017   4.091019   4.921773
    13  O    2.714716   2.297263   3.546416   4.685053   4.922586
    14  N    3.642810   4.122448   3.657240   2.414659   1.373999
    15  H    4.452726   4.704701   3.964885   2.604016   2.053814
    16  H    3.990060   4.727144   4.464796   3.299939   2.056170
                    6          7          8          9         10
     6  C    0.000000
     7  H    2.145187   0.000000
     8  H    3.863490   4.271619   0.000000
     9  H    3.401952   4.949194   2.474853   0.000000
    10  H    1.083710   2.473972   4.947167   4.298561   0.000000
    11  N    3.712384   2.655044   2.652832   4.584873   4.584509
    12  O    4.684155   3.869336   2.398557   4.750360   5.641501
    13  O    4.090277   2.400405   3.867081   5.641976   4.750306
    14  N    2.392590   4.523455   4.544275   2.668952   2.630927
    15  H    3.299359   5.403181   4.684887   2.427381   3.629483
    16  H    2.623061   4.714107   5.413786   3.620261   2.443205
                   11         12         13         14         15
    11  N    0.000000
    12  O    1.222849   0.000000
    13  O    1.222820   2.155046   0.000000
    14  N    5.569448   6.244056   6.236566   0.000000
    15  H    6.133932   6.656085   6.925430   1.006723   0.000000
    16  H    6.160617   6.949348   6.687272   1.006709   1.699403
                   16
    16  H    0.000000
 Stoichiometry    C6H6N2O2
 Framework group  C1[X(C6H6N2O2)]
 Deg. of freedom    42
 Full point group                 C1      NOp   1
 Largest Abelian subgroup         C1      NOp   1
 Largest concise Abelian subgroup C1      NOp   1
                         Standard orientation:                         
 ---------------------------------------------------------------------
 Center     Atomic      Atomic             Coordinates (Angstroms)
 Number     Number       Type             X           Y           Z
 ---------------------------------------------------------------------
      1          6           0        0.016723   -1.208988   -0.042461
      2          6           0        0.700774    0.000223   -0.018967
      3          6           0        0.021608    1.210763   -0.046717
      4          6           0       -1.355878    1.213607   -0.086753
      5          6           0       -2.072126    0.007169   -0.088076
      6          6           0       -1.359544   -1.204941   -0.078443
      7          1           0        0.572328   -2.136050   -0.026177
      8          1           0        0.581097    2.135543   -0.038030
      9          1           0       -1.892345    2.154781   -0.119335
     10          1           0       -1.900575   -2.143722   -0.098489
     11          7           0        2.150899   -0.001943    0.028236
     12          8           0        2.730657    1.074607    0.044958
     13          8           0        2.726861   -1.080432    0.048678
     14          7           0       -3.415965   -0.013517    0.197478
     15          1           0       -3.920247    0.857788    0.193079
     16          1           0       -3.954275   -0.820527   -0.071633
 ---------------------------------------------------------------------
 Rotational constants (GHZ):      3.9389054      0.8319820      0.6887776
 Basis read from rwf:  (5D, 7F)
 There are   430 symmetry adapted basis functions of A   symmetry.
 Integral buffers will be    131072 words long.
 Raffenetti 2 integral format.
 Two-electron integral symmetry is turned on.
   430 basis functions,   652 primitive gaussians,   490 cartesian basis functions
    36 alpha electrons       36 beta electrons
       nuclear repulsion energy       497.6369133372 Hartrees.
 NAtoms=   16 NActive=   16 NUniq=   16 SFac= 7.50D-01 NAtFMM=   80 NAOKFM=F Big=F
 ------------------------------------------------------------------------------
 Polarizable Continuum Model (PCM)
 =================================
 Model                : C-PCM.
 Atomic radii         : UFF (Universal Force Field).
 Polarization charges : Total charges.
 Charge compensation  : None.
 Solution method      : Matrix inversion.
 Cavity type          : Scaled VdW (van der Waals Surface) (Alpha=1.100).
 Cavity algorithm     : GePol (No added spheres)
                        Default sphere list used, NSphG=   16.
                        Lebedev-Laikov grids with approx.  5.0 points / Ang**2.
                        Smoothing algorithm: Karplus/York (Gamma=1.0000).
                        Polarization charges: spherical gaussians, with
                                              point-specific exponents (IZeta= 3).
                        Self-potential: point-specific (ISelfS= 7).
                        Self-field    : sphere-specific E.n sum rule (ISelfD= 2).
 1st derivatives      : Analytical E(r).r(x)/FMM algorithm (CHGder, D1EAlg=3).
                        Cavity 1st derivative terms included.
 Solvent              : Toluene, Eps=   2.374100 Eps(inf)=   2.238315
 ------------------------------------------------------------------------------
 Spheres list:
 ISph  on   Nord    Re0     Alpha      Xe            Ye            Ze
    1   C      1    1.926   1.100      0.016723     -1.208988     -0.042461
    2   C      2    1.926   1.100      0.700774      0.000223     -0.018967
    3   C      3    1.926   1.100      0.021608      1.210763     -0.046717
    4   C      4    1.926   1.100     -1.355878      1.213607     -0.086753
    5   C      5    1.926   1.100     -2.072126      0.007169     -0.088076
    6   C      6    1.926   1.100     -1.359544     -1.204941     -0.078443
    7   H      7    1.443   1.100      0.572328     -2.136050     -0.026177
    8   H      8    1.443   1.100      0.581097      2.135543     -0.038030
    9   H      9    1.443   1.100     -1.892345      2.154781     -0.119335
   10   H     10    1.443   1.100     -1.900575     -2.143722     -0.098489
   11   N     11    1.830   1.100      2.150899     -0.001943      0.028236
   12   O     12    1.750   1.100      2.730657      1.074607      0.044958
   13   O     13    1.750   1.100      2.726861     -1.080432      0.048678
   14   N     14    1.830   1.100     -3.415965     -0.013517      0.197478
   15   H     15    1.443   1.100     -3.920247      0.857788      0.193079
   16   H     16    1.443   1.100     -3.954275     -0.820527     -0.071633
 ------------------------------------------------------------------------------
 One-electron integrals computed using PRISM.
 NBasis=   430 RedAO= T  NBF=   430
 NBsUse=   429 1.00D-06 NBFU=   429
 Initial guess read from the read-write file.
 B after Tr=     0.000000    0.000000    0.000000
         Rot=    1.000000    0.000000    0.000000    0.000000 Ang=   0.00 deg.
 Initial guess orbital symmetries:
       Occupied  (A) (A) (A) (A) (A) (A) (A) (A) (A) (A) (A) (A)
                 (A) (A) (A) (A) (A) (A) (A) (A) (A) (A) (A) (A)
                 (A) (A) (A) (A) (A) (A) (A) (A) (A) (A) (A) (A)
       Virtual   (A) (A) (A) (A) (A) (A) (A) (A) (A) (A) (A) (A)
                 (A) (A) (A) (A) (A) (A) (A) (A) (A) (A) (A) (A)
                 (A) (A) (A) (A) (A) (A) (A) (A) (A) (A) (A) (A)
                 (A) (A) (A) (A) (A) (A) (A) (A) (A) (A) (A) (A)
                 (A) (A) (A) (A) (A) (A) (A) (A) (A) (A) (A) (A)
                 (A) (A) (A) (A) (A) (A) (A) (A) (A) (A) (A) (A)
                 (A) (A) (A) (A) (A) (A) (A) (A) (A) (A) (A) (A)
                 (A) (A) (A) (A) (A) (A) (A) (A) (A) (A) (A) (A)
                 (A) (A) (A) (A) (A) (A) (A) (A) (A) (A) (A) (A)
                 (A) (A) (A) (A) (A) (A) (A) (A) (A) (A) (A) (A)
                 (A) (A) (A) (A) (A) (A) (A) (A) (A) (A) (A) (A)
                 (A) (A) (A) (A) (A) (A) (A) (A) (A) (A) (A) (A)
                 (A) (A) (A) (A) (A) (A) (A) (A) (A) (A) (A) (A)
                 (A) (A) (A) (A) (A) (A) (A) (A) (A) (A) (A) (A)
                 (A) (A) (A) (A) (A) (A) (A) (A) (A) (A) (A) (A)
                 (A) (A) (A) (A) (A) (A) (A) (A) (A) (A) (A) (A)
                 (A) (A) (A) (A) (A) (A) (A) (A) (A) (A) (A) (A)
                 (A) (A) (A) (A) (A) (A) (A) (A) (A) (A) (A) (A)
                 (A) (A) (A) (A) (A) (A) (A) (A) (A) (A) (A) (A)
                 (A) (A) (A) (A) (A) (A) (A) (A) (A) (A) (A) (A)
                 (A) (A) (A) (A) (A) (A) (A) (A) (A) (A) (A) (A)
                 (A) (A) (A) (A) (A) (A) (A) (A) (A) (A) (A) (A)
                 (A) (A) (A) (A) (A) (A) (A) (A) (A) (A) (A) (A)
                 (A) (A) (A) (A) (A) (A) (A) (A) (A) (A) (A) (A)
                 (A) (A) (A) (A) (A) (A) (A) (A) (A) (A) (A) (A)
                 (A) (A) (A) (A) (A) (A) (A) (A) (A) (A) (A) (A)
                 (A) (A) (A) (A) (A) (A) (A) (A) (A) (A) (A) (A)
                 (A) (A) (A) (A) (A) (A) (A) (A) (A) (A) (A) (A)
                 (A) (A) (A) (A) (A) (A) (A) (A) (A) (A) (A) (A)
                 (A) (A) (A) (A) (A) (A) (A) (A) (A) (A) (A) (A)
                 (A) (A) (A) (A) (A) (A) (A) (A) (A) (A) (A) (A)
                 (A) (A) (A) (A) (A) (A) (A) (A) (A) (A) (A) (A)
                 (A) (A) (A) (A) (A) (A) (A) (A) (A)
 Harris functional with IExCor=20419 diagonalized for initial guess.
 ExpMin= 4.85D-02 ExpMax= 2.70D+04 ExpMxC= 9.22D+02 IAcc=3 IRadAn=         5 AccDes= 0.00D+00
 HarFok:  IExCor=20419 AccDes= 0.00D+00 IRadAn=         5 IDoV= 1
 ScaDFX=  1.000000  1.000000  1.000000  1.000000
 FoFCou: FMM=F IPFlag=           0 FMFlag=      100000 FMFlg1=           0
         NFxFlg=           0 DoJE=T BraDBF=F KetDBF=T FulRan=T
         Omega=  0.000000  0.000000  1.000000  0.000000  0.000000 ICntrl=     500 IOpCl=  0
         NMat0=    1 NMatS0=    1 NMatT0=    0 NMatD0=    1 NMtDS0=    0 NMtDT0=    0
         I1Cent=           4 NGrid=           0.
 Petite list used in FoFCou.
 FoFJK:  IHMeth= 1 ICntrl=     0 DoSepK=T KAlg= 1 I1Cent= 0 FoldK=F
 Gradient too large for Newton-Raphson -- use scaled steepest descent instead.
 FoFJK:  IHMeth= 1 ICntrl=     0 DoSepK=T KAlg= 1 I1Cent= 0 FoldK=F
 FoFJK:  IHMeth= 1 ICntrl=     0 DoSepK=T KAlg= 1 I1Cent= 0 FoldK=F
 FoFJK:  IHMeth= 1 ICntrl=     0 DoSepK=T KAlg= 1 I1Cent= 0 FoldK=F
 FoFJK:  IHMeth= 1 ICntrl=     0 DoSepK=T KAlg= 1 I1Cent= 0 FoldK=F
 FoFJK:  IHMeth= 1 ICntrl=     0 DoSepK=T KAlg= 1 I1Cent= 0 FoldK=F
 FoFJK:  IHMeth= 1 ICntrl=     0 DoSepK=T KAlg= 1 I1Cent= 0 FoldK=F
 FoFJK:  IHMeth= 1 ICntrl=     0 DoSepK=T KAlg= 1 I1Cent= 0 FoldK=F
 Gradient too large for Newton-Raphson -- use scaled steepest descent instead.
 FoFJK:  IHMeth= 1 ICntrl=     0 DoSepK=T KAlg= 1 I1Cent= 0 FoldK=F
 FoFJK:  IHMeth= 1 ICntrl=     0 DoSepK=T KAlg= 1 I1Cent= 0 FoldK=F
 FoFJK:  IHMeth= 1 ICntrl=     0 DoSepK=T KAlg= 1 I1Cent= 0 FoldK=F
 LinEq1:  Iter=  0 NonCon=     1 RMS=3.78D-05 Max=1.26D-03
 AX will form     1 AO Fock derivatives at one time.
 FoFJK:  IHMeth= 1 ICntrl=     0 DoSepK=T KAlg= 1 I1Cent= 0 FoldK=F
 LinEq1:  Iter=  1 NonCon=     1 RMS=3.00D-05 Max=9.52D-04
 FoFJK:  IHMeth= 1 ICntrl=     0 DoSepK=T KAlg= 1 I1Cent= 0 FoldK=F
 LinEq1:  Iter=  2 NonCon=     1 RMS=1.27D-05 Max=8.07D-04
 FoFJK:  IHMeth= 1 ICntrl=     0 DoSepK=T KAlg= 1 I1Cent= 0 FoldK=F
 LinEq1:  Iter=  3 NonCon=     1 RMS=8.54D-06 Max=5.14D-04
 FoFJK:  IHMeth= 1 ICntrl=     0 DoSepK=T KAlg= 1 I1Cent= 0 FoldK=F
 LinEq1:  Iter=  4 NonCon=     1 RMS=5.93D-06 Max=2.78D-04
 FoFJK:  IHMeth= 1 ICntrl=     0 DoSepK=T KAlg= 1 I1Cent= 0 FoldK=F
 LinEq1:  Iter=  5 NonCon=     1 RMS=2.74D-06 Max=1.14D-04
 FoFJK:  IHMeth= 1 ICntrl=     0 DoSepK=T KAlg= 1 I1Cent= 0 FoldK=F
 LinEq1:  Iter=  6 NonCon=     1 RMS=1.90D-06 Max=7.13D-05
 FoFJK:  IHMeth= 1 ICntrl=     0 DoSepK=T KAlg= 1 I1Cent= 0 FoldK=F
 LinEq1:  Iter=  7 NonCon=     1 RMS=8.55D-07 Max=2.15D-05
 FoFJK:  IHMeth= 1 ICntrl=     0 DoSepK=T KAlg= 1 I1Cent= 0 FoldK=F
 LinEq1:  Iter=  8 NonCon=     1 RMS=4.08D-07 Max=1.12D-05
 FoFJK:  IHMeth= 1 ICntrl=     0 DoSepK=T KAlg= 1 I1Cent= 0 FoldK=F
 LinEq1:  Iter=  9 NonCon=     1 RMS=1.85D-07 Max=1.00D-05
 FoFJK:  IHMeth= 1 ICntrl=     0 DoSepK=T KAlg= 1 I1Cent= 0 FoldK=F
 LinEq1:  Iter= 10 NonCon=     1 RMS=8.51D-08 Max=2.42D-06
 FoFJK:  IHMeth= 1 ICntrl=     0 DoSepK=T KAlg= 1 I1Cent= 0 FoldK=F
 LinEq1:  Iter= 11 NonCon=     1 RMS=2.85D-08 Max=6.20D-07
 FoFJK:  IHMeth= 1 ICntrl=     0 DoSepK=T KAlg= 1 I1Cent= 0 FoldK=F
 LinEq1:  Iter= 12 NonCon=     1 RMS=9.44D-09 Max=2.68D-07
 FoFJK:  IHMeth= 1 ICntrl=     0 DoSepK=T KAlg= 1 I1Cent= 0 FoldK=F
 LinEq1:  Iter= 13 NonCon=     1 RMS=4.59D-09 Max=2.05D-07
 FoFJK:  IHMeth= 1 ICntrl=     0 DoSepK=T KAlg= 1 I1Cent= 0 FoldK=F
 LinEq1:  Iter= 14 NonCon=     0 RMS=1.73D-09 Max=8.52D-08
 Linear equations converged to 1.682D-08 1.682D-07 after    14 iterations.
 FoFJK:  IHMeth= 1 ICntrl=     0 DoSepK=T KAlg= 1 I1Cent= 0 FoldK=F
 FoFJK:  IHMeth= 1 ICntrl=     0 DoSepK=T KAlg= 1 I1Cent= 0 FoldK=F
 FoFJK:  IHMeth= 1 ICntrl=     0 DoSepK=T KAlg= 1 I1Cent= 0 FoldK=F
 LinEq1:  Iter=  0 NonCon=     1 RMS=5.49D-08 Max=2.40D-06
 FoFJK:  IHMeth= 1 ICntrl=     0 DoSepK=T KAlg= 1 I1Cent= 0 FoldK=F
 LinEq1:  Iter=  1 NonCon=     1 RMS=4.12D-08 Max=1.44D-06
 FoFJK:  IHMeth= 1 ICntrl=     0 DoSepK=T KAlg= 1 I1Cent= 0 FoldK=F
 LinEq1:  Iter=  2 NonCon=     1 RMS=1.60D-08 Max=7.28D-07
 FoFJK:  IHMeth= 1 ICntrl=     0 DoSepK=T KAlg= 1 I1Cent= 0 FoldK=F
 LinEq1:  Iter=  3 NonCon=     1 RMS=1.44D-08 Max=6.99D-07
 FoFJK:  IHMeth= 1 ICntrl=     0 DoSepK=T KAlg= 1 I1Cent= 0 FoldK=F
 LinEq1:  Iter=  4 NonCon=     1 RMS=8.14D-09 Max=3.32D-07
 FoFJK:  IHMeth= 1 ICntrl=     0 DoSepK=T KAlg= 1 I1Cent= 0 FoldK=F
 LinEq1:  Iter=  5 NonCon=     1 RMS=4.98D-09 Max=1.41D-07
 FoFJK:  IHMeth= 1 ICntrl=     0 DoSepK=T KAlg= 1 I1Cent= 0 FoldK=F
 LinEq1:  Iter=  6 NonCon=     1 RMS=1.94D-09 Max=4.71D-08
 FoFJK:  IHMeth= 1 ICntrl=     0 DoSepK=T KAlg= 1 I1Cent= 0 FoldK=F
 LinEq1:  Iter=  7 NonCon=     1 RMS=1.10D-09 Max=3.34D-08
 FoFJK:  IHMeth= 1 ICntrl=     0 DoSepK=T KAlg= 1 I1Cent= 0 FoldK=F
 LinEq1:  Iter=  8 NonCon=     1 RMS=4.78D-10 Max=1.93D-08
 FoFJK:  IHMeth= 1 ICntrl=     0 DoSepK=T KAlg= 1 I1Cent= 0 FoldK=F
 LinEq1:  Iter=  9 NonCon=     1 RMS=2.21D-10 Max=8.74D-09
 FoFJK:  IHMeth= 1 ICntrl=     0 DoSepK=T KAlg= 1 I1Cent= 0 FoldK=F
 LinEq1:  Iter= 10 NonCon=     1 RMS=1.27D-10 Max=5.18D-09
 FoFJK:  IHMeth= 1 ICntrl=     0 DoSepK=T KAlg= 1 I1Cent= 0 FoldK=F
 LinEq1:  Iter= 11 NonCon=     1 RMS=5.48D-11 Max=1.44D-09
 FoFJK:  IHMeth= 1 ICntrl=     0 DoSepK=T KAlg= 1 I1Cent= 0 FoldK=F
 LinEq1:  Iter= 12 NonCon=     0 RMS=2.31D-11 Max=5.81D-10
 Linear equations converged to 7.907D-11 7.907D-10 after    12 iterations.
 FoFJK:  IHMeth= 1 ICntrl=     0 DoSepK=T KAlg= 1 I1Cent= 0 FoldK=F
 Error on total polarization charges =  0.00823
 SCF Done:  E(RCAM-B3LYP) =  -492.091733209     a.u. after    5 cycles
            Convg  =    0.1612D-08                    41 Fock formations.
              S**2 =  0.0000                  -V/T =  2.0042
 D1PCM: C-PCM CHGder 1st derivatives, ID1Alg=3 FixD1E=F DoIter=F DoCFld=F I1PDM=0.
 Calling FoFJK, ICntrl=      2127 FMM=F ISym2X=0 I1Cent= 0 IOpClX= 0 NMat=1 NMatS=1 NMatT=0.
 FoFJK:  IHMeth= 1 ICntrl=  2127 DoSepK=T KAlg= 1 I1Cent= 0 FoldK=F
 ***** Axes restored to original set *****
 -------------------------------------------------------------------
 Center     Atomic                   Forces (Hartrees/Bohr)
 Number     Number              X              Y              Z
 -------------------------------------------------------------------
      1        6           0.002987108   -0.002565759   -0.001140142
      2        6          -0.000047424    0.000412337   -0.000734626
      3        6           0.002523785   -0.001301444    0.001815595
      4        6           0.004501271    0.000310232    0.000568606
      5        6          -0.025540227    0.002161103    0.003763812
      6        6           0.007549769    0.003453762   -0.001160237
      7        1          -0.000172163   -0.000864330   -0.000919934
      8        1          -0.000071237   -0.000863351    0.000895227
      9        1          -0.001996863    0.000555694    0.001066314
     10        1          -0.002238029    0.000475365   -0.001120567
     11        7          -0.000100074    0.002860338   -0.000064157
     12        8          -0.000085247   -0.002535866    0.006277339
     13        8          -0.000111836   -0.002611186   -0.006235788
     14        7           0.011009273    0.000141685   -0.003460933
     15        1           0.002625983   -0.000043080    0.000682912
     16        1          -0.000834088    0.000414498   -0.000233420
 -------------------------------------------------------------------
 Cartesian Forces:  Max     0.025540227 RMS     0.004671084

 GradGradGradGradGradGradGradGradGradGradGradGradGradGradGradGradGradGrad
 Berny optimization.
 Using GEDIIS/GDIIS optimizer.
 Internal  Forces:  Max     0.006731678 RMS     0.002346693
 Search for a local minimum.
 Step number   2 out of a maximum of   82
 All quantities printed in internal units (Hartrees-Bohrs-Radians)
 Mixed Optimization -- RFO/linear search
 Update second derivatives using D2CorX and points    1    2
 DE= -6.07D-03 DEPred=-6.53D-03 R= 9.30D-01
 SS=  1.41D+00  RLast= 3.00D-01 DXNew= 5.0454D-01 8.9925D-01
 Trust test= 9.30D-01 RLast= 3.00D-01 DXMaxT set to 5.05D-01
 Use linear search instead of GDIIS.
     Eigenvalues ---    0.00979   0.00979   0.01828   0.01935   0.02041
     Eigenvalues ---    0.02151   0.02178   0.02230   0.02233   0.02270
     Eigenvalues ---    0.02273   0.03047   0.03337   0.15988   0.16000
     Eigenvalues ---    0.16000   0.16000   0.16000   0.16003   0.22009
     Eigenvalues ---    0.22968   0.23798   0.23993   0.25000   0.25000
     Eigenvalues ---    0.25189   0.35309   0.35337   0.35648   0.35674
     Eigenvalues ---    0.37684   0.41854   0.42687   0.45743   0.45897
     Eigenvalues ---    0.46425   0.46431   0.47617   0.48552   0.50808
     Eigenvalues ---    0.91528   0.926581000.000001000.000001000.00000
     Eigenvalues --- 1000.000001000.000001000.000001000.000001000.00000
     Eigenvalues --- 1000.000001000.000001000.000001000.000001000.00000
     Eigenvalues --- 1000.000001000.000001000.000001000.000001000.00000
     Eigenvalues --- 1000.000001000.000001000.000001000.000001000.00000
     Eigenvalues --- 1000.000001000.000001000.000001000.000001000.00000
     Eigenvalues --- 1000.000001000.00000
 RFO step:  Lambda=-1.37086577D-03 EMin= 9.79041757D-03
 Quartic linear search produced a step of  1.54014.
 Iteration  1 RMS(Cart)=  0.08326585 RMS(Int)=  0.01156637
 Iteration  2 RMS(Cart)=  0.01812526 RMS(Int)=  0.00309719
 Iteration  3 RMS(Cart)=  0.00031470 RMS(Int)=  0.00308995
 Iteration  4 RMS(Cart)=  0.00000090 RMS(Int)=  0.00308995
 Variable       Old X    -DE/DX   Delta X   Delta X   Delta X     New X
                                 (Linear)    (Quad)   (Total)
    R1        2.62575  -0.00211  -0.00540   0.00159  -0.00558   2.62017
    R2        2.60167  -0.00404  -0.01459   0.00796  -0.00663   2.59504
    R3        2.04266  -0.00124  -0.00505   0.00134  -0.00371   2.03895
    R4        2.62355  -0.00302  -0.00878   0.00339  -0.00715   2.61641
    R5        2.74179  -0.00229  -0.00867   0.00195  -0.00672   2.73507
    R6        2.60418  -0.00330  -0.01072   0.00415  -0.00657   2.59761
    R7        2.04259  -0.00121  -0.00517   0.00174  -0.00342   2.03916
    R8        2.65135  -0.00249  -0.00769  -0.00118  -0.00713   2.64422
    R9        2.04812  -0.00120  -0.00493   0.00128  -0.00364   2.04448
   R10        2.65712  -0.00188   0.00119  -0.01535  -0.01242   2.64469
   R11        2.59648  -0.00389  -0.00119  -0.01729  -0.01847   2.57801
   R12        2.04791  -0.00120  -0.00525   0.00191  -0.00333   2.04458
   R13        2.31085  -0.00673  -0.00996   0.00110  -0.00886   2.30199
   R14        2.31080  -0.00673  -0.01004   0.00127  -0.00877   2.30202
   R15        1.90243  -0.00064  -0.00163  -0.00027  -0.00189   1.90054
   R16        1.90240  -0.00061  -0.00167  -0.00003  -0.00170   1.90070
    A1        2.08291   0.00029  -0.00100   0.00466   0.00396   2.08687
    A2        2.08642   0.00013   0.00242  -0.00206   0.00020   2.08662
    A3        2.11384  -0.00042  -0.00145  -0.00253  -0.00415   2.10969
    A4        2.11489  -0.00058   0.00120  -0.00350  -0.00375   2.11114
    A5        2.08437   0.00029  -0.00025   0.00102   0.00149   2.08586
    A6        2.08391   0.00029  -0.00097   0.00253   0.00228   2.08619
    A7        2.08446   0.00021   0.00139  -0.00106   0.00063   2.08509
    A8        2.08591   0.00018   0.00163   0.00021   0.00170   2.08761
    A9        2.11282  -0.00040  -0.00303   0.00084  -0.00234   2.11047
   A10        2.10428   0.00069  -0.00144  -0.00253  -0.00019   2.10409
   A11        2.09143  -0.00024   0.00156   0.00116   0.00082   2.09226
   A12        2.08747  -0.00045  -0.00012   0.00136  -0.00069   2.08678
   A13        2.07434  -0.00123  -0.00058   0.01021   0.00228   2.07662
   A14        2.10836  -0.00265   0.00669   0.00515  -0.00396   2.10440
   A15        2.07289   0.00531   0.05943  -0.01474   0.02907   2.10196
   A16        2.10519   0.00060  -0.00003  -0.00644  -0.00268   2.10251
   A17        2.09094  -0.00008   0.00080   0.00501   0.00389   2.09483
   A18        2.08705  -0.00052  -0.00076   0.00143  -0.00124   2.08581
   A19        2.06347   0.00058   0.00606  -0.00642  -0.00042   2.06305
   A20        2.06306   0.00048   0.00543  -0.00618  -0.00081   2.06225
   A21        2.15666  -0.00106  -0.01150   0.01260   0.00104   2.15770
   A22        2.06687  -0.00080  -0.01061  -0.00120  -0.01231   2.05457
   A23        2.07088   0.00013  -0.00444   0.00054  -0.00440   2.06648
   A24        2.00952  -0.00012  -0.00832   0.00317  -0.00575   2.00377
    D1       -0.01312  -0.00045  -0.02095   0.02221   0.00172  -0.01140
    D2        3.13425  -0.00031  -0.01406   0.01164  -0.00205   3.13220
    D3        3.13490  -0.00024  -0.01002   0.00926  -0.00094   3.13395
    D4       -0.00092  -0.00010  -0.00313  -0.00131  -0.00471  -0.00563
    D5       -0.00280  -0.00006  -0.00522   0.01571   0.01000   0.00719
    D6        3.13995  -0.00011  -0.00952   0.01046  -0.00035   3.13960
    D7        3.13226  -0.00027  -0.01633   0.02888   0.01271  -3.13821
    D8       -0.00817  -0.00032  -0.02064   0.02362   0.00237  -0.00580
    D9        0.00978   0.00026   0.01581  -0.01939  -0.00329   0.00649
   D10       -3.13028   0.00044   0.01713  -0.01694  -0.00032  -3.13060
   D11       -3.13759   0.00012   0.00892  -0.00883   0.00047  -3.13712
   D12        0.00553   0.00030   0.01023  -0.00638   0.00345   0.00898
   D13        3.13859  -0.00002  -0.00337   0.01751   0.01419  -3.13041
   D14       -0.00258  -0.00011  -0.00327  -0.00282  -0.00603  -0.00862
   D15        0.00267   0.00013   0.00340   0.00715   0.01049   0.01316
   D16       -3.13850   0.00004   0.00350  -0.01318  -0.00972   3.13496
   D17        0.00951   0.00045   0.01555  -0.02150  -0.00690   0.00261
   D18       -3.13015   0.00073   0.02461  -0.01995   0.00308  -3.12707
   D19       -3.13364   0.00026   0.01421  -0.02400  -0.00992   3.13963
   D20        0.00989   0.00055   0.02328  -0.02244   0.00007   0.00996
   D21       -0.02485  -0.00092  -0.04077   0.05786   0.01820  -0.00665
   D22        2.86345   0.00634   0.19594   0.05854   0.24971   3.11316
[...]
 ! D4    D(7,1,2,11)             0.0249         -DE/DX =    0.0                 !
 ! D5    D(2,1,6,5)              0.0262         -DE/DX =    0.0                 !
 ! D6    D(2,1,6,10)          -179.8786         -DE/DX =    0.0                 !
 ! D7    D(7,1,6,5)           -179.9123         -DE/DX =    0.0                 !
 ! D8    D(7,1,6,10)             0.1829         -DE/DX =    0.0                 !
 ! D9    D(1,2,3,4)             -0.0051         -DE/DX =    0.0                 !
 ! D10   D(1,2,3,8)           -179.9445         -DE/DX =    0.0                 !
 ! D11   D(11,2,3,4)           179.9145         -DE/DX =    0.0                 !
 ! D12   D(11,2,3,8)            -0.0249         -DE/DX =    0.0                 !
 ! D13   D(1,2,11,12)          179.9553         -DE/DX =    0.0                 !
 ! D14   D(1,2,11,13)           -0.0357         -DE/DX =    0.0                 !
 ! D15   D(3,2,11,12)            0.0345         -DE/DX =    0.0                 !
 ! D16   D(3,2,11,13)         -179.9564         -DE/DX =    0.0                 !
 ! D17   D(2,3,4,5)             -0.0263         -DE/DX =    0.0                 !
 ! D18   D(2,3,4,9)            179.8784         -DE/DX =    0.0                 !
 ! D19   D(8,3,4,5)            179.9123         -DE/DX =    0.0                 !
 ! D20   D(8,3,4,9)             -0.183          -DE/DX =    0.0                 !
 ! D21   D(3,4,5,6)              0.0566         -DE/DX =    0.0                 !
 ! D22   D(3,4,5,14)           178.3752         -DE/DX =    0.0                 !
 ! D23   D(9,4,5,6)           -179.8485         -DE/DX =    0.0                 !
 ! D24   D(9,4,5,14)            -1.5299         -DE/DX =    0.0                 !
 ! D25   D(4,5,6,1)             -0.0565         -DE/DX =    0.0                 !
 ! D26   D(4,5,6,10)           179.8486         -DE/DX =    0.0                 !
 ! D27   D(14,5,6,1)          -178.3752         -DE/DX =    0.0                 !
 ! D28   D(14,5,6,10)            1.5299         -DE/DX =    0.0                 !
 ! D29   D(4,5,14,15)           14.9793         -DE/DX =    0.0                 !
 ! D30   D(4,5,14,16)          166.7333         -DE/DX =    0.0                 !
 ! D31   D(6,5,14,15)         -166.7332         -DE/DX =    0.0                 !
 ! D32   D(6,5,14,16)          -14.9793         -DE/DX =    0.0                 !
 --------------------------------------------------------------------------------
 GradGradGradGradGradGradGradGradGradGradGradGradGradGradGradGradGradGrad

 1\1\GINC-DLT05\Freq\RCAM-B3LYP\Gen\C6H6N2O2\MATHEUSMAXIMO\24-Dec-2018\
 0\\#N Geom=AllCheck Guess=TCheck SCRF=Check GenChk RCAM-B3LYP/ChkBas F
 req\\NA CAM-B3LYP def2-TZVPD - solvent CPCM Toluene\\0,1\C,0.149063173
 2,0.1895799491,-0.0009658128\C,0.1847191158,0.8690568314,-1.2093191725
 \C,0.123225602,0.184719496,-2.4138835511\C,0.025734866,-1.1854094838,-
 2.4099789894\C,-0.0114200358,-1.8952499069,-1.2016502036\C,0.051571511
 1,-1.180548653,0.0027372891\H,0.1992280205,0.7436308929,0.9238869409\H
 ,0.1535505789,0.7350379124,-3.3418232292\H,-0.0245899302,-1.7247129195
 ,-3.3467854241\H,0.0213436604,-1.7160735396,0.9425705976\N,0.289313138
 4,2.3125142845,-1.2133481776\O,0.3196441965,2.8862017364,-2.2881028794
 \O,0.3426049596,2.8905305122,-0.1418108273\N,-0.1413534853,-3.25253435
 58,-1.1975223777\H,0.0161349129,-3.761371343,-2.0494818639\H,0.0343644
 76,-3.7579381236,-0.3470854389\\Version=EM64L-G09RevA.02\State=1-A\HF=
 -492.0958029\RMSD=0.000e+00\RMSF=9.570e-07\ZeroPoint=0.1207872\Thermal
 =0.1290272\Dipole=0.019479,-3.318476,0.0064792\DipoleDeriv=-0.0381371,
 0.0548885,-0.0074749,0.0595615,0.7447127,-0.1216717,-0.0283898,-0.4166
 736,0.0901302,-0.0340122,-0.1049086,-0.0017834,-0.1140946,-1.4916486,0
 .0037827,-0.001765,0.0036809,-0.2203567,-0.037316,0.0638003,0.0099414,
 0.0622455,0.7468719,0.117719,0.0308515,0.412758,0.087155,-0.2236441,-0
 .0225555,0.0087115,-0.0525771,-0.8622921,0.0417913,0.0677987,0.7280845
 ,-0.0157935,0.1762856,0.2610715,-0.0004773,0.224004,2.5835944,-0.00724
 26,-0.000403,-0.0076424,0.1808793,-0.2251821,-0.03813,-0.0040708,-0.05
 36864,-0.8653708,-0.0372259,-0.0630658,-0.7240045,-0.0111685,0.1512611
 ,-0.0031373,-0.0039538,-0.0016339,0.1291404,-0.0413999,-0.0034103,-0.0
 300151,0.0638286,0.1513788,-0.0024828,0.0020869,-0.0007394,0.1294277,0
 .0411607,0.0015363,0.0298106,0.0634244,0.1609765,-0.0122071,-0.006574,
 -0.0108499,0.0023776,-0.075805,-0.006706,-0.0776823,-0.0185455,0.16117
 91,-0.0105232,0.0027632,-0.0092055,0.0029961,0.0759331,0.0028901,0.077
 8384,-0.0193672,0.3113913,0.2033589,0.018077,0.2117607,3.1315642,-0.00
 44645,0.0180584,-0.0043762,2.0393606,-0.3024402,-0.0598275,0.0274251,-
 0.0625146,-1.2169672,0.5068573,0.0375376,0.6243426,-1.1991673,-0.30423
 41,-0.0733201,-0.0462576,-0.0735317,-1.2215225,-0.5053103,-0.0563634,-
 0.6228248,-1.1928184,-0.622246,-0.5723082,0.0058153,-0.2065725,-2.2782
 615,0.0064282,0.0050781,0.0103444,-0.1869873,0.338154,0.1595406,0.0377
 984,0.0145718,0.2330479,0.054605,0.0314808,0.1213853,0.1685701,0.33658
 53,0.1567405,-0.0420271,0.013262,0.2323299,-0.0551574,-0.0351281,-0.12
 50258,0.1708563\Polar=65.0326115,9.2341825,185.8390228,0.5755444,-0.23
 04614,120.5276243\PG=C01 [X(C6H6N2O2)]\NImag=0\\0.15184561,0.04214277,
 0.72911307,0.00948147,0.04272251,0.73750893,-0.06622378,-0.00528190,0.
 00507518,0.13946203,-0.00453226,-0.14562636,0.10471657,0.03155411,0.57
 721934,0.00088070,0.04536611,-0.29322676,0.00662436,0.00003965,0.76401
 050,0.00912314,0.00365996,-0.00239399,-0.06645472,-0.00679356,-0.00570
 868,0.15170477,0.00316078,0.05744682,-0.02388824,-0.00628883,-0.146233
 41,-0.04583535,0.04120573,0.72876389,0.00088547,0.02333930,-0.06066371
 ,-0.00990254,-0.10518851,-0.29239130,0.00290172,-0.04357743,0.73799963
 ,-0.00306098,-0.00247706,0.00203507,0.00824808,-0.00371459,-0.00471597
 ,-0.06343935,-0.02342598,0.00141426,0.13256954,-0.00268326,-0.04560020
 ,0.03301845,-0.00448672,-0.04379864,-0.07704434,-0.02215026,-0.3744507
 1,0.03459994,0.04521786,0.74060677,0.00127454,0.02009759,-0.01669109,-
 0.00103334,-0.01754601,0.03295046,-0.00320414,-0.03658995,-0.13532343,
 0.00957253,0.04538989,0.70406393,0.00140095,-0.00465704,-0.00186153,-0
 .00695464,0.00395073,-0.00076943,0.00157219,-0.00287685,0.00281941,-0.
 07333540,-0.00465419,0.00246282,0.17828570,-0.00265991,-0.03886224,-0.
 02973349,0.00220024,0.02516955,-0.00023149,-0.00199611,-0.03840867,0.0
 3012232,-0.00411023,-0.15433918,0.09006885,0.03250865,0.72901789,-0.00
 517683,-0.08247129,0.04580947,-0.00076584,-0.00025038,-0.07805491,0.00
 612886,0.08289109,0.04518454,-0.00009301,0.02777777,-0.27194032,0.0054
 6143,-0.00041906,0.69435696,-0.06343187,-0.02263524,-0.00286150,0.0083
 8275,-0.00331460,0.00525231,-0.00313784,-0.00291435,-0.00231220,0.0078
 4852,0.00366899,-0.00153833,-0.07347691,-0.00605124,-0.00413241,0.1324
 1796,-0.02286561,-0.37443920,-0.03315461,-0.00282736,-0.04341586,0.077
 43001,-0.00339416,-0.04581346,-0.03283587,0.00336982,0.05945776,-0.014
 40000,-0.00527143,-0.15481498,-0.02814235,0.04421936,0.74023908,0.0017
 5486,0.03804630,-0.13534454,0.00157012,0.01792878,0.03243309,-0.001550
 35,-0.01992236,-0.01640098,0.00040926,0.01390698,-0.04420188,-0.006688
 68,-0.09043102,-0.27132121,0.00249581,-0.04649368,0.70458364,-0.042696
 99,-0.00782543,-0.01178973,0.00572341,0.00032274,0.00060919,0.00483187
 ,-0.00041508,0.00016427,-0.00122787,0.00001632,0.00009553,0.00871119,-
 0.00098898,-0.00003899,0.00558319,-0.00103467,-0.00185570,0.02846991,-
 0.00783613,-0.13183802,-0.12697926,0.00066493,0.01316281,0.01184555,-0
 .00042885,-0.00151002,0.00347638,0.00003195,-0.00084258,0.00058593,-0.
 00101563,-0.00472569,0.00087177,-0.00143422,-0.00993409,-0.02638392,0.
 00937371,0.13699052,-0.01166001,-0.12543300,-0.27740145,-0.00136723,-0
 .01529890,-0.01843855,0.00018783,0.00386548,-0.00320778,0.00006184,0.0
 0060004,0.00048079,0.00005901,0.00155218,0.00121029,0.00016660,0.00222
 819,0.00634403,0.01280491,0.13739269,0.28945151,0.00482070,-0.00049883
 ,-0.00033408,0.00572858,0.00064551,-0.00112888,-0.04230225,-0.00510656
 ,0.00676935,0.00561977,-0.00107393,0.00187441,0.00870737,-0.00102191,-
 0.00011743,-0.00123046,0.00000320,-0.00005888,0.00059314,0.00001237,-0
 .00007265,0.02804083,-0.00050436,-0.00153958,-0.00347309,0.00041420,0.
 01317616,-0.01198449,-0.00508460,-0.13082268,0.12652593,-0.00086885,-0
 .00983641,0.02647365,-0.00103438,-0.00473527,-0.00082585,0.00001928,-0
 .00084734,-0.00058113,-0.00000423,0.00063637,-0.00078883,0.00639568,0.
 13588514,-0.00035759,-0.00386239,-0.00316703,0.00084728,0.01516115,-0.
 01845704,0.00663961,0.12497972,-0.27881122,-0.00014748,-0.00214050,0.0
 0620976,-0.00021535,-0.00150669,0.00122365,-0.00002524,-0.00059489,0.0
 0048813,0.00004271,0.00078294,-0.00080365,-0.00722577,-0.13694159,0.29
 098575,-0.00087212,0.00003150,0.00003541,0.00761323,-0.00083840,0.0000
 7495,0.00269331,-0.00101475,-0.00198910,-0.03581655,-0.00816437,-0.011
 72062,0.00437095,0.00010143,0.00089752,0.00520603,-0.00043576,0.000122
 92,-0.00054330,0.00004526,-0.00000116,-0.00510077,0.00044949,0.0000765
 4,0.02500779,-0.00000059,-0.00089758,0.00061437,-0.00086372,-0.0044734
 4,0.00173462,-0.00141860,-0.01251443,-0.02911606,-0.00798656,-0.127922
 04,-0.11980247,0.00056082,0.01004646,0.01472351,-0.00046810,-0.0011344
 5,0.00303919,0.00004892,0.00002892,-0.00008531,0.00047341,0.00135192,0
 .00027243,0.00928421,0.13401827,0.00009246,0.00125937,-0.00015149,-0.0
 0003481,0.00062268,0.00194264,0.00014057,0.00171824,0.00457386,-0.0115
 7042,-0.11980589,-0.27264175,-0.00143516,-0.01664791,-0.01907369,0.000
 19557,0.00352652,-0.00315199,-0.00000308,-0.00006535,0.00000092,0.0000
 6277,-0.00028631,0.00074125,0.01267834,0.12981083,0.28664505,0.0027338
 5,-0.00104247,0.00203145,0.00760987,-0.00085181,-0.00019283,-0.0008745
 2,0.00000445,-0.00001990,0.00519539,-0.00051212,-0.00029952,0.00437168
 ,0.00045204,-0.00140089,-0.03542606,-0.00556602,0.00665668,-0.00510114
 ,0.00045543,0.00004677,-0.00054296,0.00004667,0.00001261,-0.00027906,0
 .00007122,-0.00005950,0.02458434,-0.00079449,-0.01240366,0.02920805,-0
 .00090047,-0.00448275,-0.00168985,-0.00001406,-0.00090512,-0.00061117,
 -0.00053430,-0.00116089,-0.00303645,0.00024889,0.01005365,-0.01484952,
 -0.00538893,-0.12695887,0.11935808,0.00046743,0.00135192,-0.00028496,0
 .00005076,0.00002952,0.00008413,0.00005615,0.00054303,-0.00071703,0.00
 646891,0.13297451,-0.00009788,-0.00162790,0.00442263,-0.00008293,-0.00
 057869,0.00195534,-0.00007686,-0.00125672,-0.00014155,-0.00037208,-0.0
 0352438,-0.00311496,0.00093125,0.01652465,-0.01908172,0.00650577,0.119
 36523,-0.27399526,0.00006048,0.00027417,0.00074158,0.00001452,0.000064
 25,-0.00000002,0.00004475,0.00070962,-0.00095582,-0.00708542,-0.129359
 60,0.28811207,-0.00484219,-0.00294288,0.00204803,-0.08376594,-0.003383
 27,-0.00034868,-0.00492208,-0.00350876,-0.00162507,0.00780345,0.000795
 51,-0.00110308,-0.00148351,-0.00172788,-0.00004076,0.00783095,0.000915
 53,0.00078869,-0.00428882,0.00034740,-0.00020132,-0.00428427,0.0003487
 3,0.00022304,0.00139170,-0.00008566,0.00001933,0.00139337,-0.00004941,
 -0.00004362,0.25657164,-0.00291601,-0.04899688,0.02539893,-0.00331871,
 -0.12958954,0.00006112,-0.00346395,-0.04920396,-0.02507546,0.00041393,
 0.01896806,-0.01302549,-0.00315056,-0.02492538,0.00007270,0.00069299,0
 .01904212,0.01291001,0.00033978,0.00046184,-0.00302991,0.00040435,0.00
 047409,0.00300712,-0.00006611,0.00046056,0.00058424,-0.00007816,0.0004
 6505,-0.00058357,0.03062375,0.67615285,0.00210701,0.02622759,0.0141198
 8,-0.00034879,0.00006172,-0.11695364,-0.00168407,-0.02590320,0.0144066
 5,-0.00049612,-0.00549098,-0.00664878,-0.00003794,0.00005743,-0.005618
 37,0.00018298,0.00536905,-0.00675047,0.00000835,-0.00003210,-0.0032019
 6,0.00001321,0.00000982,-0.00321883,-0.00012146,-0.00169823,0.00024889
 ,0.00009719,0.00169879,0.00024273,0.00722645,0.00020011,0.93772323,0.0
 0417005,-0.00040042,-0.00066191,0.02074615,-0.00424703,0.00347775,0.00
 111099,-0.00018287,0.00018037,-0.00067494,-0.00011856,0.00023937,0.000
 28790,0.00038262,0.00015461,-0.00114234,-0.00033635,-0.00002189,0.0003
 0734,0.00000744,0.00001330,0.00016447,-0.00028980,0.00009429,-0.000038
 47,-0.00001535,-0.00001320,-0.00064011,-0.00002297,0.00000604,-0.08519
 724,-0.00962619,0.00912064,0.03182796,-0.00049009,-0.00111036,-0.00909
 742,-0.00413139,-0.04366180,0.05267556,-0.00001385,0.00028422,0.003866
 89,-0.00007884,-0.00293616,0.00334275,0.00085653,0.00662134,0.00215296
 ,-0.00029384,-0.00620247,-0.00087049,0.00001546,0.00059724,0.00006664,
 -0.00027767,-0.00377350,0.00085806,-0.00001681,-0.00024958,-0.00021495
 ,-0.00001667,-0.00100277,0.00004612,-0.00963057,-0.24216865,0.17358334
 ,0.01354588,0.24903835,-0.00016552,-0.00239778,0.00453003,0.00265585,0
 .04146961,-0.01209094,-0.00098207,-0.01219327,-0.00893451,0.00028715,0
 .00507910,-0.00096590,-0.00080075,-0.00633570,0.00007583,0.00026947,0.
 00386256,0.00312895,-0.00006097,-0.00110957,0.00122747,-0.00000404,-0.
 00061908,0.00338509,0.00001516,0.00020978,0.00005508,0.00002034,0.0002
 9519,-0.00005468,0.00907681,0.17249408,-0.41329406,-0.01007293,-0.2156
 6295,0.55992962,0.00112352,0.00007656,-0.00039586,0.02060034,-0.005147
 30,-0.00415428,0.00418795,-0.00034598,0.00067016,-0.00114566,-0.000418
 28,0.00011510,0.00030157,0.00051720,-0.00016146,-0.00068632,-0.0002280
 9,-0.00024425,0.00016404,-0.00027639,-0.00002417,0.00030879,0.00003119
 ,0.00000623,-0.00064040,-0.00002923,0.00000663,-0.00003847,-0.00001976
 ,0.00001527,-0.08573547,-0.01337228,-0.01606864,0.02912170,0.00148198,
 -0.00106442,0.03249904,-0.00009335,0.00031776,-0.00390305,-0.00526814,
 -0.04404029,-0.05244587,-0.00029417,-0.00106390,0.00912835,-0.00027569
 ,-0.00621437,0.00091427,0.00081314,0.00663806,-0.00219734,-0.00015151,
 -0.00297005,-0.00333216,-0.00029548,-0.00377421,-0.00082304,0.00001438
 ,0.00060146,-0.00006443,-0.00001768,-0.00100413,-0.00004192,-0.0000122
 4,-0.00024955,0.00021649,-0.01339991,-0.24356638,-0.17402059,0.0016957
 4,0.05081594,0.00972682,0.01823297,0.25078128,0.00076649,0.01215696,-0
 .00898038,-0.00333239,-0.04123984,-0.01156645,0.00017395,0.00242831,0.
 00446567,-0.00017670,-0.00381682,0.00314415,0.00079239,0.00629957,0.00
 004543,-0.00029231,-0.00506725,-0.00092062,0.00007415,0.00065397,0.003
 38632,0.00008059,0.00111168,0.00122183,-0.00000771,-0.00029080,-0.0000
 5303,-0.00001311,-0.00020817,0.00005505,-0.01602468,-0.17293160,-0.411
 35793,-0.00250378,-0.01051985,-0.13733147,0.02127643,0.21656881,0.5575
 1497,0.00501303,0.00414122,-0.00053392,-0.00115793,-0.00709200,0.00010
 897,0.00502452,0.00400694,0.00018470,0.00953868,-0.00708624,0.00608240
 ,-0.04325036,0.00391994,-0.00097338,0.00930430,-0.00818563,-0.00621090
 ,-0.00026756,0.00012170,-0.00003352,-0.00026549,0.00014967,0.00004289,
 -0.00269686,0.00019726,0.00009368,-0.00268789,0.00018799,0.00000409,-0
 .00010175,0.00680649,-0.00000956,-0.00008449,-0.00183088,0.00162290,-0
 .00011838,-0.00183140,-0.00160397,0.04795792,0.00075944,0.01499232,-0.
 00387452,-0.00159072,-0.02466162,0.00008220,0.00084180,0.01498219,0.00
 375458,-0.00484160,-0.04972683,0.02215464,-0.02987421,-0.33459209,0.00
 072539,-0.00533200,-0.05001787,-0.02183671,-0.00006108,-0.00028642,-0.
 00003982,-0.00005996,-0.00028102,0.00004304,0.00023017,0.00212558,-0.0
 0112317,0.00025601,0.00212839,0.00111710,0.00170435,0.02347226,-0.0000
 6498,-0.00041296,-0.00658170,0.00548056,-0.00052973,-0.00660259,-0.005
 44212,-0.06566572,0.74458675,-0.00034404,0.00624266,-0.01051843,0.0000
 9789,0.00014115,0.00768295,0.00000799,-0.00643275,-0.01051974,0.004725
 84,0.05036313,0.00172161,-0.00090522,0.00036367,-0.13340108,-0.0048646
 2,-0.04999062,0.00224681,-0.00005335,-0.00129899,0.00020019,0.00006352
 ,0.00129802,0.00019272,-0.00041421,0.00042168,0.00191441,0.00051177,-0
 .00042672,0.00190266,0.00000072,-0.00011963,0.00028658,-0.00002377,-0.
 00024584,0.00041057,0.00003723,0.00031340,0.00046537,0.00870544,0.0009
 1324,0.84846734,0.00169822,-0.00167460,0.00002073,0.00021890,0.0017414
 4,-0.00037094,-0.00081606,-0.00064477,-0.00010010,-0.00148236,0.001470
 69,-0.00121337,-0.00483237,-0.01080456,-0.00615626,0.00340933,0.000237
 18,0.00157215,-0.00037731,-0.00006662,0.00001782,0.00011954,-0.0000013
 1,-0.00000478,0.00035654,0.00017326,-0.00012067,-0.00064985,0.00006169
 ,0.00007157,-0.00018521,-0.00166601,-0.00002854,0.00001910,0.00045966,
 -0.00039553,0.00003068,0.00043356,0.00040847,-0.01170807,0.05070892,0.
 07081395,0.01701651,-0.00032479,-0.00007159,-0.00168968,0.00006626,0.0
 0063264,0.00034695,-0.00036690,-0.00049009,-0.00010751,-0.00046139,0.0
 0248164,-0.00170031,0.00644195,-0.01614376,-0.03306974,-0.00019252,-0.
 00466454,0.00295831,0.00000065,-0.00035329,0.00008789,0.00004029,0.000
 03491,0.00000828,0.00026602,-0.00046776,0.00124667,0.00008692,0.000088
 64,-0.00013522,-0.00000334,-0.00052700,0.00001191,0.00001244,0.0001347
 7,-0.00006504,0.00001340,0.00019811,0.00023503,0.03446874,-0.16541916,
 -0.16177503,-0.03571241,0.17111861,-0.00003685,-0.00098999,0.00045395,
 0.00014174,0.00197127,0.00009998,-0.00059170,-0.00131128,-0.00067933,-
 0.00018988,0.00351485,0.00099959,-0.00090634,-0.00254556,0.00544269,0.
 00071387,0.00244936,0.00188648,-0.00002337,0.00003430,0.00002161,0.000
 03145,0.00004837,-0.00001217,0.00033866,-0.00041556,-0.00034525,0.0000
 4893,0.00012695,0.00024879,0.00000838,-0.00196733,0.00001233,0.0000099
 2,0.00052808,-0.00051171,0.00000751,0.00050069,0.00042891,0.05201328,-
 0.16246780,-0.35627138,-0.05790596,0.17709688,0.36441492,-0.00080116,-
 0.00061614,0.00010519,0.00022367,0.00170028,0.00036146,0.00169809,-0.0
 0165312,-0.00004079,0.00335969,0.00017857,-0.00160431,-0.00467630,-0.0
 1072129,0.00641485,-0.00145123,0.00139999,0.00126015,0.00011891,-0.000
 00233,0.00000198,-0.00037700,-0.00006738,-0.00000900,-0.00065202,0.000
 05872,-0.00005251,0.00035155,0.00018256,0.00010505,-0.00018462,-0.0016
 2333,0.00003931,0.00002195,0.00042111,-0.00040144,0.00002708,0.0004497
 9,0.00038218,-0.01449967,0.05386726,-0.07835912,-0.00281759,-0.0043353
 0,0.00634037,0.01965864,-0.00036212,-0.00048432,0.00011449,0.00005822,
 0.00062320,-0.00035040,-0.00028841,-0.00006069,0.00169832,-0.00025849,
 -0.00468623,-0.00292689,0.00715358,-0.01599969,0.03301034,-0.00042406,
 0.00247423,0.00170382,0.00003997,0.00003468,-0.00000933,-0.00000111,-0
 .00035378,-0.00008637,0.00008964,0.00008867,0.00013398,0.00023784,-0.0
 0047110,-0.00125155,-0.00000360,-0.00051903,-0.00000969,0.00000837,0.0
 0019512,-0.00023430,0.00001374,0.00013287,0.00006214,0.03769193,-0.164
 11820,0.16023263,-0.00471611,0.01344788,-0.01657322,-0.03923938,0.1696
 9639,0.00059572,0.00132396,-0.00070000,-0.00014454,-0.00201025,0.00010
 463,0.00001132,0.00102771,0.00044319,-0.00074429,-0.00242723,0.0019578
 2,0.00109412,0.00286225,0.00514244,0.00024424,-0.00355164,0.00097584,-
 0.00003442,-0.00004852,-0.00001131,0.00003191,-0.00003135,0.00002179,-
 0.00002999,-0.00012759,0.00025093,-0.00035457,0.00041228,-0.00033684,-
 0.00000423,0.00200469,0.00000377,0.00000119,-0.00050889,0.00044063,-0.
 00002148,-0.00054043,-0.00051781,-0.05949311,0.16057837,-0.35478057,-0
 .00660852,0.01655060,-0.01618940,0.06545665,-0.17551396,0.36319489\\0.
 00000065,-0.00000009,0.00000024,0.00000074,-0.00000107,-0.00000064,0.0
 0000070,0.00000072,0.00000044,-0.00000065,-0.00000066,0.00000033,-0.00
 000076,0.00000066,-0.00000049,-0.00000060,-0.00000013,0.00000008,0.000
 00084,-0.00000011,-0.00000006,0.00000085,0.,-0.00000009,-0.00000100,0.
 00000023,-0.00000002,-0.00000098,0.00000006,0.,0.00000224,0.00000058,0
 .,0.00000249,-0.00000044,0.00000014,0.00000243,-0.00000011,-0.00000018
 ,-0.00000207,-0.00000013,0.00000012,-0.00000245,0.00000025,0.00000007,
 -0.00000244,0.00000026,0.00000006\\\@


 A MAN IS EXACTLY AS GREAT AS THE TIDE SURGING
 BENEATH HIM.      - BISMARCK
 Job cpu time:  0 days  4 hours 39 minutes 55.5 seconds.
 File lengths (MBytes):  RWF=    251 Int=      0 D2E=      0 Chk=     15 Scr=      1
 Normal termination of Gaussian 09 at Mon Dec 24 12:30:06 2018.
