 Entering Gaussian System, Link 0=g09
 Initial command:
 /apps/software//g09/l1.exe /scratch/matheusmaximo/38048.cluster.abaxnet/Gau-3780.inp -scrdir=/scratch/matheusmaximo/38048.cluster.abaxnet/
 Entering Link 1 = /apps/software//g09/l1.exe PID=      3781.
  
 Copyright (c) 1988,1990,1992,1993,1995,1998,2003,2009, Gaussian, Inc.
                  All Rights Reserved.
  
 This is part of the Gaussian(R) 09 program.  It is based on
 the Gaussian(R) 03 system (copyright 2003, Gaussian, Inc.),
 the Gaussian(R) 98 system (copyright 1998, Gaussian, Inc.),
 the Gaussian(R) 94 system (copyright 1995, Gaussian, Inc.),
 the Gaussian 92(TM) system (copyright 1992, Gaussian, Inc.),
 the Gaussian 90(TM) system (copyright 1990, Gaussian, Inc.),
 the Gaussian 88(TM) system (copyright 1988, Gaussian, Inc.),
 the Gaussian 86(TM) system (copyright 1986, Carnegie Mellon
 University), and the Gaussian 82(TM) system (copyright 1983,
 Carnegie Mellon University). Gaussian is a federally registered
 trademark of Gaussian, Inc.
  
 This software contains proprietary and confidential information,
 including trade secrets, belonging to Gaussian, Inc.
  
 This software is provided under written license and may be
 used, copied, transmitted, or stored only in accord with that
 written license.
  
 The following legend is applicable only to US Government
 contracts under FAR:
  
                    RESTRICTED RIGHTS LEGEND
  
 Use, reproduction and disclosure by the US Government is
 subject to restrictions as set forth in subparagraphs (a)
 and (c) of the Commercial Computer Software - Restricted
 Rights clause in FAR 52.227-19.
  
 Gaussian, Inc.
 340 Quinnipiac St., Bldg. 40, Wallingford CT 06492
  
  
 ---------------------------------------------------------------
 Warning -- This program may not be used in any manner that
 competes with the business of Gaussian, Inc. or will provide
 assistance to any competitor of Gaussian, Inc.  The licensee
 of this program is prohibited from giving any competitor of
 Gaussian, Inc. access to this program.  By using this program,
 the user acknowledges that Gaussian, Inc. is engaged in the
 business of creating and licensing software in the field of
 computational chemistry and represents and warrants to the
 licensee that it is not a competitor of Gaussian, Inc. and that
 it will not use this program in any manner prohibited above.
 ---------------------------------------------------------------
  

 Cite this work as:
 Gaussian 09, Revision A.02,
 M. J. Frisch, G. W. Trucks, H. B. Schlegel, G. E. Scuseria, 
 M. A. Robb, J. R. Cheeseman, G. Scalmani, V. Barone, B. Mennucci, 
 G. A. Petersson, H. Nakatsuji, M. Caricato, X. Li, H. P. Hratchian, 
 A. F. Izmaylov, J. Bloino, G. Zheng, J. L. Sonnenberg, M. Hada, 
 M. Ehara, K. Toyota, R. Fukuda, J. Hasegawa, M. Ishida, T. Nakajima, 
 Y. Honda, O. Kitao, H. Nakai, T. Vreven, J. A. Montgomery, Jr., 
 J. E. Peralta, F. Ogliaro, M. Bearpark, J. J. Heyd, E. Brothers, 
 K. N. Kudin, V. N. Staroverov, R. Kobayashi, J. Normand, 
 K. Raghavachari, A. Rendell, J. C. Burant, S. S. Iyengar, J. Tomasi, 
 M. Cossi, N. Rega, J. M. Millam, M. Klene, J. E. Knox, J. B. Cross, 
 V. Bakken, C. Adamo, J. Jaramillo, R. Gomperts, R. E. Stratmann, 
 O. Yazyev, A. J. Austin, R. Cammi, C. Pomelli, J. W. Ochterski, 
 R. L. Martin, K. Morokuma, V. G. Zakrzewski, G. A. Voth, 
 P. Salvador, J. J. Dannenberg, S. Dapprich, A. D. Daniels, 
 O. Farkas, J. B. Foresman, J. V. Ortiz, J. Cioslowski, 
 and D. J. Fox, Gaussian, Inc., Wallingford CT, 2009.
 
 ******************************************
 Gaussian 09:  EM64L-G09RevA.02 11-Jun-2009
                23-Nov-2022 
 ******************************************
 %chk=/home/matheusmaximo/Gaussian/S0solvent/Water/1.chk
 ----------------------------------------------------------------------
 # opt=tight freq cam-b3lyp/gen geom=connectivity scf=qc int=ultrafine 
 scrf=(cpcm,solvent=water)
 ----------------------------------------------------------------------
 1/7=10,14=-1,18=20,19=15,26=3,38=1,57=2/1,3;
 2/9=110,12=2,17=6,18=5,40=1/2;
 3/5=7,11=2,16=1,25=1,30=1,70=2101,71=1,72=1,74=-40,75=-5/1,2,3;
 4//1;
 5/5=2,8=3,38=5,53=1/8;
 6/7=2,8=2,9=2,10=2,28=1/1;
 7//1,2,3,16;
 1/7=10,14=-1,18=20,19=15/3(2);
 2/9=110/2;
 99//99;
 2/9=110/2;
 3/5=7,6=1,11=2,16=1,25=1,30=1,70=2105,71=1,72=1,74=-40,75=-5,82=7/1,2,3;
 4/5=5,16=3/1;
 5/5=2,8=3,38=5,53=1/8;
 7//1,2,3,16;
 1/7=10,14=-1,18=20,19=15/3(-5);
 2/9=110/2;
 6/7=2,8=2,9=2,10=2,19=2,28=1/1;
 99/9=1/99;
 --------------------------------------------
 NA CAM-B3LYP def2-TZVPD - solvent CPCM water
 --------------------------------------------
 Symbolic Z-matrix:
 Charge =  0 Multiplicity = 1
 C                     0.18939   0.18182   0. 
 C                     0.18968   0.86558  -1.21174 
 C                     0.18939   0.18182  -2.42347 
 C                     0.18939  -1.19994  -2.42212 
 C                     0.19039  -1.91472  -1.21174 
 C                     0.18939  -1.19994  -0.00136 
 H                     0.18981   0.74124   0.92693 
 H                     0.18981   0.74124  -3.35041 
 H                     0.18489  -1.73987  -3.36381 
 H                     0.18489  -1.73987   0.94034 
 N                     0.19194   2.31945  -1.21174 
 O                     0.19303   2.89519  -2.29444 
 O                     0.19303   2.89519  -0.12903 
 N                    -0.27633  -3.20653  -1.16287 
 H                    -0.38663  -3.71586  -2.02486 
 H                    -0.06897  -3.76737  -0.35227 
 

 GradGradGradGradGradGradGradGradGradGradGradGradGradGradGradGradGradGrad
 Berny optimization.
 Initialization pass.
                           ----------------------------
                           !    Initial Parameters    !
                           ! (Angstroms and Degrees)  !
 --------------------------                            --------------------------
 ! Name  Definition              Value          Derivative Info.                !
 --------------------------------------------------------------------------------
 ! R1    R(1,2)                  1.3913         estimate D2E/DX2                !
 ! R2    R(1,6)                  1.3818         estimate D2E/DX2                !
 ! R3    R(1,7)                  1.0827         estimate D2E/DX2                !
 ! R4    R(2,3)                  1.3913         estimate D2E/DX2                !
 ! R5    R(2,11)                 1.4539         estimate D2E/DX2                !
 ! R6    R(3,4)                  1.3818         estimate D2E/DX2                !
 ! R7    R(3,8)                  1.0827         estimate D2E/DX2                !
 ! R8    R(4,5)                  1.4057         estimate D2E/DX2                !
 ! R9    R(4,9)                  1.0855         estimate D2E/DX2                !
 ! R10   R(5,6)                  1.4057         estimate D2E/DX2                !
 ! R11   R(5,14)                 1.3744         estimate D2E/DX2                !
 ! R12   R(6,10)                 1.0855         estimate D2E/DX2                !
 ! R13   R(11,12)                1.2263         estimate D2E/DX2                !
 ! R14   R(11,13)                1.2263         estimate D2E/DX2                !
 ! R15   R(14,15)                1.0073         estimate D2E/DX2                !
 ! R16   R(14,16)                1.0073         estimate D2E/DX2                !
 ! A1    A(2,1,6)              119.3789         estimate D2E/DX2                !
 ! A2    A(2,1,7)              119.453          estimate D2E/DX2                !
 ! A3    A(6,1,7)              121.1681         estimate D2E/DX2                !
 ! A4    A(1,2,3)              121.1297         estimate D2E/DX2                !
 ! A5    A(1,2,11)             119.4351         estimate D2E/DX2                !
 ! A6    A(3,2,11)             119.4351         estimate D2E/DX2                !
 ! A7    A(2,3,4)              119.3789         estimate D2E/DX2                !
 ! A8    A(2,3,8)              119.453          estimate D2E/DX2                !
 ! A9    A(4,3,8)              121.1681         estimate D2E/DX2                !
 ! A10   A(3,4,5)              120.6198         estimate D2E/DX2                !
 ! A11   A(3,4,9)              119.7722         estimate D2E/DX2                !
 ! A12   A(5,4,9)              119.6076         estimate D2E/DX2                !
 ! A13   A(4,5,6)              118.8727         estimate D2E/DX2                !
 ! A14   A(4,5,14)             120.5512         estimate D2E/DX2                !
 ! A15   A(6,5,14)             116.5567         estimate D2E/DX2                !
 ! A16   A(1,6,5)              120.6198         estimate D2E/DX2                !
 ! A17   A(1,6,10)             119.7722         estimate D2E/DX2                !
 ! A18   A(5,6,10)             119.6076         estimate D2E/DX2                !
 ! A19   A(2,11,12)            118.0025         estimate D2E/DX2                !
 ! A20   A(2,11,13)            118.0025         estimate D2E/DX2                !
 ! A21   A(12,11,13)           123.995          estimate D2E/DX2                !
 ! A22   A(5,14,15)            118.818          estimate D2E/DX2                !
 ! A23   A(5,14,16)            118.818          estimate D2E/DX2                !
 ! A24   A(15,14,16)           115.4465         estimate D2E/DX2                !
 ! D1    D(6,1,2,3)              0.0277         estimate D2E/DX2                !
 ! D2    D(6,1,2,11)          -179.8976         estimate D2E/DX2                !
 ! D3    D(7,1,2,3)            179.9891         estimate D2E/DX2                !
 ! D4    D(7,1,2,11)             0.0637         estimate D2E/DX2                !
 ! D5    D(2,1,6,5)              0.0337         estimate D2E/DX2                !
 ! D6    D(2,1,6,10)          -179.7399         estimate D2E/DX2                !
 ! D7    D(7,1,6,5)           -179.927          estimate D2E/DX2                !
 ! D8    D(7,1,6,10)             0.2995         estimate D2E/DX2                !
 ! D9    D(1,2,3,4)             -0.0277         estimate D2E/DX2                !
 ! D10   D(1,2,3,8)           -179.9891         estimate D2E/DX2                !
 ! D11   D(11,2,3,4)           179.8976         estimate D2E/DX2                !
 ! D12   D(11,2,3,8)            -0.0637         estimate D2E/DX2                !
 ! D13   D(1,2,11,12)          179.9532         estimate D2E/DX2                !
 ! D14   D(1,2,11,13)           -0.0265         estimate D2E/DX2                !
 ! D15   D(3,2,11,12)            0.0265         estimate D2E/DX2                !
 ! D16   D(3,2,11,13)         -179.9532         estimate D2E/DX2                !
 ! D17   D(2,3,4,5)             -0.0337         estimate D2E/DX2                !
 ! D18   D(2,3,4,9)            179.7399         estimate D2E/DX2                !
 ! D19   D(8,3,4,5)            179.927          estimate D2E/DX2                !
 ! D20   D(8,3,4,9)             -0.2995         estimate D2E/DX2                !
 ! D21   D(3,4,5,6)              0.093          estimate D2E/DX2                !
 ! D22   D(3,4,5,14)           156.7742         estimate D2E/DX2                !
 ! D23   D(9,4,5,6)           -179.6809         estimate D2E/DX2                !
 ! D24   D(9,4,5,14)           -22.9997         estimate D2E/DX2                !
 ! D25   D(4,5,6,1)             -0.093          estimate D2E/DX2                !
 ! D26   D(4,5,6,10)           179.6809         estimate D2E/DX2                !
 ! D27   D(14,5,6,1)          -157.691          estimate D2E/DX2                !
 ! D28   D(14,5,6,10)           22.0829         estimate D2E/DX2                !
 ! D29   D(4,5,14,15)           16.1258         estimate D2E/DX2                !
 ! D30   D(4,5,14,16)          165.7128         estimate D2E/DX2                !
 ! D31   D(6,5,14,15)          173.325          estimate D2E/DX2                !
 ! D32   D(6,5,14,16)          -37.088          estimate D2E/DX2                !
 --------------------------------------------------------------------------------
 Trust Radius=3.00D-01 FncErr=1.00D-07 GrdErr=1.00D-06
 Number of steps in this run=  82 maximum allowed number of steps= 100.
 GradGradGradGradGradGradGradGradGradGradGradGradGradGradGradGradGradGrad

                          Input orientation:                          
 ---------------------------------------------------------------------
 Center     Atomic      Atomic             Coordinates (Angstroms)
 Number     Number       Type             X           Y           Z
 ---------------------------------------------------------------------
      1          6           0        0.189394    0.181818    0.000000
      2          6           0        0.189682    0.865575   -1.211735
      3          6           0        0.189394    0.181818   -2.423471
      4          6           0        0.189394   -1.199937   -2.422115
      5          6           0        0.190393   -1.914717   -1.211735
      6          6           0        0.189394   -1.199937   -0.001356
      7          1           0        0.189810    0.741243    0.926934
      8          1           0        0.189810    0.741243   -3.350405
      9          1           0        0.184892   -1.739874   -3.363808
     10          1           0        0.184892   -1.739874    0.940337
     11          7           0        0.191945    2.319446   -1.211735
     12          8           0        0.193033    2.895192   -2.294443
     13          8           0        0.193033    2.895192   -0.129027
     14          7           0       -0.276330   -3.206527   -1.162873
     15          1           0       -0.386626   -3.715865   -2.024863
     16          1           0       -0.068974   -3.767365   -0.352268
 ---------------------------------------------------------------------
                    Distance matrix (angstroms):
                    1          2          3          4          5
     1  C    0.000000
     2  C    1.391340   0.000000
     3  C    2.423471   1.391340   0.000000
     4  C    2.788528   2.394026   1.381755   0.000000
     5  C    2.421520   2.780292   2.421520   1.405678   0.000000
     6  C    1.381755   2.394026   2.788528   2.420760   1.405678
     7  H    1.082665   2.142281   3.396788   3.870958   3.409990
     8  H    3.396788   2.142281   1.082665   2.151721   3.409990
     9  H    3.874032   3.379320   2.139429   1.085513   2.159170
    10  H    2.139429   3.379320   3.874032   3.405530   2.159170
    11  N    2.457186   1.453873   2.457186   3.721704   4.234163
    12  O    3.553432   2.300351   2.716442   4.097120   4.930262
    13  O    2.716442   2.300351   3.553432   4.693436   4.930262
    14  N    3.612486   4.098972   3.645119   2.414331   1.374406
    15  H    4.429876   4.688593   3.960129   2.611418   2.058704
    16  H    3.973273   4.719081   4.466843   3.307977   2.058704
                    6          7          8          9         10
     6  C    0.000000
     7  H    2.151721   0.000000
     8  H    3.870958   4.277339   0.000000
     9  H    3.405530   4.956454   2.481159   0.000000
    10  H    1.085513   2.481159   4.956454   4.304144   0.000000
    11  N    3.721704   2.657939   2.657939   4.594513   4.594513
    12  O    4.693436   3.875149   2.398867   4.756832   5.652230
    13  O    4.097120   2.398867   3.875149   5.652230   4.756832
    14  N    2.364831   4.491044   4.537342   2.684755   2.605242
    15  H    3.279676   5.376914   4.685633   2.454373   3.608820
    16  H    2.604147   4.693706   5.420641   3.639305   2.417849
                   11         12         13         14         15
    11  N    0.000000
    12  O    1.226271   0.000000
    13  O    1.226271   2.165416   0.000000
    14  N    5.545994   6.223482   6.206458   0.000000
    15  H    6.117263   6.641894   6.901904   1.007282   0.000000
    16  H    6.152726   6.944808   6.671443   1.007282   1.703271
                   16
    16  H    0.000000
 Stoichiometry    C6H6N2O2
 Framework group  C1[X(C6H6N2O2)]
 Deg. of freedom    42
 Full point group                 C1      NOp   1
 Largest Abelian subgroup         C1      NOp   1
 Largest concise Abelian subgroup C1      NOp   1
                         Standard orientation:                         
 ---------------------------------------------------------------------
 Center     Atomic      Atomic             Coordinates (Angstroms)
 Number     Number       Type             X           Y           Z
 ---------------------------------------------------------------------
      1          6           0        0.009303   -1.206537   -0.052318
      2          6           0        0.699073    0.001467   -0.024578
      3          6           0        0.022717    1.216889   -0.058010
      4          6           0       -1.357615    1.223028   -0.120398
      5          6           0       -2.078310    0.016544   -0.150828
      6          6           0       -1.371015   -1.197688   -0.114713
      7          1           0        0.563037   -2.136490   -0.025296
      8          1           0        0.586713    2.140772   -0.035342
      9          1           0       -1.891985    2.167644   -0.142492
     10          1           0       -1.915810   -2.136423   -0.132383
     11          7           0        2.151542   -0.006424    0.038809
     12          8           0        2.732734    1.073138    0.061176
     13          8           0        2.720748   -1.092238    0.066262
     14          7           0       -3.390123   -0.024099    0.257202
     15          1           0       -3.899141    0.840924    0.342363
     16          1           0       -3.945508   -0.832186    0.026638
 ---------------------------------------------------------------------
 Rotational constants (GHZ):      3.8934928      0.8338086      0.6903421
 General basis read from cards:  (5D, 7F)
 There are   430 symmetry adapted basis functions of A   symmetry.
 Integral buffers will be    131072 words long.
 Raffenetti 2 integral format.
 Two-electron integral symmetry is turned on.
   430 basis functions,   652 primitive gaussians,   490 cartesian basis functions
    36 alpha electrons       36 beta electrons
       nuclear repulsion energy       497.1257036331 Hartrees.
 NAtoms=   16 NActive=   16 NUniq=   16 SFac= 7.50D-01 NAtFMM=   80 NAOKFM=F Big=F
 ------------------------------------------------------------------------------
 Polarizable Continuum Model (PCM)
 =================================
 Model                : C-PCM.
 Atomic radii         : UFF (Universal Force Field).
 Polarization charges : Total charges.
 Charge compensation  : None.
 Solution method      : Matrix inversion.
 Cavity type          : Scaled VdW (van der Waals Surface) (Alpha=1.100).
 Cavity algorithm     : GePol (No added spheres)
                        Default sphere list used, NSphG=   16.
                        Lebedev-Laikov grids with approx.  5.0 points / Ang**2.
                        Smoothing algorithm: Karplus/York (Gamma=1.0000).
                        Polarization charges: spherical gaussians, with
                                              point-specific exponents (IZeta= 3).
                        Self-potential: point-specific (ISelfS= 7).
                        Self-field    : sphere-specific E.n sum rule (ISelfD= 2).
 1st derivatives      : Analytical E(r).r(x)/FMM algorithm (CHGder, D1EAlg=3).
                        Cavity 1st derivative terms included.
 Solvent              : Water, Eps=  78.355300 Eps(inf)=   1.777849
 ------------------------------------------------------------------------------
 Spheres list:
 ISph  on   Nord    Re0     Alpha      Xe            Ye            Ze
    1   C      1    1.926   1.100      0.009303     -1.206537     -0.052318
    2   C      2    1.926   1.100      0.699073      0.001467     -0.024578
    3   C      3    1.926   1.100      0.022717      1.216889     -0.058010
    4   C      4    1.926   1.100     -1.357615      1.223028     -0.120398
    5   C      5    1.926   1.100     -2.078310      0.016544     -0.150828
    6   C      6    1.926   1.100     -1.371015     -1.197688     -0.114713
    7   H      7    1.443   1.100      0.563037     -2.136490     -0.025296
    8   H      8    1.443   1.100      0.586713      2.140772     -0.035342
    9   H      9    1.443   1.100     -1.891985      2.167644     -0.142492
   10   H     10    1.443   1.100     -1.915810     -2.136423     -0.132383
   11   N     11    1.830   1.100      2.151542     -0.006424      0.038809
   12   O     12    1.750   1.100      2.732734      1.073138      0.061176
   13   O     13    1.750   1.100      2.720748     -1.092238      0.066262
   14   N     14    1.830   1.100     -3.390123     -0.024099      0.257202
   15   H     15    1.443   1.100     -3.899141      0.840924      0.342363
   16   H     16    1.443   1.100     -3.945508     -0.832186      0.026638
 ------------------------------------------------------------------------------
 One-electron integrals computed using PRISM.
 NBasis=   430 RedAO= T  NBF=   430
 NBsUse=   429 1.00D-06 NBFU=   429
 Harris functional with IExCor=20419 diagonalized for initial guess.
 ExpMin= 4.85D-02 ExpMax= 2.70D+04 ExpMxC= 9.22D+02 IAcc=3 IRadAn=         5 AccDes= 0.00D+00
 HarFok:  IExCor=20419 AccDes= 0.00D+00 IRadAn=         5 IDoV= 1
 ScaDFX=  1.000000  1.000000  1.000000  1.000000
 FoFCou: FMM=F IPFlag=           0 FMFlag=      100000 FMFlg1=           0
         NFxFlg=           0 DoJE=T BraDBF=F KetDBF=T FulRan=T
         Omega=  0.000000  0.000000  1.000000  0.000000  0.000000 ICntrl=     500 IOpCl=  0
         NMat0=    1 NMatS0=    1 NMatT0=    0 NMatD0=    1 NMtDS0=    0 NMtDT0=    0
         I1Cent=           4 NGrid=           0.
 Petite list used in FoFCou.
 Initial guess orbital symmetries:
       Occupied  (A) (A) (A) (A) (A) (A) (A) (A) (A) (A) (A) (A)
                 (A) (A) (A) (A) (A) (A) (A) (A) (A) (A) (A) (A)
                 (A) (A) (A) (A) (A) (A) (A) (A) (A) (A) (A) (A)
       Virtual   (A) (A) (A) (A) (A) (A) (A) (A) (A) (A) (A) (A)
                 (A) (A) (A) (A) (A) (A) (A) (A) (A) (A) (A) (A)
                 (A) (A) (A) (A) (A) (A) (A) (A) (A) (A) (A) (A)
                 (A) (A) (A) (A) (A) (A) (A) (A) (A) (A) (A) (A)
                 (A) (A) (A) (A) (A) (A) (A) (A) (A) (A) (A) (A)
                 (A) (A) (A) (A) (A) (A) (A) (A) (A) (A) (A) (A)
                 (A) (A) (A) (A) (A) (A) (A) (A) (A) (A) (A) (A)
                 (A) (A) (A) (A) (A) (A) (A) (A) (A) (A) (A) (A)
                 (A) (A) (A) (A) (A) (A) (A) (A) (A) (A) (A) (A)
                 (A) (A) (A) (A) (A) (A) (A) (A) (A) (A) (A) (A)
                 (A) (A) (A) (A) (A) (A) (A) (A) (A) (A) (A) (A)
                 (A) (A) (A) (A) (A) (A) (A) (A) (A) (A) (A) (A)
                 (A) (A) (A) (A) (A) (A) (A) (A) (A) (A) (A) (A)
                 (A) (A) (A) (A) (A) (A) (A) (A) (A) (A) (A) (A)
                 (A) (A) (A) (A) (A) (A) (A) (A) (A) (A) (A) (A)
                 (A) (A) (A) (A) (A) (A) (A) (A) (A) (A) (A) (A)
                 (A) (A) (A) (A) (A) (A) (A) (A) (A) (A) (A) (A)
                 (A) (A) (A) (A) (A) (A) (A) (A) (A) (A) (A) (A)
                 (A) (A) (A) (A) (A) (A) (A) (A) (A) (A) (A) (A)
                 (A) (A) (A) (A) (A) (A) (A) (A) (A) (A) (A) (A)
                 (A) (A) (A) (A) (A) (A) (A) (A) (A) (A) (A) (A)
                 (A) (A) (A) (A) (A) (A) (A) (A) (A) (A) (A) (A)
                 (A) (A) (A) (A) (A) (A) (A) (A) (A) (A) (A) (A)
                 (A) (A) (A) (A) (A) (A) (A) (A) (A) (A) (A) (A)
                 (A) (A) (A) (A) (A) (A) (A) (A) (A) (A) (A) (A)
                 (A) (A) (A) (A) (A) (A) (A) (A) (A) (A) (A) (A)
                 (A) (A) (A) (A) (A) (A) (A) (A) (A) (A) (A) (A)
                 (A) (A) (A) (A) (A) (A) (A) (A) (A) (A) (A) (A)
                 (A) (A) (A) (A) (A) (A) (A) (A) (A) (A) (A) (A)
                 (A) (A) (A) (A) (A) (A) (A) (A) (A) (A) (A) (A)
                 (A) (A) (A) (A) (A) (A) (A) (A) (A) (A) (A) (A)
                 (A) (A) (A) (A) (A) (A) (A) (A) (A) (A) (A) (A)
                 (A) (A) (A) (A) (A) (A) (A) (A) (A)
 The electronic state of the initial guess is 1-A.
 FoFJK:  IHMeth= 1 ICntrl=     0 DoSepK=T KAlg= 1 I1Cent= 0 FoldK=F
 Gradient too large for Newton-Raphson -- use scaled steepest descent instead.
 FoFJK:  IHMeth= 1 ICntrl=     0 DoSepK=T KAlg= 1 I1Cent= 0 FoldK=F
 FoFJK:  IHMeth= 1 ICntrl=     0 DoSepK=T KAlg= 1 I1Cent= 0 FoldK=F
 FoFJK:  IHMeth= 1 ICntrl=     0 DoSepK=T KAlg= 1 I1Cent= 0 FoldK=F
 FoFJK:  IHMeth= 1 ICntrl=     0 DoSepK=T KAlg= 1 I1Cent= 0 FoldK=F
 Gradient too large for Newton-Raphson -- use scaled steepest descent instead.
 FoFJK:  IHMeth= 1 ICntrl=     0 DoSepK=T KAlg= 1 I1Cent= 0 FoldK=F
 FoFJK:  IHMeth= 1 ICntrl=     0 DoSepK=T KAlg= 1 I1Cent= 0 FoldK=F
 FoFJK:  IHMeth= 1 ICntrl=     0 DoSepK=T KAlg= 1 I1Cent= 0 FoldK=F
 FoFJK:  IHMeth= 1 ICntrl=     0 DoSepK=T KAlg= 1 I1Cent= 0 FoldK=F
 FoFJK:  IHMeth= 1 ICntrl=     0 DoSepK=T KAlg= 1 I1Cent= 0 FoldK=F
 Gradient too large for Newton-Raphson -- use scaled steepest descent instead.
 FoFJK:  IHMeth= 1 ICntrl=     0 DoSepK=T KAlg= 1 I1Cent= 0 FoldK=F
 FoFJK:  IHMeth= 1 ICntrl=     0 DoSepK=T KAlg= 1 I1Cent= 0 FoldK=F
 FoFJK:  IHMeth= 1 ICntrl=     0 DoSepK=T KAlg= 1 I1Cent= 0 FoldK=F
 Gradient too large for Newton-Raphson -- use scaled steepest descent instead.
 FoFJK:  IHMeth= 1 ICntrl=     0 DoSepK=T KAlg= 1 I1Cent= 0 FoldK=F
 FoFJK:  IHMeth= 1 ICntrl=     0 DoSepK=T KAlg= 1 I1Cent= 0 FoldK=F
 FoFJK:  IHMeth= 1 ICntrl=     0 DoSepK=T KAlg= 1 I1Cent= 0 FoldK=F
 FoFJK:  IHMeth= 1 ICntrl=     0 DoSepK=T KAlg= 1 I1Cent= 0 FoldK=F
 FoFJK:  IHMeth= 1 ICntrl=     0 DoSepK=T KAlg= 1 I1Cent= 0 FoldK=F
 Gradient too large for Newton-Raphson -- use scaled steepest descent instead.
 FoFJK:  IHMeth= 1 ICntrl=     0 DoSepK=T KAlg= 1 I1Cent= 0 FoldK=F
 FoFJK:  IHMeth= 1 ICntrl=     0 DoSepK=T KAlg= 1 I1Cent= 0 FoldK=F
 FoFJK:  IHMeth= 1 ICntrl=     0 DoSepK=T KAlg= 1 I1Cent= 0 FoldK=F
 LinEq1:  Iter=  0 NonCon=     1 RMS=7.31D-05 Max=6.64D-03
 AX will form     1 AO Fock derivatives at one time.
 FoFJK:  IHMeth= 1 ICntrl=     0 DoSepK=T KAlg= 1 I1Cent= 0 FoldK=F
 LinEq1:  Iter=  1 NonCon=     1 RMS=5.00D-05 Max=2.78D-03
 FoFJK:  IHMeth= 1 ICntrl=     0 DoSepK=T KAlg= 1 I1Cent= 0 FoldK=F
 LinEq1:  Iter=  2 NonCon=     1 RMS=1.11D-05 Max=4.70D-04
 FoFJK:  IHMeth= 1 ICntrl=     0 DoSepK=T KAlg= 1 I1Cent= 0 FoldK=F
 LinEq1:  Iter=  3 NonCon=     1 RMS=2.12D-06 Max=1.30D-04
 FoFJK:  IHMeth= 1 ICntrl=     0 DoSepK=T KAlg= 1 I1Cent= 0 FoldK=F
 LinEq1:  Iter=  4 NonCon=     1 RMS=2.14D-06 Max=1.05D-04
 FoFJK:  IHMeth= 1 ICntrl=     0 DoSepK=T KAlg= 1 I1Cent= 0 FoldK=F
 LinEq1:  Iter=  5 NonCon=     1 RMS=9.01D-07 Max=2.66D-05
 FoFJK:  IHMeth= 1 ICntrl=     0 DoSepK=T KAlg= 1 I1Cent= 0 FoldK=F
 LinEq1:  Iter=  6 NonCon=     1 RMS=4.32D-07 Max=2.73D-05
 FoFJK:  IHMeth= 1 ICntrl=     0 DoSepK=T KAlg= 1 I1Cent= 0 FoldK=F
 LinEq1:  Iter=  7 NonCon=     1 RMS=2.22D-07 Max=6.19D-06
 FoFJK:  IHMeth= 1 ICntrl=     0 DoSepK=T KAlg= 1 I1Cent= 0 FoldK=F
 LinEq1:  Iter=  8 NonCon=     1 RMS=4.87D-08 Max=1.62D-06
 FoFJK:  IHMeth= 1 ICntrl=     0 DoSepK=T KAlg= 1 I1Cent= 0 FoldK=F
 LinEq1:  Iter=  9 NonCon=     1 RMS=1.54D-08 Max=3.37D-07
 FoFJK:  IHMeth= 1 ICntrl=     0 DoSepK=T KAlg= 1 I1Cent= 0 FoldK=F
 LinEq1:  Iter= 10 NonCon=     1 RMS=7.61D-09 Max=2.13D-07
 FoFJK:  IHMeth= 1 ICntrl=     0 DoSepK=T KAlg= 1 I1Cent= 0 FoldK=F
 LinEq1:  Iter= 11 NonCon=     0 RMS=2.02D-09 Max=1.04D-07
 Linear equations converged to 1.682D-08 1.682D-07 after    11 iterations.
 FoFJK:  IHMeth= 1 ICntrl=     0 DoSepK=T KAlg= 1 I1Cent= 0 FoldK=F
 FoFJK:  IHMeth= 1 ICntrl=     0 DoSepK=T KAlg= 1 I1Cent= 0 FoldK=F
 FoFJK:  IHMeth= 1 ICntrl=     0 DoSepK=T KAlg= 1 I1Cent= 0 FoldK=F
 LinEq1:  Iter=  0 NonCon=     1 RMS=7.29D-07 Max=3.85D-05
 FoFJK:  IHMeth= 1 ICntrl=     0 DoSepK=T KAlg= 1 I1Cent= 0 FoldK=F
 LinEq1:  Iter=  1 NonCon=     1 RMS=1.89D-07 Max=1.00D-05
 FoFJK:  IHMeth= 1 ICntrl=     0 DoSepK=T KAlg= 1 I1Cent= 0 FoldK=F
 LinEq1:  Iter=  2 NonCon=     1 RMS=1.08D-07 Max=3.67D-06
 FoFJK:  IHMeth= 1 ICntrl=     0 DoSepK=T KAlg= 1 I1Cent= 0 FoldK=F
 LinEq1:  Iter=  3 NonCon=     1 RMS=5.57D-08 Max=3.68D-06
 FoFJK:  IHMeth= 1 ICntrl=     0 DoSepK=T KAlg= 1 I1Cent= 0 FoldK=F
 LinEq1:  Iter=  4 NonCon=     1 RMS=2.47D-08 Max=1.23D-06
 FoFJK:  IHMeth= 1 ICntrl=     0 DoSepK=T KAlg= 1 I1Cent= 0 FoldK=F
 LinEq1:  Iter=  5 NonCon=     1 RMS=9.49D-09 Max=2.84D-07
 FoFJK:  IHMeth= 1 ICntrl=     0 DoSepK=T KAlg= 1 I1Cent= 0 FoldK=F
 LinEq1:  Iter=  6 NonCon=     1 RMS=4.22D-09 Max=1.36D-07
 FoFJK:  IHMeth= 1 ICntrl=     0 DoSepK=T KAlg= 1 I1Cent= 0 FoldK=F
 LinEq1:  Iter=  7 NonCon=     1 RMS=2.27D-09 Max=1.01D-07
 FoFJK:  IHMeth= 1 ICntrl=     0 DoSepK=T KAlg= 1 I1Cent= 0 FoldK=F
 LinEq1:  Iter=  8 NonCon=     1 RMS=1.54D-09 Max=8.87D-08
 FoFJK:  IHMeth= 1 ICntrl=     0 DoSepK=T KAlg= 1 I1Cent= 0 FoldK=F
 LinEq1:  Iter=  9 NonCon=     1 RMS=1.04D-09 Max=3.72D-08
 FoFJK:  IHMeth= 1 ICntrl=     0 DoSepK=T KAlg= 1 I1Cent= 0 FoldK=F
 LinEq1:  Iter= 10 NonCon=     1 RMS=4.85D-10 Max=2.05D-08
 FoFJK:  IHMeth= 1 ICntrl=     0 DoSepK=T KAlg= 1 I1Cent= 0 FoldK=F
 LinEq1:  Iter= 11 NonCon=     0 RMS=1.94D-10 Max=4.71D-09
 Linear equations converged to 1.071D-09 1.071D-08 after    11 iterations.
 FoFJK:  IHMeth= 1 ICntrl=     0 DoSepK=T KAlg= 1 I1Cent= 0 FoldK=F
 Error on total polarization charges =  0.01415
 SCF Done:  E(RCAM-B3LYP) =  -492.091814873     a.u. after    8 cycles
            Convg  =    0.3332D-08                    47 Fock formations.
              S**2 =  0.0000                  -V/T =  2.0043

 **********************************************************************

            Population analysis using the SCF density.

 **********************************************************************

 Orbital symmetries:
       Occupied  (A) (A) (A) (A) (A) (A) (A) (A) (A) (A) (A) (A)
                 (A) (A) (A) (A) (A) (A) (A) (A) (A) (A) (A) (A)
                 (A) (A) (A) (A) (A) (A) (A) (A) (A) (A) (A) (A)
       Virtual   (A) (A) (A) (A) (A) (A) (A) (A) (A) (A) (A) (A)
                 (A) (A) (A) (A) (A) (A) (A) (A) (A) (A) (A) (A)
                 (A) (A) (A) (A) (A) (A) (A) (A) (A) (A) (A) (A)
                 (A) (A) (A) (A) (A) (A) (A) (A) (A) (A) (A) (A)
                 (A) (A) (A) (A) (A) (A) (A) (A) (A) (A) (A) (A)
                 (A) (A) (A) (A) (A) (A) (A) (A) (A) (A) (A) (A)
                 (A) (A) (A) (A) (A) (A) (A) (A) (A) (A) (A) (A)
                 (A) (A) (A) (A) (A) (A) (A) (A) (A) (A) (A) (A)
                 (A) (A) (A) (A) (A) (A) (A) (A) (A) (A) (A) (A)
                 (A) (A) (A) (A) (A) (A) (A) (A) (A) (A) (A) (A)
                 (A) (A) (A) (A) (A) (A) (A) (A) (A) (A) (A) (A)
                 (A) (A) (A) (A) (A) (A) (A) (A) (A) (A) (A) (A)
                 (A) (A) (A) (A) (A) (A) (A) (A) (A) (A) (A) (A)
                 (A) (A) (A) (A) (A) (A) (A) (A) (A) (A) (A) (A)
                 (A) (A) (A) (A) (A) (A) (A) (A) (A) (A) (A) (A)
                 (A) (A) (A) (A) (A) (A) (A) (A) (A) (A) (A) (A)
                 (A) (A) (A) (A) (A) (A) (A) (A) (A) (A) (A) (A)
                 (A) (A) (A) (A) (A) (A) (A) (A) (A) (A) (A) (A)
                 (A) (A) (A) (A) (A) (A) (A) (A) (A) (A) (A) (A)
                 (A) (A) (A) (A) (A) (A) (A) (A) (A) (A) (A) (A)
                 (A) (A) (A) (A) (A) (A) (A) (A) (A) (A) (A) (A)
                 (A) (A) (A) (A) (A) (A) (A) (A) (A) (A) (A) (A)
                 (A) (A) (A) (A) (A) (A) (A) (A) (A) (A) (A) (A)
                 (A) (A) (A) (A) (A) (A) (A) (A) (A) (A) (A) (A)
                 (A) (A) (A) (A) (A) (A) (A) (A) (A) (A) (A) (A)
                 (A) (A) (A) (A) (A) (A) (A) (A) (A) (A) (A) (A)
                 (A) (A) (A) (A) (A) (A) (A) (A) (A) (A) (A) (A)
                 (A) (A) (A) (A) (A) (A) (A) (A) (A) (A) (A) (A)
                 (A) (A) (A) (A) (A) (A) (A) (A) (A) (A) (A) (A)
                 (A) (A) (A) (A) (A) (A) (A) (A) (A) (A) (A) (A)
                 (A) (A) (A) (A) (A) (A) (A) (A) (A) (A) (A) (A)
                 (A) (A) (A) (A) (A) (A) (A) (A) (A) (A) (A) (A)
                 (A) (A) (A) (A) (A) (A) (A) (A) (A)
 The electronic state is 1-A.
 Alpha  occ. eigenvalues --  -19.23976 -19.23964 -14.63967 -14.41004 -10.31827
 Alpha  occ. eigenvalues --  -10.30140 -10.27671 -10.27546 -10.26202 -10.26129
 Alpha  occ. eigenvalues --   -1.32270  -1.14480  -1.02569  -0.96316  -0.87600
 Alpha  occ. eigenvalues --   -0.85333  -0.77086  -0.71713  -0.67586  -0.64422
 Alpha  occ. eigenvalues --   -0.62177  -0.61244  -0.60378  -0.58963  -0.52963
 Alpha  occ. eigenvalues --   -0.52377  -0.51067  -0.49446  -0.46999  -0.42917
 Alpha  occ. eigenvalues --   -0.40439  -0.39381  -0.39147  -0.37611  -0.33525
 Alpha  occ. eigenvalues --   -0.28241
 Alpha virt. eigenvalues --   -0.05365   0.01432   0.03115   0.04067   0.04878
 Alpha virt. eigenvalues --    0.05211   0.06760   0.07206   0.07418   0.08900
 Alpha virt. eigenvalues --    0.10411   0.10552   0.10844   0.12439   0.13292
 Alpha virt. eigenvalues --    0.14621   0.14899   0.16082   0.16608   0.16835
 Alpha virt. eigenvalues --    0.18192   0.19181   0.19786   0.20473   0.21190
 Alpha virt. eigenvalues --    0.21501   0.22308   0.22402   0.23137   0.23220
 Alpha virt. eigenvalues --    0.23895   0.24676   0.24965   0.25627   0.26701
 Alpha virt. eigenvalues --    0.27817   0.28311   0.28561   0.29307   0.29512
 Alpha virt. eigenvalues --    0.29947   0.30947   0.30985   0.31239   0.31846
 Alpha virt. eigenvalues --    0.32335   0.33844   0.34230   0.34410   0.35016
 Alpha virt. eigenvalues --    0.35885   0.36340   0.37140   0.37730   0.38390
 Alpha virt. eigenvalues --    0.38886   0.39117   0.39599   0.39937   0.41135
 Alpha virt. eigenvalues --    0.41491   0.42481   0.43029   0.43283   0.43723
 Alpha virt. eigenvalues --    0.44260   0.44901   0.45907   0.46541   0.47059
 Alpha virt. eigenvalues --    0.47252   0.47817   0.48006   0.48646   0.49445
 Alpha virt. eigenvalues --    0.49931   0.50470   0.50923   0.52679   0.53210
 Alpha virt. eigenvalues --    0.53635   0.53900   0.55381   0.55607   0.57201
 Alpha virt. eigenvalues --    0.58057   0.59053   0.59267   0.60405   0.60726
 Alpha virt. eigenvalues --    0.60935   0.61583   0.61959   0.62808   0.63651
 Alpha virt. eigenvalues --    0.64383   0.64929   0.65959   0.66779   0.67960
 Alpha virt. eigenvalues --    0.68173   0.68743   0.69046   0.69768   0.70392
 Alpha virt. eigenvalues --    0.71014   0.71817   0.72473   0.72998   0.73342
 Alpha virt. eigenvalues --    0.73730   0.74047   0.74424   0.75394   0.76855
 Alpha virt. eigenvalues --    0.77314   0.78482   0.78530   0.79797   0.80111
 Alpha virt. eigenvalues --    0.80353   0.80619   0.82386   0.82456   0.83420
 Alpha virt. eigenvalues --    0.84310   0.85080   0.85399   0.87059   0.87656
 Alpha virt. eigenvalues --    0.89434   0.91791   0.93655   0.95562   0.96088
 Alpha virt. eigenvalues --    0.97065   0.97600   0.98307   0.99425   0.99935
 Alpha virt. eigenvalues --    1.00532   1.01960   1.02677   1.03770   1.05142
 Alpha virt. eigenvalues --    1.05882   1.07824   1.09380   1.10295   1.10504
 Alpha virt. eigenvalues --    1.11163   1.14376   1.17167   1.19442   1.19956
 Alpha virt. eigenvalues --    1.23897   1.25127   1.27095   1.31320   1.31616
 Alpha virt. eigenvalues --    1.33837   1.34535   1.36164   1.36786   1.38471
 Alpha virt. eigenvalues --    1.40640   1.41760   1.43302   1.44217   1.47461
 Alpha virt. eigenvalues --    1.48878   1.49326   1.52123   1.53120   1.55164
 Alpha virt. eigenvalues --    1.57395   1.59455   1.60774   1.61575   1.62751
 Alpha virt. eigenvalues --    1.68409   1.70745   1.72448   1.74114   1.75984
 Alpha virt. eigenvalues --    1.77630   1.78157   1.79054   1.79500   1.82917
 Alpha virt. eigenvalues --    1.83598   1.84615   1.88193   1.89114   1.90588
 Alpha virt. eigenvalues --    1.91045   1.92815   1.94083   1.94340   1.96325
 Alpha virt. eigenvalues --    1.98412   1.99692   2.00883   2.02032   2.03528
 Alpha virt. eigenvalues --    2.05940   2.07570   2.08859   2.09158   2.14950
 Alpha virt. eigenvalues --    2.18773   2.19534   2.23686   2.25979   2.27590
 Alpha virt. eigenvalues --    2.28153   2.30381   2.32100   2.33593   2.34652
 Alpha virt. eigenvalues --    2.36394   2.39694   2.41105   2.41316   2.44303
 Alpha virt. eigenvalues --    2.46824   2.50779   2.53668   2.54235   2.56131
 Alpha virt. eigenvalues --    2.57321   2.63527   2.64157   2.67251   2.68805
 Alpha virt. eigenvalues --    2.71129   2.72243   2.73746   2.75429   2.79643
 Alpha virt. eigenvalues --    2.80877   2.82676   2.85261   2.86492   2.86838
 Alpha virt. eigenvalues --    2.87802   2.88244   2.91051   2.93090   2.93912
 Alpha virt. eigenvalues --    2.94608   2.97906   3.00079   3.00837   3.01942
 Alpha virt. eigenvalues --    3.03209   3.09351   3.09855   3.11011   3.11405
 Alpha virt. eigenvalues --    3.13554   3.14715   3.16094   3.20350   3.21572
 Alpha virt. eigenvalues --    3.23846   3.25638   3.26487   3.28159   3.30185
 Alpha virt. eigenvalues --    3.31493   3.33017   3.35161   3.36120   3.37814
 Alpha virt. eigenvalues --    3.40195   3.41143   3.42824   3.43865   3.45243
 Alpha virt. eigenvalues --    3.45872   3.47275   3.48851   3.49731   3.50473
 Alpha virt. eigenvalues --    3.52120   3.54824   3.54977   3.56891   3.59282
 Alpha virt. eigenvalues --    3.61735   3.62878   3.63291   3.67411   3.68957
 Alpha virt. eigenvalues --    3.69890   3.72143   3.73577   3.79136   3.85020
 Alpha virt. eigenvalues --    3.89420   3.90123   3.95644   3.97723   4.01054
 Alpha virt. eigenvalues --    4.04245   4.06044   4.13143   4.16228   4.18408
 Alpha virt. eigenvalues --    4.18902   4.19458   4.25513   4.26224   4.27286
 Alpha virt. eigenvalues --    4.29117   4.30589   4.30640   4.32474   4.33813
 Alpha virt. eigenvalues --    4.35724   4.41402   4.46887   4.52024   4.57461
 Alpha virt. eigenvalues --    4.62667   4.66812   4.68572   4.75203   4.76736
 Alpha virt. eigenvalues --    4.78267   4.81126   4.81989   4.83914   4.87887
 Alpha virt. eigenvalues --    4.89540   4.93888   4.98180   5.00279   5.02171
 Alpha virt. eigenvalues --    5.04533   5.06523   5.07297   5.14670   5.19824
 Alpha virt. eigenvalues --    5.20114   5.22874   5.25494   5.27853   5.29604
 Alpha virt. eigenvalues --    5.30704   5.39071   5.40520   5.43602   5.44463
 Alpha virt. eigenvalues --    5.48769   5.52552   5.56678   5.58427   5.66468
 Alpha virt. eigenvalues --    5.68214   5.69321   5.71725   5.77947   5.96022
 Alpha virt. eigenvalues --    5.98876   6.07261   6.11520   6.41712   6.42973
 Alpha virt. eigenvalues --    6.51171   6.57406   6.59378   6.61839   6.92634
 Alpha virt. eigenvalues --    6.93828   6.96802   7.10012   7.28859   7.43381
 Alpha virt. eigenvalues --    7.51883   7.79980   7.82382  22.66033  22.84587
 Alpha virt. eigenvalues --   22.94559  22.99039  23.12674  23.43417  32.43199
 Alpha virt. eigenvalues --   32.80415  44.45296  44.61748
          Condensed to atoms (all electrons):
              1          2          3          4          5          6
     1  C    6.550593   0.226058  -0.441315  -0.028493  -0.381750   0.353333
     2  C    0.226058   6.356838   0.600625  -0.334024  -0.678775  -0.240165
     3  C   -0.441315   0.600625   6.836574   0.097408  -0.758171  -0.034258
     4  C   -0.028493  -0.334024   0.097408   6.855853   0.084494  -0.444818
     5  C   -0.381750  -0.678775  -0.758171   0.084494   7.758228  -0.168633
     6  C    0.353333  -0.240165  -0.034258  -0.444818  -0.168633   6.746993
     7  H    0.248909  -0.278466  -0.006687   0.007879   0.108984  -0.013133
     8  H    0.035696  -0.172388   0.188042   0.009479   0.059383  -0.005226
     9  H    0.008171   0.048524   0.043053   0.317930  -0.289597   0.042618
    10  H    0.027984   0.095943   0.037010   0.025135  -0.453854   0.360474
    11  N   -0.163645   0.396011  -0.194592   0.009889   0.045154  -0.007556
    12  O    0.025305  -0.041112  -0.028232   0.007248  -0.009853  -0.002098
    13  O   -0.034944  -0.025167   0.027936  -0.004316  -0.011942   0.010711
    14  N    0.022977   0.044086   0.044714  -0.005568  -0.104611   0.014720
    15  H   -0.005265  -0.001713   0.000780   0.043308  -0.017645  -0.052765
    16  H    0.002059  -0.003017  -0.006429  -0.025623   0.023252   0.016307
              7          8          9         10         11         12
     1  C    0.248909   0.035696   0.008171   0.027984  -0.163645   0.025305
     2  C   -0.278466  -0.172388   0.048524   0.095943   0.396011  -0.041112
     3  C   -0.006687   0.188042   0.043053   0.037010  -0.194592  -0.028232
     4  C    0.007879   0.009479   0.317930   0.025135   0.009889   0.007248
     5  C    0.108984   0.059383  -0.289597  -0.453854   0.045154  -0.009853
     6  C   -0.013133  -0.005226   0.042618   0.360474  -0.007556  -0.002098
     7  H    0.515505   0.008900  -0.002263  -0.042022   0.042528  -0.004349
     8  H    0.008900   0.440544  -0.011367  -0.002590   0.025815  -0.007204
     9  H   -0.002263  -0.011367   0.456343   0.009152  -0.001896   0.000511
    10  H   -0.042022  -0.002590   0.009152   0.550869  -0.004864   0.000279
    11  N    0.042528   0.025815  -0.001896  -0.004864   5.741001   0.101383
    12  O   -0.004349  -0.007204   0.000511   0.000279   0.101383   8.687514
    13  O   -0.014270  -0.004382   0.000232   0.001372   0.095187  -0.105589
    14  N   -0.005774  -0.002225   0.035191   0.083284  -0.001563   0.000144
    15  H    0.000088   0.000261  -0.001282  -0.009648   0.000059   0.000012
    16  H    0.000241   0.000066  -0.007716  -0.005503   0.000044   0.000000
             13         14         15         16
     1  C   -0.034944   0.022977  -0.005265   0.002059
     2  C   -0.025167   0.044086  -0.001713  -0.003017
     3  C    0.027936   0.044714   0.000780  -0.006429
     4  C   -0.004316  -0.005568   0.043308  -0.025623
     5  C   -0.011942  -0.104611  -0.017645   0.023252
     6  C    0.010711   0.014720  -0.052765   0.016307
     7  H   -0.014270  -0.005774   0.000088   0.000241
     8  H   -0.004382  -0.002225   0.000261   0.000066
     9  H    0.000232   0.035191  -0.001282  -0.007716
    10  H    0.001372   0.083284  -0.009648  -0.005503
    11  N    0.095187  -0.001563   0.000059   0.000044
    12  O   -0.105589   0.000144   0.000012   0.000000
    13  O    8.687516   0.000247  -0.000011   0.000008
    14  N    0.000247   6.576260   0.381950   0.364164
    15  H   -0.000011   0.381950   0.464807  -0.025855
    16  H    0.000008   0.364164  -0.025855   0.421585
 Mulliken atomic charges:
              1
     1  C   -0.445674
     2  C    0.006743
     3  C   -0.406460
     4  C   -0.615780
     5  C    0.795336
     6  C   -0.576503
     7  H    0.433930
     8  H    0.437196
     9  H    0.352395
    10  H    0.326979
    11  N    0.917045
    12  O   -0.623957
    13  O   -0.622588
    14  N   -0.447997
    15  H    0.222918
    16  H    0.246417
 Sum of Mulliken atomic charges =   0.00000
 Mulliken charges with hydrogens summed into heavy atoms:
              1
     1  C   -0.011743
     2  C    0.006743
     3  C    0.030736
     4  C   -0.263385
     5  C    0.795336
     6  C   -0.249524
    11  N    0.917045
    12  O   -0.623957
    13  O   -0.622588
    14  N    0.021338
 Sum of Mulliken charges with hydrogens summed into heavy atoms =   0.00000
 Electronic spatial extent (au):  <R**2>=           1542.3925
 Charge=              0.0000 electrons
 Dipole moment (field-independent basis, Debye):
    X=             -9.6153    Y=              0.1247    Z=             -0.4437  Tot=              9.6263
 Quadrupole moment (field-independent basis, Debye-Ang):
   XX=            -56.8087   YY=            -52.7330   ZZ=            -60.5577
   XY=             -0.1215   XZ=              0.3604   YZ=              0.6345
 Traceless Quadrupole moment (field-independent basis, Debye-Ang):
   XX=             -0.1089   YY=              3.9668   ZZ=             -3.8579
   XY=             -0.1215   XZ=              0.3604   YZ=              0.6345
 Octapole moment (field-independent basis, Debye-Ang**2):
  XXX=           -129.1673  YYY=              0.3124  ZZZ=              1.3777  XYY=            -19.8775
  XXY=              0.4129  XXZ=             -3.1177  XZZ=             11.5815  YZZ=              0.2458
  YYZ=              0.0473  XYZ=             -2.4451
 Hexadecapole moment (field-independent basis, Debye-Ang**3):
 XXXX=          -1352.7586 YYYY=           -360.9279 ZZZZ=            -70.5124 XXXY=              0.5684
 XXXZ=             -6.5285 YYYX=              0.2422 YYYZ=              0.6728 ZZZX=              1.6288
 ZZZY=              0.5883 XXYY=           -298.5740 XXZZ=           -273.7257 YYZZ=            -84.4847
 XXYZ=              9.8242 YYXZ=             -1.3665 ZZXY=             -1.1227
 N-N= 4.971257036331D+02 E-N=-2.144155379982D+03  KE= 4.899868526816D+02
 D1PCM: C-PCM CHGder 1st derivatives, ID1Alg=3 FixD1E=F DoIter=F DoCFld=F I1PDM=0.
 Calling FoFJK, ICntrl=      2127 FMM=F ISym2X=0 I1Cent= 0 IOpClX= 0 NMat=1 NMatS=1 NMatT=0.
 FoFJK:  IHMeth= 1 ICntrl=  2127 DoSepK=T KAlg= 1 I1Cent= 0 FoldK=F
 ***** Axes restored to original set *****
 -------------------------------------------------------------------
 Center     Atomic                   Forces (Hartrees/Bohr)
 Number     Number              X              Y              Z
 -------------------------------------------------------------------
      1        6           0.005676442   -0.007190334    0.000467795
      2        6          -0.000204256    0.003447614   -0.001796568
      3        6           0.004237317   -0.003830952    0.002216684
      4        6           0.008276441    0.003555605   -0.001841822
      5        6          -0.044739603    0.002078027    0.004888799
      6        6           0.013254565    0.013588755    0.002871648
      7        1          -0.000766436   -0.002163954   -0.001628242
      8        1          -0.000376652   -0.002267864    0.001630782
      9        1          -0.002171645    0.001102991    0.002341049
     10        1          -0.002635711    0.001177759   -0.002420484
     11        7          -0.000669224   -0.006690351   -0.000145795
     12        8           0.000004555   -0.000063528    0.010482901
     13        8           0.000009241   -0.000214423   -0.010511187
     14        7           0.016841691   -0.001950329   -0.006702168
     15        1           0.003942592   -0.000734919    0.000480805
     16        1          -0.000679317    0.000155903   -0.000334196
 -------------------------------------------------------------------
 Cartesian Forces:  Max     0.044739603 RMS     0.008261629

 GradGradGradGradGradGradGradGradGradGradGradGradGradGradGradGradGradGrad
 Berny optimization.
 Internal  Forces:  Max     0.012038578 RMS     0.004258354
 Search for a local minimum.
 Step number   1 out of a maximum of   82
 All quantities printed in internal units (Hartrees-Bohrs-Radians)
 Mixed Optimization -- RFO/linear search
 Second derivative matrix not updated -- first step.
     Eigenvalues ---    0.00979   0.00979   0.01836   0.02030   0.02053
     Eigenvalues ---    0.02151   0.02179   0.02227   0.02234   0.02273
     Eigenvalues ---    0.02277   0.02404   0.02988   0.16000   0.16000
     Eigenvalues ---    0.16000   0.16000   0.16000   0.16000   0.22000
     Eigenvalues ---    0.22701   0.23152   0.23696   0.25000   0.25000
     Eigenvalues ---    0.25000   0.35336   0.35336   0.35674   0.35674
     Eigenvalues ---    0.37742   0.41592   0.42599   0.45808   0.46149
     Eigenvalues ---    0.46431   0.46431   0.47592   0.48783   0.50139
     Eigenvalues ---    0.92658   0.926581000.000001000.000001000.00000
     Eigenvalues --- 1000.000001000.000001000.000001000.000001000.00000
     Eigenvalues --- 1000.000001000.000001000.000001000.000001000.00000
     Eigenvalues --- 1000.000001000.000001000.000001000.000001000.00000
     Eigenvalues --- 1000.000001000.000001000.000001000.000001000.00000
     Eigenvalues --- 1000.000001000.000001000.000001000.000001000.00000
     Eigenvalues --- 1000.000001000.00000
 RFO step:  Lambda=-1.57053584D-02 EMin= 9.79144978D-03
 Linear search not attempted -- first point.
 Maximum step size (   0.300) exceeded in Quadratic search.
    -- Step size scaled by   0.501
 Iteration  1 RMS(Cart)=  0.04406823 RMS(Int)=  0.00179316
 Iteration  2 RMS(Cart)=  0.00262023 RMS(Int)=  0.00083706
 Iteration  3 RMS(Cart)=  0.00000401 RMS(Int)=  0.00083705
 Iteration  4 RMS(Cart)=  0.00000000 RMS(Int)=  0.00083705
 Variable       Old X    -DE/DX   Delta X   Delta X   Delta X     New X
                                 (Linear)    (Quad)   (Total)
    R1        2.62925  -0.00212   0.00000  -0.00114  -0.00162   2.62763
    R2        2.61114  -0.01075   0.00000  -0.01067  -0.01067   2.60047
    R3        2.04594  -0.00251   0.00000  -0.00338  -0.00338   2.04256
    R4        2.62925  -0.00420   0.00000  -0.00332  -0.00379   2.62546
    R5        2.74742  -0.00697   0.00000  -0.00888  -0.00888   2.73854
    R6        2.61114  -0.00822   0.00000  -0.00822  -0.00821   2.60292
    R7        2.04594  -0.00257   0.00000  -0.00346  -0.00346   2.04248
    R8        2.65635  -0.00244   0.00000  -0.00373  -0.00326   2.65309
    R9        2.05132  -0.00257   0.00000  -0.00349  -0.00349   2.04783
   R10        2.65635   0.00284   0.00000   0.00203   0.00250   2.65885
   R11        2.59725  -0.00469   0.00000  -0.00454  -0.00454   2.59271
   R12        2.05132  -0.00267   0.00000  -0.00363  -0.00363   2.04769
   R13        2.31732  -0.00928   0.00000  -0.00494  -0.00494   2.31238
   R14        2.31732  -0.00938   0.00000  -0.00499  -0.00499   2.31233
   R15        1.90349  -0.00047   0.00000  -0.00049  -0.00049   1.90299
   R16        1.90349  -0.00049   0.00000  -0.00051  -0.00051   1.90297
    A1        2.08356  -0.00013   0.00000  -0.00072  -0.00067   2.08289
    A2        2.08485   0.00110   0.00000   0.00331   0.00327   2.08812
    A3        2.11478  -0.00096   0.00000  -0.00258  -0.00262   2.11216
    A4        2.11411  -0.00002   0.00000   0.00133   0.00092   2.11503
    A5        2.08454   0.00013   0.00000  -0.00045  -0.00024   2.08429
    A6        2.08454  -0.00011   0.00000  -0.00089  -0.00069   2.08385
    A7        2.08356   0.00070   0.00000   0.00083   0.00089   2.08445
    A8        2.08485   0.00078   0.00000   0.00280   0.00277   2.08761
    A9        2.11478  -0.00147   0.00000  -0.00363  -0.00366   2.11113
   A10        2.10521   0.00122   0.00000  -0.00228  -0.00129   2.10393
   A11        2.09042  -0.00038   0.00000   0.00179   0.00129   2.09170
   A12        2.08755  -0.00083   0.00000   0.00051   0.00001   2.08755
   A13        2.07472  -0.00329   0.00000   0.00228   0.00019   2.07491
   A14        2.10401  -0.00463   0.00000   0.00834   0.00400   2.10801
   A15        2.03430   0.01204   0.00000   0.04215   0.03843   2.07273
   A16        2.10521   0.00154   0.00000  -0.00140  -0.00038   2.10483
   A17        2.09042  -0.00058   0.00000   0.00125   0.00074   2.09116
   A18        2.08755  -0.00096   0.00000   0.00016  -0.00035   2.08719
   A19        2.05953   0.00385   0.00000   0.00725   0.00725   2.06679
   A20        2.05953   0.00358   0.00000   0.00675   0.00675   2.06628
   A21        2.16412  -0.00742   0.00000  -0.01400  -0.01400   2.15012
   A22        2.07376  -0.00122   0.00000  -0.00684  -0.00698   2.06679
   A23        2.07376   0.00032   0.00000  -0.00243  -0.00257   2.07120
   A24        2.01492  -0.00040   0.00000  -0.00499  -0.00514   2.00978
    D1        0.00048  -0.00125   0.00000  -0.01379  -0.01365  -0.01317
    D2       -3.13981  -0.00084   0.00000  -0.00923  -0.00913   3.13425
    D3        3.14140  -0.00050   0.00000  -0.00654  -0.00658   3.13482
    D4        0.00111  -0.00009   0.00000  -0.00198  -0.00206  -0.00095
    D5        0.00059  -0.00029   0.00000  -0.00430  -0.00445  -0.00387
    D6       -3.13705  -0.00011   0.00000  -0.00637  -0.00675   3.13938
    D7       -3.14032  -0.00105   0.00000  -0.01168  -0.01162   3.13124
    D8        0.00523  -0.00087   0.00000  -0.01375  -0.01392  -0.00870
    D9       -0.00048   0.00071   0.00000   0.01046   0.01055   0.01007
   D10       -3.14140   0.00112   0.00000   0.01125   0.01110  -3.13031
   D11        3.13981   0.00031   0.00000   0.00590   0.00603  -3.13735
   D12       -0.00111   0.00072   0.00000   0.00669   0.00657   0.00546
   D13        3.14078  -0.00020   0.00000  -0.00228  -0.00227   3.13851
   D14       -0.00046  -0.00019   0.00000  -0.00216  -0.00214  -0.00261
   D15        0.00046   0.00020   0.00000   0.00219   0.00218   0.00264
   D16       -3.14078   0.00020   0.00000   0.00232   0.00230  -3.13848
   D17       -0.00059   0.00136   0.00000   0.01097   0.01068   0.01009
   D18        3.13705   0.00193   0.00000   0.01610   0.01562  -3.13051
   D19        3.14032   0.00094   0.00000   0.01017   0.01013  -3.13274
   D20       -0.00523   0.00152   0.00000   0.01530   0.01507   0.00984
   D21        0.00162  -0.00284   0.00000  -0.02842  -0.02814  -0.02652
   D22        2.73623   0.01133   0.00000   0.12723   0.12584   2.86207
   D23       -3.13602  -0.00342   0.00000  -0.03355  -0.03307   3.11409
   D24       -0.40142   0.01075   0.00000   0.12210   0.12091  -0.28051
   D25       -0.00162   0.00230   0.00000   0.02504   0.02500   0.02338
   D26        3.13602   0.00212   0.00000   0.02711   0.02730  -3.11986
   D27       -2.75223  -0.00765   0.00000  -0.11715  -0.11814  -2.87037
   D28        0.38542  -0.00782   0.00000  -0.11509  -0.11585   0.26957
   D29        0.28145  -0.00202   0.00000  -0.03065  -0.03158   0.24987
   D30        2.89223  -0.00478   0.00000  -0.06100  -0.06186   2.83038
   D31        3.02509   0.00851   0.00000   0.11282   0.11368   3.13877
   D32       -0.64731   0.00575   0.00000   0.08247   0.08339  -0.56391
         Item               Value     Threshold  Converged?
 Maximum Force            0.012039     0.000015     NO 
 RMS     Force            0.004258     0.000010     NO 
 Maximum Displacement     0.203310     0.000060     NO 
 RMS     Displacement     0.043893     0.000040     NO 
 Predicted change in Energy=-6.637036D-03
 GradGradGradGradGradGradGradGradGradGradGradGradGradGradGradGradGradGrad

                          Input orientation:                          
 ---------------------------------------------------------------------
 Center     Atomic      Atomic             Coordinates (Angstroms)
 Number     Number       Type             X           Y           Z
 ---------------------------------------------------------------------
      1          6           0        0.181193    0.188026    0.003500
      2          6           0        0.187834    0.867317   -1.209741
      3          6           0        0.172430    0.181800   -2.418077
      4          6           0        0.138104   -1.195177   -2.414628
      5          6           0        0.106519   -1.905116   -1.203813
      6          6           0        0.143166   -1.187557    0.005907
      7          1           0        0.199894    0.746327    0.928834
      8          1           0        0.188664    0.735247   -3.346322
      9          1           0        0.136325   -1.736958   -3.353138
     10          1           0        0.139810   -1.724780    0.946943
     11          7           0        0.218598    2.316155   -1.214237
     12          8           0        0.227297    2.895101   -2.292238
     13          8           0        0.235127    2.901059   -0.139581
     14          7           0       -0.252109   -3.229113   -1.175354
     15          1           0       -0.279039   -3.737122   -2.044430
     16          1           0       -0.010678   -3.777775   -0.366188
 ---------------------------------------------------------------------
                    Distance matrix (angstroms):
                    1          2          3          4          5
     1  C    0.000000
     2  C    1.390480   0.000000
     3  C    2.421600   1.389333   0.000000
     4  C    2.786117   2.389164   1.377408   0.000000
     5  C    2.417524   2.773631   2.415367   1.403953   0.000000
     6  C    1.376110   2.387949   2.784186   2.420553   1.407003
     7  H    1.080876   2.142029   3.394298   3.866781   3.403976
     8  H    3.394233   2.140659   1.080836   2.144095   3.401266
     9  H    3.869702   3.373284   2.134777   1.083665   2.156099
    10  H    2.133219   3.372323   3.867747   3.403035   2.158560
    11  N    2.452186   1.449172   2.450884   3.711720   4.222771
    12  O    3.549760   2.298970   2.716772   4.093080   4.923549
    13  O    2.717339   2.298605   3.548217   4.686619   4.924271
    14  N    3.640643   4.120130   3.654985   2.413496   1.372003
    15  H    4.451136   4.702715   3.962497   2.602410   2.052203
    16  H    3.987613   4.725237   4.463408   3.299706   2.054800
                    6          7          8          9         10
     6  C    0.000000
     7  H    2.143576   0.000000
     8  H    3.864801   4.275186   0.000000
     9  H    3.403686   4.950357   2.472768   0.000000
    10  H    1.083591   2.471904   4.948358   4.300100   0.000000
    11  N    3.710854   2.656589   2.654422   4.583600   4.583237
    12  O    4.685791   3.872116   2.403654   4.752867   5.642982
    13  O    4.092236   2.405332   3.869895   5.643395   4.752684
    14  N    2.391563   4.520624   4.541314   2.668361   2.630735
    15  H    3.298851   5.401017   4.681426   2.426088   3.629499
    16  H    2.621327   4.710512   5.411867   3.620555   2.441669
                   11         12         13         14         15
    11  N    0.000000
    12  O    1.223658   0.000000
    13  O    1.223630   2.152679   0.000000
    14  N    5.565346   6.243657   6.236123   0.000000
    15  H    6.130173   6.656137   6.925190   1.007020   0.000000
    16  H    6.156926   6.949358   6.687196   1.007010   1.700048
                   16
    16  H    0.000000
 Stoichiometry    C6H6N2O2
 Framework group  C1[X(C6H6N2O2)]
 Deg. of freedom    42
 Full point group                 C1      NOp   1
 Largest Abelian subgroup         C1      NOp   1
 Largest concise Abelian subgroup C1      NOp   1
                         Standard orientation:                         
 ---------------------------------------------------------------------
 Center     Atomic      Atomic             Coordinates (Angstroms)
 Number     Number       Type             X           Y           Z
 ---------------------------------------------------------------------
      1          6           0        0.015804   -1.209902   -0.042973
      2          6           0        0.700234    0.000232   -0.019230
      3          6           0        0.020653    1.211689   -0.047286
      4          6           0       -1.356165    1.214591   -0.087489
      5          6           0       -2.072536    0.007156   -0.087996
      6          6           0       -1.359818   -1.205946   -0.079410
      7          1           0        0.569884   -2.137814   -0.026579
      8          1           0        0.578586    2.137346   -0.038433
      9          1           0       -1.892771    2.155511   -0.119956
     10          1           0       -1.900915   -2.144536   -0.100178
     11          7           0        2.148621   -0.001924    0.028412
     12          8           0        2.732321    1.073412    0.045382
     13          8           0        2.728435   -1.079260    0.049199
     14          7           0       -3.414109   -0.013404    0.198621
     15          1           0       -3.918684    0.858071    0.193461
     16          1           0       -3.952763   -0.821423   -0.067883
 ---------------------------------------------------------------------
 Rotational constants (GHZ):      3.9368738      0.8320070      0.6887561
 Basis read from rwf:  (5D, 7F)
 There are   430 symmetry adapted basis functions of A   symmetry.
 Integral buffers will be    131072 words long.
 Raffenetti 2 integral format.
 Two-electron integral symmetry is turned on.
   430 basis functions,   652 primitive gaussians,   490 cartesian basis functions
    36 alpha electrons       36 beta electrons
       nuclear repulsion energy       497.5937197080 Hartrees.
 NAtoms=   16 NActive=   16 NUniq=   16 SFac= 7.50D-01 NAtFMM=   80 NAOKFM=F Big=F
 ------------------------------------------------------------------------------
 Polarizable Continuum Model (PCM)
 =================================
 Model                : C-PCM.
 Atomic radii         : UFF (Universal Force Field).
 Polarization charges : Total charges.
 Charge compensation  : None.
 Solution method      : Matrix inversion.
 Cavity type          : Scaled VdW (van der Waals Surface) (Alpha=1.100).
 Cavity algorithm     : GePol (No added spheres)
                        Default sphere list used, NSphG=   16.
                        Lebedev-Laikov grids with approx.  5.0 points / Ang**2.
                        Smoothing algorithm: Karplus/York (Gamma=1.0000).
                        Polarization charges: spherical gaussians, with
                                              point-specific exponents (IZeta= 3).
                        Self-potential: point-specific (ISelfS= 7).
                        Self-field    : sphere-specific E.n sum rule (ISelfD= 2).
 1st derivatives      : Analytical E(r).r(x)/FMM algorithm (CHGder, D1EAlg=3).
                        Cavity 1st derivative terms included.
 Solvent              : Water, Eps=  78.355300 Eps(inf)=   1.777849
 ------------------------------------------------------------------------------
 Spheres list:
 ISph  on   Nord    Re0     Alpha      Xe            Ye            Ze
    1   C      1    1.926   1.100      0.015804     -1.209902     -0.042973
    2   C      2    1.926   1.100      0.700234      0.000232     -0.019230
    3   C      3    1.926   1.100      0.020653      1.211689     -0.047286
    4   C      4    1.926   1.100     -1.356165      1.214591     -0.087489
    5   C      5    1.926   1.100     -2.072536      0.007156     -0.087996
    6   C      6    1.926   1.100     -1.359818     -1.205946     -0.079410
    7   H      7    1.443   1.100      0.569884     -2.137814     -0.026579
    8   H      8    1.443   1.100      0.578586      2.137346     -0.038433
    9   H      9    1.443   1.100     -1.892771      2.155511     -0.119956
   10   H     10    1.443   1.100     -1.900915     -2.144536     -0.100178
   11   N     11    1.830   1.100      2.148621     -0.001924      0.028412
   12   O     12    1.750   1.100      2.732321      1.073412      0.045382
   13   O     13    1.750   1.100      2.728435     -1.079260      0.049199
   14   N     14    1.830   1.100     -3.414109     -0.013404      0.198621
   15   H     15    1.443   1.100     -3.918684      0.858071      0.193461
   16   H     16    1.443   1.100     -3.952763     -0.821423     -0.067883
 ------------------------------------------------------------------------------
 One-electron integrals computed using PRISM.
 NBasis=   430 RedAO= T  NBF=   430
 NBsUse=   429 1.00D-06 NBFU=   429
 Initial guess read from the read-write file.
 B after Tr=     0.000000    0.000000    0.000000
         Rot=    1.000000    0.000000    0.000000    0.000000 Ang=   0.00 deg.
 Initial guess orbital symmetries:
       Occupied  (A) (A) (A) (A) (A) (A) (A) (A) (A) (A) (A) (A)
                 (A) (A) (A) (A) (A) (A) (A) (A) (A) (A) (A) (A)
                 (A) (A) (A) (A) (A) (A) (A) (A) (A) (A) (A) (A)
       Virtual   (A) (A) (A) (A) (A) (A) (A) (A) (A) (A) (A) (A)
                 (A) (A) (A) (A) (A) (A) (A) (A) (A) (A) (A) (A)
                 (A) (A) (A) (A) (A) (A) (A) (A) (A) (A) (A) (A)
                 (A) (A) (A) (A) (A) (A) (A) (A) (A) (A) (A) (A)
                 (A) (A) (A) (A) (A) (A) (A) (A) (A) (A) (A) (A)
                 (A) (A) (A) (A) (A) (A) (A) (A) (A) (A) (A) (A)
                 (A) (A) (A) (A) (A) (A) (A) (A) (A) (A) (A) (A)
                 (A) (A) (A) (A) (A) (A) (A) (A) (A) (A) (A) (A)
                 (A) (A) (A) (A) (A) (A) (A) (A) (A) (A) (A) (A)
                 (A) (A) (A) (A) (A) (A) (A) (A) (A) (A) (A) (A)
                 (A) (A) (A) (A) (A) (A) (A) (A) (A) (A) (A) (A)
                 (A) (A) (A) (A) (A) (A) (A) (A) (A) (A) (A) (A)
                 (A) (A) (A) (A) (A) (A) (A) (A) (A) (A) (A) (A)
                 (A) (A) (A) (A) (A) (A) (A) (A) (A) (A) (A) (A)
                 (A) (A) (A) (A) (A) (A) (A) (A) (A) (A) (A) (A)
                 (A) (A) (A) (A) (A) (A) (A) (A) (A) (A) (A) (A)
                 (A) (A) (A) (A) (A) (A) (A) (A) (A) (A) (A) (A)
                 (A) (A) (A) (A) (A) (A) (A) (A) (A) (A) (A) (A)
                 (A) (A) (A) (A) (A) (A) (A) (A) (A) (A) (A) (A)
                 (A) (A) (A) (A) (A) (A) (A) (A) (A) (A) (A) (A)
                 (A) (A) (A) (A) (A) (A) (A) (A) (A) (A) (A) (A)
                 (A) (A) (A) (A) (A) (A) (A) (A) (A) (A) (A) (A)
                 (A) (A) (A) (A) (A) (A) (A) (A) (A) (A) (A) (A)
                 (A) (A) (A) (A) (A) (A) (A) (A) (A) (A) (A) (A)
                 (A) (A) (A) (A) (A) (A) (A) (A) (A) (A) (A) (A)
                 (A) (A) (A) (A) (A) (A) (A) (A) (A) (A) (A) (A)
                 (A) (A) (A) (A) (A) (A) (A) (A) (A) (A) (A) (A)
                 (A) (A) (A) (A) (A) (A) (A) (A) (A) (A) (A) (A)
                 (A) (A) (A) (A) (A) (A) (A) (A) (A) (A) (A) (A)
                 (A) (A) (A) (A) (A) (A) (A) (A) (A) (A) (A) (A)
                 (A) (A) (A) (A) (A) (A) (A) (A) (A) (A) (A) (A)
                 (A) (A) (A) (A) (A) (A) (A) (A) (A) (A) (A) (A)
                 (A) (A) (A) (A) (A) (A) (A) (A) (A)
 Harris functional with IExCor=20419 diagonalized for initial guess.
 ExpMin= 4.85D-02 ExpMax= 2.70D+04 ExpMxC= 9.22D+02 IAcc=3 IRadAn=         5 AccDes= 0.00D+00
 HarFok:  IExCor=20419 AccDes= 0.00D+00 IRadAn=         5 IDoV= 1
 ScaDFX=  1.000000  1.000000  1.000000  1.000000
 FoFCou: FMM=F IPFlag=           0 FMFlag=      100000 FMFlg1=           0
         NFxFlg=           0 DoJE=T BraDBF=F KetDBF=T FulRan=T
         Omega=  0.000000  0.000000  1.000000  0.000000  0.000000 ICntrl=     500 IOpCl=  0
         NMat0=    1 NMatS0=    1 NMatT0=    0 NMatD0=    1 NMtDS0=    0 NMtDT0=    0
         I1Cent=           4 NGrid=           0.
 Petite list used in FoFCou.
 FoFJK:  IHMeth= 1 ICntrl=     0 DoSepK=T KAlg= 1 I1Cent= 0 FoldK=F
 Gradient too large for Newton-Raphson -- use scaled steepest descent instead.
 FoFJK:  IHMeth= 1 ICntrl=     0 DoSepK=T KAlg= 1 I1Cent= 0 FoldK=F
 FoFJK:  IHMeth= 1 ICntrl=     0 DoSepK=T KAlg= 1 I1Cent= 0 FoldK=F
 FoFJK:  IHMeth= 1 ICntrl=     0 DoSepK=T KAlg= 1 I1Cent= 0 FoldK=F
 FoFJK:  IHMeth= 1 ICntrl=     0 DoSepK=T KAlg= 1 I1Cent= 0 FoldK=F
 FoFJK:  IHMeth= 1 ICntrl=     0 DoSepK=T KAlg= 1 I1Cent= 0 FoldK=F
 FoFJK:  IHMeth= 1 ICntrl=     0 DoSepK=T KAlg= 1 I1Cent= 0 FoldK=F
 FoFJK:  IHMeth= 1 ICntrl=     0 DoSepK=T KAlg= 1 I1Cent= 0 FoldK=F
 Gradient too large for Newton-Raphson -- use scaled steepest descent instead.
 FoFJK:  IHMeth= 1 ICntrl=     0 DoSepK=T KAlg= 1 I1Cent= 0 FoldK=F
 FoFJK:  IHMeth= 1 ICntrl=     0 DoSepK=T KAlg= 1 I1Cent= 0 FoldK=F
 FoFJK:  IHMeth= 1 ICntrl=     0 DoSepK=T KAlg= 1 I1Cent= 0 FoldK=F
 LinEq1:  Iter=  0 NonCon=     1 RMS=3.74D-05 Max=1.37D-03
 AX will form     1 AO Fock derivatives at one time.
 FoFJK:  IHMeth= 1 ICntrl=     0 DoSepK=T KAlg= 1 I1Cent= 0 FoldK=F
 LinEq1:  Iter=  1 NonCon=     1 RMS=2.99D-05 Max=1.09D-03
 FoFJK:  IHMeth= 1 ICntrl=     0 DoSepK=T KAlg= 1 I1Cent= 0 FoldK=F
 LinEq1:  Iter=  2 NonCon=     1 RMS=1.20D-05 Max=5.16D-04
 FoFJK:  IHMeth= 1 ICntrl=     0 DoSepK=T KAlg= 1 I1Cent= 0 FoldK=F
 LinEq1:  Iter=  3 NonCon=     1 RMS=6.93D-06 Max=4.14D-04
 FoFJK:  IHMeth= 1 ICntrl=     0 DoSepK=T KAlg= 1 I1Cent= 0 FoldK=F
 LinEq1:  Iter=  4 NonCon=     1 RMS=5.78D-06 Max=2.63D-04
 FoFJK:  IHMeth= 1 ICntrl=     0 DoSepK=T KAlg= 1 I1Cent= 0 FoldK=F
 LinEq1:  Iter=  5 NonCon=     1 RMS=2.81D-06 Max=1.05D-04
 FoFJK:  IHMeth= 1 ICntrl=     0 DoSepK=T KAlg= 1 I1Cent= 0 FoldK=F
 LinEq1:  Iter=  6 NonCon=     1 RMS=1.75D-06 Max=7.21D-05
 FoFJK:  IHMeth= 1 ICntrl=     0 DoSepK=T KAlg= 1 I1Cent= 0 FoldK=F
 LinEq1:  Iter=  7 NonCon=     1 RMS=7.12D-07 Max=2.01D-05
 FoFJK:  IHMeth= 1 ICntrl=     0 DoSepK=T KAlg= 1 I1Cent= 0 FoldK=F
 LinEq1:  Iter=  8 NonCon=     1 RMS=3.22D-07 Max=6.69D-06
 FoFJK:  IHMeth= 1 ICntrl=     0 DoSepK=T KAlg= 1 I1Cent= 0 FoldK=F
 LinEq1:  Iter=  9 NonCon=     1 RMS=1.05D-07 Max=5.38D-06
 FoFJK:  IHMeth= 1 ICntrl=     0 DoSepK=T KAlg= 1 I1Cent= 0 FoldK=F
 LinEq1:  Iter= 10 NonCon=     1 RMS=5.33D-08 Max=2.18D-06
 FoFJK:  IHMeth= 1 ICntrl=     0 DoSepK=T KAlg= 1 I1Cent= 0 FoldK=F
 LinEq1:  Iter= 11 NonCon=     1 RMS=2.03D-08 Max=4.77D-07
 FoFJK:  IHMeth= 1 ICntrl=     0 DoSepK=T KAlg= 1 I1Cent= 0 FoldK=F
 LinEq1:  Iter= 12 NonCon=     1 RMS=7.69D-09 Max=2.78D-07
 FoFJK:  IHMeth= 1 ICntrl=     0 DoSepK=T KAlg= 1 I1Cent= 0 FoldK=F
 LinEq1:  Iter= 13 NonCon=     0 RMS=3.45D-09 Max=1.49D-07
 Linear equations converged to 1.682D-08 1.682D-07 after    13 iterations.
 FoFJK:  IHMeth= 1 ICntrl=     0 DoSepK=T KAlg= 1 I1Cent= 0 FoldK=F
 FoFJK:  IHMeth= 1 ICntrl=     0 DoSepK=T KAlg= 1 I1Cent= 0 FoldK=F
 FoFJK:  IHMeth= 1 ICntrl=     0 DoSepK=T KAlg= 1 I1Cent= 0 FoldK=F
 LinEq1:  Iter=  0 NonCon=     1 RMS=4.76D-08 Max=1.88D-06
 FoFJK:  IHMeth= 1 ICntrl=     0 DoSepK=T KAlg= 1 I1Cent= 0 FoldK=F
 LinEq1:  Iter=  1 NonCon=     1 RMS=3.74D-08 Max=1.87D-06
 FoFJK:  IHMeth= 1 ICntrl=     0 DoSepK=T KAlg= 1 I1Cent= 0 FoldK=F
 LinEq1:  Iter=  2 NonCon=     1 RMS=1.25D-08 Max=6.02D-07
 FoFJK:  IHMeth= 1 ICntrl=     0 DoSepK=T KAlg= 1 I1Cent= 0 FoldK=F
 LinEq1:  Iter=  3 NonCon=     1 RMS=1.06D-08 Max=4.64D-07
 FoFJK:  IHMeth= 1 ICntrl=     0 DoSepK=T KAlg= 1 I1Cent= 0 FoldK=F
 LinEq1:  Iter=  4 NonCon=     1 RMS=5.05D-09 Max=2.83D-07
 FoFJK:  IHMeth= 1 ICntrl=     0 DoSepK=T KAlg= 1 I1Cent= 0 FoldK=F
 LinEq1:  Iter=  5 NonCon=     1 RMS=3.60D-09 Max=1.15D-07
 FoFJK:  IHMeth= 1 ICntrl=     0 DoSepK=T KAlg= 1 I1Cent= 0 FoldK=F
 LinEq1:  Iter=  6 NonCon=     1 RMS=1.53D-09 Max=3.72D-08
 FoFJK:  IHMeth= 1 ICntrl=     0 DoSepK=T KAlg= 1 I1Cent= 0 FoldK=F
 LinEq1:  Iter=  7 NonCon=     1 RMS=8.44D-10 Max=2.64D-08
 FoFJK:  IHMeth= 1 ICntrl=     0 DoSepK=T KAlg= 1 I1Cent= 0 FoldK=F
 LinEq1:  Iter=  8 NonCon=     1 RMS=3.27D-10 Max=1.63D-08
 FoFJK:  IHMeth= 1 ICntrl=     0 DoSepK=T KAlg= 1 I1Cent= 0 FoldK=F
 LinEq1:  Iter=  9 NonCon=     1 RMS=1.48D-10 Max=7.84D-09
 FoFJK:  IHMeth= 1 ICntrl=     0 DoSepK=T KAlg= 1 I1Cent= 0 FoldK=F
 LinEq1:  Iter= 10 NonCon=     1 RMS=8.59D-11 Max=4.09D-09
 FoFJK:  IHMeth= 1 ICntrl=     0 DoSepK=T KAlg= 1 I1Cent= 0 FoldK=F
 LinEq1:  Iter= 11 NonCon=     1 RMS=2.98D-11 Max=9.91D-10
 FoFJK:  IHMeth= 1 ICntrl=     0 DoSepK=T KAlg= 1 I1Cent= 0 FoldK=F
 LinEq1:  Iter= 12 NonCon=     0 RMS=1.51D-11 Max=3.73D-10
 Linear equations converged to 6.497D-11 6.497D-10 after    12 iterations.
 FoFJK:  IHMeth= 1 ICntrl=     0 DoSepK=T KAlg= 1 I1Cent= 0 FoldK=F
 Error on total polarization charges =  0.01405
 SCF Done:  E(RCAM-B3LYP) =  -492.097979418     a.u. after    5 cycles
            Convg  =    0.1544D-08                    40 Fock formations.
              S**2 =  0.0000                  -V/T =  2.0042
 D1PCM: C-PCM CHGder 1st derivatives, ID1Alg=3 FixD1E=F DoIter=F DoCFld=F I1PDM=0.
 Calling FoFJK, ICntrl=      2127 FMM=F ISym2X=0 I1Cent= 0 IOpClX= 0 NMat=1 NMatS=1 NMatT=0.
 FoFJK:  IHMeth= 1 ICntrl=  2127 DoSepK=T KAlg= 1 I1Cent= 0 FoldK=F
 ***** Axes restored to original set *****
 -------------------------------------------------------------------
 Center     Atomic                   Forces (Hartrees/Bohr)
 Number     Number              X              Y              Z
 -------------------------------------------------------------------
      1        6           0.002916030   -0.003460426   -0.000516981
      2        6           0.000029956    0.003786164   -0.000710307
      3        6           0.002469392   -0.002260829    0.001186443
      4        6           0.004556765    0.001695479   -0.000699229
      5        6          -0.026595480   -0.001356635    0.003864992
      6        6           0.007773514    0.004735950    0.000067661
      7        1          -0.000195976   -0.001156214   -0.000787335
      8        1          -0.000071753   -0.001158192    0.000762914
      9        1          -0.001956011    0.000554116    0.001200136
     10        1          -0.002126015    0.000490392   -0.001218596
     11        7          -0.000217454   -0.003368156   -0.000051321
     12        8          -0.000060533   -0.000680394    0.004574753
     13        8          -0.000071706   -0.000737535   -0.004534786
     14        7           0.011961362    0.002949058   -0.003663842
     15        1           0.002634723   -0.000274835    0.000445621
     16        1          -0.001046813    0.000242056    0.000079877
 -------------------------------------------------------------------
 Cartesian Forces:  Max     0.026595480 RMS     0.004835861

 GradGradGradGradGradGradGradGradGradGradGradGradGradGradGradGradGradGrad
 Berny optimization.
 Using GEDIIS/GDIIS optimizer.
 Internal  Forces:  Max     0.006421950 RMS     0.002340963
 Search for a local minimum.
 Step number   2 out of a maximum of   82
 All quantities printed in internal units (Hartrees-Bohrs-Radians)
 Mixed Optimization -- RFO/linear search
 Update second derivatives using D2CorX and points    1    2
 DE= -6.16D-03 DEPred=-6.64D-03 R= 9.29D-01
 SS=  1.41D+00  RLast= 3.00D-01 DXNew= 5.0454D-01 8.9925D-01
 Trust test= 9.29D-01 RLast= 3.00D-01 DXMaxT set to 5.05D-01
 Use linear search instead of GDIIS.
     Eigenvalues ---    0.00979   0.00979   0.01829   0.01933   0.02043
     Eigenvalues ---    0.02151   0.02179   0.02230   0.02233   0.02270
     Eigenvalues ---    0.02273   0.03011   0.03378   0.15974   0.16000
     Eigenvalues ---    0.16000   0.16000   0.16000   0.16003   0.22008
     Eigenvalues ---    0.22947   0.23736   0.23996   0.25000   0.25000
     Eigenvalues ---    0.25402   0.35293   0.35337   0.35641   0.35674
     Eigenvalues ---    0.37423   0.41819   0.42685   0.45893   0.46000
     Eigenvalues ---    0.46428   0.46431   0.47612   0.48177   0.50649
     Eigenvalues ---    0.92453   0.926581000.000001000.000001000.00000
     Eigenvalues --- 1000.000001000.000001000.000001000.000001000.00000
     Eigenvalues --- 1000.000001000.000001000.000001000.000001000.00000
     Eigenvalues --- 1000.000001000.000001000.000001000.000001000.00000
     Eigenvalues --- 1000.000001000.000001000.000001000.000001000.00000
     Eigenvalues --- 1000.000001000.000001000.000001000.000001000.00000
     Eigenvalues --- 1000.000001000.00000
 RFO step:  Lambda=-1.50104715D-03 EMin= 9.78994243D-03
 Quartic linear search produced a step of  1.52634.
 Iteration  1 RMS(Cart)=  0.08150874 RMS(Int)=  0.01123145
 Iteration  2 RMS(Cart)=  0.01756958 RMS(Int)=  0.00313510
 Iteration  3 RMS(Cart)=  0.00030083 RMS(Int)=  0.00312847
 Iteration  4 RMS(Cart)=  0.00000088 RMS(Int)=  0.00312847
 Variable       Old X    -DE/DX   Delta X   Delta X   Delta X     New X
                                 (Linear)    (Quad)   (Total)
    R1        2.62763  -0.00108  -0.00248   0.00130  -0.00297   2.62466
    R2        2.60047  -0.00480  -0.01628   0.00741  -0.00888   2.59159
    R3        2.04256  -0.00127  -0.00516   0.00130  -0.00386   2.03870
    R4        2.62546  -0.00196  -0.00579   0.00314  -0.00442   2.62103
    R5        2.73854  -0.00479  -0.01356  -0.00493  -0.01849   2.72004
    R6        2.60292  -0.00411  -0.01254   0.00356  -0.00897   2.59396
    R7        2.04248  -0.00125  -0.00527   0.00171  -0.00357   2.03892
    R8        2.65309  -0.00139  -0.00498  -0.00034  -0.00356   2.64953
    R9        2.04783  -0.00131  -0.00533   0.00128  -0.00405   2.04378
   R10        2.65885  -0.00077   0.00382  -0.01424  -0.00865   2.65020
   R11        2.59271  -0.00642  -0.00693  -0.01852  -0.02545   2.56726
   R12        2.04769  -0.00129  -0.00554   0.00184  -0.00370   2.04399
   R13        2.31238  -0.00435  -0.00754   0.00288  -0.00466   2.30772
   R14        2.31233  -0.00434  -0.00762   0.00306  -0.00455   2.30777
   R15        1.90299  -0.00032  -0.00075  -0.00024  -0.00099   1.90200
   R16        1.90297  -0.00032  -0.00079  -0.00016  -0.00094   1.90203
    A1        2.08289   0.00033  -0.00102   0.00511   0.00439   2.08727
    A2        2.08812   0.00043   0.00499  -0.00250   0.00233   2.09044
    A3        2.11216  -0.00076  -0.00400  -0.00253  -0.00670   2.10547
    A4        2.11503  -0.00062   0.00140  -0.00424  -0.00431   2.11072
    A5        2.08429   0.00031  -0.00037   0.00152   0.00188   2.08617
    A6        2.08385   0.00030  -0.00105   0.00277   0.00244   2.08629
    A7        2.08445   0.00026   0.00136  -0.00051   0.00116   2.08560
    A8        2.08761   0.00049   0.00422  -0.00023   0.00384   2.09145
    A9        2.11113  -0.00075  -0.00558   0.00073  -0.00501   2.10612
   A10        2.10393   0.00066  -0.00196  -0.00174   0.00010   2.10403
   A11        2.09170  -0.00015   0.00196   0.00161   0.00165   2.09336
   A12        2.08755  -0.00051   0.00001   0.00013  -0.00182   2.08574
   A13        2.07491  -0.00123   0.00029   0.00841   0.00127   2.07618
   A14        2.10801  -0.00270   0.00610   0.00577  -0.00409   2.10392
   A15        2.07273   0.00538   0.05866  -0.01266   0.03020   2.10293
   A16        2.10483   0.00057  -0.00058  -0.00562  -0.00237   2.10246
   A17        2.09116  -0.00004   0.00113   0.00498   0.00415   2.09531
   A18        2.08719  -0.00054  -0.00054   0.00065  -0.00183   2.08536
   A19        2.06679   0.00123   0.01107  -0.00999   0.00099   2.06778
   A20        2.06628   0.00114   0.01030  -0.00934   0.00087   2.06715
   A21        2.15012  -0.00238  -0.02137   0.01934  -0.00213   2.14799
   A22        2.06679  -0.00073  -0.01065   0.00224  -0.00872   2.05807
   A23        2.07120   0.00026  -0.00392   0.00361  -0.00062   2.07058
   A24        2.00978  -0.00019  -0.00785   0.00365  -0.00457   2.00521
    D1       -0.01317  -0.00046  -0.02084   0.02088   0.00051  -0.01265
    D2        3.13425  -0.00031  -0.01393   0.01148  -0.00207   3.13218
    D3        3.13482  -0.00026  -0.01005   0.00696  -0.00327   3.13155
    D4       -0.00095  -0.00011  -0.00314  -0.00243  -0.00586  -0.00680
    D5       -0.00387  -0.00010  -0.00680   0.01571   0.00841   0.00455
    D6        3.13938  -0.00015  -0.01031   0.00801  -0.00361   3.13577
    D7        3.13124  -0.00030  -0.01774   0.02983   0.01226  -3.13968
    D8       -0.00870  -0.00035  -0.02125   0.02213   0.00024  -0.00846
    D9        0.01007   0.00028   0.01610  -0.01813  -0.00173   0.00834
   D10       -3.13031   0.00046   0.01694  -0.01412   0.00230  -3.12800
   D11       -3.13735   0.00013   0.00920  -0.00874   0.00086  -3.13649
   D12        0.00546   0.00031   0.01003  -0.00473   0.00489   0.01035
   D13        3.13851  -0.00001  -0.00346   0.01967   0.01626  -3.12842
   D14       -0.00261  -0.00012  -0.00327  -0.00515  -0.00837  -0.01098
   D15        0.00264   0.00014   0.00332   0.01046   0.01373   0.01637
   D16       -3.13848   0.00004   0.00351  -0.01435  -0.01090   3.13381
   D17        0.01009   0.00047   0.01630  -0.02136  -0.00605   0.00404
   D18       -3.13051   0.00074   0.02384  -0.01737   0.00484  -3.12567
   D19       -3.13274   0.00028   0.01546  -0.02543  -0.01011   3.14034
   D20        0.00984   0.00056   0.02300  -0.02144   0.00078   0.01063
   D21       -0.02652  -0.00100  -0.04295   0.05647   0.01465  -0.01187
   D22        2.86207   0.00632   0.19208   0.06152   0.24871   3.11078
   D23        3.11409  -0.00127  -0.05048   0.05249   0.00381   3.11790
   D24       -0.28051   0.00605   0.18455   0.05754   0.23787  -0.04264
   D25        0.02338   0.00081   0.03816  -0.05370  -0.01587   0.00751
[...]
 ! D5    D(2,1,6,5)              0.033          -DE/DX =    0.0                 !
 ! D6    D(2,1,6,10)          -179.9611         -DE/DX =    0.0                 !
 ! D7    D(7,1,6,5)           -179.9037         -DE/DX =    0.0                 !
 ! D8    D(7,1,6,10)             0.1022         -DE/DX =    0.0                 !
 ! D9    D(1,2,3,4)             -0.0147         -DE/DX =    0.0                 !
 ! D10   D(1,2,3,8)           -179.952          -DE/DX =    0.0                 !
 ! D11   D(11,2,3,4)           179.9127         -DE/DX =    0.0                 !
 ! D12   D(11,2,3,8)            -0.0246         -DE/DX =    0.0                 !
 ! D13   D(1,2,11,12)          179.9609         -DE/DX =    0.0                 !
 ! D14   D(1,2,11,13)           -0.0335         -DE/DX =    0.0                 !
 ! D15   D(3,2,11,12)            0.0327         -DE/DX =    0.0                 !
 ! D16   D(3,2,11,13)         -179.9617         -DE/DX =    0.0                 !
 ! D17   D(2,3,4,5)             -0.0331         -DE/DX =    0.0                 !
 ! D18   D(2,3,4,9)            179.961          -DE/DX =    0.0                 !
 ! D19   D(8,3,4,5)            179.9037         -DE/DX =    0.0                 !
 ! D20   D(8,3,4,9)             -0.1022         -DE/DX =    0.0                 !
 ! D21   D(3,4,5,6)              0.0791         -DE/DX =    0.0                 !
 ! D22   D(3,4,5,14)           178.9552         -DE/DX =    0.0                 !
 ! D23   D(9,4,5,6)           -179.915          -DE/DX =    0.0                 !
 ! D24   D(9,4,5,14)            -1.0389         -DE/DX =    0.0                 !
 ! D25   D(4,5,6,1)             -0.0791         -DE/DX =    0.0                 !
 ! D26   D(4,5,6,10)           179.915          -DE/DX =    0.0                 !
 ! D27   D(14,5,6,1)          -178.9551         -DE/DX =    0.0                 !
 ! D28   D(14,5,6,10)            1.039          -DE/DX =    0.0                 !
 ! D29   D(4,5,14,15)            9.8519         -DE/DX =    0.0                 !
 ! D30   D(4,5,14,16)          171.2949         -DE/DX =    0.0                 !
 ! D31   D(6,5,14,15)         -171.2945         -DE/DX =    0.0                 !
 ! D32   D(6,5,14,16)           -9.8516         -DE/DX =    0.0                 !
 --------------------------------------------------------------------------------
 GradGradGradGradGradGradGradGradGradGradGradGradGradGradGradGradGradGrad

 1\1\GINC-DLT20\Freq\RCAM-B3LYP\Gen\C6H6N2O2\MATHEUSMAXIMO\24-Nov-2022\
 0\\#N Geom=AllCheck Guess=TCheck SCRF=Check GenChk RCAM-B3LYP/ChkBas F
 req\\NA CAM-B3LYP def2-TZVPD - solvent CPCM water\\0,1\C,0.152063497,0
 .1890860346,0.0008571497\C,0.18476769,0.8725506127,-1.2093222307\C,0.1
 262576105,0.1842214537,-2.4157658735\C,0.0355970362,-1.1837053342,-2.4
 129934181\C,0.0019462647,-1.8968162045,-1.2017953948\C,0.0614240709,-1
 .1788366199,0.0055277088\H,0.1992274572,0.7392934286,0.9280519482\H,0.
 1535868537,0.7306896124,-3.3459638941\H,-0.0108346642,-1.7236892858,-3
 .3492343621\H,0.035020866,-1.7150458115,0.9447125826\N,0.2816568742,2.
 3058647472,-1.2132415015\O,0.3098351472,2.8890940871,-2.2873828498\O,0
 .3327260952,2.893411513,-0.1423022817\N,-0.1086711249,-3.2451458581,-1
 .1978999456\H,-0.0198731418,-3.7634929838,-2.0539321119\H,-0.001595771
 9,-3.7600461016,-0.3418786455\\Version=EM64L-G09RevA.02\State=1-A\HF=-
 492.1022124\RMSD=0.000e+00\RMSF=2.417e-06\ZeroPoint=0.1203891\Thermal=
 0.1287807\Dipole=-0.0798134,-4.0078789,0.0089196\DipoleDeriv=-0.039922
 8,0.0717202,-0.0092532,0.0805238,1.1005887,-0.1684168,-0.0402898,-0.61
 55278,0.1241909,-0.0575149,-0.1469703,-0.0020318,-0.1579666,-2.2517866
 ,0.005664,-0.0020097,0.0055451,-0.2755281,-0.0387978,0.0848445,0.01238
 54,0.0842288,1.1037254,0.1627122,0.0434062,0.6099117,0.1199328,-0.2638
 897,-0.0372805,0.0058801,-0.0686554,-1.1739422,0.0350904,0.0781979,0.9
 716071,-0.0450569,0.2322238,0.291255,-0.0002757,0.2561,3.338121,-0.008
 9288,-0.0002053,-0.0093058,0.2612831,-0.265579,-0.0579826,-0.0009345,-
 0.0696453,-1.1779693,-0.0290491,-0.0731654,-0.9660233,-0.0393372,0.170
 0368,-0.0034646,-0.0043194,-0.001906,0.1443307,-0.0480112,-0.0039533,-
 0.0391858,0.0613456,0.1701642,-0.002616,0.0020033,-0.0008722,0.1446802
 ,0.0477051,0.0016304,0.0389151,0.0608684,0.1829698,-0.0102315,-0.00553
 5,-0.0117137,0.0088805,-0.082372,-0.0073004,-0.0858529,-0.0138754,0.18
 31548,-0.0083833,0.0013561,-0.0099319,0.0095581,0.0825085,0.0031281,0.
 0859571,-0.0147384,0.3505592,0.2646156,0.0216519,0.2756215,4.2757028,-
 0.0066587,0.0216289,-0.0065405,2.4292837,-0.3462148,-0.0727677,0.03022
 52,-0.0790009,-1.5730456,0.6149376,0.0572722,0.9786843,-1.4277406,-0.3
 485661,-0.093799,-0.0528562,-0.0923753,-1.579451,-0.6124929,-0.0798935
 ,-0.9762916,-1.4189832,-0.6989712,-0.5462908,0.006096,-0.2194027,-2.91
 03105,0.0077365,0.0054379,0.0112258,-0.2310578,0.3857528,0.1355056,0.0
 259234,0.008197,0.2709151,0.0603511,0.0241472,0.1644231,0.2036718,0.38
 45948,0.1318453,-0.0303156,0.0067989,0.2700027,-0.060776,-0.0280313,-0
 .1675417,0.2057415\Polar=74.7924745,11.5834543,235.978804,0.6731643,-0
 .3168138,140.0212368\PG=C01 [X(C6H6N2O2)]\NImag=0\\0.15177808,0.039491
 44,0.73249099,0.00932593,0.04487484,0.73268223,-0.06544907,-0.00436065
 ,0.00418127,0.13710737,-0.00371986,-0.13694146,0.09822590,0.02934524,0
 .57325083,0.00070761,0.04594379,-0.28985268,0.00657772,0.00006020,0.75
 858317,0.00910068,0.00301394,-0.00205942,-0.06565526,-0.00583582,-0.00
 547095,0.15164151,0.00258402,0.05135803,-0.02062915,-0.00537382,-0.137
 52405,-0.04645306,0.03851146,0.73212529,0.00059565,0.02012544,-0.05889
 979,-0.00894415,-0.09873706,-0.28906446,0.00293190,-0.04570475,0.73318
 421,-0.00298617,-0.00215123,0.00181333,0.00860824,-0.00379699,-0.00431
 956,-0.06325255,-0.02206853,0.00130253,0.13198645,-0.00216372,-0.04022
 955,0.03059386,-0.00459074,-0.04918197,-0.07292020,-0.02103428,-0.3812
 8461,0.03364196,0.04216936,0.74700682,0.00094637,0.01600596,-0.0143839
 5,-0.00072727,-0.01383678,0.03065441,-0.00311855,-0.03723551,-0.135665
 36,0.00929211,0.04958075,0.69912118,0.00115277,-0.00463276,-0.00140715
 ,-0.00739095,0.00428541,-0.00070915,0.00130088,-0.00294746,0.00233257,
 -0.07370336,-0.00372978,0.00183717,0.17958534,-0.00290929,-0.04393011,
 -0.02761793,0.00280296,0.03533251,-0.00024795,-0.00229464,-0.04350192,
 0.02802597,-0.00351229,-0.14645942,0.08135089,0.03105855,0.72859081,-0
 .00460149,-0.07833862,0.04412309,-0.00070610,-0.00026384,-0.07298106,0
 .00552205,0.07877209,0.04354672,-0.00024658,0.02786771,-0.26884081,0.0
 0536832,-0.00041344,0.68810946,-0.06324487,-0.02126585,-0.00276243,0.0
 0872633,-0.00347880,0.00479888,-0.00305006,-0.00249921,-0.00204405,0.0
 0758329,0.00319764,-0.00122398,-0.07382596,-0.00526144,-0.00389657,0.1
 3184475,-0.02172757,-0.38126534,-0.03219661,-0.00302520,-0.04883106,0.
 07332128,-0.00281974,-0.04041652,-0.03043570,0.00298908,0.05487117,-0.
 01012194,-0.00434497,-0.14690060,-0.02827185,0.04108518,0.74660416,0.0
 0165754,0.03868690,-0.13569321,0.00120719,0.01423429,0.03018541,-0.001
 17645,-0.01585135,-0.01413308,0.00018099,0.00967124,-0.04065988,-0.005
 98166,-0.08174760,-0.26827626,0.00266196,-0.05066089,0.69966562,-0.042
 61317,-0.00734647,-0.01111880,0.00555254,0.00030924,0.00056161,0.00458
 411,-0.00036986,0.00014674,-0.00122885,0.00002122,0.00007336,0.0090043
 9,-0.00094606,-0.00003558,0.00599070,-0.00100403,-0.00176430,0.0280766
 9,-0.00734280,-0.13104649,-0.12645580,0.00063723,0.01308052,0.01206379
 ,-0.00038744,-0.00161945,0.00331173,0.00003686,-0.00071433,0.00043605,
 -0.00095909,-0.00476698,0.00095790,-0.00139161,-0.01011247,-0.02662946
 ,0.00881031,0.13633497,-0.01101972,-0.12525983,-0.27839865,-0.00126963
 ,-0.01505817,-0.01818898,0.00017798,0.00393425,-0.00305227,0.00005261,
 0.00047519,0.00052939,0.00004228,0.00162692,0.00116653,0.00014267,0.00
 213681,0.00613660,0.01210297,0.13712775,0.29012141,0.00457374,-0.00045
 477,-0.00030767,0.00555680,0.00062619,-0.00107078,-0.04224762,-0.00464
 158,0.00608791,0.00602547,-0.00104162,0.00176973,0.00900074,-0.0009805
 4,-0.00012777,-0.00123073,0.00001090,-0.00003579,0.00069951,0.00000168
 ,-0.00006770,0.02767886,-0.00045917,-0.00164861,-0.00330832,0.00038219
 ,0.01309203,-0.01220064,-0.00461273,-0.13003495,0.12598531,-0.00082248
 ,-0.01001352,0.02671807,-0.00097959,-0.00477721,-0.00091326,0.00002745
 ,-0.00071798,-0.00043171,-0.00001428,0.00059852,-0.00075953,0.00584906
 ,0.13523264,-0.00033885,-0.00393108,-0.00301273,0.00076024,0.01492223,
 -0.01820474,0.00598878,0.12478971,-0.27977584,-0.00013689,-0.00205002,
 0.00600286,-0.00020560,-0.00158241,0.00118039,-0.00001510,-0.00047051,
 0.00053492,0.00003605,0.00075410,-0.00078314,-0.00651494,-0.13665980,0
 .29162164,-0.00080540,0.00003441,0.00003054,0.00770342,-0.00076713,0.0
 0008473,0.00280963,-0.00100886,-0.00186836,-0.03592640,-0.00746363,-0.
 01080819,0.00436265,0.00008277,0.00081596,0.00504676,-0.00039228,0.000
 10344,-0.00053911,0.00004174,-0.00000108,-0.00532881,0.00044245,0.0000
 7537,0.02499058,-0.00000073,-0.00085283,0.00053059,-0.00079436,-0.0043
 6583,0.00175910,-0.00132863,-0.01264443,-0.02891890,-0.00744394,-0.128
 72668,-0.12075567,0.00053454,0.01010473,0.01517439,-0.00041090,-0.0012
 5869,0.00299878,0.00004251,0.00004588,-0.00009547,0.00045732,0.0014441
 2,0.00025146,0.00856910,0.13470727,0.00008963,0.00131203,-0.00021486,-
 0.00003437,0.00052099,0.00185765,0.00015875,0.00205396,0.00485854,-0.0
 1072858,-0.12088020,-0.27370336,-0.00128151,-0.01596216,-0.01888528,0.
 00015796,0.00333989,-0.00314716,-0.00000226,-0.00007804,0.00000332,0.0
 0005484,-0.00028078,0.00074921,0.01162393,0.13047021,0.28712633,0.0028
 4715,-0.00104413,0.00191428,0.00769976,-0.00077841,-0.00020631,-0.0008
 0770,0.00000633,-0.00001787,0.00503748,-0.00046437,-0.00027625,0.00436
 195,0.00041809,-0.00131356,-0.03557459,-0.00485328,0.00573586,-0.00532
 886,0.00044826,0.00005266,-0.00053880,0.00004343,0.00001248,-0.0003707
 4,0.00007118,-0.00005330,0.02461324,-0.00071053,-0.01253591,0.02901064
 ,-0.00083156,-0.00437484,-0.00171664,-0.00001236,-0.00086024,-0.000527
 85,-0.00047590,-0.00128420,-0.00299679,0.00021326,0.01010740,-0.015299
 11,-0.00483659,-0.12775583,0.12029848,0.00045184,0.00144419,-0.0002639
 7,0.00004457,0.00004658,0.00009437,0.00005633,0.00054784,-0.00070766,0
 .00575180,0.13365871,-0.00011283,-0.00196208,0.00471250,-0.00008705,-0
 .00047939,0.00187034,-0.00007686,-0.00130986,-0.00020516,-0.00033073,-
 0.00333823,-0.00311238,0.00078339,0.01584008,-0.01888727,0.00565620,0.
 12042342,-0.27502604,0.00007316,0.00026848,0.00074919,0.00001366,0.000
 07696,0.00000231,0.00004140,0.00070040,-0.00091587,-0.00603392,-0.1300
 0450,0.28855216,-0.00598592,-0.00330244,0.00229535,-0.08266451,-0.0027
 9885,-0.00037903,-0.00606904,-0.00388122,-0.00186414,0.00765742,0.0012
 4831,-0.00138574,-0.00161346,-0.00242199,-0.00004115,0.00769043,0.0013
 6179,0.00108250,-0.00417776,0.00027114,-0.00019028,-0.00417246,0.00028
 549,0.00021397,0.00155901,-0.00008786,0.00003403,0.00155999,-0.0000540
 7,-0.00006101,0.25817315,-0.00320975,-0.05880885,0.03084260,-0.0027329
 0,-0.12314435,0.00003824,-0.00387162,-0.05903979,-0.03047550,0.0008078
 5,0.02626893,-0.01820270,-0.00379863,-0.03701164,0.00010317,0.00119617
 ,0.02636233,0.01805006,0.00026746,-0.00010453,-0.00308056,0.00033317,-
 0.00008961,0.00306239,-0.00009521,0.00054743,0.00079769,-0.00011184,0.
 00055062,-0.00079655,0.02714571,0.65722084,0.00202592,0.02688696,0.013
 32822,-0.00037915,0.00003887,-0.11867771,-0.00159487,-0.02651876,0.013
 64223,-0.00046278,-0.00516115,-0.00621357,-0.00003840,0.00008842,-0.00
 592417,0.00016077,0.00500208,-0.00634003,-0.00003499,-0.00064283,-0.00
 300564,0.00005857,0.00062514,-0.00302586,-0.00010686,-0.00159090,0.000
 28550,0.00008003,0.00159135,0.00028133,0.00672188,0.00018514,0.8930881
 3,0.00484767,-0.00026441,-0.00072710,0.02050483,-0.00421785,0.00325740
 ,0.00102866,-0.00003877,0.00024354,-0.00074309,-0.00021005,0.00030231,
 0.00036036,0.00054448,0.00015599,-0.00112372,-0.00043717,-0.00009506,0
 .00019596,0.00002293,0.00001620,0.00042105,-0.00026191,0.00008905,-0.0
 0002888,-0.00001733,-0.00001615,-0.00073024,-0.00001831,0.00001058,-0.
 08554214,-0.00830371,0.00783058,0.03164904,-0.00034562,0.00168008,-0.0
 1095905,-0.00416576,-0.04913492,0.05320166,0.00016360,0.00267529,0.005
 27052,-0.00017044,-0.00479730,0.00476449,0.00105143,0.01001345,0.00234
 897,-0.00043738,-0.00840266,-0.00219144,0.00002761,0.00068738,0.000107
 99,-0.00024556,-0.00331694,0.00087087,-0.00001091,-0.00029429,-0.00027
 557,-0.00000386,-0.00107005,0.00008699,-0.00826558,-0.23224302,0.16308
 327,0.01222095,0.24351719,-0.00034304,-0.00552131,0.00672652,0.0028829
 1,0.04776112,-0.01230117,-0.00109657,-0.01466761,-0.01010841,0.0003660
 3,0.00685132,-0.00275782,-0.00103759,-0.00995252,-0.00003517,0.0004156
 7,0.00626349,0.00446372,-0.00003567,-0.00082366,0.00111774,-0.00003303
 ,-0.00101347,0.00340271,0.00000306,0.00016474,0.00011848,0.00001852,0.
 00037283,-0.00011379,0.00754224,0.15864325,-0.38984888,-0.00859557,-0.
 20584302,0.53802825,0.00104180,0.00027230,-0.00048249,0.02035933,-0.00
 524908,-0.00393115,0.00487140,-0.00014322,0.00076674,-0.00112798,-0.00
 056958,0.00021668,0.00037890,0.00075569,-0.00016779,-0.00075824,-0.000
 35744,-0.00034332,0.00042124,-0.00024015,-0.00002438,0.00019680,0.0000
 4049,0.00000330,-0.00073058,-0.00002623,0.00000270,-0.00002853,-0.0000
 2075,0.00001937,-0.08600771,-0.01173849,-0.01426207,0.02921231,0.00130
 903,-0.00113875,0.03224498,0.00005452,0.00271281,-0.00532446,-0.005311
 61,-0.04954044,-0.05295038,-0.00010981,0.00174653,0.01098392,-0.000391
 41,-0.00841881,0.00225217,0.00100473,0.01004382,-0.00241157,-0.0002736
 2,-0.00484399,-0.00475131,-0.00026354,-0.00331628,-0.00083839,0.000025
 52,0.00069027,-0.00010684,-0.00000573,-0.00107189,-0.00008303,-0.00000
 501,-0.00029384,0.00027740,-0.01179406,-0.23353980,-0.16349762,0.00151
 598,0.04994739,0.00942302,0.01667968,0.24517816,0.00085758,0.01461350,
 -0.01015916,-0.00355667,-0.04750995,-0.01175028,0.00038289,0.00554568,
 0.00663639,-0.00029444,-0.00620088,0.00448413,0.00102429,0.00989804,-0
 .00008412,-0.00040733,-0.00683683,-0.00269595,0.00009769,0.00104589,0.
 00340184,0.00005523,0.00082469,0.00111402,-0.00000531,-0.00036850,-0.0
 0011162,0.00000010,-0.00016268,0.00011768,-0.01397366,-0.15905782,-0.3
 8808659,-0.00245722,-0.01021378,-0.13898926,0.01931585,0.20671248,0.53
 577159,0.00474314,0.00406810,-0.00096269,-0.00108966,-0.00715603,0.000
 10819,0.00475999,0.00393612,0.00061335,0.00995123,-0.00683059,0.005523
 26,-0.04319645,-0.00054975,-0.00100053,0.00973998,-0.00794417,-0.00566
 024,-0.00031333,0.00010568,-0.00003976,-0.00031109,0.00013494,0.000050
 09,-0.00234825,0.00021566,0.00001166,-0.00234202,0.00020870,0.00007736
 ,-0.00001013,0.00742133,-0.00000871,-0.00011035,-0.00202216,0.00192964
 ,-0.00015076,-0.00202370,-0.00191131,0.02758540,0.00094209,0.01980278,
 -0.00618638,-0.00211208,-0.03348025,0.00010541,0.00107261,0.01980198,0
 .00604148,-0.00460299,-0.05545451,0.02680671,-0.02492487,-0.34397019,0
 .00068271,-0.00518911,-0.05576735,-0.02646997,-0.00002239,-0.00022526,
 -0.00013226,-0.00001928,-0.00021924,0.00013438,0.00025783,0.00224222,-
 0.00136766,0.00028799,0.00224637,0.00136030,0.00235188,0.03452332,-0.0
 0009344,-0.00055969,-0.00968484,0.00880359,-0.00074692,-0.00971900,-0.
 00874920,-0.03121668,0.76972593,-0.00017021,0.00622187,-0.01084078,0.0
 0009801,0.00015928,0.00768950,-0.00016707,-0.00643074,-0.01085679,0.00
 422362,0.05128185,0.00177834,-0.00095149,0.00042254,-0.13700637,-0.004
 37059,-0.05089196,0.00230250,-0.00005425,-0.00136197,0.00019798,0.0000
 6514,0.00136107,0.00018972,-0.00021451,0.00032915,0.00186791,0.0003032
 7,-0.00033522,0.00185754,0.00000148,-0.00014758,0.00057264,-0.00002085
 ,-0.00024794,0.00030905,0.00003367,0.00033159,0.00038365,0.00900376,0.
 00052516,0.86497258,0.00179034,-0.00139905,0.00008770,0.00021488,0.001
 64238,-0.00022640,-0.00080345,-0.00069243,-0.00017651,-0.00190543,0.00
 127288,-0.00104106,-0.00495024,-0.00843151,-0.00476210,0.00406673,0.00
 025756,0.00133746,-0.00046987,-0.00004307,0.00001943,0.00014612,-0.000
 01126,-0.00000928,0.00028879,0.00016462,0.00000866,-0.00068166,0.00005
 803,0.00004528,-0.00019957,-0.00168330,-0.00001805,0.00002262,0.000463
 49,-0.00043807,0.00004598,0.00044824,0.00045183,-0.00260955,0.03055413
 ,0.04164454,0.00890737,-0.00025025,-0.00023287,-0.00156408,0.00006916,
 0.00088723,0.00030543,-0.00023791,-0.00055958,-0.00015928,-0.00026398,
 0.00256433,-0.00176497,0.00373758,-0.01650778,-0.03234200,-0.00023599,
 -0.00412229,0.00303157,0.00000580,-0.00033957,0.00008561,0.00003084,0.
 00005400,0.00000539,0.00018521,-0.00048495,0.00101344,0.00007124,0.000
 06012,-0.00012776,-0.00002874,-0.00075121,0.00005395,0.00001415,0.0001
 8739,-0.00016948,0.00001707,0.00023991,0.00029380,0.01911851,-0.170581
 15,-0.16690263,-0.01967284,0.17532151,-0.00003717,-0.00122152,0.000683
 81,0.00017013,0.00245661,0.00008524,-0.00041600,-0.00154966,-0.0007809
 6,-0.00006099,0.00353287,0.00063549,-0.00073309,-0.00251465,0.00652897
 ,0.00061015,0.00296640,0.00206480,-0.00002256,0.00004706,0.00002605,0.
 00001947,0.00002094,-0.00002177,0.00022744,-0.00051606,-0.00012094,0.0
 0002079,0.00013281,0.00023113,-0.00008248,-0.00264639,-0.00003139,0.00
 002577,0.00071479,-0.00070647,0.00003322,0.00071116,0.00068035,0.02968
 121,-0.16731662,-0.36188282,-0.03306742,0.18174105,0.36750152,-0.00079
 076,-0.00065845,0.00017936,0.00021595,0.00159037,0.00021722,0.00178883
 ,-0.00137297,-0.00010585,0.00402426,0.00018896,-0.00137994,-0.00482754
 ,-0.00835504,0.00503689,-0.00188079,0.00120133,0.00108988,0.00014582,-
 0.00001168,0.00000575,-0.00046958,-0.00004410,-0.00000866,-0.00068267,
 0.00005504,-0.00002598,0.00028358,0.00017555,-0.00001799,-0.00019728,-
 0.00162625,0.00002814,0.00003590,0.00043117,-0.00043978,0.00003106,0.0
 0044981,0.00042050,-0.00429815,0.03392748,-0.04942452,-0.00386305,-0.0
 0255986,0.00363152,0.01048440,-0.00023278,-0.00055266,0.00016336,0.000
 06190,0.00087603,-0.00031002,-0.00021664,-0.00022157,0.00157271,-0.000
 30295,-0.00414635,-0.00300072,0.00443163,-0.01636687,0.03234675,-0.000
 22595,0.00255714,0.00176242,0.00003063,0.00005389,-0.00000635,0.000004
 10,-0.00034010,-0.00008424,0.00007391,0.00006010,0.00012690,0.00016259
 ,-0.00048693,-0.00101566,-0.00002952,-0.00074068,-0.00005048,0.0000107
 1,0.00023585,-0.00029228,0.00001759,0.00018516,0.00016553,0.02253402,-
 0.16924080,0.16568551,-0.00292787,0.01426491,-0.01655880,-0.02339137,0
 .17386289,0.00041708,0.00156313,-0.00080057,-0.00017306,-0.00249430,0.
 00009537,0.00001439,0.00125476,0.00067403,-0.00065064,-0.00294608,0.00
 213133,0.00095764,0.00278580,0.00626536,0.00011579,-0.00356707,0.00061
 804,-0.00002318,-0.00002100,-0.00002136,0.00003313,-0.00004466,0.00002
 628,-0.00000157,-0.00013333,0.00023215,-0.00023677,0.00051393,-0.00011
 366,0.00008603,0.00268457,-0.00004420,-0.00001947,-0.00071874,0.000694
 49,-0.00004156,-0.00072815,-0.00071269,-0.03741527,0.16585580,-0.36153
 465,-0.00385600,0.01649997,-0.01489300,0.04079347,-0.18050463,0.367383
 09\\0.00000130,0.00000026,-0.00000001,0.00000264,-0.00000128,-0.000000
 15,0.00000130,0.00000048,0.00000013,-0.00000142,-0.00000025,0.00000018
 ,-0.00000293,0.00000009,-0.00000013,-0.00000135,0.00000015,0.,0.000002
 41,-0.00000012,-0.00000005,0.00000240,-0.00000018,0.00000002,-0.000002
 39,0.00000017,0.00000002,-0.00000237,0.00000016,0.,0.00000550,0.000001
 07,-0.00000006,0.00000663,-0.00000071,0.00000038,0.00000656,-0.0000008
 2,-0.00000051,-0.00000536,0.00000031,0.00000003,-0.00000642,0.00000033
 ,0.00000006,-0.00000650,0.00000034,0.00000007\\\@


 WHEN HAVING A MEETING OF THE MINDS,
 MAKE SURE YOU HAVE THE EQUIPMENT FOR IT.
 Job cpu time:  0 days  3 hours 29 minutes 37.5 seconds.
 File lengths (MBytes):  RWF=    251 Int=      0 D2E=      0 Chk=     15 Scr=      1
 Normal termination of Gaussian 09 at Thu Nov 24 22:09:06 2022.
