[Molden Format]
[Title]
ADC(2) - opt by CAM-B3LYP gaussian                                              
[Atoms] AU
 c     1    6 0.12593230616935E+01 0.22795690751954E+01 -.36278607975490E-01
 c     2    6 0.25504236399298E+01 0.18897261300000E-05 -.34511714041240E-01
 c     3    6 0.12593268411458E+01 -.22795652957431E+01 -.36289946332290E-01
 c     4    6 -.13369660030996E+01 -.22791608943507E+01 -.39583738981910E-01
 c     5    6 -.26856068523561E+01 -.18897261300000E-05 -.40110972572980E-01
 c     6    6 -.13369678928258E+01 0.22791590046246E+01 -.39570510898980E-01
 h     7    1 0.23068095955089E+01 0.40296066523382E+01 -.33243707806080E-01
 h     8    1 0.23068152646873E+01 -.40296028728859E+01 -.33262605067400E-01
 h     9    1 -.23553205188504E+01 -.40525668248527E+01 -.45200005048840E-01
 h    10    1 -.23553280777549E+01 0.40525630454004E+01 -.45173548882980E-01
 n    11    7 0.52878147756133E+01 0.00000000000000E+00 -.27472484196240E-01
 o    12    8 0.63764576548767E+01 -.20283488830896E+01 -.24482937454020E-01
 o    13    8 0.63764614343290E+01 0.20283469933635E+01 -.24515062798280E-01
 n    14    7 -.52636676188715E+01 0.00000000000000E+00 -.10786332361533E+00
 h    15    1 -.61947904866021E+01 -.16076731691957E+01 0.28377485852069E+00
 h    16    1 -.61947848174237E+01 0.16076731691957E+01 0.28378430715135E+00
[GTO]
    1 0
 s    6 1.00
 0.13575349682000E+05 0.60645503603591E-03
 0.20352333680000E+04 0.46979088884982E-02
 0.46322562359000E+03 0.24332477647552E-01
 0.13120019598000E+03 0.97399968307759E-01
 0.42853015891000E+02 0.30195584253780E+00
 0.15584185766000E+02 0.66233609137875E+00
 s    2 1.00
 0.62067138508000E+01 0.65595308539952E+00
 0.25764896527000E+01 0.37585633285142E+00
 s    1 1.00
 0.57696339419000E+00 0.10000000000000E+01
 s    1 1.00
 0.22972831358000E+00 0.10000000000000E+01
 s    1 1.00
 0.95164440028000E-01 0.10000000000000E+01
 s    1 1.00
 0.48475401370000E-01 0.10000000000000E+01
 p    4 1.00
 0.34697232244000E+02 0.11327220003114E-01
 0.79582622826000E+01 0.76169659202087E-01
 0.23780826883000E+01 0.30192252202676E+00
 0.81433208183000E+00 0.72785027349547E+00
 p    1 1.00
 0.28887547253000E+00 0.10000000000000E+01
 p    1 1.00
 0.10056823671000E+00 0.10000000000000E+01
 d    1 1.00
 0.10970000000000E+01 0.10000000000000E+01
 d    1 1.00
 0.31800000000000E+00 0.10000000000000E+01
 d    1 1.00
 0.90985336424000E-01 0.10000000000000E+01
 f    1 1.00
 0.76100000000000E+00 0.10000000000000E+01
 
    2 0
 s    6 1.00
 0.13575349682000E+05 0.60645503603591E-03
 0.20352333680000E+04 0.46979088884982E-02
 0.46322562359000E+03 0.24332477647552E-01
 0.13120019598000E+03 0.97399968307759E-01
 0.42853015891000E+02 0.30195584253780E+00
 0.15584185766000E+02 0.66233609137875E+00
 s    2 1.00
 0.62067138508000E+01 0.65595308539952E+00
 0.25764896527000E+01 0.37585633285142E+00
 s    1 1.00
 0.57696339419000E+00 0.10000000000000E+01
 s    1 1.00
 0.22972831358000E+00 0.10000000000000E+01
 s    1 1.00
 0.95164440028000E-01 0.10000000000000E+01
 s    1 1.00
 0.48475401370000E-01 0.10000000000000E+01
 p    4 1.00
 0.34697232244000E+02 0.11327220003114E-01
 0.79582622826000E+01 0.76169659202087E-01
 0.23780826883000E+01 0.30192252202676E+00
 0.81433208183000E+00 0.72785027349547E+00
 p    1 1.00
 0.28887547253000E+00 0.10000000000000E+01
 p    1 1.00
 0.10056823671000E+00 0.10000000000000E+01
 d    1 1.00
 0.10970000000000E+01 0.10000000000000E+01
 d    1 1.00
 0.31800000000000E+00 0.10000000000000E+01
 d    1 1.00
 0.90985336424000E-01 0.10000000000000E+01
 f    1 1.00
 0.76100000000000E+00 0.10000000000000E+01
 
    3 0
 s    6 1.00
 0.13575349682000E+05 0.60645503603591E-03
 0.20352333680000E+04 0.46979088884982E-02
 0.46322562359000E+03 0.24332477647552E-01
 0.13120019598000E+03 0.97399968307759E-01
 0.42853015891000E+02 0.30195584253780E+00
 0.15584185766000E+02 0.66233609137875E+00
 s    2 1.00
 0.62067138508000E+01 0.65595308539952E+00
 0.25764896527000E+01 0.37585633285142E+00
 s    1 1.00
 0.57696339419000E+00 0.10000000000000E+01
 s    1 1.00
 0.22972831358000E+00 0.10000000000000E+01
 s    1 1.00
 0.95164440028000E-01 0.10000000000000E+01
 s    1 1.00
 0.48475401370000E-01 0.10000000000000E+01
 p    4 1.00
 0.34697232244000E+02 0.11327220003114E-01
 0.79582622826000E+01 0.76169659202087E-01
 0.23780826883000E+01 0.30192252202676E+00
 0.81433208183000E+00 0.72785027349547E+00
 p    1 1.00
 0.28887547253000E+00 0.10000000000000E+01
 p    1 1.00
 0.10056823671000E+00 0.10000000000000E+01
 d    1 1.00
 0.10970000000000E+01 0.10000000000000E+01
 d    1 1.00
 0.31800000000000E+00 0.10000000000000E+01
 d    1 1.00
 0.90985336424000E-01 0.10000000000000E+01
 f    1 1.00
 0.76100000000000E+00 0.10000000000000E+01
 
    4 0
 s    6 1.00
 0.13575349682000E+05 0.60645503603591E-03
 0.20352333680000E+04 0.46979088884982E-02
 0.46322562359000E+03 0.24332477647552E-01
 0.13120019598000E+03 0.97399968307759E-01
 0.42853015891000E+02 0.30195584253780E+00
 0.15584185766000E+02 0.66233609137875E+00
 s    2 1.00
 0.62067138508000E+01 0.65595308539952E+00
 0.25764896527000E+01 0.37585633285142E+00
 s    1 1.00
 0.57696339419000E+00 0.10000000000000E+01
 s    1 1.00
 0.22972831358000E+00 0.10000000000000E+01
 s    1 1.00
 0.95164440028000E-01 0.10000000000000E+01
 s    1 1.00
 0.48475401370000E-01 0.10000000000000E+01
 p    4 1.00
 0.34697232244000E+02 0.11327220003114E-01
 0.79582622826000E+01 0.76169659202087E-01
 0.23780826883000E+01 0.30192252202676E+00
 0.81433208183000E+00 0.72785027349547E+00
 p    1 1.00
 0.28887547253000E+00 0.10000000000000E+01
 p    1 1.00
 0.10056823671000E+00 0.10000000000000E+01
 d    1 1.00
 0.10970000000000E+01 0.10000000000000E+01
 d    1 1.00
 0.31800000000000E+00 0.10000000000000E+01
 d    1 1.00
 0.90985336424000E-01 0.10000000000000E+01
 f    1 1.00
 0.76100000000000E+00 0.10000000000000E+01
 
    5 0
 s    6 1.00
 0.13575349682000E+05 0.60645503603591E-03
 0.20352333680000E+04 0.46979088884982E-02
 0.46322562359000E+03 0.24332477647552E-01
 0.13120019598000E+03 0.97399968307759E-01
 0.42853015891000E+02 0.30195584253780E+00
 0.15584185766000E+02 0.66233609137875E+00
 s    2 1.00
 0.62067138508000E+01 0.65595308539952E+00
 0.25764896527000E+01 0.37585633285142E+00
 s    1 1.00
 0.57696339419000E+00 0.10000000000000E+01
 s    1 1.00
 0.22972831358000E+00 0.10000000000000E+01
 s    1 1.00
 0.95164440028000E-01 0.10000000000000E+01
 s    1 1.00
 0.48475401370000E-01 0.10000000000000E+01
 p    4 1.00
 0.34697232244000E+02 0.11327220003114E-01
 0.79582622826000E+01 0.76169659202087E-01
 0.23780826883000E+01 0.30192252202676E+00
 0.81433208183000E+00 0.72785027349547E+00
 p    1 1.00
 0.28887547253000E+00 0.10000000000000E+01
 p    1 1.00
 0.10056823671000E+00 0.10000000000000E+01
 d    1 1.00
 0.10970000000000E+01 0.10000000000000E+01
 d    1 1.00
 0.31800000000000E+00 0.10000000000000E+01
 d    1 1.00
 0.90985336424000E-01 0.10000000000000E+01
 f    1 1.00
 0.76100000000000E+00 0.10000000000000E+01
 
    6 0
 s    6 1.00
 0.13575349682000E+05 0.60645503603591E-03
 0.20352333680000E+04 0.46979088884982E-02
 0.46322562359000E+03 0.24332477647552E-01
 0.13120019598000E+03 0.97399968307759E-01
 0.42853015891000E+02 0.30195584253780E+00
 0.15584185766000E+02 0.66233609137875E+00
 s    2 1.00
 0.62067138508000E+01 0.65595308539952E+00
 0.25764896527000E+01 0.37585633285142E+00
 s    1 1.00
 0.57696339419000E+00 0.10000000000000E+01
 s    1 1.00
 0.22972831358000E+00 0.10000000000000E+01
 s    1 1.00
 0.95164440028000E-01 0.10000000000000E+01
 s    1 1.00
 0.48475401370000E-01 0.10000000000000E+01
 p    4 1.00
 0.34697232244000E+02 0.11327220003114E-01
 0.79582622826000E+01 0.76169659202087E-01
 0.23780826883000E+01 0.30192252202676E+00
 0.81433208183000E+00 0.72785027349547E+00
 p    1 1.00
 0.28887547253000E+00 0.10000000000000E+01
 p    1 1.00
 0.10056823671000E+00 0.10000000000000E+01
 d    1 1.00
 0.10970000000000E+01 0.10000000000000E+01
 d    1 1.00
 0.31800000000000E+00 0.10000000000000E+01
 d    1 1.00
 0.90985336424000E-01 0.10000000000000E+01
 f    1 1.00
 0.76100000000000E+00 0.10000000000000E+01
 
    7 0
 s    3 1.00
 0.34061341000000E+02 0.25439307208879E-01
 0.51235746000000E+01 0.19008594890375E+00
 0.11646626000000E+01 0.85244113011042E+00
 s    1 1.00
 0.32723041000000E+00 0.10000000000000E+01
 s    1 1.00
 0.10307241000000E+00 0.10000000000000E+01
 p    1 1.00
 0.80000000000000E+00 0.10000000000000E+01
 p    1 1.00
 0.95774129632000E-01 0.10000000000000E+01
 
    8 0
 s    3 1.00
 0.34061341000000E+02 0.25439307208879E-01
 0.51235746000000E+01 0.19008594890375E+00
 0.11646626000000E+01 0.85244113011042E+00
 s    1 1.00
 0.32723041000000E+00 0.10000000000000E+01
 s    1 1.00
 0.10307241000000E+00 0.10000000000000E+01
 p    1 1.00
 0.80000000000000E+00 0.10000000000000E+01
 p    1 1.00
 0.95774129632000E-01 0.10000000000000E+01
 
    9 0
 s    3 1.00
 0.34061341000000E+02 0.25439307208879E-01
 0.51235746000000E+01 0.19008594890375E+00
 0.11646626000000E+01 0.85244113011042E+00
 s    1 1.00
 0.32723041000000E+00 0.10000000000000E+01
 s    1 1.00
 0.10307241000000E+00 0.10000000000000E+01
 p    1 1.00
 0.80000000000000E+00 0.10000000000000E+01
 p    1 1.00
 0.95774129632000E-01 0.10000000000000E+01
 
   10 0
 s    3 1.00
 0.34061341000000E+02 0.25439307208879E-01
 0.51235746000000E+01 0.19008594890375E+00
 0.11646626000000E+01 0.85244113011042E+00
 s    1 1.00
 0.32723041000000E+00 0.10000000000000E+01
 s    1 1.00
 0.10307241000000E+00 0.10000000000000E+01
 p    1 1.00
 0.80000000000000E+00 0.10000000000000E+01
 p    1 1.00
 0.95774129632000E-01 0.10000000000000E+01
 
   11 0
 s    6 1.00
 0.19730800647000E+05 0.58626402628763E-03
 0.29578958745000E+04 0.45428820586397E-02
 0.67322133595000E+03 0.23558413450084E-01
 0.19068249494000E+03 0.94709193292923E-01
 0.62295441898000E+02 0.29719784913376E+00
 0.22654161182000E+02 0.66916246895232E+00
 s    2 1.00
 0.89791477428000E+01 0.64596683630063E+00
 0.36863002370000E+01 0.38700574393705E+00
 s    1 1.00
 0.84660076805000E+00 0.10000000000000E+01
 s    1 1.00
 0.33647133771000E+00 0.10000000000000E+01
 s    1 1.00
 0.13647653675000E+00 0.10000000000000E+01
 s    1 1.00
 0.68441605847000E-01 0.10000000000000E+01
 p    4 1.00
 0.49200380510000E+02 0.11448825101764E-01
 0.11346790537000E+02 0.78422337970864E-01
 0.34273972411000E+01 0.30818094738830E+00
 0.11785525134000E+01 0.72027196368413E+00
 p    1 1.00
 0.41642204972000E+00 0.10000000000000E+01
 p    1 1.00
 0.14260826011000E+00 0.10000000000000E+01
 d    1 1.00
 0.16540000000000E+01 0.10000000000000E+01
 d    1 1.00
 0.46900000000000E+00 0.10000000000000E+01
 d    1 1.00
 0.12829642058000E+00 0.10000000000000E+01
 f    1 1.00
 0.10930000000000E+01 0.10000000000000E+01
 
   12 0
 s    6 1.00
 0.27032382631000E+05 0.57227335211155E-03
 0.40523871392000E+04 0.44353233492995E-02
 0.92232722710000E+03 0.23020107706038E-01
 0.26124070989000E+03 0.92822490667928E-01
 0.85354641351000E+02 0.29378500009671E+00
 0.31035035245000E+02 0.67401604501641E+00
 s    2 1.00
 0.12260860728000E+02 0.63839937025506E+00
 0.49987076005000E+01 0.39534587125718E+00
 s    1 1.00
 0.11703108158000E+01 0.10000000000000E+01
 s    1 1.00
 0.46474740994000E+00 0.10000000000000E+01
 s    1 1.00
 0.18504536357000E+00 0.10000000000000E+01
 s    1 1.00
 0.70288026270000E-01 0.10000000000000E+01
 p    4 1.00
 0.63274954801000E+02 0.12018332222616E-01
 0.14627049379000E+02 0.83005421790056E-01
 0.44501223456000E+01 0.31991743925964E+00
 0.15275799647000E+01 0.70715542916104E+00
 p    1 1.00
 0.52935117943000E+00 0.10000000000000E+01
 p    1 1.00
 0.17478421270000E+00 0.10000000000000E+01
 p    1 1.00
 0.51112745706000E-01 0.10000000000000E+01
 d    1 1.00
 0.23140000000000E+01 0.10000000000000E+01
 d    1 1.00
 0.64500000000000E+00 0.10000000000000E+01
 d    1 1.00
 0.14696477366000E+00 0.10000000000000E+01
 f    1 1.00
 0.14280000000000E+01 0.10000000000000E+01
 
   13 0
 s    6 1.00
 0.27032382631000E+05 0.57227335211155E-03
 0.40523871392000E+04 0.44353233492995E-02
 0.92232722710000E+03 0.23020107706038E-01
 0.26124070989000E+03 0.92822490667928E-01
 0.85354641351000E+02 0.29378500009671E+00
 0.31035035245000E+02 0.67401604501641E+00
 s    2 1.00
 0.12260860728000E+02 0.63839937025506E+00
 0.49987076005000E+01 0.39534587125718E+00
 s    1 1.00
 0.11703108158000E+01 0.10000000000000E+01
 s    1 1.00
 0.46474740994000E+00 0.10000000000000E+01
 s    1 1.00
 0.18504536357000E+00 0.10000000000000E+01
 s    1 1.00
 0.70288026270000E-01 0.10000000000000E+01
 p    4 1.00
 0.63274954801000E+02 0.12018332222616E-01
 0.14627049379000E+02 0.83005421790056E-01
 0.44501223456000E+01 0.31991743925964E+00
 0.15275799647000E+01 0.70715542916104E+00
 p    1 1.00
 0.52935117943000E+00 0.10000000000000E+01
 p    1 1.00
 0.17478421270000E+00 0.10000000000000E+01
 p    1 1.00
 0.51112745706000E-01 0.10000000000000E+01
 d    1 1.00
 0.23140000000000E+01 0.10000000000000E+01
 d    1 1.00
 0.64500000000000E+00 0.10000000000000E+01
 d    1 1.00
 0.14696477366000E+00 0.10000000000000E+01
 f    1 1.00
 0.14280000000000E+01 0.10000000000000E+01
 
   14 0
 s    6 1.00
 0.19730800647000E+05 0.58626402628763E-03
 0.29578958745000E+04 0.45428820586397E-02
 0.67322133595000E+03 0.23558413450084E-01
 0.19068249494000E+03 0.94709193292923E-01
 0.62295441898000E+02 0.29719784913376E+00
 0.22654161182000E+02 0.66916246895232E+00
 s    2 1.00
 0.89791477428000E+01 0.64596683630063E+00
 0.36863002370000E+01 0.38700574393705E+00
 s    1 1.00
 0.84660076805000E+00 0.10000000000000E+01
 s    1 1.00
 0.33647133771000E+00 0.10000000000000E+01
 s    1 1.00
 0.13647653675000E+00 0.10000000000000E+01
 s    1 1.00
 0.68441605847000E-01 0.10000000000000E+01
 p    4 1.00
 0.49200380510000E+02 0.11448825101764E-01
 0.11346790537000E+02 0.78422337970864E-01
 0.34273972411000E+01 0.30818094738830E+00
 0.11785525134000E+01 0.72027196368413E+00
 p    1 1.00
 0.41642204972000E+00 0.10000000000000E+01
 p    1 1.00
 0.14260826011000E+00 0.10000000000000E+01
 d    1 1.00
 0.16540000000000E+01 0.10000000000000E+01
 d    1 1.00
 0.46900000000000E+00 0.10000000000000E+01
 d    1 1.00
 0.12829642058000E+00 0.10000000000000E+01
 f    1 1.00
 0.10930000000000E+01 0.10000000000000E+01
 
   15 0
 s    3 1.00
 0.34061341000000E+02 0.25439307208879E-01
 0.51235746000000E+01 0.19008594890375E+00
 0.11646626000000E+01 0.85244113011042E+00
 s    1 1.00
 0.32723041000000E+00 0.10000000000000E+01
 s    1 1.00
 0.10307241000000E+00 0.10000000000000E+01
 p    1 1.00
 0.80000000000000E+00 0.10000000000000E+01
 p    1 1.00
 0.95774129632000E-01 0.10000000000000E+01
 
   16 0
 s    3 1.00
 0.34061341000000E+02 0.25439307208879E-01
 0.51235746000000E+01 0.19008594890375E+00
 0.11646626000000E+01 0.85244113011042E+00
 s    1 1.00
 0.32723041000000E+00 0.10000000000000E+01
 s    1 1.00
 0.10307241000000E+00 0.10000000000000E+01
 p    1 1.00
 0.80000000000000E+00 0.10000000000000E+01
 p    1 1.00
 0.95774129632000E-01 0.10000000000000E+01
 
[MO]
 Sym= X
 Ene= -0.888002
 Spin= Alpha
 Occup= -0.888002
         1   -2.602615E-04
         2   -6.052067E-04
         3    1.789321E-03
         4   -4.637406E-03
         5    3.246026E-02
         6   -1.722425E-02
         7   -2.331128E-03
         8   -3.805974E-04
         9    3.675921E-02
        10    4.139364E-03
        11   -8.315349E-04
        12    3.477571E-02
        13    4.333266E-02
        14   -1.920118E-02
        15    1.627684E-02
        16   -6.863975E-06
        17   -1.166234E-05
        18    1.852632E-05
        19   -1.782621E-05
        20    6.041203E-03
        21   -3.935544E-03
        22   -1.016908E-03
        23    6.103961E-04
        24    4.065121E-04
        25   -1.087983E-03
        26    1.376340E-02
        27   -7.371545E-03
        28   -4.194138E-03
        29    3.829068E-03
        30    3.650705E-04
        31    2.333430E-03
        32   -3.507971E-03
        33    1.013777E-02
        34    3.210736E-05
        35   -1.019560E-05
        36   -1.684631E-04
        37   -1.408529E-05
        38    8.686995E-06
        39   -6.601478E-04
        40   -2.899126E-05
        41    4.991841E-06
        42    8.861648E-04
        43   -6.838479E-04
        44    5.304849E-05
        45    1.153992E-04
        46    2.214270E-04
        47   -5.117744E-03
        48   -7.758271E-02
        49    8.724911E-03
        50   -8.271561E-04
        51   -1.569889E-06
        52    2.033616E-01
        53    5.459393E-04
        54   -9.943808E-06
        55    2.104225E-01
        56    1.912935E-02
        57    3.025913E-04
        58    1.939462E-01
        59    4.557506E-05
        60   -4.214535E-05
        61   -3.429708E-06
        62    9.405377E-08
        63    1.052883E-04
        64   -1.455478E-07
        65    5.721023E-04
        66   -9.633952E-04
        67    3.912930E-04
        68    1.753320E-06
        69    1.967573E-03
        70    1.893263E-07
        71    1.898554E-02
        72   -2.114288E-02
        73    2.157341E-03
        74   -5.859016E-05
        75   -4.071346E-03
        76    2.179842E-05
        77   -1.349775E-05
        78   -3.007884E-08
        79   -1.155001E-03
        80    1.301196E-05
        81   -7.715278E-09
        82    6.352652E-04
        83    5.097171E-06
        84    4.807028E-08
        85    9.143318E-04
        86   -3.403484E-10
        87   -2.606547E-04
        88   -6.060802E-04
        89    1.791068E-03
        90   -4.639264E-03
        91    3.319841E-02
        92   -1.722137E-02
        93   -2.330692E-03
        94    3.811275E-04
        95    3.676444E-02
        96    4.121693E-03
        97    8.276029E-04
        98    3.478132E-02
        99    4.346748E-02
       100    1.946964E-02
       101    1.629976E-02
       102   -6.849140E-06
       103   -1.161903E-05
       104    1.846817E-05
       105    1.793223E-05
       106    6.041217E-03
       107    3.935624E-03
       108   -1.013379E-03
       109    6.067561E-04
       110    4.066231E-04
       111    1.086449E-03
       112    1.376293E-02
       113    7.371421E-03
       114   -4.258824E-03
       115    3.900747E-03
       116    3.580773E-04
       117   -2.269259E-03
       118   -3.482527E-03
       119   -1.012117E-02
       120    3.211789E-05
       121    1.017307E-05
       122   -1.684851E-04
       123   -1.414920E-05
       124   -8.665041E-06
       125   -6.601413E-04
       126   -2.894147E-05
       127   -4.983560E-06
       128    8.861878E-04
       129    6.838354E-04
       130    1.891280E-04
       131    4.120428E-04
       132    7.084761E-04
       133   -1.493102E-02
       134    5.352375E-03
       135    2.050515E-02
       136    1.858333E-03
       137   -1.010027E-03
       138   -1.476950E-01
       139    1.382751E-02
       140   -9.291566E-03
       141   -1.503184E-01
       142    1.737724E-02
       143    1.138011E-02
       144   -9.390440E-02
       145    2.028653E-04
       146   -2.474086E-04
       147    4.454326E-05
       148    7.869948E-06
       149    1.319218E-03
       150   -3.096484E-03
       151    1.049567E-03
       152   -1.174853E-03
       153    1.252856E-04
       154    2.467443E-03
       155    5.280711E-03
       156   -5.072406E-03
       157    1.063032E-02
       158   -7.766411E-03
       159   -2.863905E-03
       160   -1.691891E-02
       161   -4.585396E-03
       162    1.160975E-02
       163    2.525445E-05
       164   -1.452196E-05
       165    8.276105E-04
       166    2.507663E-05
       167   -2.500041E-05
       168   -1.452371E-04
       169   -5.895903E-05
       170    4.448366E-05
       171   -9.651190E-04
       172    3.661685E-04
       173   -1.636492E-03
       174   -3.725559E-03
       175    3.620831E-03
       176    3.362255E-02
       177   -6.703619E-02
       178    1.044365E-02
       179   -1.286100E-02
       180    1.153990E-06
       181   -1.213929E-01
       182   -5.242763E-04
       183    6.833817E-06
       184   -1.247068E-01
       185    6.075462E-02
       186   -3.914293E-04
       187   -1.383576E-01
       188    7.098867E-04
       189   -3.974938E-04
       190   -3.123929E-04
       191    1.834816E-07
       192   -9.522404E-03
       193   -1.937669E-07
       194   -2.648659E-03
       195    5.969750E-03
       196   -3.321091E-03
       197    1.507670E-06
       198   -2.355014E-02
       199    1.350986E-06
       200   -1.280724E-02
       201    1.404670E-02
       202   -1.239462E-03
       203   -9.718989E-05
       204   -1.422654E-02
       205   -1.993778E-05
       206   -1.725711E-04
       207   -1.853966E-10
       208    3.476133E-04
       209    1.280247E-04
       210    3.039754E-08
       211    1.021639E-03
       212    1.035037E-04
       213   -3.014880E-08
       214   -1.488011E-03
       215    3.217390E-08
       216    1.892751E-04
       217    4.123291E-04
       218    7.080918E-04
       219   -1.493358E-02
       220    6.295743E-03
       221    2.048576E-02
       222    1.858391E-03
       223    1.006461E-03
       224   -1.476973E-01
       225    1.383699E-02
       226    9.293552E-03
       227   -1.503246E-01
       228    1.725387E-02
       229   -1.177307E-02
       230   -9.387466E-02
       231    2.028070E-04
       232   -2.475532E-04
       233    4.474618E-05
       234   -7.669867E-06
       235    1.319174E-03
       236    3.096530E-03
       237    1.052624E-03
       238   -1.178009E-03
       239    1.253851E-04
       240   -2.468847E-03
       241    5.280241E-03
       242    5.072712E-03
       243    1.056813E-02
       244   -7.705320E-03
       245   -2.862811E-03
       246    1.698070E-02
       247   -4.614414E-03
       248   -1.163273E-02
       249    2.530578E-05
       250    1.456107E-05
       251    8.277010E-04
       252    2.513080E-05
       253    2.494399E-05
       254   -1.453199E-04
       255   -5.908207E-05
       256   -4.447971E-05
       257   -9.651575E-04
       258   -3.661894E-04
       259   -5.268957E-04
       260   -1.952651E-04
       261   -2.371420E-02
       262    2.033282E-05
       263   -1.876679E-05
       264    1.453341E-03
       265    7.309890E-03
       266    1.205350E-03
       267   -5.383502E-03
       268   -5.270588E-04
       269   -1.919306E-04
       270   -2.370890E-02
       271    1.988616E-05
       272    1.928477E-05
       273    1.453537E-03
       274    7.374161E-03
       275   -1.180843E-03
       276   -5.383698E-03
       277   -5.176851E-04
       278   -3.391467E-03
       279    5.323128E-02
       280    3.101787E-05
       281   -1.341157E-04
       282   -6.049685E-03
       283    1.372375E-03
       284    4.721437E-03
       285   -1.085701E-04
       286   -5.200776E-04
       287   -3.390440E-03
       288    5.333206E-02
       289    3.086170E-05
       290    1.339683E-04
       291   -6.049963E-03
       292    1.339084E-03
       293   -4.748058E-03
       294   -1.034057E-04
       295   -2.324428E-05
       296   -5.229452E-05
       297    6.398950E-06
       298    3.867147E-05
       299   -1.290088E-02
       300   -1.403813E-03
       301   -3.182698E-04
       302    1.085351E-07
       303    7.771329E-03
       304    1.571338E-04
       305    2.868193E-07
       306    1.031065E-02
       307    4.550858E-03
       308    2.344250E-06
       309    1.162508E-03
       310   -1.469366E-06
       311    1.925388E-05
       312   -1.778452E-05
       313   -6.475495E-08
       314   -4.197836E-03
       315   -3.870064E-08
       316   -7.965745E-05
       317    1.600526E-04
       318   -8.039513E-05
       319   -2.225579E-07
       320   -1.248617E-02
       321   -1.383315E-07
       322   -5.828476E-04
       323    3.956742E-03
       324   -3.373894E-03
       325    7.877675E-06
       326   -3.052548E-03
       327   -4.183882E-06
       328   -8.804577E-06
       329    1.492914E-08
       330    2.220346E-05
       331    6.640750E-06
       332   -3.254952E-08
       333    6.721668E-04
       334    5.171830E-06
       335    1.251998E-08
       336   -7.019559E-04
       337   -1.094825E-08
       338   -5.400369E-05
       339   -1.265383E-04
       340    1.163495E-04
       341    9.359250E-04
       342   -9.042048E-03
       343   -1.863471E-03
       344   -3.382317E-04
       345   -3.510928E-04
       346   -7.396783E-02
       347   -9.490224E-05
       348   -5.179208E-04
       349   -6.852387E-02
       350    1.213994E-03
       351   -1.062736E-03
       352   -5.303351E-02
       353    3.696436E-04
       354   -3.216400E-04
       355   -5.923213E-03
       356    6.367590E-06
       357   -7.491233E-06
       358    1.123643E-06
       359   -2.889662E-06
       360    5.151588E-05
       361   -5.593810E-04
       362   -6.255286E-06
       363   -1.987185E-05
       364    2.612713E-05
       365    5.398339E-06
       366    6.722616E-04
       367   -1.777647E-03
       368   -7.319665E-05
       369   -6.987116E-06
       370    8.018377E-05
       371   -3.396398E-05
       372    7.203155E-04
       373   -3.694536E-04
       374   -5.178438E-07
       375   -3.540321E-06
       376    7.520821E-05
       377    6.694612E-07
       378    2.527713E-06
       379    8.613177E-05
       380    2.529921E-08
       381    2.222127E-06
       382   -1.870342E-04
       383    1.488063E-04
       384   -5.396268E-05
       385   -1.264433E-04
       386    1.162777E-04
       387    9.356003E-04
       388   -9.051589E-03
       389   -1.850127E-03
       390   -3.443457E-04
       391    3.535565E-04
       392   -7.396992E-02
       393   -1.003051E-04
       394    5.201486E-04
       395   -6.852627E-02
       396    1.204842E-03
       397    1.068140E-03
       398   -5.302786E-02
       399    3.630565E-04
       400    3.242869E-04
       401   -5.923717E-03
       402    6.393115E-06
       403   -7.500292E-06
       404    1.107177E-06
       405    2.899191E-06
       406    5.154810E-05
       407    5.594135E-04
       408   -6.050771E-06
       409   -1.998933E-05
       410    2.604010E-05
       411   -5.274991E-06
       412    6.722287E-04
       413    1.777572E-03
       414   -7.364319E-05
       415   -6.364816E-06
       416    8.000800E-05
       417    3.319933E-05
       418    7.201341E-04
       419    3.685896E-04
       420   -5.174476E-07
       421    3.544823E-06
       422    7.521459E-05
       423    6.663383E-07
       424   -2.546392E-06
       425    8.612531E-05
       426    2.789049E-08
       427   -2.209487E-06
       428   -1.870363E-04
       429   -1.488096E-04
       430    7.591334E-03
       431    1.799113E-02
       432   -2.777659E-02
       433   -4.540350E-02
       434   -1.575930E-02
       435   -9.382061E-02
       436    2.664488E-02
       437   -5.948655E-06
       438    2.548661E-01
       439    3.012649E-02
       440   -2.077106E-06
       441    2.508356E-01
       442    3.371575E-02
       443    4.022211E-05
       444    2.054479E-01
       445   -1.894565E-04
       446   -7.720624E-05
       447    2.666628E-04
       448    1.212180E-07
       449   -9.746916E-04
       450   -1.823514E-07
       451   -4.228181E-04
       452   -2.420878E-03
       453    2.843696E-03
       454   -1.509238E-06
       455   -3.892660E-03
       456   -8.407266E-07
       457   -3.331809E-03
       458   -5.993281E-03
       459    9.325090E-03
       460   -4.320445E-06
       461   -2.446345E-03
       462   -3.913854E-06
       463    2.028682E-04
       464   -3.280513E-08
       465   -9.478734E-04
       466    1.413786E-04
       467   -1.225280E-08
       468    4.742029E-04
       469   -4.135549E-04
       470    5.626550E-08
       471    7.975026E-04
       472    7.674961E-10
       473    1.321794E-02
       474    2.641665E-02
       475    5.154611E-02
       476    3.217749E-03
       477    2.681535E-03
       478    1.274428E-02
       479   -2.637826E-04
       480    5.867452E-03
       481    1.490962E-02
       482    1.321396E-02
       483    2.638351E-02
       484    5.139977E-02
       485    3.215763E-03
       486   -2.678780E-03
       487    1.274660E-02
       488   -2.910629E-04
       489   -5.852119E-03
       490    1.492029E-02
 Sym= X
 Ene= 0.888002
 Spin= Alpha
 Occup= 0.888002
         1    1.527834E-02
         2    3.410771E-02
         3   -2.459347E-02
         4   -4.614728E-01
         5   -3.987662E+00
         6    3.618158E+00
         7   -8.252728E-03
         8   -2.230908E-02
         9    9.736655E-03
        10   -3.846257E-03
        11   -2.586195E-03
        12    1.180853E-02
        13   -6.092051E-01
        14   -2.013791E-01
        15    5.914032E-02
        16   -2.258424E-03
        17    2.498378E-04
        18    2.008586E-03
        19    1.127211E-03
        20   -6.344277E-04
        21    7.299747E-04
        22   -1.804242E-02
        23    1.159359E-03
        24    1.688306E-02
        25    1.009068E-02
        26   -2.309038E-03
        27    1.788486E-03
        28    3.077743E-01
        29   -4.970098E-02
        30   -2.580733E-01
        31   -7.003426E-01
        32    3.519747E-03
        33   -2.569769E-02
        34    6.637740E-04
        35    2.717485E-06
        36    1.780042E-05
        37   -9.625167E-04
        38    6.214059E-05
        39    7.475827E-05
        40    7.197044E-05
        41   -6.578648E-05
        42   -9.864004E-05
        43    3.625215E-05
        44    5.388836E-03
        45    1.126167E-02
        46   -1.735397E-03
        47   -2.711360E-01
        48   -3.680080E+00
        49   -1.133511E+00
        50   -1.662818E-02
        51   -1.695586E-06
        52   -2.388264E-02
        53   -9.031173E-02
        54   -5.441476E-05
        55   -2.327494E-02
        56   -2.115210E+00
        57    1.383591E-03
        58   -1.345174E-01
        59    4.446241E-04
        60   -3.725035E-03
        61    3.280411E-03
        62   -1.912382E-07