[Molden Format]
[Title]
ADC(2) - opt by CAM-B3LYP gaussian                                              
[Atoms] AU
 c     1    6 0.12593230616935E+01 0.22795690751954E+01 -.36278607975490E-01
 c     2    6 0.25504236399298E+01 0.18897261300000E-05 -.34511714041240E-01
 c     3    6 0.12593268411458E+01 -.22795652957431E+01 -.36289946332290E-01
 c     4    6 -.13369660030996E+01 -.22791608943507E+01 -.39583738981910E-01
 c     5    6 -.26856068523561E+01 -.18897261300000E-05 -.40110972572980E-01
 c     6    6 -.13369678928258E+01 0.22791590046246E+01 -.39570510898980E-01
 h     7    1 0.23068095955089E+01 0.40296066523382E+01 -.33243707806080E-01
 h     8    1 0.23068152646873E+01 -.40296028728859E+01 -.33262605067400E-01
 h     9    1 -.23553205188504E+01 -.40525668248527E+01 -.45200005048840E-01
 h    10    1 -.23553280777549E+01 0.40525630454004E+01 -.45173548882980E-01
 n    11    7 0.52878147756133E+01 0.00000000000000E+00 -.27472484196240E-01
 o    12    8 0.63764576548767E+01 -.20283488830896E+01 -.24482937454020E-01
 o    13    8 0.63764614343290E+01 0.20283469933635E+01 -.24515062798280E-01
 n    14    7 -.52636676188715E+01 0.00000000000000E+00 -.10786332361533E+00
 h    15    1 -.61947904866021E+01 -.16076731691957E+01 0.28377485852069E+00
 h    16    1 -.61947848174237E+01 0.16076731691957E+01 0.28378430715135E+00
[GTO]
    1 0
 s    6 1.00
 0.13575349682000E+05 0.60645503603591E-03
 0.20352333680000E+04 0.46979088884982E-02
 0.46322562359000E+03 0.24332477647552E-01
 0.13120019598000E+03 0.97399968307759E-01
 0.42853015891000E+02 0.30195584253780E+00
 0.15584185766000E+02 0.66233609137875E+00
 s    2 1.00
 0.62067138508000E+01 0.65595308539952E+00
 0.25764896527000E+01 0.37585633285142E+00
 s    1 1.00
 0.57696339419000E+00 0.10000000000000E+01
 s    1 1.00
 0.22972831358000E+00 0.10000000000000E+01
 s    1 1.00
 0.95164440028000E-01 0.10000000000000E+01
 s    1 1.00
 0.48475401370000E-01 0.10000000000000E+01
 p    4 1.00
 0.34697232244000E+02 0.11327220003114E-01
 0.79582622826000E+01 0.76169659202087E-01
 0.23780826883000E+01 0.30192252202676E+00
 0.81433208183000E+00 0.72785027349547E+00
 p    1 1.00
 0.28887547253000E+00 0.10000000000000E+01
 p    1 1.00
 0.10056823671000E+00 0.10000000000000E+01
 d    1 1.00
 0.10970000000000E+01 0.10000000000000E+01
 d    1 1.00
 0.31800000000000E+00 0.10000000000000E+01
 d    1 1.00
 0.90985336424000E-01 0.10000000000000E+01
 f    1 1.00
 0.76100000000000E+00 0.10000000000000E+01
 
    2 0
 s    6 1.00
 0.13575349682000E+05 0.60645503603591E-03
 0.20352333680000E+04 0.46979088884982E-02
 0.46322562359000E+03 0.24332477647552E-01
 0.13120019598000E+03 0.97399968307759E-01
 0.42853015891000E+02 0.30195584253780E+00
 0.15584185766000E+02 0.66233609137875E+00
 s    2 1.00
 0.62067138508000E+01 0.65595308539952E+00
 0.25764896527000E+01 0.37585633285142E+00
 s    1 1.00
 0.57696339419000E+00 0.10000000000000E+01
 s    1 1.00
 0.22972831358000E+00 0.10000000000000E+01
 s    1 1.00
 0.95164440028000E-01 0.10000000000000E+01
 s    1 1.00
 0.48475401370000E-01 0.10000000000000E+01
 p    4 1.00
 0.34697232244000E+02 0.11327220003114E-01
 0.79582622826000E+01 0.76169659202087E-01
 0.23780826883000E+01 0.30192252202676E+00
 0.81433208183000E+00 0.72785027349547E+00
 p    1 1.00
 0.28887547253000E+00 0.10000000000000E+01
 p    1 1.00
 0.10056823671000E+00 0.10000000000000E+01
 d    1 1.00
 0.10970000000000E+01 0.10000000000000E+01
 d    1 1.00
 0.31800000000000E+00 0.10000000000000E+01
 d    1 1.00
 0.90985336424000E-01 0.10000000000000E+01
 f    1 1.00
 0.76100000000000E+00 0.10000000000000E+01
 
    3 0
 s    6 1.00
 0.13575349682000E+05 0.60645503603591E-03
 0.20352333680000E+04 0.46979088884982E-02
 0.46322562359000E+03 0.24332477647552E-01
 0.13120019598000E+03 0.97399968307759E-01
 0.42853015891000E+02 0.30195584253780E+00
 0.15584185766000E+02 0.66233609137875E+00
 s    2 1.00
 0.62067138508000E+01 0.65595308539952E+00
 0.25764896527000E+01 0.37585633285142E+00
 s    1 1.00
 0.57696339419000E+00 0.10000000000000E+01
 s    1 1.00
 0.22972831358000E+00 0.10000000000000E+01
 s    1 1.00
 0.95164440028000E-01 0.10000000000000E+01
 s    1 1.00
 0.48475401370000E-01 0.10000000000000E+01
 p    4 1.00
 0.34697232244000E+02 0.11327220003114E-01
 0.79582622826000E+01 0.76169659202087E-01
 0.23780826883000E+01 0.30192252202676E+00
 0.81433208183000E+00 0.72785027349547E+00
 p    1 1.00
 0.28887547253000E+00 0.10000000000000E+01
 p    1 1.00
 0.10056823671000E+00 0.10000000000000E+01
 d    1 1.00
 0.10970000000000E+01 0.10000000000000E+01
 d    1 1.00
 0.31800000000000E+00 0.10000000000000E+01
 d    1 1.00
 0.90985336424000E-01 0.10000000000000E+01
 f    1 1.00
 0.76100000000000E+00 0.10000000000000E+01
 
    4 0
 s    6 1.00
 0.13575349682000E+05 0.60645503603591E-03
 0.20352333680000E+04 0.46979088884982E-02
 0.46322562359000E+03 0.24332477647552E-01
 0.13120019598000E+03 0.97399968307759E-01
 0.42853015891000E+02 0.30195584253780E+00
 0.15584185766000E+02 0.66233609137875E+00
 s    2 1.00
 0.62067138508000E+01 0.65595308539952E+00
 0.25764896527000E+01 0.37585633285142E+00
 s    1 1.00
 0.57696339419000E+00 0.10000000000000E+01
 s    1 1.00
 0.22972831358000E+00 0.10000000000000E+01
 s    1 1.00
 0.95164440028000E-01 0.10000000000000E+01
 s    1 1.00
 0.48475401370000E-01 0.10000000000000E+01
 p    4 1.00
 0.34697232244000E+02 0.11327220003114E-01
 0.79582622826000E+01 0.76169659202087E-01
 0.23780826883000E+01 0.30192252202676E+00
 0.81433208183000E+00 0.72785027349547E+00
 p    1 1.00
 0.28887547253000E+00 0.10000000000000E+01
 p    1 1.00
 0.10056823671000E+00 0.10000000000000E+01
 d    1 1.00
 0.10970000000000E+01 0.10000000000000E+01
 d    1 1.00
 0.31800000000000E+00 0.10000000000000E+01
 d    1 1.00
 0.90985336424000E-01 0.10000000000000E+01
 f    1 1.00
 0.76100000000000E+00 0.10000000000000E+01
 
    5 0
 s    6 1.00
 0.13575349682000E+05 0.60645503603591E-03
 0.20352333680000E+04 0.46979088884982E-02
 0.46322562359000E+03 0.24332477647552E-01
 0.13120019598000E+03 0.97399968307759E-01
 0.42853015891000E+02 0.30195584253780E+00
 0.15584185766000E+02 0.66233609137875E+00
 s    2 1.00
 0.62067138508000E+01 0.65595308539952E+00
 0.25764896527000E+01 0.37585633285142E+00
 s    1 1.00
 0.57696339419000E+00 0.10000000000000E+01
 s    1 1.00
 0.22972831358000E+00 0.10000000000000E+01
 s    1 1.00
 0.95164440028000E-01 0.10000000000000E+01
 s    1 1.00
 0.48475401370000E-01 0.10000000000000E+01
 p    4 1.00
 0.34697232244000E+02 0.11327220003114E-01
 0.79582622826000E+01 0.76169659202087E-01
 0.23780826883000E+01 0.30192252202676E+00
 0.81433208183000E+00 0.72785027349547E+00
 p    1 1.00
 0.28887547253000E+00 0.10000000000000E+01
 p    1 1.00
 0.10056823671000E+00 0.10000000000000E+01
 d    1 1.00
 0.10970000000000E+01 0.10000000000000E+01
 d    1 1.00
 0.31800000000000E+00 0.10000000000000E+01
 d    1 1.00
 0.90985336424000E-01 0.10000000000000E+01
 f    1 1.00
 0.76100000000000E+00 0.10000000000000E+01
 
    6 0
 s    6 1.00
 0.13575349682000E+05 0.60645503603591E-03
 0.20352333680000E+04 0.46979088884982E-02
 0.46322562359000E+03 0.24332477647552E-01
 0.13120019598000E+03 0.97399968307759E-01
 0.42853015891000E+02 0.30195584253780E+00
 0.15584185766000E+02 0.66233609137875E+00
 s    2 1.00
 0.62067138508000E+01 0.65595308539952E+00
 0.25764896527000E+01 0.37585633285142E+00
 s    1 1.00
 0.57696339419000E+00 0.10000000000000E+01
 s    1 1.00
 0.22972831358000E+00 0.10000000000000E+01
 s    1 1.00
 0.95164440028000E-01 0.10000000000000E+01
 s    1 1.00
 0.48475401370000E-01 0.10000000000000E+01
 p    4 1.00
 0.34697232244000E+02 0.11327220003114E-01
 0.79582622826000E+01 0.76169659202087E-01
 0.23780826883000E+01 0.30192252202676E+00
 0.81433208183000E+00 0.72785027349547E+00
 p    1 1.00
 0.28887547253000E+00 0.10000000000000E+01
 p    1 1.00
 0.10056823671000E+00 0.10000000000000E+01
 d    1 1.00
 0.10970000000000E+01 0.10000000000000E+01
 d    1 1.00
 0.31800000000000E+00 0.10000000000000E+01
 d    1 1.00
 0.90985336424000E-01 0.10000000000000E+01
 f    1 1.00
 0.76100000000000E+00 0.10000000000000E+01
 
    7 0
 s    3 1.00
 0.34061341000000E+02 0.25439307208879E-01
 0.51235746000000E+01 0.19008594890375E+00
 0.11646626000000E+01 0.85244113011042E+00
 s    1 1.00
 0.32723041000000E+00 0.10000000000000E+01
 s    1 1.00
 0.10307241000000E+00 0.10000000000000E+01
 p    1 1.00
 0.80000000000000E+00 0.10000000000000E+01
 p    1 1.00
 0.95774129632000E-01 0.10000000000000E+01
 
    8 0
 s    3 1.00
 0.34061341000000E+02 0.25439307208879E-01
 0.51235746000000E+01 0.19008594890375E+00
 0.11646626000000E+01 0.85244113011042E+00
 s    1 1.00
 0.32723041000000E+00 0.10000000000000E+01
 s    1 1.00
 0.10307241000000E+00 0.10000000000000E+01
 p    1 1.00
 0.80000000000000E+00 0.10000000000000E+01
 p    1 1.00
 0.95774129632000E-01 0.10000000000000E+01
 
    9 0
 s    3 1.00
 0.34061341000000E+02 0.25439307208879E-01
 0.51235746000000E+01 0.19008594890375E+00
 0.11646626000000E+01 0.85244113011042E+00
 s    1 1.00
 0.32723041000000E+00 0.10000000000000E+01
 s    1 1.00
 0.10307241000000E+00 0.10000000000000E+01
 p    1 1.00
 0.80000000000000E+00 0.10000000000000E+01
 p    1 1.00
 0.95774129632000E-01 0.10000000000000E+01
 
   10 0
 s    3 1.00
 0.34061341000000E+02 0.25439307208879E-01
 0.51235746000000E+01 0.19008594890375E+00
 0.11646626000000E+01 0.85244113011042E+00
 s    1 1.00
 0.32723041000000E+00 0.10000000000000E+01
 s    1 1.00
 0.10307241000000E+00 0.10000000000000E+01
 p    1 1.00
 0.80000000000000E+00 0.10000000000000E+01
 p    1 1.00
 0.95774129632000E-01 0.10000000000000E+01
 
   11 0
 s    6 1.00
 0.19730800647000E+05 0.58626402628763E-03
 0.29578958745000E+04 0.45428820586397E-02
 0.67322133595000E+03 0.23558413450084E-01
 0.19068249494000E+03 0.94709193292923E-01
 0.62295441898000E+02 0.29719784913376E+00
 0.22654161182000E+02 0.66916246895232E+00
 s    2 1.00
 0.89791477428000E+01 0.64596683630063E+00
 0.36863002370000E+01 0.38700574393705E+00
 s    1 1.00
 0.84660076805000E+00 0.10000000000000E+01
 s    1 1.00
 0.33647133771000E+00 0.10000000000000E+01
 s    1 1.00
 0.13647653675000E+00 0.10000000000000E+01
 s    1 1.00
 0.68441605847000E-01 0.10000000000000E+01
 p    4 1.00
 0.49200380510000E+02 0.11448825101764E-01
 0.11346790537000E+02 0.78422337970864E-01
 0.34273972411000E+01 0.30818094738830E+00
 0.11785525134000E+01 0.72027196368413E+00
 p    1 1.00
 0.41642204972000E+00 0.10000000000000E+01
 p    1 1.00
 0.14260826011000E+00 0.10000000000000E+01
 d    1 1.00
 0.16540000000000E+01 0.10000000000000E+01
 d    1 1.00
 0.46900000000000E+00 0.10000000000000E+01
 d    1 1.00
 0.12829642058000E+00 0.10000000000000E+01
 f    1 1.00
 0.10930000000000E+01 0.10000000000000E+01
 
   12 0
 s    6 1.00
 0.27032382631000E+05 0.57227335211155E-03
 0.40523871392000E+04 0.44353233492995E-02
 0.92232722710000E+03 0.23020107706038E-01
 0.26124070989000E+03 0.92822490667928E-01
 0.85354641351000E+02 0.29378500009671E+00
 0.31035035245000E+02 0.67401604501641E+00
 s    2 1.00
 0.12260860728000E+02 0.63839937025506E+00
 0.49987076005000E+01 0.39534587125718E+00
 s    1 1.00
 0.11703108158000E+01 0.10000000000000E+01
 s    1 1.00
 0.46474740994000E+00 0.10000000000000E+01
 s    1 1.00
 0.18504536357000E+00 0.10000000000000E+01
 s    1 1.00
 0.70288026270000E-01 0.10000000000000E+01
 p    4 1.00
 0.63274954801000E+02 0.12018332222616E-01
 0.14627049379000E+02 0.83005421790056E-01
 0.44501223456000E+01 0.31991743925964E+00
 0.15275799647000E+01 0.70715542916104E+00
 p    1 1.00
 0.52935117943000E+00 0.10000000000000E+01
 p    1 1.00
 0.17478421270000E+00 0.10000000000000E+01
 p    1 1.00
 0.51112745706000E-01 0.10000000000000E+01
 d    1 1.00
 0.23140000000000E+01 0.10000000000000E+01
 d    1 1.00
 0.64500000000000E+00 0.10000000000000E+01
 d    1 1.00
 0.14696477366000E+00 0.10000000000000E+01
 f    1 1.00
 0.14280000000000E+01 0.10000000000000E+01
 
   13 0
 s    6 1.00
 0.27032382631000E+05 0.57227335211155E-03
 0.40523871392000E+04 0.44353233492995E-02
 0.92232722710000E+03 0.23020107706038E-01
 0.26124070989000E+03 0.92822490667928E-01
 0.85354641351000E+02 0.29378500009671E+00
 0.31035035245000E+02 0.67401604501641E+00
 s    2 1.00
 0.12260860728000E+02 0.63839937025506E+00
 0.49987076005000E+01 0.39534587125718E+00
 s    1 1.00
 0.11703108158000E+01 0.10000000000000E+01
 s    1 1.00
 0.46474740994000E+00 0.10000000000000E+01
 s    1 1.00
 0.18504536357000E+00 0.10000000000000E+01
 s    1 1.00
 0.70288026270000E-01 0.10000000000000E+01
 p    4 1.00
 0.63274954801000E+02 0.12018332222616E-01
 0.14627049379000E+02 0.83005421790056E-01
 0.44501223456000E+01 0.31991743925964E+00
 0.15275799647000E+01 0.70715542916104E+00
 p    1 1.00
 0.52935117943000E+00 0.10000000000000E+01
 p    1 1.00
 0.17478421270000E+00 0.10000000000000E+01
 p    1 1.00
 0.51112745706000E-01 0.10000000000000E+01
 d    1 1.00
 0.23140000000000E+01 0.10000000000000E+01
 d    1 1.00
 0.64500000000000E+00 0.10000000000000E+01
 d    1 1.00
 0.14696477366000E+00 0.10000000000000E+01
 f    1 1.00
 0.14280000000000E+01 0.10000000000000E+01
 
   14 0
 s    6 1.00
 0.19730800647000E+05 0.58626402628763E-03
 0.29578958745000E+04 0.45428820586397E-02
 0.67322133595000E+03 0.23558413450084E-01
 0.19068249494000E+03 0.94709193292923E-01
 0.62295441898000E+02 0.29719784913376E+00
 0.22654161182000E+02 0.66916246895232E+00
 s    2 1.00
 0.89791477428000E+01 0.64596683630063E+00
 0.36863002370000E+01 0.38700574393705E+00
 s    1 1.00
 0.84660076805000E+00 0.10000000000000E+01
 s    1 1.00
 0.33647133771000E+00 0.10000000000000E+01
 s    1 1.00
 0.13647653675000E+00 0.10000000000000E+01
 s    1 1.00
 0.68441605847000E-01 0.10000000000000E+01
 p    4 1.00
 0.49200380510000E+02 0.11448825101764E-01
 0.11346790537000E+02 0.78422337970864E-01
 0.34273972411000E+01 0.30818094738830E+00
 0.11785525134000E+01 0.72027196368413E+00
 p    1 1.00
 0.41642204972000E+00 0.10000000000000E+01
 p    1 1.00
 0.14260826011000E+00 0.10000000000000E+01
 d    1 1.00
 0.16540000000000E+01 0.10000000000000E+01
 d    1 1.00
 0.46900000000000E+00 0.10000000000000E+01
 d    1 1.00
 0.12829642058000E+00 0.10000000000000E+01
 f    1 1.00
 0.10930000000000E+01 0.10000000000000E+01
 
   15 0
 s    3 1.00
 0.34061341000000E+02 0.25439307208879E-01
 0.51235746000000E+01 0.19008594890375E+00
 0.11646626000000E+01 0.85244113011042E+00
 s    1 1.00
 0.32723041000000E+00 0.10000000000000E+01
 s    1 1.00
 0.10307241000000E+00 0.10000000000000E+01
 p    1 1.00
 0.80000000000000E+00 0.10000000000000E+01
 p    1 1.00
 0.95774129632000E-01 0.10000000000000E+01
 
   16 0
 s    3 1.00
 0.34061341000000E+02 0.25439307208879E-01
 0.51235746000000E+01 0.19008594890375E+00
 0.11646626000000E+01 0.85244113011042E+00
 s    1 1.00
 0.32723041000000E+00 0.10000000000000E+01
 s    1 1.00
 0.10307241000000E+00 0.10000000000000E+01
 p    1 1.00
 0.80000000000000E+00 0.10000000000000E+01
 p    1 1.00
 0.95774129632000E-01 0.10000000000000E+01
 
[MO]
 Sym= X
 Ene= -0.081495
 Spin= Alpha
 Occup= -0.081495
         1    9.882429E-05
         2    2.332667E-04
         3   -1.072818E-03
         4    4.586252E-03
         5   -3.312064E-02
         6    1.537387E-02
         7    7.510838E-04
         8    3.418235E-04
         9   -3.788825E-02
        10   -4.477465E-03
        11    7.270940E-04
        12   -3.589686E-02
        13   -3.589145E-02
        14    1.892346E-02
        15   -1.900297E-02
        16    5.197681E-05
        17   -2.679786E-05
        18   -2.517895E-05
        19   -1.618236E-05
        20   -6.360706E-03
        21    4.103952E-03
        22    8.889555E-04
        23   -5.284257E-04
        24   -3.605298E-04
        25    8.683997E-04
        26   -1.441725E-02
        27    7.690383E-03
        28    3.825087E-03
        29   -3.712774E-03
        30   -1.123130E-04
        31   -1.928689E-03
        32    3.267360E-03
        33   -8.172904E-03
        34   -3.356538E-05
        35    5.601815E-06
        36    1.748405E-04
        37    1.649484E-05
        38   -2.721924E-06
        39    6.832926E-04
        40    2.853784E-05
        41   -4.793700E-06
        42   -9.178657E-04
        43    7.285593E-04
        44   -1.501845E-04
        45   -3.353428E-04
        46    1.958304E-04
        47    4.649927E-03
        48    7.419809E-02
        49   -7.404286E-03
        50    1.499798E-03
        51   -6.395614E-07
        52   -2.144905E-01
        53    2.857803E-04
        54    8.099543E-06
        55   -2.215218E-01
        56   -1.925071E-02
        57   -2.941080E-04
        58   -1.901620E-01
        59    1.003465E-05
        60   -1.090595E-05
        61    8.712975E-07
        62    2.918691E-09
        63   -5.033153E-04
        64    1.406458E-06
        65   -4.335446E-04
        66    7.625990E-04
        67   -3.290544E-04
        68   -1.848635E-06
        69   -2.713073E-03
        70    2.736622E-06
        71   -1.570869E-02
        72    1.775835E-02
        73   -2.049661E-03
        74    5.658080E-05
        75    4.244114E-03
        76   -1.749409E-05
        77    1.897139E-05
        78    1.840105E-08
        79    1.277635E-03
        80   -1.666637E-05
        81    1.574582E-08
        82   -7.723379E-04
        83   -8.786428E-06
        84   -4.043342E-08
        85   -9.417887E-04
        86   -1.901163E-07
        87    9.899470E-05
        88    2.336394E-04
        89   -1.073043E-03
        90    4.583504E-03
        91   -3.385144E-02
        92    1.536828E-02
        93    7.528225E-04
        94   -3.399764E-04
        95   -3.796152E-02
        96   -4.453712E-03
        97   -7.209215E-04
        98   -3.597092E-02
        99   -3.602226E-02
       100   -1.918578E-02
       101   -1.906517E-02
       102    5.187400E-05
       103   -2.675724E-05
       104   -2.511676E-05
       105    1.628501E-05
       106   -6.358915E-03
       107   -4.104236E-03
       108    8.843916E-04
       109   -5.241714E-04
       110   -3.602201E-04
       111   -8.666258E-04
       112   -1.441310E-02
       113   -7.690042E-03
       114    3.888918E-03
       115   -3.783323E-03
       116   -1.055953E-04
       117    1.870194E-03
       118    3.248859E-03
       119    8.159942E-03
       120   -3.355072E-05
       121   -5.565361E-06
       122    1.752883E-04
       123    1.655243E-05
       124    2.688141E-06
       125    6.827684E-04
       126    2.846059E-05
       127    4.778574E-06
       128   -9.179424E-04
       129   -7.285406E-04
       130    8.718462E-05
       131    2.089736E-04
       132   -1.447015E-03
       133    1.180619E-02
       134   -5.920291E-03
       135   -1.877870E-02
       136    1.382544E-04
       137   -1.299806E-04
       138    1.571608E-01
       139   -1.046461E-02
       140    7.252741E-03
       141    1.594180E-01
       142   -1.051834E-02
       143   -9.886533E-03
       144    1.007575E-01
       145   -8.471190E-05
       146    9.699942E-05
       147   -1.228753E-05
       148    3.159499E-06
       149   -1.551993E-03
       150    3.478677E-03
       151   -8.084566E-04
       152    8.710718E-04
       153   -6.261521E-05
       154   -2.087114E-03
       155   -5.699936E-03
       156    5.781032E-03
       157   -9.407014E-03
       158    7.007359E-03
       159    2.399655E-03
       160    1.529326E-02
       161    4.016302E-03
       162   -9.298423E-03
       163   -2.477296E-05
       164    1.847776E-06
       165   -9.193879E-04
       166   -1.080291E-05
       167    3.124951E-05
       168    1.896007E-04
       169    4.403932E-05
       170   -3.372856E-05
       171    1.043888E-03
       172   -4.275890E-04
       173    1.376519E-03
       174    3.134131E-03
       175   -2.991346E-03
       176   -2.962529E-02
       177    6.230949E-02
       178   -7.596213E-03
       179    6.459227E-03
       180    3.806871E-07
       181    1.449036E-01
       182   -2.802127E-03
       183   -3.328794E-06
       184    1.473601E-01
       185   -5.358381E-02
       186    4.384157E-04
       187    1.340041E-01
       188   -4.060793E-04
       189    1.550706E-04
       190    2.510087E-04
       191   -8.330530E-08
       192    8.942116E-03
       193    1.571191E-06
       194    2.450717E-03
       195   -5.337456E-03
       196    2.886739E-03
       197   -7.204261E-07
       198    2.258232E-02
       199    1.422711E-06
       200    9.186255E-03
       201   -1.025420E-02
       202    1.067946E-03
       203    9.331823E-05
       204    1.427601E-02
       205    1.295089E-05
       206    1.217862E-04
       207    2.187602E-09
       208   -5.918180E-04
       209   -1.024019E-04
       210   -1.083263E-08
       211   -7.652323E-04
       212   -6.099145E-05
       213    7.897651E-09
       214    1.559240E-03
       215    1.756926E-07
       216    8.731533E-05
       217    2.093012E-04
       218   -1.446340E-03
       219    1.179920E-02
       220   -6.932462E-03
       221   -1.876732E-02
       222    1.402692E-04
       223    1.282033E-04
       224    1.572361E-01
       225   -1.047500E-02
       226   -7.256413E-03
       227    1.594982E-01
       228   -1.036220E-02
       229    1.031164E-02
       230    1.007824E-01
       231   -8.457254E-05
       232    9.703372E-05
       233   -1.246118E-05
       234   -3.119523E-06
       235   -1.550269E-03
       236   -3.478889E-03
       237   -8.124414E-04
       238    8.741714E-04
       239   -6.172992E-05
       240    2.088168E-03
       241   -5.696744E-03
       242   -5.781605E-03
       243   -9.352734E-03
       244    6.952202E-03
       245    2.400531E-03
       246   -1.535944E-02
       247    4.036878E-03
       248    9.317105E-03
       249   -2.487498E-05
       250   -1.887380E-06
       251   -9.199666E-04
       252   -1.079648E-05
       253   -3.120393E-05
       254    1.902145E-04
       255    4.416977E-05
       256    3.373612E-05
       257    1.044050E-03
       258    4.276323E-04
       259    1.608070E-04
       260   -3.525003E-04
       261    1.979741E-02
       262   -3.470717E-05
       263    6.459300E-05
       264   -1.540051E-03
       265   -6.633386E-03
       266   -7.224913E-04
       267    4.018587E-03
       268    1.602246E-04
       269   -3.572143E-04
       270    1.979941E-02
       271   -3.420481E-05
       272   -6.513166E-05
       273   -1.543016E-03
       274   -6.693861E-03
       275    7.000583E-04
       276    4.016097E-03
       277    9.470543E-06
       278    2.316907E-03
       279   -4.717519E-02
       280   -8.328486E-06
       281    4.106432E-05
       282    6.431190E-03
       283   -7.455466E-04
       284   -4.169664E-03
       285    1.896791E-03
       286    8.248342E-06
       287    2.311460E-03
       288   -4.729306E-02
       289   -8.500249E-06
       290   -4.059263E-05
       291    6.434607E-03
       292   -7.184130E-04
       293    4.195061E-03
       294    1.894207E-03
       295   -5.023114E-05
       296   -1.256082E-04
       297    2.580003E-04
       298    5.072756E-04
       299    1.146412E-02
       300   -5.444848E-04
       301   -2.000716E-06
       302   -1.618617E-07
       303   -3.837531E-02
       304   -4.390933E-04
       305   -1.963883E-07
       306   -3.914257E-02
       307   -4.883873E-03
       308   -5.554913E-07
       309   -9.528605E-03
       310    9.504883E-05
       311   -1.173899E-04
       312    2.234111E-05
       313   -1.019069E-07
       314    3.907522E-03
       315   -5.306925E-07
       316    3.182431E-04
       317   -4.143877E-04
       318    9.614461E-05
       319   -2.830634E-07
       320    1.216627E-02
       321   -1.475186E-06
       322    4.289999E-04
       323   -3.435439E-03
       324    3.006440E-03
       325   -8.207404E-06
       326    4.165506E-03
       327    3.070466E-06
       328    8.218760E-06
       329    3.430289E-08
       330    1.865495E-04
       331   -4.198780E-06
       332   -3.594156E-08
       333   -7.440634E-04
       334   -6.827843E-06
       335   -1.008060E-08
       336    4.937809E-04
       337   -1.165836E-07
       338    4.303568E-05
       339    1.020704E-04
       340   -9.338234E-05
       341   -7.185882E-04
       342    7.918201E-03
       343    2.059944E-03
       344    2.996743E-03
       345    1.155871E-03
       346    5.441118E-02
       347    2.467688E-03
       348    1.232836E-03
       349    5.086866E-02
       350    6.965586E-04
       351    1.465267E-03
       352    4.419702E-02
       353   -1.877672E-04
       354    4.040099E-04
       355    5.478000E-03
       356   -2.059393E-05
       357    1.790751E-05
       358    2.686427E-06
       359    2.134693E-05
       360    1.757701E-04
       361    1.451993E-04
       362   -4.925692E-05
       363    5.811429E-05
       364   -8.857366E-06
       365    3.804301E-05
       366    4.500134E-05
       367    6.035522E-04
       368    3.358555E-06
       369    5.176465E-05
       370   -5.512320E-05
       371    8.130109E-05
       372   -4.752755E-04
       373   -1.000335E-04
       374   -7.824981E-07
       375    9.873093E-06
       376    5.935998E-06
       377    3.005667E-06
       378   -1.244920E-05
       379   -8.067169E-05
       380   -1.955835E-06
       381   -7.969412E-07
       382    7.270771E-05
       383   -4.281852E-05
       384    4.335192E-05
       385    1.028585E-04
       386   -9.468786E-05
       387   -7.196348E-04
       388    7.925073E-03
       389    2.048296E-03
       390    2.990812E-03
       391   -1.150832E-03
       392    5.438034E-02
       393    2.462131E-03
       394   -1.228400E-03
       395    5.084056E-02
       396    6.994548E-04
       397   -1.464838E-03
       398    4.417060E-02
       399   -1.820890E-04
       400   -4.064631E-04
       401    5.476304E-03
       402   -2.053112E-05
       403    1.783889E-05
       404    2.692224E-06
       405   -2.131481E-05
       406    1.758910E-04
       407   -1.449567E-04
       408   -4.918627E-05
       409    5.799150E-05
       410   -8.805231E-06
       411   -3.806568E-05
       412    4.554937E-05
       413   -6.025492E-04
       414    3.970287E-06
       415    5.103181E-05
       416   -5.500209E-05
       417   -8.093793E-05
       418   -4.748383E-04
       419    1.012564E-04
       420   -7.875419E-07
       421   -9.851246E-06
       422    5.973294E-06
       423    3.014104E-06
       424    1.242936E-05
       425   -8.065063E-05
       426   -1.957506E-06
       427    7.874720E-07
       428    7.263661E-05
       429    4.273389E-05
       430   -6.569892E-03
       431   -1.558710E-02
       432    2.408074E-02
       433    3.940848E-02
       434    1.494716E-02
       435    8.547913E-02
       436   -1.865483E-02
       437    4.799046E-06
       438   -2.186206E-01
       439   -2.212303E-02
       440    1.470096E-06
       441   -2.159215E-01
       442   -2.638448E-02
       443   -3.969106E-05
       444   -1.817578E-01
       445    2.344328E-04
       446   -3.623614E-05
       447   -1.981966E-04
       448   -9.247032E-08
       449    1.366549E-03
       450    2.047048E-07
       451    5.180097E-04
       452    1.851125E-03
       453   -2.369134E-03
       454    1.321752E-06
       455    4.824657E-03
       456    8.637602E-07
       457    3.212921E-03
       458    4.734762E-03
       459   -7.947682E-03
       460    2.744484E-06
       461    2.871578E-03
       462    3.399342E-06
       463   -1.766638E-04
       464    2.407889E-08
       465    7.527720E-04
       466   -1.121119E-04
       467    8.519140E-09
       468   -2.965750E-04
       469    3.491312E-04
       470   -4.082437E-08
       471   -7.133747E-04
       472    2.536099E-08
       473   -1.289142E-02
       474   -2.466118E-02
       475   -4.533262E-02
       476   -2.678430E-03
       477   -2.454847E-03
       478   -1.110600E-02
       479    7.796021E-04
       480   -4.982892E-03
       481   -1.439539E-02
       482   -1.288818E-02
       483   -2.463226E-02
       484   -4.520330E-02
       485   -2.676702E-03
       486    2.452440E-03
       487   -1.110793E-02
       488    8.047496E-04
       489    4.970125E-03
       490   -1.440326E-02
 Sym= X
 Ene= -0.761754
 Spin= Alpha
 Occup= -0.761754
         1    5.226525E-04
         2    1.194663E-03
         3   -2.473140E-03
         4    1.677015E-03
         5   -2.512796E-02
         6    1.581030E-02
         7    9.313266E-03
         8    1.368650E-03
         9    1.422342E-01
        10    2.177578E-03
        11    1.792826E-03
        12    1.403906E-01
        13   -2.985974E-02
        14    3.936562E-03
        15    4.965498E-02
        16   -2.448712E-04
        17    2.270100E-04
        18    1.786118E-05
        19    1.146604E-04
        20    3.217484E-04
        21   -4.409527E-03
        22    4.671931E-04
        23   -2.800655E-04
        24   -1.871275E-04
        25    1.170593E-03
        26    1.205942E-03
        27   -7.239851E-03
        28    1.629631E-03
        29   -1.141214E-03
        30   -4.884170E-04
        31   -2.751533E-03
        32    6.676403E-03
        33   -3.589197E-03
        34   -1.693591E-06
        35    2.080568E-05
        36   -1.191518E-03
        37    1.030253E-06
        38   -1.796764E-05
        39    6.565830E-04
        40    1.241939E-06
        41   -9.946106E-06
        42    9.420067E-04
        43   -4.740104E-04
        44   -3.139995E-04
        45   -6.988395E-04
        46    4.769766E-04
        47    7.490012E-03
        48    2.248055E-02
        49   -1.335470E-02
        50   -1.712656E-03
        51    4.129615E-06
        52    2.050775E-01
        53   -2.729447E-03
        54   -6.405792E-06
        55    2.070934E-01
        56   -7.886507E-03
        57   -3.106146E-04
        58    7.188731E-02
        59   -3.037478E-04
        60    3.084750E-04
        61   -4.727219E-06
        62   -1.966523E-07