[Molden Format]
[Title]
ADC(2) - opt by CAM-B3LYP gaussian                                              
[Atoms] AU
 c     1    6 0.12593230616935E+01 0.22795690751954E+01 -.36278607975490E-01
 c     2    6 0.25504236399298E+01 0.18897261300000E-05 -.34511714041240E-01
 c     3    6 0.12593268411458E+01 -.22795652957431E+01 -.36289946332290E-01
 c     4    6 -.13369660030996E+01 -.22791608943507E+01 -.39583738981910E-01
 c     5    6 -.26856068523561E+01 -.18897261300000E-05 -.40110972572980E-01
 c     6    6 -.13369678928258E+01 0.22791590046246E+01 -.39570510898980E-01
 h     7    1 0.23068095955089E+01 0.40296066523382E+01 -.33243707806080E-01
 h     8    1 0.23068152646873E+01 -.40296028728859E+01 -.33262605067400E-01
 h     9    1 -.23553205188504E+01 -.40525668248527E+01 -.45200005048840E-01
 h    10    1 -.23553280777549E+01 0.40525630454004E+01 -.45173548882980E-01
 n    11    7 0.52878147756133E+01 0.00000000000000E+00 -.27472484196240E-01
 o    12    8 0.63764576548767E+01 -.20283488830896E+01 -.24482937454020E-01
 o    13    8 0.63764614343290E+01 0.20283469933635E+01 -.24515062798280E-01
 n    14    7 -.52636676188715E+01 0.00000000000000E+00 -.10786332361533E+00
 h    15    1 -.61947904866021E+01 -.16076731691957E+01 0.28377485852069E+00
 h    16    1 -.61947848174237E+01 0.16076731691957E+01 0.28378430715135E+00
[GTO]
    1 0
 s    6 1.00
 0.13575349682000E+05 0.60645503603591E-03
 0.20352333680000E+04 0.46979088884982E-02
 0.46322562359000E+03 0.24332477647552E-01
 0.13120019598000E+03 0.97399968307759E-01
 0.42853015891000E+02 0.30195584253780E+00
 0.15584185766000E+02 0.66233609137875E+00
 s    2 1.00
 0.62067138508000E+01 0.65595308539952E+00
 0.25764896527000E+01 0.37585633285142E+00
 s    1 1.00
 0.57696339419000E+00 0.10000000000000E+01
 s    1 1.00
 0.22972831358000E+00 0.10000000000000E+01
 s    1 1.00
 0.95164440028000E-01 0.10000000000000E+01
 s    1 1.00
 0.48475401370000E-01 0.10000000000000E+01
 p    4 1.00
 0.34697232244000E+02 0.11327220003114E-01
 0.79582622826000E+01 0.76169659202087E-01
 0.23780826883000E+01 0.30192252202676E+00
 0.81433208183000E+00 0.72785027349547E+00
 p    1 1.00
 0.28887547253000E+00 0.10000000000000E+01
 p    1 1.00
 0.10056823671000E+00 0.10000000000000E+01
 d    1 1.00
 0.10970000000000E+01 0.10000000000000E+01
 d    1 1.00
 0.31800000000000E+00 0.10000000000000E+01
 d    1 1.00
 0.90985336424000E-01 0.10000000000000E+01
 f    1 1.00
 0.76100000000000E+00 0.10000000000000E+01
 
    2 0
 s    6 1.00
 0.13575349682000E+05 0.60645503603591E-03
 0.20352333680000E+04 0.46979088884982E-02
 0.46322562359000E+03 0.24332477647552E-01
 0.13120019598000E+03 0.97399968307759E-01
 0.42853015891000E+02 0.30195584253780E+00
 0.15584185766000E+02 0.66233609137875E+00
 s    2 1.00
 0.62067138508000E+01 0.65595308539952E+00
 0.25764896527000E+01 0.37585633285142E+00
 s    1 1.00
 0.57696339419000E+00 0.10000000000000E+01
 s    1 1.00
 0.22972831358000E+00 0.10000000000000E+01
 s    1 1.00
 0.95164440028000E-01 0.10000000000000E+01
 s    1 1.00
 0.48475401370000E-01 0.10000000000000E+01
 p    4 1.00
 0.34697232244000E+02 0.11327220003114E-01
 0.79582622826000E+01 0.76169659202087E-01
 0.23780826883000E+01 0.30192252202676E+00
 0.81433208183000E+00 0.72785027349547E+00
 p    1 1.00
 0.28887547253000E+00 0.10000000000000E+01
 p    1 1.00
 0.10056823671000E+00 0.10000000000000E+01
 d    1 1.00
 0.10970000000000E+01 0.10000000000000E+01
 d    1 1.00
 0.31800000000000E+00 0.10000000000000E+01
 d    1 1.00
 0.90985336424000E-01 0.10000000000000E+01
 f    1 1.00
 0.76100000000000E+00 0.10000000000000E+01
 
    3 0
 s    6 1.00
 0.13575349682000E+05 0.60645503603591E-03
 0.20352333680000E+04 0.46979088884982E-02
 0.46322562359000E+03 0.24332477647552E-01
 0.13120019598000E+03 0.97399968307759E-01
 0.42853015891000E+02 0.30195584253780E+00
 0.15584185766000E+02 0.66233609137875E+00
 s    2 1.00
 0.62067138508000E+01 0.65595308539952E+00
 0.25764896527000E+01 0.37585633285142E+00
 s    1 1.00
 0.57696339419000E+00 0.10000000000000E+01
 s    1 1.00
 0.22972831358000E+00 0.10000000000000E+01
 s    1 1.00
 0.95164440028000E-01 0.10000000000000E+01
 s    1 1.00
 0.48475401370000E-01 0.10000000000000E+01
 p    4 1.00
 0.34697232244000E+02 0.11327220003114E-01
 0.79582622826000E+01 0.76169659202087E-01
 0.23780826883000E+01 0.30192252202676E+00
 0.81433208183000E+00 0.72785027349547E+00
 p    1 1.00
 0.28887547253000E+00 0.10000000000000E+01
 p    1 1.00
 0.10056823671000E+00 0.10000000000000E+01
 d    1 1.00
 0.10970000000000E+01 0.10000000000000E+01
 d    1 1.00
 0.31800000000000E+00 0.10000000000000E+01
 d    1 1.00
 0.90985336424000E-01 0.10000000000000E+01
 f    1 1.00
 0.76100000000000E+00 0.10000000000000E+01
 
    4 0
 s    6 1.00
 0.13575349682000E+05 0.60645503603591E-03
 0.20352333680000E+04 0.46979088884982E-02
 0.46322562359000E+03 0.24332477647552E-01
 0.13120019598000E+03 0.97399968307759E-01
 0.42853015891000E+02 0.30195584253780E+00
 0.15584185766000E+02 0.66233609137875E+00
 s    2 1.00
 0.62067138508000E+01 0.65595308539952E+00
 0.25764896527000E+01 0.37585633285142E+00
 s    1 1.00
 0.57696339419000E+00 0.10000000000000E+01
 s    1 1.00
 0.22972831358000E+00 0.10000000000000E+01
 s    1 1.00
 0.95164440028000E-01 0.10000000000000E+01
 s    1 1.00
 0.48475401370000E-01 0.10000000000000E+01
 p    4 1.00
 0.34697232244000E+02 0.11327220003114E-01
 0.79582622826000E+01 0.76169659202087E-01
 0.23780826883000E+01 0.30192252202676E+00
 0.81433208183000E+00 0.72785027349547E+00
 p    1 1.00
 0.28887547253000E+00 0.10000000000000E+01
 p    1 1.00
 0.10056823671000E+00 0.10000000000000E+01
 d    1 1.00
 0.10970000000000E+01 0.10000000000000E+01
 d    1 1.00
 0.31800000000000E+00 0.10000000000000E+01
 d    1 1.00
 0.90985336424000E-01 0.10000000000000E+01
 f    1 1.00
 0.76100000000000E+00 0.10000000000000E+01
 
    5 0
 s    6 1.00
 0.13575349682000E+05 0.60645503603591E-03
 0.20352333680000E+04 0.46979088884982E-02
 0.46322562359000E+03 0.24332477647552E-01
 0.13120019598000E+03 0.97399968307759E-01
 0.42853015891000E+02 0.30195584253780E+00
 0.15584185766000E+02 0.66233609137875E+00
 s    2 1.00
 0.62067138508000E+01 0.65595308539952E+00
 0.25764896527000E+01 0.37585633285142E+00
 s    1 1.00
 0.57696339419000E+00 0.10000000000000E+01
 s    1 1.00
 0.22972831358000E+00 0.10000000000000E+01
 s    1 1.00
 0.95164440028000E-01 0.10000000000000E+01
 s    1 1.00
 0.48475401370000E-01 0.10000000000000E+01
 p    4 1.00
 0.34697232244000E+02 0.11327220003114E-01
 0.79582622826000E+01 0.76169659202087E-01
 0.23780826883000E+01 0.30192252202676E+00
 0.81433208183000E+00 0.72785027349547E+00
 p    1 1.00
 0.28887547253000E+00 0.10000000000000E+01
 p    1 1.00
 0.10056823671000E+00 0.10000000000000E+01
 d    1 1.00
 0.10970000000000E+01 0.10000000000000E+01
 d    1 1.00
 0.31800000000000E+00 0.10000000000000E+01
 d    1 1.00
 0.90985336424000E-01 0.10000000000000E+01
 f    1 1.00
 0.76100000000000E+00 0.10000000000000E+01
 
    6 0
 s    6 1.00
 0.13575349682000E+05 0.60645503603591E-03
 0.20352333680000E+04 0.46979088884982E-02
 0.46322562359000E+03 0.24332477647552E-01
 0.13120019598000E+03 0.97399968307759E-01
 0.42853015891000E+02 0.30195584253780E+00
 0.15584185766000E+02 0.66233609137875E+00
 s    2 1.00
 0.62067138508000E+01 0.65595308539952E+00
 0.25764896527000E+01 0.37585633285142E+00
 s    1 1.00
 0.57696339419000E+00 0.10000000000000E+01
 s    1 1.00
 0.22972831358000E+00 0.10000000000000E+01
 s    1 1.00
 0.95164440028000E-01 0.10000000000000E+01
 s    1 1.00
 0.48475401370000E-01 0.10000000000000E+01
 p    4 1.00
 0.34697232244000E+02 0.11327220003114E-01
 0.79582622826000E+01 0.76169659202087E-01
 0.23780826883000E+01 0.30192252202676E+00
 0.81433208183000E+00 0.72785027349547E+00
 p    1 1.00
 0.28887547253000E+00 0.10000000000000E+01
 p    1 1.00
 0.10056823671000E+00 0.10000000000000E+01
 d    1 1.00
 0.10970000000000E+01 0.10000000000000E+01
 d    1 1.00
 0.31800000000000E+00 0.10000000000000E+01
 d    1 1.00
 0.90985336424000E-01 0.10000000000000E+01
 f    1 1.00
 0.76100000000000E+00 0.10000000000000E+01
 
    7 0
 s    3 1.00
 0.34061341000000E+02 0.25439307208879E-01
 0.51235746000000E+01 0.19008594890375E+00
 0.11646626000000E+01 0.85244113011042E+00
 s    1 1.00
 0.32723041000000E+00 0.10000000000000E+01
 s    1 1.00
 0.10307241000000E+00 0.10000000000000E+01
 p    1 1.00
 0.80000000000000E+00 0.10000000000000E+01
 p    1 1.00
 0.95774129632000E-01 0.10000000000000E+01
 
    8 0
 s    3 1.00
 0.34061341000000E+02 0.25439307208879E-01
 0.51235746000000E+01 0.19008594890375E+00
 0.11646626000000E+01 0.85244113011042E+00
 s    1 1.00
 0.32723041000000E+00 0.10000000000000E+01
 s    1 1.00
 0.10307241000000E+00 0.10000000000000E+01
 p    1 1.00
 0.80000000000000E+00 0.10000000000000E+01
 p    1 1.00
 0.95774129632000E-01 0.10000000000000E+01
 
    9 0
 s    3 1.00
 0.34061341000000E+02 0.25439307208879E-01
 0.51235746000000E+01 0.19008594890375E+00
 0.11646626000000E+01 0.85244113011042E+00
 s    1 1.00
 0.32723041000000E+00 0.10000000000000E+01
 s    1 1.00
 0.10307241000000E+00 0.10000000000000E+01
 p    1 1.00
 0.80000000000000E+00 0.10000000000000E+01
 p    1 1.00
 0.95774129632000E-01 0.10000000000000E+01
 
   10 0
 s    3 1.00
 0.34061341000000E+02 0.25439307208879E-01
 0.51235746000000E+01 0.19008594890375E+00
 0.11646626000000E+01 0.85244113011042E+00
 s    1 1.00
 0.32723041000000E+00 0.10000000000000E+01
 s    1 1.00
 0.10307241000000E+00 0.10000000000000E+01
 p    1 1.00
 0.80000000000000E+00 0.10000000000000E+01
 p    1 1.00
 0.95774129632000E-01 0.10000000000000E+01
 
   11 0
 s    6 1.00
 0.19730800647000E+05 0.58626402628763E-03
 0.29578958745000E+04 0.45428820586397E-02
 0.67322133595000E+03 0.23558413450084E-01
 0.19068249494000E+03 0.94709193292923E-01
 0.62295441898000E+02 0.29719784913376E+00
 0.22654161182000E+02 0.66916246895232E+00
 s    2 1.00
 0.89791477428000E+01 0.64596683630063E+00
 0.36863002370000E+01 0.38700574393705E+00
 s    1 1.00
 0.84660076805000E+00 0.10000000000000E+01
 s    1 1.00
 0.33647133771000E+00 0.10000000000000E+01
 s    1 1.00
 0.13647653675000E+00 0.10000000000000E+01
 s    1 1.00
 0.68441605847000E-01 0.10000000000000E+01
 p    4 1.00
 0.49200380510000E+02 0.11448825101764E-01
 0.11346790537000E+02 0.78422337970864E-01
 0.34273972411000E+01 0.30818094738830E+00
 0.11785525134000E+01 0.72027196368413E+00
 p    1 1.00
 0.41642204972000E+00 0.10000000000000E+01
 p    1 1.00
 0.14260826011000E+00 0.10000000000000E+01
 d    1 1.00
 0.16540000000000E+01 0.10000000000000E+01
 d    1 1.00
 0.46900000000000E+00 0.10000000000000E+01
 d    1 1.00
 0.12829642058000E+00 0.10000000000000E+01
 f    1 1.00
 0.10930000000000E+01 0.10000000000000E+01
 
   12 0
 s    6 1.00
 0.27032382631000E+05 0.57227335211155E-03
 0.40523871392000E+04 0.44353233492995E-02
 0.92232722710000E+03 0.23020107706038E-01
 0.26124070989000E+03 0.92822490667928E-01
 0.85354641351000E+02 0.29378500009671E+00
 0.31035035245000E+02 0.67401604501641E+00
 s    2 1.00
 0.12260860728000E+02 0.63839937025506E+00
 0.49987076005000E+01 0.39534587125718E+00
 s    1 1.00
 0.11703108158000E+01 0.10000000000000E+01
 s    1 1.00
 0.46474740994000E+00 0.10000000000000E+01
 s    1 1.00
 0.18504536357000E+00 0.10000000000000E+01
 s    1 1.00
 0.70288026270000E-01 0.10000000000000E+01
 p    4 1.00
 0.63274954801000E+02 0.12018332222616E-01
 0.14627049379000E+02 0.83005421790056E-01
 0.44501223456000E+01 0.31991743925964E+00
 0.15275799647000E+01 0.70715542916104E+00
 p    1 1.00
 0.52935117943000E+00 0.10000000000000E+01
 p    1 1.00
 0.17478421270000E+00 0.10000000000000E+01
 p    1 1.00
 0.51112745706000E-01 0.10000000000000E+01
 d    1 1.00
 0.23140000000000E+01 0.10000000000000E+01
 d    1 1.00
 0.64500000000000E+00 0.10000000000000E+01
 d    1 1.00
 0.14696477366000E+00 0.10000000000000E+01
 f    1 1.00
 0.14280000000000E+01 0.10000000000000E+01
 
   13 0
 s    6 1.00
 0.27032382631000E+05 0.57227335211155E-03
 0.40523871392000E+04 0.44353233492995E-02
 0.92232722710000E+03 0.23020107706038E-01
 0.26124070989000E+03 0.92822490667928E-01
 0.85354641351000E+02 0.29378500009671E+00
 0.31035035245000E+02 0.67401604501641E+00
 s    2 1.00
 0.12260860728000E+02 0.63839937025506E+00
 0.49987076005000E+01 0.39534587125718E+00
 s    1 1.00
 0.11703108158000E+01 0.10000000000000E+01
 s    1 1.00
 0.46474740994000E+00 0.10000000000000E+01
 s    1 1.00
 0.18504536357000E+00 0.10000000000000E+01
 s    1 1.00
 0.70288026270000E-01 0.10000000000000E+01
 p    4 1.00
 0.63274954801000E+02 0.12018332222616E-01
 0.14627049379000E+02 0.83005421790056E-01
 0.44501223456000E+01 0.31991743925964E+00
 0.15275799647000E+01 0.70715542916104E+00
 p    1 1.00
 0.52935117943000E+00 0.10000000000000E+01
 p    1 1.00
 0.17478421270000E+00 0.10000000000000E+01
 p    1 1.00
 0.51112745706000E-01 0.10000000000000E+01
 d    1 1.00
 0.23140000000000E+01 0.10000000000000E+01
 d    1 1.00
 0.64500000000000E+00 0.10000000000000E+01
 d    1 1.00
 0.14696477366000E+00 0.10000000000000E+01
 f    1 1.00
 0.14280000000000E+01 0.10000000000000E+01
 
   14 0
 s    6 1.00
 0.19730800647000E+05 0.58626402628763E-03
 0.29578958745000E+04 0.45428820586397E-02
 0.67322133595000E+03 0.23558413450084E-01
 0.19068249494000E+03 0.94709193292923E-01
 0.62295441898000E+02 0.29719784913376E+00
 0.22654161182000E+02 0.66916246895232E+00
 s    2 1.00
 0.89791477428000E+01 0.64596683630063E+00
 0.36863002370000E+01 0.38700574393705E+00
 s    1 1.00
 0.84660076805000E+00 0.10000000000000E+01
 s    1 1.00
 0.33647133771000E+00 0.10000000000000E+01
 s    1 1.00
 0.13647653675000E+00 0.10000000000000E+01
 s    1 1.00
 0.68441605847000E-01 0.10000000000000E+01
 p    4 1.00
 0.49200380510000E+02 0.11448825101764E-01
 0.11346790537000E+02 0.78422337970864E-01
 0.34273972411000E+01 0.30818094738830E+00
 0.11785525134000E+01 0.72027196368413E+00
 p    1 1.00
 0.41642204972000E+00 0.10000000000000E+01
 p    1 1.00
 0.14260826011000E+00 0.10000000000000E+01
 d    1 1.00
 0.16540000000000E+01 0.10000000000000E+01
 d    1 1.00
 0.46900000000000E+00 0.10000000000000E+01
 d    1 1.00
 0.12829642058000E+00 0.10000000000000E+01
 f    1 1.00
 0.10930000000000E+01 0.10000000000000E+01
 
   15 0
 s    3 1.00
 0.34061341000000E+02 0.25439307208879E-01
 0.51235746000000E+01 0.19008594890375E+00
 0.11646626000000E+01 0.85244113011042E+00
 s    1 1.00
 0.32723041000000E+00 0.10000000000000E+01
 s    1 1.00
 0.10307241000000E+00 0.10000000000000E+01
 p    1 1.00
 0.80000000000000E+00 0.10000000000000E+01
 p    1 1.00
 0.95774129632000E-01 0.10000000000000E+01
 
   16 0
 s    3 1.00
 0.34061341000000E+02 0.25439307208879E-01
 0.51235746000000E+01 0.19008594890375E+00
 0.11646626000000E+01 0.85244113011042E+00
 s    1 1.00
 0.32723041000000E+00 0.10000000000000E+01
 s    1 1.00
 0.10307241000000E+00 0.10000000000000E+01
 p    1 1.00
 0.80000000000000E+00 0.10000000000000E+01
 p    1 1.00
 0.95774129632000E-01 0.10000000000000E+01
 
[MO]
 Sym= X
 Ene= -0.899777
 Spin= Alpha
 Occup= -0.899777
         1   -1.022873E-03
         2   -2.360529E-03
         3   -3.399960E-04
         4    3.437839E-02
         5    2.653018E-01
         6   -3.601584E-02
         7    1.845492E-02
         8   -3.708864E-02
         9    9.024964E-05
        10    4.289336E-04
        11   -3.277001E-02
        12    8.691125E-05
        13    1.852402E-02
        14   -8.339486E-02
        15    2.084129E-04
        16   -1.889505E-03
        17    2.104992E-03
        18   -2.154867E-04
        19   -6.718165E-06
        20    3.908872E-06
        21   -4.105771E-06
        22    3.097443E-03
        23   -1.402848E-04
        24   -2.957158E-03
        25   -2.239525E-04
        26    1.447824E-05
        27   -1.449704E-05
        28    1.317247E-03
        29   -5.852346E-04
        30   -7.320119E-04
        31    1.236487E-02
        32   -4.194320E-05
        33    9.033471E-05
        34   -1.567040E-04
        35   -4.256488E-04
        36   -7.624653E-07
        37    1.578661E-04
        38    4.792142E-04
        39   -1.500605E-07
        40    5.237444E-05
        41    9.185357E-05
        42    1.173015E-06
        43    5.902545E-07
        44    1.434119E-02
        45    3.242183E-02
        46   -4.808624E-02
        47   -8.542885E-02
        48   -2.110616E-01
        49    2.813582E-02
        50   -1.352834E-01
        51   -1.307462E-06
        52   -2.553842E-05
        53   -1.045614E-01
        54   -2.776726E-06
        55    3.446402E-05
        56    7.550066E-02
        57    1.801679E-05
        58    5.999784E-04
        59   -4.782399E-03
        60    4.110664E-03
        61    6.717354E-04
        62    4.738793E-08
        63   -1.872254E-05
        64    5.550556E-08
        65   -1.152689E-03
        66    1.094493E-03
        67    5.819562E-05
        68    8.043505E-07
        69   -2.110862E-06
        70    1.455050E-07
        71    4.580227E-02
        72   -4.657470E-02
        73    7.724297E-04
        74   -2.426595E-06
        75    1.270309E-04
        76   -3.890018E-06
        77   -1.018712E-03
        78   -3.801535E-08
        79    1.096951E-06
        80    8.133198E-04
        81    3.324960E-08
        82   -4.896648E-06
        83    5.534256E-04
        84    1.775335E-08
        85    3.424934E-06
        86   -1.893462E-08
        87   -1.023429E-03
        88   -2.361799E-03
        89   -3.369792E-04
        90    3.437590E-02
        91    2.654123E-01
        92   -3.602792E-02
        93    1.845836E-02
        94    3.708816E-02
        95    8.697755E-05
        96    4.323006E-04
        97    3.276768E-02
        98    8.390892E-05
        99    1.849167E-02
       100    8.339056E-02
       101    2.120977E-04
       102   -1.889615E-03
       103    2.105135E-03
       104   -2.155193E-04
       105    6.697155E-06
       106    4.011732E-06
       107    4.101432E-06
       108    3.096668E-03
       109   -1.402755E-04
       110   -2.956392E-03
       111    2.236686E-04
       112    1.463428E-05
       113    1.443638E-05
       114    1.321507E-03
       115   -5.905885E-04
       116   -7.309190E-04
       117   -1.237716E-02
       118   -5.075614E-05
       119   -9.488136E-05
       120   -1.566785E-04
       121    4.256597E-04
       122   -7.622417E-07
       123    1.578411E-04
       124   -4.792246E-04
       125   -1.602597E-07
       126    5.236511E-05
       127   -9.185786E-05
       128    1.182914E-06
       129   -5.814611E-07
       130    1.816826E-03
       131    4.131840E-03
       132   -3.418288E-03
       133   -3.402382E-02
       134   -1.270097E-01
       135    3.174461E-02
       136   -1.963585E-02
       137   -7.288339E-03
       138   -1.719029E-04
       139   -3.265601E-02
       140   -6.418075E-03
       141   -2.071784E-04
       142   -3.576156E-02
       143   -5.099579E-02
       144   -3.066336E-04
       145   -5.459487E-04
       146    4.400787E-04
       147    1.058699E-04
       148    1.350882E-03
       149    2.353141E-06
       150    2.285244E-07
       151   -3.849880E-03
       152    1.669110E-03
       153    2.180770E-03
       154    2.115294E-03
       155   -1.538361E-05
       156   -1.271940E-05
       157   -4.259220E-03
       158    4.489158E-03
       159   -2.299376E-04
       160   -2.017260E-02
       161   -1.433193E-04
       162    1.111769E-05
       163   -2.493260E-04
       164   -2.303058E-04
       165    1.497415E-06
       166    1.698491E-04
       167    3.130082E-04
       168   -9.544582E-07
       169    1.646568E-04
       170   -4.020584E-06
       171   -1.054535E-06
       172    5.945746E-07
       173    1.849939E-03
       174    4.252346E-03
       175   -8.826375E-03
       176    1.098740E-04
       177   -2.398999E-02
       178   -3.318400E-02
       179   -6.082191E-03
       180   -6.980627E-07
       181   -1.144211E-04
       182   -3.194957E-03
       183   -2.634307E-07
       184   -1.847335E-04
       185    3.304664E-02
       186   -2.749041E-05
       187   -6.408093E-04
       188   -2.456664E-04
       189    2.444329E-04
       190    1.233469E-06
       191    1.894774E-09
       192   -1.038448E-05
       193    7.574829E-08
       194    5.832735E-04
       195    3.389748E-04
       196   -9.222484E-04
       197    5.879314E-08
       198    1.166666E-05
       199    1.867110E-07
       200   -1.563115E-02
       201    1.628683E-02
       202   -6.556750E-04
       203   -1.779283E-07
       204    2.819209E-04
       205    5.428355E-06
       206    2.629203E-05
       207   -1.165102E-08
       208    9.792974E-07
       209   -3.724620E-05
       210    1.189964E-08
       211   -4.743304E-07
       212    1.971734E-06
       213    3.731843E-09
       214   -8.395349E-07
       215    1.048001E-08
       216    1.816555E-03
       217    4.131225E-03
       218   -3.416882E-03
       219   -3.402706E-02
       220   -1.268947E-01
       221    3.173985E-02
       222   -1.963368E-02
       223    7.288612E-03
       224   -1.679115E-04
       225   -3.265609E-02
       226    6.418440E-03
       227   -2.029705E-04
       228   -3.574785E-02
       229    5.096760E-02
       230   -3.022235E-04
       231   -5.459244E-04
       232    4.400513E-04
       233    1.058731E-04
       234   -1.350921E-03
       235    2.414538E-06
       236   -2.350811E-07
       237   -3.850069E-03
       238    1.669064E-03
       239    2.181005E-03
       240   -2.115360E-03
       241   -1.499456E-05
       242    1.268973E-05
       243   -4.251015E-03
       244    4.481909E-03
       245   -2.308940E-04
       246    2.017807E-02
       247   -1.339820E-04
       248   -6.920218E-06
       249   -2.493338E-04
       250    2.303061E-04
       251    1.466425E-06
       252    1.698517E-04
       253   -3.130056E-04
       254   -9.168563E-07
       255    1.646647E-04
       256    4.017523E-06
       257   -1.050559E-06
       258   -5.912800E-07
       259   -3.219067E-03
       260   -3.986321E-03
       261   -1.360172E-02
       262    1.980909E-03
       263    5.251585E-04
       264    8.003723E-06
       265    6.658655E-03
       266    4.417889E-04
       267   -3.621251E-05
       268   -3.217671E-03
       269   -3.982708E-03
       270   -1.362556E-02
       271    1.980636E-03
       272   -5.248322E-04
       273    7.891932E-06
       274    6.644673E-03
       275   -4.509956E-04
       276   -3.675492E-05
       277    9.282178E-03
       278    1.549394E-02
       279    1.889979E-02
       280   -1.366525E-04
       281    1.380037E-03
       282    2.662192E-06
       283   -7.364265E-03
       284    2.620323E-03
       285   -7.293980E-06
       286    9.282085E-03
       287    1.549389E-02
       288    1.891547E-02
       289   -1.365314E-04
       290   -1.379987E-03
       291    2.620994E-06
       292   -7.362073E-03
       293   -2.617586E-03
       294   -7.064846E-06
       295    1.454209E-03
       296    3.277043E-03
       297   -5.249418E-04
       298   -2.841044E-02
       299   -1.538996E-01
       300    1.871150E-02
       301    1.048195E-01
       302   -3.130551E-06
       303    2.652999E-04
       304    9.821002E-02
       305   -1.828126E-06
       306    2.539704E-04
       307    9.799366E-02
       308   -7.606591E-06
       309    2.026191E-04
       310   -1.182809E-02
       311    1.309973E-02
       312   -1.271638E-03
       313   -5.188461E-07
       314   -3.840022E-05
       315   -2.014229E-07
       316   -3.360226E-02
       317    3.485388E-02
       318   -1.251620E-03
       319   -7.999521E-07
       320   -1.160677E-04
       321   -5.349730E-07
       322    1.305818E-02
       323   -2.642939E-03
       324   -1.041524E-02
       325    9.146735E-06
       326    8.028469E-05
       327    9.979519E-07
       328   -3.169351E-05
       329    1.174368E-07
       330   -1.198227E-06
       331    2.735220E-04
       332   -1.506412E-07
       333    1.734026E-06
       334   -2.310007E-04
       335   -6.916747E-09
       336   -1.264362E-07
       337   -2.217655E-08
       338   -4.985413E-04
       339   -1.320845E-03
       340    1.186512E-03
       341   -1.057378E-02
       342   -6.913353E-03
       343   -1.814962E-02
       344   -3.112870E-01
       345   -5.948557E-02
       346   -9.412873E-04
       347   -2.739725E-01
       348   -5.755755E-02
       349   -8.340136E-04
       350   -2.028556E-01
       351   -4.874880E-02
       352   -6.024119E-04
       353   -1.600311E-02
       354   -8.684152E-03
       355   -4.660439E-05
       356    1.007330E-03
       357   -2.248172E-04
       358   -7.825127E-04
       359   -2.654526E-03
       360    5.632786E-06
       361   -8.368484E-06
       362    4.131188E-03
       363   -1.853689E-03
       364   -2.277499E-03
       365   -6.023705E-03
       366    1.925807E-05
       367   -1.974339E-05
       368    5.345011E-03
       369   -3.994752E-03
       370   -1.350259E-03
       371   -5.699628E-03
       372    7.770754E-06
       373   -1.814415E-05
       374    3.014879E-04
       375   -5.298160E-04
       376    1.486954E-06
       377   -6.263361E-04
       378    9.711451E-04
       379    2.152530E-08
       380    2.218476E-04
       381   -2.603223E-04
       382   -2.016483E-06
       383    4.164853E-06
       384   -4.988622E-04
       385   -1.321614E-03
       386    1.187841E-03
       387   -1.057213E-02
       388   -6.920372E-03
       389   -1.816429E-02
       390   -3.113133E-01
       391    5.951153E-02
       392   -9.462735E-04
       393   -2.739951E-01
       394    5.758091E-02
       395   -8.386986E-04
       396   -2.028888E-01
       397    4.876795E-02
       398   -6.061784E-04
       399   -1.600466E-02
       400    8.686845E-03
       401   -4.818606E-05
       402    1.007520E-03
       403   -2.251202E-04
       404   -7.823999E-04
       405    2.654471E-03
       406    5.635290E-06
       407    8.372783E-06
       408    4.131996E-03
       409   -1.854761E-03
       410   -2.277234E-03
       411    6.023742E-03
       412    1.930625E-05
       413    1.980627E-05
       414    5.346401E-03
       415   -3.996801E-03
       416   -1.349600E-03
       417    5.704159E-03
       418    1.012112E-05
       419    1.645865E-05
       420    3.014320E-04
       421    5.299095E-04
       422    1.470308E-06
       423   -6.262666E-04
       424   -9.712285E-04
       425    6.603805E-08
       426    2.218531E-04
       427    2.602803E-04
       428   -2.038663E-06
       429   -4.160337E-06
       430    3.608515E-04
       431    8.506624E-04
       432   -9.963452E-04
       433   -5.423922E-03
       434    2.242120E-02
       435    2.090281E-02
       436    3.255939E-04
       437    1.957718E-07
       438    1.468806E-04
       439   -8.064483E-04
       440    8.242258E-08
       441    1.341420E-04
       442    1.353707E-03
       443    1.721363E-06
       444    4.550611E-04
       445   -3.012350E-05
       446    2.323387E-05
       447    6.889627E-06
       448   -1.712890E-08
       449    4.526532E-06
       450    5.782346E-09
       451   -1.608178E-04
       452    2.777944E-04
       453   -1.169766E-04
       454   -6.696284E-09
       455   -1.464957E-05
       456    1.127997E-09
       457   -8.355249E-04
       458    1.759010E-04
       459    6.596240E-04
       460    3.437222E-07
       461    1.558245E-04
       462   -2.522415E-07
       463   -2.789010E-06
       464    1.751752E-09
       465   -3.521997E-06
       466    1.347850E-05
       467   -3.155367E-09
       468    3.536443E-08
       469   -9.736653E-06
       470    8.051450E-10
       471    4.689890E-06
       472    1.679904E-09
       473   -7.303624E-05
       474   -5.128222E-04
       475    2.966602E-03
       476   -1.669312E-05
       477   -1.686206E-04
       478    4.099664E-05
       479    1.814541E-03
       480    1.089647E-03
       481    3.705988E-04
       482   -7.278911E-05
       483   -5.122648E-04
       484    2.965796E-03
       485   -1.666628E-05
       486    1.685602E-04
       487    4.101792E-05
       488    1.813864E-03
       489   -1.089484E-03
       490    3.711087E-04
 Sym= X
 Ene= 0.899777
 Spin= Alpha
 Occup= 0.899777
         1    1.940645E-05
         2    4.719894E-05
         3   -2.376701E-04
         4    8.941573E-04
         5    2.083459E-02
         6    1.528988E-03
         7    2.856361E-04
         8    6.976147E-05
         9   -9.997300E-02
        10   -8.412285E-05
        11    5.773237E-05
        12   -1.000235E-01
        13   -2.594080E-02
        14    2.327978E-02
        15   -5.838922E-02
        16   -4.953826E-06
        17    1.925388E-06
        18    3.028437E-06
        19   -7.422452E-06
        20    1.457662E-04
        21    1.696108E-04
        22    2.014317E-04
        23   -7.670792E-05
        24   -1.247238E-04
        25    8.029183E-05
        26   -3.956248E-03
        27   -1.314256E-03
        28    7.792588E-03
        29   -8.451864E-03
        30    6.592759E-04
        31   -4.962385E-04
        32   -2.645073E-03
        33   -1.692160E-02
        34   -7.481554E-06
        35    1.317803E-06
        36    1.593389E-04
        37    7.251041E-06
        38    1.342738E-06
        39    9.338496E-05
        40    2.786517E-06
        41   -3.110757E-06
        42   -3.071606E-04
        43   -9.813017E-05
        44   -2.352177E-07
        45   -4.100511E-06
        46    1.037602E-04
        47   -1.708340E-03
        48    8.609455E-02
        49    5.489867E-03
        50   -3.948422E-05
        51    1.284393E-09
        52    2.264558E-02
        53    2.152234E-04
        54    6.498323E-06
        55    1.973113E-02
        56   -2.771578E-02
        57    1.633860E-04
        58   -5.297795E-02
        59   -4.331020E-05
        60   -3.446577E-06
        61    4.675677E-05
        62    1.027526E-07