[Molden Format]
[Title]
ADC(2) - opt by CAM-B3LYP gaussian                                              
[Atoms] AU
 c     1    6 0.12593230616935E+01 0.22795690751954E+01 -.36278607975490E-01
 c     2    6 0.25504236399298E+01 0.18897261300000E-05 -.34511714041240E-01
 c     3    6 0.12593268411458E+01 -.22795652957431E+01 -.36289946332290E-01
 c     4    6 -.13369660030996E+01 -.22791608943507E+01 -.39583738981910E-01
 c     5    6 -.26856068523561E+01 -.18897261300000E-05 -.40110972572980E-01
 c     6    6 -.13369678928258E+01 0.22791590046246E+01 -.39570510898980E-01
 h     7    1 0.23068095955089E+01 0.40296066523382E+01 -.33243707806080E-01
 h     8    1 0.23068152646873E+01 -.40296028728859E+01 -.33262605067400E-01
 h     9    1 -.23553205188504E+01 -.40525668248527E+01 -.45200005048840E-01
 h    10    1 -.23553280777549E+01 0.40525630454004E+01 -.45173548882980E-01
 n    11    7 0.52878147756133E+01 0.00000000000000E+00 -.27472484196240E-01
 o    12    8 0.63764576548767E+01 -.20283488830896E+01 -.24482937454020E-01
 o    13    8 0.63764614343290E+01 0.20283469933635E+01 -.24515062798280E-01
 n    14    7 -.52636676188715E+01 0.00000000000000E+00 -.10786332361533E+00
 h    15    1 -.61947904866021E+01 -.16076731691957E+01 0.28377485852069E+00
 h    16    1 -.61947848174237E+01 0.16076731691957E+01 0.28378430715135E+00
[GTO]
    1 0
 s    6 1.00
 0.13575349682000E+05 0.60645503603591E-03
 0.20352333680000E+04 0.46979088884982E-02
 0.46322562359000E+03 0.24332477647552E-01
 0.13120019598000E+03 0.97399968307759E-01
 0.42853015891000E+02 0.30195584253780E+00
 0.15584185766000E+02 0.66233609137875E+00
 s    2 1.00
 0.62067138508000E+01 0.65595308539952E+00
 0.25764896527000E+01 0.37585633285142E+00
 s    1 1.00
 0.57696339419000E+00 0.10000000000000E+01
 s    1 1.00
 0.22972831358000E+00 0.10000000000000E+01
 s    1 1.00
 0.95164440028000E-01 0.10000000000000E+01
 s    1 1.00
 0.48475401370000E-01 0.10000000000000E+01
 p    4 1.00
 0.34697232244000E+02 0.11327220003114E-01
 0.79582622826000E+01 0.76169659202087E-01
 0.23780826883000E+01 0.30192252202676E+00
 0.81433208183000E+00 0.72785027349547E+00
 p    1 1.00
 0.28887547253000E+00 0.10000000000000E+01
 p    1 1.00
 0.10056823671000E+00 0.10000000000000E+01
 d    1 1.00
 0.10970000000000E+01 0.10000000000000E+01
 d    1 1.00
 0.31800000000000E+00 0.10000000000000E+01
 d    1 1.00
 0.90985336424000E-01 0.10000000000000E+01
 f    1 1.00
 0.76100000000000E+00 0.10000000000000E+01
 
    2 0
 s    6 1.00
 0.13575349682000E+05 0.60645503603591E-03
 0.20352333680000E+04 0.46979088884982E-02
 0.46322562359000E+03 0.24332477647552E-01
 0.13120019598000E+03 0.97399968307759E-01
 0.42853015891000E+02 0.30195584253780E+00
 0.15584185766000E+02 0.66233609137875E+00
 s    2 1.00
 0.62067138508000E+01 0.65595308539952E+00
 0.25764896527000E+01 0.37585633285142E+00
 s    1 1.00
 0.57696339419000E+00 0.10000000000000E+01
 s    1 1.00
 0.22972831358000E+00 0.10000000000000E+01
 s    1 1.00
 0.95164440028000E-01 0.10000000000000E+01
 s    1 1.00
 0.48475401370000E-01 0.10000000000000E+01
 p    4 1.00
 0.34697232244000E+02 0.11327220003114E-01
 0.79582622826000E+01 0.76169659202087E-01
 0.23780826883000E+01 0.30192252202676E+00
 0.81433208183000E+00 0.72785027349547E+00
 p    1 1.00
 0.28887547253000E+00 0.10000000000000E+01
 p    1 1.00
 0.10056823671000E+00 0.10000000000000E+01
 d    1 1.00
 0.10970000000000E+01 0.10000000000000E+01
 d    1 1.00
 0.31800000000000E+00 0.10000000000000E+01
 d    1 1.00
 0.90985336424000E-01 0.10000000000000E+01
 f    1 1.00
 0.76100000000000E+00 0.10000000000000E+01
 
    3 0
 s    6 1.00
 0.13575349682000E+05 0.60645503603591E-03
 0.20352333680000E+04 0.46979088884982E-02
 0.46322562359000E+03 0.24332477647552E-01
 0.13120019598000E+03 0.97399968307759E-01
 0.42853015891000E+02 0.30195584253780E+00
 0.15584185766000E+02 0.66233609137875E+00
 s    2 1.00
 0.62067138508000E+01 0.65595308539952E+00
 0.25764896527000E+01 0.37585633285142E+00
 s    1 1.00
 0.57696339419000E+00 0.10000000000000E+01
 s    1 1.00
 0.22972831358000E+00 0.10000000000000E+01
 s    1 1.00
 0.95164440028000E-01 0.10000000000000E+01
 s    1 1.00
 0.48475401370000E-01 0.10000000000000E+01
 p    4 1.00
 0.34697232244000E+02 0.11327220003114E-01
 0.79582622826000E+01 0.76169659202087E-01
 0.23780826883000E+01 0.30192252202676E+00
 0.81433208183000E+00 0.72785027349547E+00
 p    1 1.00
 0.28887547253000E+00 0.10000000000000E+01
 p    1 1.00
 0.10056823671000E+00 0.10000000000000E+01
 d    1 1.00
 0.10970000000000E+01 0.10000000000000E+01
 d    1 1.00
 0.31800000000000E+00 0.10000000000000E+01
 d    1 1.00
 0.90985336424000E-01 0.10000000000000E+01
 f    1 1.00
 0.76100000000000E+00 0.10000000000000E+01
 
    4 0
 s    6 1.00
 0.13575349682000E+05 0.60645503603591E-03
 0.20352333680000E+04 0.46979088884982E-02
 0.46322562359000E+03 0.24332477647552E-01
 0.13120019598000E+03 0.97399968307759E-01
 0.42853015891000E+02 0.30195584253780E+00
 0.15584185766000E+02 0.66233609137875E+00
 s    2 1.00
 0.62067138508000E+01 0.65595308539952E+00
 0.25764896527000E+01 0.37585633285142E+00
 s    1 1.00
 0.57696339419000E+00 0.10000000000000E+01
 s    1 1.00
 0.22972831358000E+00 0.10000000000000E+01
 s    1 1.00
 0.95164440028000E-01 0.10000000000000E+01
 s    1 1.00
 0.48475401370000E-01 0.10000000000000E+01
 p    4 1.00
 0.34697232244000E+02 0.11327220003114E-01
 0.79582622826000E+01 0.76169659202087E-01
 0.23780826883000E+01 0.30192252202676E+00
 0.81433208183000E+00 0.72785027349547E+00
 p    1 1.00
 0.28887547253000E+00 0.10000000000000E+01
 p    1 1.00
 0.10056823671000E+00 0.10000000000000E+01
 d    1 1.00
 0.10970000000000E+01 0.10000000000000E+01
 d    1 1.00
 0.31800000000000E+00 0.10000000000000E+01
 d    1 1.00
 0.90985336424000E-01 0.10000000000000E+01
 f    1 1.00
 0.76100000000000E+00 0.10000000000000E+01
 
    5 0
 s    6 1.00
 0.13575349682000E+05 0.60645503603591E-03
 0.20352333680000E+04 0.46979088884982E-02
 0.46322562359000E+03 0.24332477647552E-01
 0.13120019598000E+03 0.97399968307759E-01
 0.42853015891000E+02 0.30195584253780E+00
 0.15584185766000E+02 0.66233609137875E+00
 s    2 1.00
 0.62067138508000E+01 0.65595308539952E+00
 0.25764896527000E+01 0.37585633285142E+00
 s    1 1.00
 0.57696339419000E+00 0.10000000000000E+01
 s    1 1.00
 0.22972831358000E+00 0.10000000000000E+01
 s    1 1.00
 0.95164440028000E-01 0.10000000000000E+01
 s    1 1.00
 0.48475401370000E-01 0.10000000000000E+01
 p    4 1.00
 0.34697232244000E+02 0.11327220003114E-01
 0.79582622826000E+01 0.76169659202087E-01
 0.23780826883000E+01 0.30192252202676E+00
 0.81433208183000E+00 0.72785027349547E+00
 p    1 1.00
 0.28887547253000E+00 0.10000000000000E+01
 p    1 1.00
 0.10056823671000E+00 0.10000000000000E+01
 d    1 1.00
 0.10970000000000E+01 0.10000000000000E+01
 d    1 1.00
 0.31800000000000E+00 0.10000000000000E+01
 d    1 1.00
 0.90985336424000E-01 0.10000000000000E+01
 f    1 1.00
 0.76100000000000E+00 0.10000000000000E+01
 
    6 0
 s    6 1.00
 0.13575349682000E+05 0.60645503603591E-03
 0.20352333680000E+04 0.46979088884982E-02
 0.46322562359000E+03 0.24332477647552E-01
 0.13120019598000E+03 0.97399968307759E-01
 0.42853015891000E+02 0.30195584253780E+00
 0.15584185766000E+02 0.66233609137875E+00
 s    2 1.00
 0.62067138508000E+01 0.65595308539952E+00
 0.25764896527000E+01 0.37585633285142E+00
 s    1 1.00
 0.57696339419000E+00 0.10000000000000E+01
 s    1 1.00
 0.22972831358000E+00 0.10000000000000E+01
 s    1 1.00
 0.95164440028000E-01 0.10000000000000E+01
 s    1 1.00
 0.48475401370000E-01 0.10000000000000E+01
 p    4 1.00
 0.34697232244000E+02 0.11327220003114E-01
 0.79582622826000E+01 0.76169659202087E-01
 0.23780826883000E+01 0.30192252202676E+00
 0.81433208183000E+00 0.72785027349547E+00
 p    1 1.00
 0.28887547253000E+00 0.10000000000000E+01
 p    1 1.00
 0.10056823671000E+00 0.10000000000000E+01
 d    1 1.00
 0.10970000000000E+01 0.10000000000000E+01
 d    1 1.00
 0.31800000000000E+00 0.10000000000000E+01
 d    1 1.00
 0.90985336424000E-01 0.10000000000000E+01
 f    1 1.00
 0.76100000000000E+00 0.10000000000000E+01
 
    7 0
 s    3 1.00
 0.34061341000000E+02 0.25439307208879E-01
 0.51235746000000E+01 0.19008594890375E+00
 0.11646626000000E+01 0.85244113011042E+00
 s    1 1.00
 0.32723041000000E+00 0.10000000000000E+01
 s    1 1.00
 0.10307241000000E+00 0.10000000000000E+01
 p    1 1.00
 0.80000000000000E+00 0.10000000000000E+01
 p    1 1.00
 0.95774129632000E-01 0.10000000000000E+01
 
    8 0
 s    3 1.00
 0.34061341000000E+02 0.25439307208879E-01
 0.51235746000000E+01 0.19008594890375E+00
 0.11646626000000E+01 0.85244113011042E+00
 s    1 1.00
 0.32723041000000E+00 0.10000000000000E+01
 s    1 1.00
 0.10307241000000E+00 0.10000000000000E+01
 p    1 1.00
 0.80000000000000E+00 0.10000000000000E+01
 p    1 1.00
 0.95774129632000E-01 0.10000000000000E+01
 
    9 0
 s    3 1.00
 0.34061341000000E+02 0.25439307208879E-01
 0.51235746000000E+01 0.19008594890375E+00
 0.11646626000000E+01 0.85244113011042E+00
 s    1 1.00
 0.32723041000000E+00 0.10000000000000E+01
 s    1 1.00
 0.10307241000000E+00 0.10000000000000E+01
 p    1 1.00
 0.80000000000000E+00 0.10000000000000E+01
 p    1 1.00
 0.95774129632000E-01 0.10000000000000E+01
 
   10 0
 s    3 1.00
 0.34061341000000E+02 0.25439307208879E-01
 0.51235746000000E+01 0.19008594890375E+00
 0.11646626000000E+01 0.85244113011042E+00
 s    1 1.00
 0.32723041000000E+00 0.10000000000000E+01
 s    1 1.00
 0.10307241000000E+00 0.10000000000000E+01
 p    1 1.00
 0.80000000000000E+00 0.10000000000000E+01
 p    1 1.00
 0.95774129632000E-01 0.10000000000000E+01
 
   11 0
 s    6 1.00
 0.19730800647000E+05 0.58626402628763E-03
 0.29578958745000E+04 0.45428820586397E-02
 0.67322133595000E+03 0.23558413450084E-01
 0.19068249494000E+03 0.94709193292923E-01
 0.62295441898000E+02 0.29719784913376E+00
 0.22654161182000E+02 0.66916246895232E+00
 s    2 1.00
 0.89791477428000E+01 0.64596683630063E+00
 0.36863002370000E+01 0.38700574393705E+00
 s    1 1.00
 0.84660076805000E+00 0.10000000000000E+01
 s    1 1.00
 0.33647133771000E+00 0.10000000000000E+01
 s    1 1.00
 0.13647653675000E+00 0.10000000000000E+01
 s    1 1.00
 0.68441605847000E-01 0.10000000000000E+01
 p    4 1.00
 0.49200380510000E+02 0.11448825101764E-01
 0.11346790537000E+02 0.78422337970864E-01
 0.34273972411000E+01 0.30818094738830E+00
 0.11785525134000E+01 0.72027196368413E+00
 p    1 1.00
 0.41642204972000E+00 0.10000000000000E+01
 p    1 1.00
 0.14260826011000E+00 0.10000000000000E+01
 d    1 1.00
 0.16540000000000E+01 0.10000000000000E+01
 d    1 1.00
 0.46900000000000E+00 0.10000000000000E+01
 d    1 1.00
 0.12829642058000E+00 0.10000000000000E+01
 f    1 1.00
 0.10930000000000E+01 0.10000000000000E+01
 
   12 0
 s    6 1.00
 0.27032382631000E+05 0.57227335211155E-03
 0.40523871392000E+04 0.44353233492995E-02
 0.92232722710000E+03 0.23020107706038E-01
 0.26124070989000E+03 0.92822490667928E-01
 0.85354641351000E+02 0.29378500009671E+00
 0.31035035245000E+02 0.67401604501641E+00
 s    2 1.00
 0.12260860728000E+02 0.63839937025506E+00
 0.49987076005000E+01 0.39534587125718E+00
 s    1 1.00
 0.11703108158000E+01 0.10000000000000E+01
 s    1 1.00
 0.46474740994000E+00 0.10000000000000E+01
 s    1 1.00
 0.18504536357000E+00 0.10000000000000E+01
 s    1 1.00
 0.70288026270000E-01 0.10000000000000E+01
 p    4 1.00
 0.63274954801000E+02 0.12018332222616E-01
 0.14627049379000E+02 0.83005421790056E-01
 0.44501223456000E+01 0.31991743925964E+00
 0.15275799647000E+01 0.70715542916104E+00
 p    1 1.00
 0.52935117943000E+00 0.10000000000000E+01
 p    1 1.00
 0.17478421270000E+00 0.10000000000000E+01
 p    1 1.00
 0.51112745706000E-01 0.10000000000000E+01
 d    1 1.00
 0.23140000000000E+01 0.10000000000000E+01
 d    1 1.00
 0.64500000000000E+00 0.10000000000000E+01
 d    1 1.00
 0.14696477366000E+00 0.10000000000000E+01
 f    1 1.00
 0.14280000000000E+01 0.10000000000000E+01
 
   13 0
 s    6 1.00
 0.27032382631000E+05 0.57227335211155E-03
 0.40523871392000E+04 0.44353233492995E-02
 0.92232722710000E+03 0.23020107706038E-01
 0.26124070989000E+03 0.92822490667928E-01
 0.85354641351000E+02 0.29378500009671E+00
 0.31035035245000E+02 0.67401604501641E+00
 s    2 1.00
 0.12260860728000E+02 0.63839937025506E+00
 0.49987076005000E+01 0.39534587125718E+00
 s    1 1.00
 0.11703108158000E+01 0.10000000000000E+01
 s    1 1.00
 0.46474740994000E+00 0.10000000000000E+01
 s    1 1.00
 0.18504536357000E+00 0.10000000000000E+01
 s    1 1.00
 0.70288026270000E-01 0.10000000000000E+01
 p    4 1.00
 0.63274954801000E+02 0.12018332222616E-01
 0.14627049379000E+02 0.83005421790056E-01
 0.44501223456000E+01 0.31991743925964E+00
 0.15275799647000E+01 0.70715542916104E+00
 p    1 1.00
 0.52935117943000E+00 0.10000000000000E+01
 p    1 1.00
 0.17478421270000E+00 0.10000000000000E+01
 p    1 1.00
 0.51112745706000E-01 0.10000000000000E+01
 d    1 1.00
 0.23140000000000E+01 0.10000000000000E+01
 d    1 1.00
 0.64500000000000E+00 0.10000000000000E+01
 d    1 1.00
 0.14696477366000E+00 0.10000000000000E+01
 f    1 1.00
 0.14280000000000E+01 0.10000000000000E+01
 
   14 0
 s    6 1.00
 0.19730800647000E+05 0.58626402628763E-03
 0.29578958745000E+04 0.45428820586397E-02
 0.67322133595000E+03 0.23558413450084E-01
 0.19068249494000E+03 0.94709193292923E-01
 0.62295441898000E+02 0.29719784913376E+00
 0.22654161182000E+02 0.66916246895232E+00
 s    2 1.00
 0.89791477428000E+01 0.64596683630063E+00
 0.36863002370000E+01 0.38700574393705E+00
 s    1 1.00
 0.84660076805000E+00 0.10000000000000E+01
 s    1 1.00
 0.33647133771000E+00 0.10000000000000E+01
 s    1 1.00
 0.13647653675000E+00 0.10000000000000E+01
 s    1 1.00
 0.68441605847000E-01 0.10000000000000E+01
 p    4 1.00
 0.49200380510000E+02 0.11448825101764E-01
 0.11346790537000E+02 0.78422337970864E-01
 0.34273972411000E+01 0.30818094738830E+00
 0.11785525134000E+01 0.72027196368413E+00
 p    1 1.00
 0.41642204972000E+00 0.10000000000000E+01
 p    1 1.00
 0.14260826011000E+00 0.10000000000000E+01
 d    1 1.00
 0.16540000000000E+01 0.10000000000000E+01
 d    1 1.00
 0.46900000000000E+00 0.10000000000000E+01
 d    1 1.00
 0.12829642058000E+00 0.10000000000000E+01
 f    1 1.00
 0.10930000000000E+01 0.10000000000000E+01
 
   15 0
 s    3 1.00
 0.34061341000000E+02 0.25439307208879E-01
 0.51235746000000E+01 0.19008594890375E+00
 0.11646626000000E+01 0.85244113011042E+00
 s    1 1.00
 0.32723041000000E+00 0.10000000000000E+01
 s    1 1.00
 0.10307241000000E+00 0.10000000000000E+01
 p    1 1.00
 0.80000000000000E+00 0.10000000000000E+01
 p    1 1.00
 0.95774129632000E-01 0.10000000000000E+01
 
   16 0
 s    3 1.00
 0.34061341000000E+02 0.25439307208879E-01
 0.51235746000000E+01 0.19008594890375E+00
 0.11646626000000E+01 0.85244113011042E+00
 s    1 1.00
 0.32723041000000E+00 0.10000000000000E+01
 s    1 1.00
 0.10307241000000E+00 0.10000000000000E+01
 p    1 1.00
 0.80000000000000E+00 0.10000000000000E+01
 p    1 1.00
 0.95774129632000E-01 0.10000000000000E+01
 
[MO]
 Sym= X
 Ene= -0.854523
 Spin= Alpha
 Occup= -0.854523
         1    2.196705E-04
         2    5.113555E-04
         3   -1.583536E-03
         4    4.490655E-03
         5   -2.813958E-02
         6    1.545197E-02
         7    2.287218E-03
         8    2.449884E-04
         9   -4.801496E-02
        10   -3.664529E-03
        11    6.589802E-04
        12   -4.593748E-02
        13   -3.985308E-02
        14    1.843714E-02
        15   -2.020993E-02
        16   -1.714761E-06
        17    2.094177E-05
        18   -1.922701E-05
        19    1.131342E-05
        20   -6.101232E-03
        21    4.291951E-03
        22    9.394852E-04
        23   -5.510641E-04
        24   -3.884211E-04
        25    9.603681E-04
        26   -1.392897E-02
        27    7.954617E-03
        28    4.037178E-03
        29   -3.724758E-03
        30   -3.124194E-04
        31   -1.959951E-03
        32    2.819263E-03
        33   -9.690954E-03
        34   -3.002018E-05
        35    7.490969E-06
        36    2.590077E-04
        37    1.467682E-05
        38   -5.738470E-06
        39    6.164109E-04
        40    2.559948E-05
        41   -4.311720E-06
        42   -9.639062E-04
        43    7.241454E-04
        44   -3.456130E-05
        45   -7.424269E-05
        46   -2.261049E-04
        47    4.347639E-03
        48    7.406822E-02
        49   -7.329278E-03
        50    3.595024E-04
        51    9.892894E-07
        52   -2.196295E-01
        53   -7.261267E-04
        54    9.795534E-06
        55   -2.270319E-01
        56   -1.789590E-02
        57   -2.771578E-04
        58   -2.000802E-01
        59   -6.393101E-05
        60    5.772526E-05
        61    6.205747E-06
        62   -4.068339E-08
        63    2.442911E-04
        64    3.234718E-07
        65   -5.163919E-04
        66    8.701883E-04
        67   -3.537964E-04
        68   -2.025861E-06
        69   -1.379683E-03
        70    2.278878E-07
        71   -1.664412E-02
        72    1.869897E-02
        73   -2.054850E-03
        74    5.558394E-05
        75    4.737830E-03
        76   -1.950148E-05
        77    9.630933E-06
        78    1.842947E-08
        79    1.266622E-03
        80   -9.245323E-06
        81    2.401940E-08
        82   -6.709651E-04
        83   -3.675930E-06
        84   -4.874512E-08
        85   -1.028387E-03
        86   -2.964414E-08
        87    2.196339E-04
        88    5.112503E-04
        89   -1.583421E-03
        90    4.492142E-03
        91   -2.878343E-02
        92    1.544722E-02
        93    2.289152E-03
        94   -2.463302E-04
        95   -4.803021E-02
        96   -3.643446E-03
        97   -6.548835E-04
        98   -4.595333E-02
        99   -3.999780E-02
       100   -1.867744E-02
       101   -2.023597E-02
       102   -1.825570E-06
       103    2.100893E-05
       104   -1.918336E-05
       105   -1.143359E-05
       106   -6.100968E-03
       107   -4.292067E-03
       108    9.353876E-04
       109   -5.469920E-04
       110   -3.883956E-04
       111   -9.587744E-04
       112   -1.392790E-02
       113   -7.954404E-03
       114    4.102689E-03
       115   -3.796342E-03
       116   -3.063472E-04
       117    1.898359E-03
       118    2.796837E-03
       119    9.677906E-03
       120   -3.003089E-05
       121   -7.459977E-06
       122    2.590937E-04
       123    1.475023E-05
       124    5.708660E-06
       125    6.163251E-04
       126    2.554044E-05
       127    4.299950E-06
       128   -9.639358E-04
       129   -7.241289E-04
       130   -1.258574E-04
       131   -2.697159E-04
       132   -7.720221E-04
       133    1.303997E-02
       134   -7.758605E-03
       135   -1.837766E-02
       136   -1.794405E-03
       137    8.294032E-04
       138    1.446486E-01
       139   -1.259043E-02
       140    8.279923E-03
       141    1.472655E-01
       142   -1.622168E-02
       143   -9.839613E-03
       144    9.288282E-02
       145   -1.785928E-04
       146    2.139130E-04
       147   -3.532018E-05
       148   -9.181042E-06
       149   -1.677548E-03
       150    3.177166E-03
       151   -9.838101E-04
       152    1.066610E-03
       153   -8.280035E-05
       154   -2.209842E-03
       155   -5.898908E-03
       156    5.276028E-03
       157   -9.695840E-03
       158    7.073921E-03
       159    2.621920E-03
       160    1.539423E-02
       161    4.106152E-03
       162   -1.053135E-02
       163   -2.508081E-05
       164    1.075408E-05
       165   -8.049283E-04
       166   -2.029744E-05
       167    2.545410E-05
       168    1.022840E-04
       169    5.394688E-05
       170   -3.988222E-05
       171    9.776406E-04
       172   -4.008207E-04
       173    1.344659E-03
       174    3.061098E-03
       175   -2.789803E-03
       176   -3.030576E-02
       177    5.756369E-02
       178   -1.036573E-02
       179    1.082928E-02
       180   -2.065055E-06
       181    1.301516E-01
       182    1.162861E-04
       183   -6.934568E-06
       184    1.331118E-01
       185   -5.417870E-02
       186    3.936687E-04
       187    1.361882E-01
       188   -6.198647E-04
       189    3.457934E-04
       190    2.740712E-04
       191   -1.753054E-07
       192    8.859479E-03
       193    3.993583E-07
       194    2.353596E-03
       195   -5.352990E-03
       196    2.999395E-03
       197   -1.318371E-06
       198    2.216013E-02
       199   -9.782540E-07
       200    1.099936E-02
       201   -1.224099E-02
       202    1.241635E-03
       203    9.213761E-05
       204    1.399997E-02
       205    1.616547E-05
       206    1.488798E-04
       207    1.904824E-10
       208   -4.416419E-04
       209   -1.111832E-04
       210   -2.814908E-08
       211   -8.772595E-04
       212   -8.855995E-05
       213    2.789352E-08
       214    1.469784E-03
       215   -3.852251E-09
       216   -1.261160E-04
       217   -2.702625E-04
       218   -7.707935E-04
       219    1.303951E-02
       220   -8.642422E-03
       221   -1.836358E-02
       222   -1.792894E-03
       223   -8.253227E-04
       224    1.446619E-01
       225   -1.259955E-02
       226   -8.280874E-03
       227    1.472827E-01
       228   -1.606894E-02
       229    1.022225E-02
       230    9.286727E-02
       231   -1.784991E-04
       232    2.140198E-04
       233   -3.552064E-05
       234    8.943844E-06
       235   -1.677254E-03
       236   -3.177229E-03
       237   -9.871499E-04
       238    1.069712E-03
       239   -8.256254E-05
       240    2.210982E-03
       241   -5.898072E-03
       242   -5.276454E-03
       243   -9.636725E-03
       244    7.015605E-03
       245    2.621121E-03
       246   -1.545847E-02
       247    4.131030E-03
       248    1.055081E-02
       249   -2.514509E-05
       250   -1.079101E-05
       251   -8.050947E-04
       252   -2.032853E-05
       253   -2.539888E-05
       254    1.024463E-04
       255    5.406420E-05
       256    3.987654E-05
       257    9.777016E-04
       258    4.008476E-04
       259    4.984659E-04
       260    1.942467E-04
       261    2.104953E-02
       262   -1.198632E-05
       263    1.428464E-05
       264   -1.857446E-03
       265   -6.657183E-03
       266   -9.540510E-04
       267    5.181239E-03
       268    4.998611E-04
       269    1.929841E-04
       270    2.105441E-02
       271   -1.170876E-05
       272   -1.457170E-05
       273   -1.858032E-03
       274   -6.721429E-03
       275    9.305800E-04
       276    5.182432E-03
       277    4.472784E-04
       278    3.040536E-03
       279   -4.780039E-02
       280   -3.201074E-05
       281    1.215355E-04
       282    5.977161E-03
       283   -7.750024E-04
       284   -4.276980E-03
       285    8.941537E-04
       286    4.496309E-04
       287    3.040462E-03
       288   -4.790209E-02
       289   -3.184435E-05
       290   -1.214652E-04
       291    5.977903E-03
       292   -7.435606E-04
       293    4.302605E-03
       294    8.902222E-04
       295    5.633938E-05
       296    1.309055E-04
       297   -1.268960E-04
       298   -2.839934E-04
       299    1.057070E-02
       300    6.975953E-04
       301    6.551589E-04
       302   -1.212275E-06
       303    2.450923E-03
       304    2.100096E-04
       305   -1.059938E-06
       306   -6.230547E-04
       307   -3.694010E-03
       308   -2.757678E-06
       309    4.695700E-04
       310   -3.293070E-05
       311    1.617859E-05
       312    1.675211E-05
       313   -2.257090E-07
       314    4.637914E-03
       315   -2.009986E-07
       316   -3.118307E-05
       317   -5.148663E-05
       318    8.266970E-05
       319   -5.690618E-07
       320    1.360225E-02
       321   -5.378968E-07
       322    6.384917E-04
       323   -3.628561E-03
       324    2.990069E-03
       325   -6.781117E-06
       326    3.330350E-03
       327    4.091111E-06
       328    9.051101E-06
       329    5.127990E-08
       330   -8.848850E-05
       331   -6.107121E-06
       332   -5.762926E-08
       333   -7.066900E-04
       334   -6.036206E-06
       335   -1.116995E-08
       336    8.254097E-04
       337   -3.361044E-08
       338    2.182246E-05
       339    4.819322E-05
       340   -9.399950E-06
       341   -7.413199E-04
       342    8.242622E-03
       343    1.647240E-03
       344   -4.595920E-04
       345    1.649630E-04
       346    8.584814E-02
       347   -5.881839E-04
       348    3.246233E-04
       349    7.936144E-02
       350   -1.671239E-03
       351    8.242569E-04
       352    5.967064E-02
       353   -3.603385E-04
       354    2.865488E-04
       355    6.409437E-03
       356   -3.661038E-06
       357    6.782461E-06
       358   -3.121423E-06
       359   -3.386489E-06
       360   -1.352115E-04
       361    7.466444E-04
       362    1.617171E-05
       363    1.463844E-05
       364   -3.081014E-05
       365   -1.844782E-05
       366   -9.684852E-04
       367    2.326333E-03
       368    8.516532E-05
       369   -1.202733E-05
       370   -7.313799E-05
       371    6.928066E-07
       372   -9.862077E-04
       373    5.297732E-04
       374    1.247865E-06
       375    2.298622E-06
       376   -1.083810E-04
       377   -2.212190E-06
       378   -8.685945E-08
       379   -9.469646E-05
       380    5.380029E-07
       381   -2.997065E-06
       382    2.401049E-04
       383   -1.965003E-04
       384    2.181060E-05
       385    4.817906E-05
       386   -9.455029E-06
       387   -7.405730E-04
       388    8.250530E-03
       389    1.634438E-03
       390   -4.688721E-04
       391   -1.535923E-04
       392    8.583712E-02
       393   -5.967480E-04
       394   -3.146834E-04
       395    7.935180E-02
       396   -1.672969E-03
       397   -8.210016E-04
       398    5.965587E-02
       399   -3.551906E-04
       400   -2.885212E-04
       401    6.408693E-03
       402   -3.558073E-06
       403    6.616784E-06
       404   -3.058711E-06
       405    3.370000E-06
       406   -1.351786E-04
       407   -7.465679E-04
       408    1.637067E-05
       409    1.428825E-05
       410   -3.065892E-05
       411    1.837621E-05
       412   -9.682211E-04
       413   -2.325873E-03
       414    8.595669E-05
       415   -1.291523E-05
       416   -7.304146E-05
       417    3.058729E-07
       418   -9.858429E-04
       419   -5.285068E-04
       420    1.233443E-06
       421   -2.253313E-06
       422   -1.083693E-04
       423   -2.179642E-06
       424    5.272736E-08
       425   -9.468360E-05
       426    5.248040E-07
       427    2.970409E-06
       428    2.400763E-04
       429    1.964677E-04
       430   -6.615977E-03
       431   -1.568721E-02
       432    2.428455E-02
       433    3.978871E-02
       434    1.543019E-02
       435    8.886637E-02
       436   -2.303200E-02
       437    4.701336E-06
       438   -2.289992E-01
       439   -2.624455E-02
       440    1.217371E-06
       441   -2.257912E-01
       442   -2.879589E-02
       443   -3.789926E-05
       444   -1.881662E-01
       445    1.765926E-04
       446    3.532271E-05
       447   -2.119153E-04
       448   -1.067773E-07
       449    1.159927E-03
       450    1.627895E-07
       451    4.237571E-04
       452    2.072250E-03
       453   -2.496007E-03
       454    1.326440E-06
       455    4.291218E-03
       456    7.771250E-07
       457    3.424193E-03
       458    5.031408E-03
       459   -8.455601E-03
       460    3.774020E-06
       461    2.507309E-03
       462    3.566159E-06
       463   -1.911406E-04
       464    2.889762E-08
       465    8.192671E-04
       466   -1.181471E-04
       467    6.447868E-09
       468   -3.652565E-04
       469    3.745892E-04
       470   -4.521810E-08
       471   -7.339057E-04
       472    3.944923E-09
       473   -1.260777E-02
       474   -2.454404E-02
       475   -4.710029E-02
       476   -2.868801E-03
       477   -2.468623E-03
       478   -1.155555E-02
       479    7.704726E-04
       480   -5.425692E-03
       481   -1.438596E-02
       482   -1.260465E-02
       483   -2.451455E-02
       484   -4.696521E-02
       485   -2.867074E-03
       486    2.466179E-03
       487   -1.155763E-02
       488    7.958327E-04
       489    5.411615E-03
       490   -1.439505E-02
 Sym= X
 Ene= 0.854523
 Spin= Alpha
 Occup= 0.854523
         1    5.053597E-05
         2    1.245313E-04
         3   -6.497281E-04
         4    2.164550E-03
         5    9.401021E-02
         6    8.609423E-04
         7    4.299783E-04
         8    8.294984E-05
         9   -1.407051E-01
        10   -1.974773E-04
        11   -1.011214E-04
        12   -1.443763E-01
        13   -6.066593E-02
        14    5.917548E-02
        15   -1.014864E-01
        16   -2.196013E-05
        17    2.839723E-06
        18    1.912040E-05
        19   -1.742422E-05
        20    2.239800E-03
        21   -1.951517E-03
        22    4.531624E-04
        23   -1.531873E-04
        24   -2.999751E-04
        25    6.036333E-05
        26    4.398050E-04
        27   -6.944898E-03
        28    2.485108E-02
        29   -2.711736E-02
        30    2.266283E-03
        31    9.976529E-04
        32    4.268574E-03
        33   -2.022080E-02
        34   -1.758961E-05
        35   -4.824095E-08
        36    1.214165E-04
        37    1.845295E-05
        38    5.585030E-06
        39   -8.629769E-05
        40    5.145985E-06
        41   -5.520308E-06
        42   -7.659958E-05
        43   -2.481621E-04
        44   -7.276345E-06
        45   -2.768297E-05
        46    4.755441E-04
        47   -6.472001E-03
        48    2.268678E-01
        49    2.490734E-02
        50   -1.754121E-04
        51   -2.938545E-07
        52    9.978895E-02
        53    6.520511E-04
        54    1.796125E-05
        55    1.079516E-01
        56   -8.858073E-02
        57   -1.884627E-04
        58    6.891401E-02
        59   -6.274979E-05
        60   -1.156145E-05
        61    7.431124E-05
        62    8.115963E-08