[Molden Format]
[Title]
ADC(2) - opt by CAM-B3LYP gaussian                                              
[Atoms] AU
 c     1    6 0.12593230616935E+01 0.22795690751954E+01 -.36278607975490E-01
 c     2    6 0.25504236399298E+01 0.18897261300000E-05 -.34511714041240E-01
 c     3    6 0.12593268411458E+01 -.22795652957431E+01 -.36289946332290E-01
 c     4    6 -.13369660030996E+01 -.22791608943507E+01 -.39583738981910E-01
 c     5    6 -.26856068523561E+01 -.18897261300000E-05 -.40110972572980E-01
 c     6    6 -.13369678928258E+01 0.22791590046246E+01 -.39570510898980E-01
 h     7    1 0.23068095955089E+01 0.40296066523382E+01 -.33243707806080E-01
 h     8    1 0.23068152646873E+01 -.40296028728859E+01 -.33262605067400E-01
 h     9    1 -.23553205188504E+01 -.40525668248527E+01 -.45200005048840E-01
 h    10    1 -.23553280777549E+01 0.40525630454004E+01 -.45173548882980E-01
 n    11    7 0.52878147756133E+01 0.00000000000000E+00 -.27472484196240E-01
 o    12    8 0.63764576548767E+01 -.20283488830896E+01 -.24482937454020E-01
 o    13    8 0.63764614343290E+01 0.20283469933635E+01 -.24515062798280E-01
 n    14    7 -.52636676188715E+01 0.00000000000000E+00 -.10786332361533E+00
 h    15    1 -.61947904866021E+01 -.16076731691957E+01 0.28377485852069E+00
 h    16    1 -.61947848174237E+01 0.16076731691957E+01 0.28378430715135E+00
[GTO]
    1 0
 s    6 1.00
 0.13575349682000E+05 0.60645503603591E-03
 0.20352333680000E+04 0.46979088884982E-02
 0.46322562359000E+03 0.24332477647552E-01
 0.13120019598000E+03 0.97399968307759E-01
 0.42853015891000E+02 0.30195584253780E+00
 0.15584185766000E+02 0.66233609137875E+00
 s    2 1.00
 0.62067138508000E+01 0.65595308539952E+00
 0.25764896527000E+01 0.37585633285142E+00
 s    1 1.00
 0.57696339419000E+00 0.10000000000000E+01
 s    1 1.00
 0.22972831358000E+00 0.10000000000000E+01
 s    1 1.00
 0.95164440028000E-01 0.10000000000000E+01
 s    1 1.00
 0.48475401370000E-01 0.10000000000000E+01
 p    4 1.00
 0.34697232244000E+02 0.11327220003114E-01
 0.79582622826000E+01 0.76169659202087E-01
 0.23780826883000E+01 0.30192252202676E+00
 0.81433208183000E+00 0.72785027349547E+00
 p    1 1.00
 0.28887547253000E+00 0.10000000000000E+01
 p    1 1.00
 0.10056823671000E+00 0.10000000000000E+01
 d    1 1.00
 0.10970000000000E+01 0.10000000000000E+01
 d    1 1.00
 0.31800000000000E+00 0.10000000000000E+01
 d    1 1.00
 0.90985336424000E-01 0.10000000000000E+01
 f    1 1.00
 0.76100000000000E+00 0.10000000000000E+01
 
    2 0
 s    6 1.00
 0.13575349682000E+05 0.60645503603591E-03
 0.20352333680000E+04 0.46979088884982E-02
 0.46322562359000E+03 0.24332477647552E-01
 0.13120019598000E+03 0.97399968307759E-01
 0.42853015891000E+02 0.30195584253780E+00
 0.15584185766000E+02 0.66233609137875E+00
 s    2 1.00
 0.62067138508000E+01 0.65595308539952E+00
 0.25764896527000E+01 0.37585633285142E+00
 s    1 1.00
 0.57696339419000E+00 0.10000000000000E+01
 s    1 1.00
 0.22972831358000E+00 0.10000000000000E+01
 s    1 1.00
 0.95164440028000E-01 0.10000000000000E+01
 s    1 1.00
 0.48475401370000E-01 0.10000000000000E+01
 p    4 1.00
 0.34697232244000E+02 0.11327220003114E-01
 0.79582622826000E+01 0.76169659202087E-01
 0.23780826883000E+01 0.30192252202676E+00
 0.81433208183000E+00 0.72785027349547E+00
 p    1 1.00
 0.28887547253000E+00 0.10000000000000E+01
 p    1 1.00
 0.10056823671000E+00 0.10000000000000E+01
 d    1 1.00
 0.10970000000000E+01 0.10000000000000E+01
 d    1 1.00
 0.31800000000000E+00 0.10000000000000E+01
 d    1 1.00
 0.90985336424000E-01 0.10000000000000E+01
 f    1 1.00
 0.76100000000000E+00 0.10000000000000E+01
 
    3 0
 s    6 1.00
 0.13575349682000E+05 0.60645503603591E-03
 0.20352333680000E+04 0.46979088884982E-02
 0.46322562359000E+03 0.24332477647552E-01
 0.13120019598000E+03 0.97399968307759E-01
 0.42853015891000E+02 0.30195584253780E+00
 0.15584185766000E+02 0.66233609137875E+00
 s    2 1.00
 0.62067138508000E+01 0.65595308539952E+00
 0.25764896527000E+01 0.37585633285142E+00
 s    1 1.00
 0.57696339419000E+00 0.10000000000000E+01
 s    1 1.00
 0.22972831358000E+00 0.10000000000000E+01
 s    1 1.00
 0.95164440028000E-01 0.10000000000000E+01
 s    1 1.00
 0.48475401370000E-01 0.10000000000000E+01
 p    4 1.00
 0.34697232244000E+02 0.11327220003114E-01
 0.79582622826000E+01 0.76169659202087E-01
 0.23780826883000E+01 0.30192252202676E+00
 0.81433208183000E+00 0.72785027349547E+00
 p    1 1.00
 0.28887547253000E+00 0.10000000000000E+01
 p    1 1.00
 0.10056823671000E+00 0.10000000000000E+01
 d    1 1.00
 0.10970000000000E+01 0.10000000000000E+01
 d    1 1.00
 0.31800000000000E+00 0.10000000000000E+01
 d    1 1.00
 0.90985336424000E-01 0.10000000000000E+01
 f    1 1.00
 0.76100000000000E+00 0.10000000000000E+01
 
    4 0
 s    6 1.00
 0.13575349682000E+05 0.60645503603591E-03
 0.20352333680000E+04 0.46979088884982E-02
 0.46322562359000E+03 0.24332477647552E-01
 0.13120019598000E+03 0.97399968307759E-01
 0.42853015891000E+02 0.30195584253780E+00
 0.15584185766000E+02 0.66233609137875E+00
 s    2 1.00
 0.62067138508000E+01 0.65595308539952E+00
 0.25764896527000E+01 0.37585633285142E+00
 s    1 1.00
 0.57696339419000E+00 0.10000000000000E+01
 s    1 1.00
 0.22972831358000E+00 0.10000000000000E+01
 s    1 1.00
 0.95164440028000E-01 0.10000000000000E+01
 s    1 1.00
 0.48475401370000E-01 0.10000000000000E+01
 p    4 1.00
 0.34697232244000E+02 0.11327220003114E-01
 0.79582622826000E+01 0.76169659202087E-01
 0.23780826883000E+01 0.30192252202676E+00
 0.81433208183000E+00 0.72785027349547E+00
 p    1 1.00
 0.28887547253000E+00 0.10000000000000E+01
 p    1 1.00
 0.10056823671000E+00 0.10000000000000E+01
 d    1 1.00
 0.10970000000000E+01 0.10000000000000E+01
 d    1 1.00
 0.31800000000000E+00 0.10000000000000E+01
 d    1 1.00
 0.90985336424000E-01 0.10000000000000E+01
 f    1 1.00
 0.76100000000000E+00 0.10000000000000E+01
 
    5 0
 s    6 1.00
 0.13575349682000E+05 0.60645503603591E-03
 0.20352333680000E+04 0.46979088884982E-02
 0.46322562359000E+03 0.24332477647552E-01
 0.13120019598000E+03 0.97399968307759E-01
 0.42853015891000E+02 0.30195584253780E+00
 0.15584185766000E+02 0.66233609137875E+00
 s    2 1.00
 0.62067138508000E+01 0.65595308539952E+00
 0.25764896527000E+01 0.37585633285142E+00
 s    1 1.00
 0.57696339419000E+00 0.10000000000000E+01
 s    1 1.00
 0.22972831358000E+00 0.10000000000000E+01
 s    1 1.00
 0.95164440028000E-01 0.10000000000000E+01
 s    1 1.00
 0.48475401370000E-01 0.10000000000000E+01
 p    4 1.00
 0.34697232244000E+02 0.11327220003114E-01
 0.79582622826000E+01 0.76169659202087E-01
 0.23780826883000E+01 0.30192252202676E+00
 0.81433208183000E+00 0.72785027349547E+00
 p    1 1.00
 0.28887547253000E+00 0.10000000000000E+01
 p    1 1.00
 0.10056823671000E+00 0.10000000000000E+01
 d    1 1.00
 0.10970000000000E+01 0.10000000000000E+01
 d    1 1.00
 0.31800000000000E+00 0.10000000000000E+01
 d    1 1.00
 0.90985336424000E-01 0.10000000000000E+01
 f    1 1.00
 0.76100000000000E+00 0.10000000000000E+01
 
    6 0
 s    6 1.00
 0.13575349682000E+05 0.60645503603591E-03
 0.20352333680000E+04 0.46979088884982E-02
 0.46322562359000E+03 0.24332477647552E-01
 0.13120019598000E+03 0.97399968307759E-01
 0.42853015891000E+02 0.30195584253780E+00
 0.15584185766000E+02 0.66233609137875E+00
 s    2 1.00
 0.62067138508000E+01 0.65595308539952E+00
 0.25764896527000E+01 0.37585633285142E+00
 s    1 1.00
 0.57696339419000E+00 0.10000000000000E+01
 s    1 1.00
 0.22972831358000E+00 0.10000000000000E+01
 s    1 1.00
 0.95164440028000E-01 0.10000000000000E+01
 s    1 1.00
 0.48475401370000E-01 0.10000000000000E+01
 p    4 1.00
 0.34697232244000E+02 0.11327220003114E-01
 0.79582622826000E+01 0.76169659202087E-01
 0.23780826883000E+01 0.30192252202676E+00
 0.81433208183000E+00 0.72785027349547E+00
 p    1 1.00
 0.28887547253000E+00 0.10000000000000E+01
 p    1 1.00
 0.10056823671000E+00 0.10000000000000E+01
 d    1 1.00
 0.10970000000000E+01 0.10000000000000E+01
 d    1 1.00
 0.31800000000000E+00 0.10000000000000E+01
 d    1 1.00
 0.90985336424000E-01 0.10000000000000E+01
 f    1 1.00
 0.76100000000000E+00 0.10000000000000E+01
 
    7 0
 s    3 1.00
 0.34061341000000E+02 0.25439307208879E-01
 0.51235746000000E+01 0.19008594890375E+00
 0.11646626000000E+01 0.85244113011042E+00
 s    1 1.00
 0.32723041000000E+00 0.10000000000000E+01
 s    1 1.00
 0.10307241000000E+00 0.10000000000000E+01
 p    1 1.00
 0.80000000000000E+00 0.10000000000000E+01
 p    1 1.00
 0.95774129632000E-01 0.10000000000000E+01
 
    8 0
 s    3 1.00
 0.34061341000000E+02 0.25439307208879E-01
 0.51235746000000E+01 0.19008594890375E+00
 0.11646626000000E+01 0.85244113011042E+00
 s    1 1.00
 0.32723041000000E+00 0.10000000000000E+01
 s    1 1.00
 0.10307241000000E+00 0.10000000000000E+01
 p    1 1.00
 0.80000000000000E+00 0.10000000000000E+01
 p    1 1.00
 0.95774129632000E-01 0.10000000000000E+01
 
    9 0
 s    3 1.00
 0.34061341000000E+02 0.25439307208879E-01
 0.51235746000000E+01 0.19008594890375E+00
 0.11646626000000E+01 0.85244113011042E+00
 s    1 1.00
 0.32723041000000E+00 0.10000000000000E+01
 s    1 1.00
 0.10307241000000E+00 0.10000000000000E+01
 p    1 1.00
 0.80000000000000E+00 0.10000000000000E+01
 p    1 1.00
 0.95774129632000E-01 0.10000000000000E+01
 
   10 0
 s    3 1.00
 0.34061341000000E+02 0.25439307208879E-01
 0.51235746000000E+01 0.19008594890375E+00
 0.11646626000000E+01 0.85244113011042E+00
 s    1 1.00
 0.32723041000000E+00 0.10000000000000E+01
 s    1 1.00
 0.10307241000000E+00 0.10000000000000E+01
 p    1 1.00
 0.80000000000000E+00 0.10000000000000E+01
 p    1 1.00
 0.95774129632000E-01 0.10000000000000E+01
 
   11 0
 s    6 1.00
 0.19730800647000E+05 0.58626402628763E-03
 0.29578958745000E+04 0.45428820586397E-02
 0.67322133595000E+03 0.23558413450084E-01
 0.19068249494000E+03 0.94709193292923E-01
 0.62295441898000E+02 0.29719784913376E+00
 0.22654161182000E+02 0.66916246895232E+00
 s    2 1.00
 0.89791477428000E+01 0.64596683630063E+00
 0.36863002370000E+01 0.38700574393705E+00
 s    1 1.00
 0.84660076805000E+00 0.10000000000000E+01
 s    1 1.00
 0.33647133771000E+00 0.10000000000000E+01
 s    1 1.00
 0.13647653675000E+00 0.10000000000000E+01
 s    1 1.00
 0.68441605847000E-01 0.10000000000000E+01
 p    4 1.00
 0.49200380510000E+02 0.11448825101764E-01
 0.11346790537000E+02 0.78422337970864E-01
 0.34273972411000E+01 0.30818094738830E+00
 0.11785525134000E+01 0.72027196368413E+00
 p    1 1.00
 0.41642204972000E+00 0.10000000000000E+01
 p    1 1.00
 0.14260826011000E+00 0.10000000000000E+01
 d    1 1.00
 0.16540000000000E+01 0.10000000000000E+01
 d    1 1.00
 0.46900000000000E+00 0.10000000000000E+01
 d    1 1.00
 0.12829642058000E+00 0.10000000000000E+01
 f    1 1.00
 0.10930000000000E+01 0.10000000000000E+01
 
   12 0
 s    6 1.00
 0.27032382631000E+05 0.57227335211155E-03
 0.40523871392000E+04 0.44353233492995E-02
 0.92232722710000E+03 0.23020107706038E-01
 0.26124070989000E+03 0.92822490667928E-01
 0.85354641351000E+02 0.29378500009671E+00
 0.31035035245000E+02 0.67401604501641E+00
 s    2 1.00
 0.12260860728000E+02 0.63839937025506E+00
 0.49987076005000E+01 0.39534587125718E+00
 s    1 1.00
 0.11703108158000E+01 0.10000000000000E+01
 s    1 1.00
 0.46474740994000E+00 0.10000000000000E+01
 s    1 1.00
 0.18504536357000E+00 0.10000000000000E+01
 s    1 1.00
 0.70288026270000E-01 0.10000000000000E+01
 p    4 1.00
 0.63274954801000E+02 0.12018332222616E-01
 0.14627049379000E+02 0.83005421790056E-01
 0.44501223456000E+01 0.31991743925964E+00
 0.15275799647000E+01 0.70715542916104E+00
 p    1 1.00
 0.52935117943000E+00 0.10000000000000E+01
 p    1 1.00
 0.17478421270000E+00 0.10000000000000E+01
 p    1 1.00
 0.51112745706000E-01 0.10000000000000E+01
 d    1 1.00
 0.23140000000000E+01 0.10000000000000E+01
 d    1 1.00
 0.64500000000000E+00 0.10000000000000E+01
 d    1 1.00
 0.14696477366000E+00 0.10000000000000E+01
 f    1 1.00
 0.14280000000000E+01 0.10000000000000E+01
 
   13 0
 s    6 1.00
 0.27032382631000E+05 0.57227335211155E-03
 0.40523871392000E+04 0.44353233492995E-02
 0.92232722710000E+03 0.23020107706038E-01
 0.26124070989000E+03 0.92822490667928E-01
 0.85354641351000E+02 0.29378500009671E+00
 0.31035035245000E+02 0.67401604501641E+00
 s    2 1.00
 0.12260860728000E+02 0.63839937025506E+00
 0.49987076005000E+01 0.39534587125718E+00
 s    1 1.00
 0.11703108158000E+01 0.10000000000000E+01
 s    1 1.00
 0.46474740994000E+00 0.10000000000000E+01
 s    1 1.00
 0.18504536357000E+00 0.10000000000000E+01
 s    1 1.00
 0.70288026270000E-01 0.10000000000000E+01
 p    4 1.00
 0.63274954801000E+02 0.12018332222616E-01
 0.14627049379000E+02 0.83005421790056E-01
 0.44501223456000E+01 0.31991743925964E+00
 0.15275799647000E+01 0.70715542916104E+00
 p    1 1.00
 0.52935117943000E+00 0.10000000000000E+01
 p    1 1.00
 0.17478421270000E+00 0.10000000000000E+01
 p    1 1.00
 0.51112745706000E-01 0.10000000000000E+01
 d    1 1.00
 0.23140000000000E+01 0.10000000000000E+01
 d    1 1.00
 0.64500000000000E+00 0.10000000000000E+01
 d    1 1.00
 0.14696477366000E+00 0.10000000000000E+01
 f    1 1.00
 0.14280000000000E+01 0.10000000000000E+01
 
   14 0
 s    6 1.00
 0.19730800647000E+05 0.58626402628763E-03
 0.29578958745000E+04 0.45428820586397E-02
 0.67322133595000E+03 0.23558413450084E-01
 0.19068249494000E+03 0.94709193292923E-01
 0.62295441898000E+02 0.29719784913376E+00
 0.22654161182000E+02 0.66916246895232E+00
 s    2 1.00
 0.89791477428000E+01 0.64596683630063E+00
 0.36863002370000E+01 0.38700574393705E+00
 s    1 1.00
 0.84660076805000E+00 0.10000000000000E+01
 s    1 1.00
 0.33647133771000E+00 0.10000000000000E+01
 s    1 1.00
 0.13647653675000E+00 0.10000000000000E+01
 s    1 1.00
 0.68441605847000E-01 0.10000000000000E+01
 p    4 1.00
 0.49200380510000E+02 0.11448825101764E-01
 0.11346790537000E+02 0.78422337970864E-01
 0.34273972411000E+01 0.30818094738830E+00
 0.11785525134000E+01 0.72027196368413E+00
 p    1 1.00
 0.41642204972000E+00 0.10000000000000E+01
 p    1 1.00
 0.14260826011000E+00 0.10000000000000E+01
 d    1 1.00
 0.16540000000000E+01 0.10000000000000E+01
 d    1 1.00
 0.46900000000000E+00 0.10000000000000E+01
 d    1 1.00
 0.12829642058000E+00 0.10000000000000E+01
 f    1 1.00
 0.10930000000000E+01 0.10000000000000E+01
 
   15 0
 s    3 1.00
 0.34061341000000E+02 0.25439307208879E-01
 0.51235746000000E+01 0.19008594890375E+00
 0.11646626000000E+01 0.85244113011042E+00
 s    1 1.00
 0.32723041000000E+00 0.10000000000000E+01
 s    1 1.00
 0.10307241000000E+00 0.10000000000000E+01
 p    1 1.00
 0.80000000000000E+00 0.10000000000000E+01
 p    1 1.00
 0.95774129632000E-01 0.10000000000000E+01
 
   16 0
 s    3 1.00
 0.34061341000000E+02 0.25439307208879E-01
 0.51235746000000E+01 0.19008594890375E+00
 0.11646626000000E+01 0.85244113011042E+00
 s    1 1.00
 0.32723041000000E+00 0.10000000000000E+01
 s    1 1.00
 0.10307241000000E+00 0.10000000000000E+01
 p    1 1.00
 0.80000000000000E+00 0.10000000000000E+01
 p    1 1.00
 0.95774129632000E-01 0.10000000000000E+01
 
[MO]
 Sym= X
 Ene= -0.894899
 Spin= Alpha
 Occup= -0.894899
         1    2.863952E-04
         2    6.652399E-04
         3   -1.925618E-03
         4    4.796701E-03
         5   -3.357537E-02
         6    1.800307E-02
         7    2.565504E-03
         8    2.355458E-04
         9   -2.764961E-02
        10   -4.249478E-03
        11    7.406638E-04
        12   -2.579749E-02
        13   -4.443896E-02
        14    1.904470E-02
        15   -1.316453E-02
        16   -2.769917E-06
        17    2.061275E-05
        18   -1.784284E-05
        19    1.887217E-05
        20   -6.012179E-03
        21    3.647424E-03
        22    1.052525E-03
        23   -6.288850E-04
        24   -4.236396E-04
        25    1.140083E-03
        26   -1.366351E-02
        27    6.895929E-03
        28    4.264266E-03
        29   -3.892293E-03
        30   -3.719730E-04
        31   -2.455669E-03
        32    3.883532E-03
        33   -1.022629E-02
        34   -3.324067E-05
        35    9.545065E-06
        36    9.210099E-05
        37    1.436897E-05
        38   -8.034378E-06
        39    7.009380E-04
        40    3.022808E-05
        41   -4.771670E-06
        42   -8.245044E-04
        43    6.530110E-04
        44   -3.716794E-05
        45   -7.918414E-05
        46   -2.949011E-04
        47    5.274951E-03
        48    7.769568E-02
        49   -9.464846E-03
        50    4.310663E-04
        51    1.115515E-06
        52   -1.899543E-01
        53   -9.261483E-04
        54    8.786048E-06
        55   -1.968831E-01
        56   -1.943272E-02
        57   -3.188379E-04
        58   -1.885123E-01
        59   -6.322558E-05
        60    5.865747E-05
        61    4.568114E-06
        62   -7.600568E-08
        63   -3.158415E-04
        64    2.624671E-07
        65   -6.146460E-04
        66    1.020742E-03
        67   -4.060964E-04
        68   -1.616159E-06
        69   -2.310079E-03
        70    8.942033E-08
        71   -1.978595E-02
        72    2.196990E-02
        73   -2.183945E-03
        74    6.004442E-05
        75    3.551623E-03
        76   -2.242507E-05
        77    1.094407E-05
        78    2.162097E-08
        79    1.051040E-03
        80   -1.215248E-05
        81    1.149644E-08
        82   -5.861585E-04
        83   -2.530540E-06
        84   -4.050401E-08
        85   -8.239595E-04
        86   -1.767249E-08
        87    2.867256E-04
        88    6.659704E-04
        89   -1.926884E-03
        90    4.797510E-03
        91   -3.437961E-02
        92    1.800255E-02
        93    2.565594E-03
        94   -2.358052E-04
        95   -2.766119E-02
        96   -4.230853E-03
        97   -7.373206E-04
        98   -2.580939E-02
        99   -4.456512E-02
       100   -1.933365E-02
       101   -1.319278E-02
       102   -2.792094E-06
       103    2.058106E-05
       104   -1.778897E-05
       105   -1.894031E-05
       106   -6.012028E-03
       107   -3.647517E-03
       108    1.048720E-03
       109   -6.251310E-04
       110   -4.235891E-04
       111   -1.138697E-03
       112   -1.366272E-02
       113   -6.895831E-03
       114    4.328392E-03
       115   -3.963982E-03
       116   -3.644091E-04
       117    2.390983E-03
       118    3.857516E-03
       119    1.020789E-02
       120   -3.324356E-05
       121   -9.520454E-06
       122    9.216051E-05
       123    1.442662E-05
       124    8.003527E-06
       125    7.008866E-04
       126    3.017429E-05
       127    4.769502E-06
       128   -8.245329E-04
       129   -6.529997E-04
       130   -1.911774E-04
       131   -4.160080E-04
       132   -7.501469E-04
       133    1.547124E-02
       134   -4.560339E-03
       135   -2.149064E-02
       136   -2.114246E-03
       137    1.142059E-03
       138    1.514205E-01
       139   -1.458489E-02
       140    9.742383E-03
       141    1.539751E-01
       142   -1.751801E-02
       143   -1.240618E-02
       144    9.521658E-02
       145   -2.196153E-04
       146    2.660098E-04
       147   -4.639447E-05
       148   -6.690506E-06
       149   -1.078924E-03
       150    3.101096E-03
       151   -1.099419E-03
       152    1.226722E-03
       153   -1.273031E-04
       154   -2.574504E-03
       155   -4.856014E-03
       156    5.039127E-03
       157   -1.110721E-02
       158    8.156936E-03
       159    2.950271E-03
       160    1.755807E-02
       161    4.738739E-03
       162   -1.207329E-02
       163   -2.734975E-05
       164    1.482762E-05
       165   -8.617869E-04
       166   -2.585689E-05
       167    2.699704E-05
       168    1.884530E-04
       169    6.255043E-05
       170   -4.689037E-05
       171    9.677554E-04
       172   -3.494442E-04
       173    1.676885E-03
       174    3.817246E-03
       175   -3.707734E-03
       176   -3.442419E-02
       177    7.241975E-02
       178   -1.025242E-02
       179    1.356434E-02
       180   -6.885054E-07
       181    1.190142E-01
       182    4.983755E-04
       183   -6.663158E-06
       184    1.223995E-01
       185   -6.403531E-02
       186    3.983699E-04
       187    1.389968E-01
       188   -7.447750E-04
       189    4.231629E-04
       190    3.216120E-04
       191   -1.714548E-07
       192    9.869773E-03
       193    3.217837E-07
       194    2.793993E-03
       195   -6.228024E-03
       196    3.434031E-03
       197   -1.574054E-06
       198    2.431446E-02
       199   -1.053769E-06
       200    1.339473E-02
       201   -1.460844E-02
       202    1.213709E-03
       203    1.000244E-04
       204    1.442026E-02
       205    2.125976E-05
       206    1.785448E-04
       207   -3.666031E-09
       208   -3.249660E-04
       209   -1.311572E-04
       210   -2.503603E-08
       211   -1.074850E-03
       212   -1.083858E-04
       213    2.995453E-08
       214    1.510837E-03
       215   -1.047676E-08
       216   -1.912191E-04
       217   -4.160626E-04
       218   -7.500307E-04
       219    1.547313E-02
       220   -5.558938E-03
       221   -2.146844E-02
       222   -2.113777E-03
       223   -1.139852E-03
       224    1.514295E-01
       225   -1.459509E-02
       226   -9.745732E-03
       227    1.539881E-01
       228   -1.740998E-02
       229    1.281364E-02
       230    9.518734E-02
       231   -2.195431E-04
       232    2.661313E-04
       233   -4.658814E-05
       234    6.541533E-06
       235   -1.078724E-03
       236   -3.101164E-03
       237   -1.102722E-03
       238    1.230071E-03
       239   -1.273495E-04
       240    2.575998E-03
       241   -4.855275E-03
       242   -5.039394E-03
       243   -1.104447E-02
       244    8.095087E-03
       245    2.949378E-03
       246   -1.761867E-02
       247    4.769001E-03
       248    1.209789E-02
       249   -2.740408E-05
       250   -1.486874E-05
       251   -8.619197E-04
       252   -2.591195E-05
       253   -2.694188E-05
       254    1.885840E-04
       255    6.267839E-05
       256    4.689039E-05
       257    9.678027E-04
       258    3.494653E-04
       259    5.268763E-04
       260    1.823762E-04
       261    2.500003E-02
       262   -1.294357E-05
       263    2.101461E-05
       264   -1.129856E-03
       265   -7.622014E-03
       266   -1.326636E-03
       267    5.411177E-03
       268    5.269921E-04
       269    1.786197E-04
       270    2.498917E-02
       271   -1.248358E-05
       272   -2.156058E-05
       273   -1.130320E-03
       274   -7.685804E-03
       275    1.301603E-03
       276    5.410040E-03
       277    5.577633E-04
       278    3.578931E-03
       279   -5.583301E-02
       280   -3.596675E-05
       281    1.444827E-04
       282    6.158644E-03
       283   -1.742569E-03
       284   -4.911524E-03
       285   -2.627783E-04
       286    5.592692E-04
       287    3.576008E-03
       288   -5.593689E-02
       289   -3.587654E-05
       290   -1.441790E-04
       291    6.159215E-03
       292   -1.709223E-03
       293    4.938703E-03
       294   -2.682875E-04
       295    6.465832E-05
       296    1.506364E-04
       297   -1.501925E-04
       298   -3.257522E-04
       299    1.325577E-02
       300    1.852667E-03
       301    6.288006E-04
       302   -3.256115E-07
       303   -1.048236E-02
       304    1.052953E-04
       305   -4.902923E-07
       306   -1.289051E-02
       307   -4.704412E-03
       308   -1.298166E-06
       309   -1.349147E-03
       310   -2.256931E-05
       311    8.013023E-06
       312    1.455629E-05
       313    5.206628E-09
       314    3.929617E-03
       315   -1.263665E-08
       316    1.591587E-05
       317   -9.214081E-05
       318    7.622494E-05
       319    5.971321E-08
       320    1.174427E-02
       321   -1.245445E-08
       322    6.111572E-04
       323   -4.114598E-03
       324    3.503441E-03
       325   -8.329124E-06
       326    2.742953E-03
       327    4.040887E-06
       328    9.402107E-06
       329   -2.868561E-10
       330   -6.449386E-06
       331   -6.742617E-06
       332    1.099277E-08
       333   -6.370291E-04
       334   -5.871634E-06
       335   -1.060791E-08
       336    6.456818E-04
       337   -1.004914E-09
       338    1.927368E-05
       339    4.117465E-05
       340    1.232879E-05
       341   -8.119103E-04
       342    9.568972E-03
       343    1.909150E-03
       344   -2.208830E-04
       345    1.758546E-04
       346    6.850130E-02
       347   -4.108827E-04
       348    3.692746E-04
       349    6.350462E-02
       350   -1.638772E-03
       351    1.018427E-03
       352    4.972139E-02
       353   -4.253508E-04
       354    3.067418E-04
       355    5.657863E-03
       356   -4.636153E-06
       357    6.524897E-06
       358   -1.888744E-06
       359   -5.824105E-07
       360   -2.614284E-05
       361    4.881036E-04
       362    1.432472E-05
       363    1.616918E-05
       364   -3.049390E-05
       365   -1.388228E-05
       366   -5.683713E-04
       367    1.565297E-03
       368    8.159472E-05
       369    6.847471E-06
       370   -8.844219E-05
       371    3.103742E-05
       372   -5.879088E-04
       373    3.260490E-04
       374    9.522561E-07
       375    2.684303E-06
       376   -6.379947E-05
       377   -1.626507E-06
       378   -9.311067E-07
       379   -8.087652E-05
       380    3.489215E-07
       381   -2.670263E-06
       382    1.664725E-04
       383   -1.307862E-04
       384    1.925074E-05
       385    4.112479E-05
       386    1.234019E-05
       387   -8.116162E-04
       388    9.578433E-03
       389    1.896132E-03
       390   -2.182790E-04
       391   -1.755311E-04
       392    6.850038E-02
       393   -4.086556E-04
       394   -3.690809E-04
       395    6.350422E-02
       396   -1.631706E-03
       397   -1.021920E-03
       398    4.971407E-02
       399   -4.193305E-04
       400   -3.090189E-04
       401    5.658240E-03
       402   -4.633685E-06
       403    6.500903E-06
       404   -1.867219E-06
       405    5.749507E-07
       406   -2.615995E-05
       407   -4.881113E-04
       408    1.420442E-05
       409    1.620511E-05
       410   -3.040953E-05
       411    1.377858E-05
       412   -5.682975E-04
       413   -1.565139E-03
       414    8.225345E-05
       415    6.039034E-06
       416   -8.829248E-05
       417   -3.035527E-05
       418   -5.876846E-04
       419   -3.252372E-04
       420    9.489990E-07
       421   -2.679667E-06
       422   -6.380185E-05
       423   -1.619123E-06
       424    9.382450E-07
       425   -8.086903E-05
       426    3.459069E-07
       427    2.656906E-06
       428    1.664682E-04
       429    1.307818E-04
       430   -7.758439E-03
       431   -1.838670E-02
       432    2.841192E-02
       433    4.660692E-02
       434    1.534715E-02
       435    9.580281E-02
       436   -2.743746E-02
       437    6.592282E-06
       438   -2.661643E-01
       439   -3.119477E-02
       440    2.546589E-06
       441   -2.617924E-01
       442   -3.584004E-02
       443   -4.163878E-05
       444   -2.128905E-01
       445    2.065423E-04
       446    7.413129E-05
       447   -2.806736E-04
       448   -1.316556E-07
       449    9.141643E-04
       450    2.009902E-07
       451    4.248337E-04
       452    2.548774E-03
       453   -2.973608E-03
       454    1.567381E-06
       455    3.769513E-03
       456    8.883150E-07
       457    3.235510E-03
       458    6.461545E-03
       459   -9.697056E-03
       460    4.384142E-06
       461    2.471049E-03
       462    4.049407E-06
       463   -2.102895E-04
       464    3.510968E-08
       465    1.004174E-03
       466   -1.454950E-04
       467    1.345431E-08
       468   -5.196611E-04
       469    4.276280E-04
       470   -6.055889E-08
       471   -8.275799E-04
       472    7.305387E-10
       473   -1.391794E-02
       474   -2.775086E-02
       475   -5.356698E-02
       476   -3.390668E-03
       477   -2.848910E-03
       478   -1.324801E-02
       479   -7.138026E-06
       480   -6.022862E-03
       481   -1.512545E-02
       482   -1.391345E-02
       483   -2.771598E-02
       484   -5.341591E-02
       485   -3.388555E-03
       486    2.846010E-03
       487   -1.325043E-02
       488    2.112544E-05
       489    6.007165E-03
       490   -1.513669E-02
 Sym= X
 Ene= 0.894899
 Spin= Alpha
 Occup= 0.894899
         1   -3.690042E-03
         2   -8.053261E-03
         3    4.306943E-03
         4    1.609948E-01
         5    8.528244E+00
         6    1.165103E+00
         7    1.532922E-02
         8    3.872043E-02
         9   -5.236075E-03
        10    7.494532E-02
        11    7.208633E-03
        12   -3.911540E-03
        13    4.484182E+00
        14   -4.169015E+00
        15   -2.123664E-02
        16    7.921809E-04
        17   -2.014720E-04
        18   -5.907088E-04
        19   -2.206770E-03
        20   -2.524678E-04
        21    4.200002E-05
        22   -1.563254E-02
        23    2.027014E-02
        24   -4.637598E-03
        25   -1.818408E-02
        26   -8.298397E-04
        27   -4.302916E-04
        28   -1.458369E+00
        29    1.491394E+00
        30   -3.302508E-02
        31   -1.340432E+00
        32    6.910382E-03
        33    1.185350E-02
        34    1.895866E-04
        35   -3.192481E-04
        36   -3.127754E-05
        37    5.407000E-04
        38    6.094326E-04
        39    7.080396E-05
        40   -7.950571E-04
        41   -1.811163E-04
        42   -2.884073E-05
        43    6.294466E-06
        44   -9.102153E-08
        45   -2.818244E-07
        46    7.891903E-07
        47   -7.969367E-06
        48    2.231355E-04
        49   -1.094188E-04
        50    2.895284E-06
        51    1.867035E-02
        52   -5.573556E-06
        53   -4.478235E-06
        54   -7.166523E-02
        55   -4.088850E-06
        56   -3.639720E-04
        57   -9.894154E+00
        58   -1.029941E-04
        59   -4.928390E-07
        60    5.567665E-08
        61    4.371624E-07
        62    1.752805E-03