[Molden Format]
[Title]
ADC(2) - opt by CAM-B3LYP gaussian                                              
[Atoms] AU
 c     1    6 0.12593230616935E+01 0.22795690751954E+01 -.36278607975490E-01
 c     2    6 0.25504236399298E+01 0.18897261300000E-05 -.34511714041240E-01
 c     3    6 0.12593268411458E+01 -.22795652957431E+01 -.36289946332290E-01
 c     4    6 -.13369660030996E+01 -.22791608943507E+01 -.39583738981910E-01
 c     5    6 -.26856068523561E+01 -.18897261300000E-05 -.40110972572980E-01
 c     6    6 -.13369678928258E+01 0.22791590046246E+01 -.39570510898980E-01
 h     7    1 0.23068095955089E+01 0.40296066523382E+01 -.33243707806080E-01
 h     8    1 0.23068152646873E+01 -.40296028728859E+01 -.33262605067400E-01
 h     9    1 -.23553205188504E+01 -.40525668248527E+01 -.45200005048840E-01
 h    10    1 -.23553280777549E+01 0.40525630454004E+01 -.45173548882980E-01
 n    11    7 0.52878147756133E+01 0.00000000000000E+00 -.27472484196240E-01
 o    12    8 0.63764576548767E+01 -.20283488830896E+01 -.24482937454020E-01
 o    13    8 0.63764614343290E+01 0.20283469933635E+01 -.24515062798280E-01
 n    14    7 -.52636676188715E+01 0.00000000000000E+00 -.10786332361533E+00
 h    15    1 -.61947904866021E+01 -.16076731691957E+01 0.28377485852069E+00
 h    16    1 -.61947848174237E+01 0.16076731691957E+01 0.28378430715135E+00
[GTO]
    1 0
 s    6 1.00
 0.13575349682000E+05 0.60645503603591E-03
 0.20352333680000E+04 0.46979088884982E-02
 0.46322562359000E+03 0.24332477647552E-01
 0.13120019598000E+03 0.97399968307759E-01
 0.42853015891000E+02 0.30195584253780E+00
 0.15584185766000E+02 0.66233609137875E+00
 s    2 1.00
 0.62067138508000E+01 0.65595308539952E+00
 0.25764896527000E+01 0.37585633285142E+00
 s    1 1.00
 0.57696339419000E+00 0.10000000000000E+01
 s    1 1.00
 0.22972831358000E+00 0.10000000000000E+01
 s    1 1.00
 0.95164440028000E-01 0.10000000000000E+01
 s    1 1.00
 0.48475401370000E-01 0.10000000000000E+01
 p    4 1.00
 0.34697232244000E+02 0.11327220003114E-01
 0.79582622826000E+01 0.76169659202087E-01
 0.23780826883000E+01 0.30192252202676E+00
 0.81433208183000E+00 0.72785027349547E+00
 p    1 1.00
 0.28887547253000E+00 0.10000000000000E+01
 p    1 1.00
 0.10056823671000E+00 0.10000000000000E+01
 d    1 1.00
 0.10970000000000E+01 0.10000000000000E+01
 d    1 1.00
 0.31800000000000E+00 0.10000000000000E+01
 d    1 1.00
 0.90985336424000E-01 0.10000000000000E+01
 f    1 1.00
 0.76100000000000E+00 0.10000000000000E+01
 
    2 0
 s    6 1.00
 0.13575349682000E+05 0.60645503603591E-03
 0.20352333680000E+04 0.46979088884982E-02
 0.46322562359000E+03 0.24332477647552E-01
 0.13120019598000E+03 0.97399968307759E-01
 0.42853015891000E+02 0.30195584253780E+00
 0.15584185766000E+02 0.66233609137875E+00
 s    2 1.00
 0.62067138508000E+01 0.65595308539952E+00
 0.25764896527000E+01 0.37585633285142E+00
 s    1 1.00
 0.57696339419000E+00 0.10000000000000E+01
 s    1 1.00
 0.22972831358000E+00 0.10000000000000E+01
 s    1 1.00
 0.95164440028000E-01 0.10000000000000E+01
 s    1 1.00
 0.48475401370000E-01 0.10000000000000E+01
 p    4 1.00
 0.34697232244000E+02 0.11327220003114E-01
 0.79582622826000E+01 0.76169659202087E-01
 0.23780826883000E+01 0.30192252202676E+00
 0.81433208183000E+00 0.72785027349547E+00
 p    1 1.00
 0.28887547253000E+00 0.10000000000000E+01
 p    1 1.00
 0.10056823671000E+00 0.10000000000000E+01
 d    1 1.00
 0.10970000000000E+01 0.10000000000000E+01
 d    1 1.00
 0.31800000000000E+00 0.10000000000000E+01
 d    1 1.00
 0.90985336424000E-01 0.10000000000000E+01
 f    1 1.00
 0.76100000000000E+00 0.10000000000000E+01
 
    3 0
 s    6 1.00
 0.13575349682000E+05 0.60645503603591E-03
 0.20352333680000E+04 0.46979088884982E-02
 0.46322562359000E+03 0.24332477647552E-01
 0.13120019598000E+03 0.97399968307759E-01
 0.42853015891000E+02 0.30195584253780E+00
 0.15584185766000E+02 0.66233609137875E+00
 s    2 1.00
 0.62067138508000E+01 0.65595308539952E+00
 0.25764896527000E+01 0.37585633285142E+00
 s    1 1.00
 0.57696339419000E+00 0.10000000000000E+01
 s    1 1.00
 0.22972831358000E+00 0.10000000000000E+01
 s    1 1.00
 0.95164440028000E-01 0.10000000000000E+01
 s    1 1.00
 0.48475401370000E-01 0.10000000000000E+01
 p    4 1.00
 0.34697232244000E+02 0.11327220003114E-01
 0.79582622826000E+01 0.76169659202087E-01
 0.23780826883000E+01 0.30192252202676E+00
 0.81433208183000E+00 0.72785027349547E+00
 p    1 1.00
 0.28887547253000E+00 0.10000000000000E+01
 p    1 1.00
 0.10056823671000E+00 0.10000000000000E+01
 d    1 1.00
 0.10970000000000E+01 0.10000000000000E+01
 d    1 1.00
 0.31800000000000E+00 0.10000000000000E+01
 d    1 1.00
 0.90985336424000E-01 0.10000000000000E+01
 f    1 1.00
 0.76100000000000E+00 0.10000000000000E+01
 
    4 0
 s    6 1.00
 0.13575349682000E+05 0.60645503603591E-03
 0.20352333680000E+04 0.46979088884982E-02
 0.46322562359000E+03 0.24332477647552E-01
 0.13120019598000E+03 0.97399968307759E-01
 0.42853015891000E+02 0.30195584253780E+00
 0.15584185766000E+02 0.66233609137875E+00
 s    2 1.00
 0.62067138508000E+01 0.65595308539952E+00
 0.25764896527000E+01 0.37585633285142E+00
 s    1 1.00
 0.57696339419000E+00 0.10000000000000E+01
 s    1 1.00
 0.22972831358000E+00 0.10000000000000E+01
 s    1 1.00
 0.95164440028000E-01 0.10000000000000E+01
 s    1 1.00
 0.48475401370000E-01 0.10000000000000E+01
 p    4 1.00
 0.34697232244000E+02 0.11327220003114E-01
 0.79582622826000E+01 0.76169659202087E-01
 0.23780826883000E+01 0.30192252202676E+00
 0.81433208183000E+00 0.72785027349547E+00
 p    1 1.00
 0.28887547253000E+00 0.10000000000000E+01
 p    1 1.00
 0.10056823671000E+00 0.10000000000000E+01
 d    1 1.00
 0.10970000000000E+01 0.10000000000000E+01
 d    1 1.00
 0.31800000000000E+00 0.10000000000000E+01
 d    1 1.00
 0.90985336424000E-01 0.10000000000000E+01
 f    1 1.00
 0.76100000000000E+00 0.10000000000000E+01
 
    5 0
 s    6 1.00
 0.13575349682000E+05 0.60645503603591E-03
 0.20352333680000E+04 0.46979088884982E-02
 0.46322562359000E+03 0.24332477647552E-01
 0.13120019598000E+03 0.97399968307759E-01
 0.42853015891000E+02 0.30195584253780E+00
 0.15584185766000E+02 0.66233609137875E+00
 s    2 1.00
 0.62067138508000E+01 0.65595308539952E+00
 0.25764896527000E+01 0.37585633285142E+00
 s    1 1.00
 0.57696339419000E+00 0.10000000000000E+01
 s    1 1.00
 0.22972831358000E+00 0.10000000000000E+01
 s    1 1.00
 0.95164440028000E-01 0.10000000000000E+01
 s    1 1.00
 0.48475401370000E-01 0.10000000000000E+01
 p    4 1.00
 0.34697232244000E+02 0.11327220003114E-01
 0.79582622826000E+01 0.76169659202087E-01
 0.23780826883000E+01 0.30192252202676E+00
 0.81433208183000E+00 0.72785027349547E+00
 p    1 1.00
 0.28887547253000E+00 0.10000000000000E+01
 p    1 1.00
 0.10056823671000E+00 0.10000000000000E+01
 d    1 1.00
 0.10970000000000E+01 0.10000000000000E+01
 d    1 1.00
 0.31800000000000E+00 0.10000000000000E+01
 d    1 1.00
 0.90985336424000E-01 0.10000000000000E+01
 f    1 1.00
 0.76100000000000E+00 0.10000000000000E+01
 
    6 0
 s    6 1.00
 0.13575349682000E+05 0.60645503603591E-03
 0.20352333680000E+04 0.46979088884982E-02
 0.46322562359000E+03 0.24332477647552E-01
 0.13120019598000E+03 0.97399968307759E-01
 0.42853015891000E+02 0.30195584253780E+00
 0.15584185766000E+02 0.66233609137875E+00
 s    2 1.00
 0.62067138508000E+01 0.65595308539952E+00
 0.25764896527000E+01 0.37585633285142E+00
 s    1 1.00
 0.57696339419000E+00 0.10000000000000E+01
 s    1 1.00
 0.22972831358000E+00 0.10000000000000E+01
 s    1 1.00
 0.95164440028000E-01 0.10000000000000E+01
 s    1 1.00
 0.48475401370000E-01 0.10000000000000E+01
 p    4 1.00
 0.34697232244000E+02 0.11327220003114E-01
 0.79582622826000E+01 0.76169659202087E-01
 0.23780826883000E+01 0.30192252202676E+00
 0.81433208183000E+00 0.72785027349547E+00
 p    1 1.00
 0.28887547253000E+00 0.10000000000000E+01
 p    1 1.00
 0.10056823671000E+00 0.10000000000000E+01
 d    1 1.00
 0.10970000000000E+01 0.10000000000000E+01
 d    1 1.00
 0.31800000000000E+00 0.10000000000000E+01
 d    1 1.00
 0.90985336424000E-01 0.10000000000000E+01
 f    1 1.00
 0.76100000000000E+00 0.10000000000000E+01
 
    7 0
 s    3 1.00
 0.34061341000000E+02 0.25439307208879E-01
 0.51235746000000E+01 0.19008594890375E+00
 0.11646626000000E+01 0.85244113011042E+00
 s    1 1.00
 0.32723041000000E+00 0.10000000000000E+01
 s    1 1.00
 0.10307241000000E+00 0.10000000000000E+01
 p    1 1.00
 0.80000000000000E+00 0.10000000000000E+01
 p    1 1.00
 0.95774129632000E-01 0.10000000000000E+01
 
    8 0
 s    3 1.00
 0.34061341000000E+02 0.25439307208879E-01
 0.51235746000000E+01 0.19008594890375E+00
 0.11646626000000E+01 0.85244113011042E+00
 s    1 1.00
 0.32723041000000E+00 0.10000000000000E+01
 s    1 1.00
 0.10307241000000E+00 0.10000000000000E+01
 p    1 1.00
 0.80000000000000E+00 0.10000000000000E+01
 p    1 1.00
 0.95774129632000E-01 0.10000000000000E+01
 
    9 0
 s    3 1.00
 0.34061341000000E+02 0.25439307208879E-01
 0.51235746000000E+01 0.19008594890375E+00
 0.11646626000000E+01 0.85244113011042E+00
 s    1 1.00
 0.32723041000000E+00 0.10000000000000E+01
 s    1 1.00
 0.10307241000000E+00 0.10000000000000E+01
 p    1 1.00
 0.80000000000000E+00 0.10000000000000E+01
 p    1 1.00
 0.95774129632000E-01 0.10000000000000E+01
 
   10 0
 s    3 1.00
 0.34061341000000E+02 0.25439307208879E-01
 0.51235746000000E+01 0.19008594890375E+00
 0.11646626000000E+01 0.85244113011042E+00
 s    1 1.00
 0.32723041000000E+00 0.10000000000000E+01
 s    1 1.00
 0.10307241000000E+00 0.10000000000000E+01
 p    1 1.00
 0.80000000000000E+00 0.10000000000000E+01
 p    1 1.00
 0.95774129632000E-01 0.10000000000000E+01
 
   11 0
 s    6 1.00
 0.19730800647000E+05 0.58626402628763E-03
 0.29578958745000E+04 0.45428820586397E-02
 0.67322133595000E+03 0.23558413450084E-01
 0.19068249494000E+03 0.94709193292923E-01
 0.62295441898000E+02 0.29719784913376E+00
 0.22654161182000E+02 0.66916246895232E+00
 s    2 1.00
 0.89791477428000E+01 0.64596683630063E+00
 0.36863002370000E+01 0.38700574393705E+00
 s    1 1.00
 0.84660076805000E+00 0.10000000000000E+01
 s    1 1.00
 0.33647133771000E+00 0.10000000000000E+01
 s    1 1.00
 0.13647653675000E+00 0.10000000000000E+01
 s    1 1.00
 0.68441605847000E-01 0.10000000000000E+01
 p    4 1.00
 0.49200380510000E+02 0.11448825101764E-01
 0.11346790537000E+02 0.78422337970864E-01
 0.34273972411000E+01 0.30818094738830E+00
 0.11785525134000E+01 0.72027196368413E+00
 p    1 1.00
 0.41642204972000E+00 0.10000000000000E+01
 p    1 1.00
 0.14260826011000E+00 0.10000000000000E+01
 d    1 1.00
 0.16540000000000E+01 0.10000000000000E+01
 d    1 1.00
 0.46900000000000E+00 0.10000000000000E+01
 d    1 1.00
 0.12829642058000E+00 0.10000000000000E+01
 f    1 1.00
 0.10930000000000E+01 0.10000000000000E+01
 
   12 0
 s    6 1.00
 0.27032382631000E+05 0.57227335211155E-03
 0.40523871392000E+04 0.44353233492995E-02
 0.92232722710000E+03 0.23020107706038E-01
 0.26124070989000E+03 0.92822490667928E-01
 0.85354641351000E+02 0.29378500009671E+00
 0.31035035245000E+02 0.67401604501641E+00
 s    2 1.00
 0.12260860728000E+02 0.63839937025506E+00
 0.49987076005000E+01 0.39534587125718E+00
 s    1 1.00
 0.11703108158000E+01 0.10000000000000E+01
 s    1 1.00
 0.46474740994000E+00 0.10000000000000E+01
 s    1 1.00
 0.18504536357000E+00 0.10000000000000E+01
 s    1 1.00
 0.70288026270000E-01 0.10000000000000E+01
 p    4 1.00
 0.63274954801000E+02 0.12018332222616E-01
 0.14627049379000E+02 0.83005421790056E-01
 0.44501223456000E+01 0.31991743925964E+00
 0.15275799647000E+01 0.70715542916104E+00
 p    1 1.00
 0.52935117943000E+00 0.10000000000000E+01
 p    1 1.00
 0.17478421270000E+00 0.10000000000000E+01
 p    1 1.00
 0.51112745706000E-01 0.10000000000000E+01
 d    1 1.00
 0.23140000000000E+01 0.10000000000000E+01
 d    1 1.00
 0.64500000000000E+00 0.10000000000000E+01
 d    1 1.00
 0.14696477366000E+00 0.10000000000000E+01
 f    1 1.00
 0.14280000000000E+01 0.10000000000000E+01
 
   13 0
 s    6 1.00
 0.27032382631000E+05 0.57227335211155E-03
 0.40523871392000E+04 0.44353233492995E-02
 0.92232722710000E+03 0.23020107706038E-01
 0.26124070989000E+03 0.92822490667928E-01
 0.85354641351000E+02 0.29378500009671E+00
 0.31035035245000E+02 0.67401604501641E+00
 s    2 1.00
 0.12260860728000E+02 0.63839937025506E+00
 0.49987076005000E+01 0.39534587125718E+00
 s    1 1.00
 0.11703108158000E+01 0.10000000000000E+01
 s    1 1.00
 0.46474740994000E+00 0.10000000000000E+01
 s    1 1.00
 0.18504536357000E+00 0.10000000000000E+01
 s    1 1.00
 0.70288026270000E-01 0.10000000000000E+01
 p    4 1.00
 0.63274954801000E+02 0.12018332222616E-01
 0.14627049379000E+02 0.83005421790056E-01
 0.44501223456000E+01 0.31991743925964E+00
 0.15275799647000E+01 0.70715542916104E+00
 p    1 1.00
 0.52935117943000E+00 0.10000000000000E+01
 p    1 1.00
 0.17478421270000E+00 0.10000000000000E+01
 p    1 1.00
 0.51112745706000E-01 0.10000000000000E+01
 d    1 1.00
 0.23140000000000E+01 0.10000000000000E+01
 d    1 1.00
 0.64500000000000E+00 0.10000000000000E+01
 d    1 1.00
 0.14696477366000E+00 0.10000000000000E+01
 f    1 1.00
 0.14280000000000E+01 0.10000000000000E+01
 
   14 0
 s    6 1.00
 0.19730800647000E+05 0.58626402628763E-03
 0.29578958745000E+04 0.45428820586397E-02
 0.67322133595000E+03 0.23558413450084E-01
 0.19068249494000E+03 0.94709193292923E-01
 0.62295441898000E+02 0.29719784913376E+00
 0.22654161182000E+02 0.66916246895232E+00
 s    2 1.00
 0.89791477428000E+01 0.64596683630063E+00
 0.36863002370000E+01 0.38700574393705E+00
 s    1 1.00
 0.84660076805000E+00 0.10000000000000E+01
 s    1 1.00
 0.33647133771000E+00 0.10000000000000E+01
 s    1 1.00
 0.13647653675000E+00 0.10000000000000E+01
 s    1 1.00
 0.68441605847000E-01 0.10000000000000E+01
 p    4 1.00
 0.49200380510000E+02 0.11448825101764E-01
 0.11346790537000E+02 0.78422337970864E-01
 0.34273972411000E+01 0.30818094738830E+00
 0.11785525134000E+01 0.72027196368413E+00
 p    1 1.00
 0.41642204972000E+00 0.10000000000000E+01
 p    1 1.00
 0.14260826011000E+00 0.10000000000000E+01
 d    1 1.00
 0.16540000000000E+01 0.10000000000000E+01
 d    1 1.00
 0.46900000000000E+00 0.10000000000000E+01
 d    1 1.00
 0.12829642058000E+00 0.10000000000000E+01
 f    1 1.00
 0.10930000000000E+01 0.10000000000000E+01
 
   15 0
 s    3 1.00
 0.34061341000000E+02 0.25439307208879E-01
 0.51235746000000E+01 0.19008594890375E+00
 0.11646626000000E+01 0.85244113011042E+00
 s    1 1.00
 0.32723041000000E+00 0.10000000000000E+01
 s    1 1.00
 0.10307241000000E+00 0.10000000000000E+01
 p    1 1.00
 0.80000000000000E+00 0.10000000000000E+01
 p    1 1.00
 0.95774129632000E-01 0.10000000000000E+01
 
   16 0
 s    3 1.00
 0.34061341000000E+02 0.25439307208879E-01
 0.51235746000000E+01 0.19008594890375E+00
 0.11646626000000E+01 0.85244113011042E+00
 s    1 1.00
 0.32723041000000E+00 0.10000000000000E+01
 s    1 1.00
 0.10307241000000E+00 0.10000000000000E+01
 p    1 1.00
 0.80000000000000E+00 0.10000000000000E+01
 p    1 1.00
 0.95774129632000E-01 0.10000000000000E+01
 
[MO]
 Sym= X
 Ene= -0.833363
 Spin= Alpha
 Occup= -0.833363
         1   -5.664283E-03
         2   -1.295340E-02
         3    2.656016E-02
         4   -7.697906E-03
         5    2.038094E-01
         6    3.423430E-02
         7    5.293117E-02
         8    5.230072E-03
         9    1.334322E-03
        10    6.028946E-02
        11    6.249441E-03
        12    1.338784E-03
        13    5.337162E-02
        14   -7.568818E-02
        15    9.674863E-04
        16   -1.733599E-03
        17    1.964998E-03
        18   -2.313985E-04
        19   -1.985729E-04
        20   -3.388753E-05
        21   -1.977698E-06
        22   -1.028131E-02
        23    7.203273E-03
        24    3.078034E-03
        25    1.154435E-03
        26   -8.631028E-05
        27    3.209569E-06
        28    5.086383E-03
        29   -1.158373E-03
        30   -3.928011E-03
        31   -1.238390E-02
        32   -2.104806E-04
        33    9.800680E-05
        34    7.696226E-05
        35   -1.359069E-04
        36   -8.241775E-06
        37    7.163347E-05
        38    2.138774E-04
        39    9.579137E-06
        40   -1.748892E-04
        41   -3.153912E-05
        42    1.478364E-06
        43    7.763542E-07
        44    4.010788E-07
        45    8.848378E-07
        46   -7.524916E-07
        47   -7.013544E-06
        48   -5.592093E-05
        49   -6.322013E-06
        50   -5.923659E-06
        51    3.584180E-02
        52   -7.026369E-07
        53   -5.826322E-06
        54    4.312147E-02
        55   -3.790500E-07
        56    1.213193E-05
        57   -1.809921E-01
        58    1.642573E-05
        59   -2.040779E-07
        60    1.826696E-07
        61    2.140827E-08
        62   -2.040074E-03
        63   -2.399077E-08
        64    4.351033E-05
        65   -3.163448E-07
        66    2.442307E-07
        67    7.211408E-08
        68    2.837613E-03
        69    3.402798E-07
        70    1.110710E-04
        71    1.838327E-05
        72   -1.950188E-05
        73    1.118615E-06
        74    3.369599E-02
        75   -1.821357E-06
        76    3.040672E-04
        77   -4.351759E-08
        78    6.511129E-04
        79   -1.069048E-08
        80    3.592279E-08
        81   -6.348048E-04
        82    1.399766E-08
        83    2.246218E-08
        84   -2.387548E-04
        85    3.451222E-10
        86   -7.604752E-06
        87    5.664217E-03
        88    1.295325E-02
        89   -2.656013E-02
        90    7.698039E-03
        91   -2.036425E-01
        92   -3.422921E-02
        93   -5.292885E-02
        94    5.233945E-03
        95   -1.335289E-03
        96   -6.028767E-02
        97    6.253390E-03
        98   -1.339442E-03
        99   -5.335719E-02
       100   -7.564460E-02
       101   -9.786391E-04
       102    1.733423E-03
       103   -1.964804E-03
       104    2.313812E-04
       105   -1.985226E-04
       106    3.390291E-05
       107   -1.995506E-06
       108    1.028109E-02
       109   -7.202976E-03
       110   -3.078116E-03
       111    1.154654E-03
       112    8.652551E-05
       113    2.865196E-06
       114   -5.076281E-03
       115    1.147489E-03
       116    3.928792E-03
       117   -1.239224E-02
       118    2.089629E-04
       119    9.299747E-05
       120   -7.696567E-05
       121   -1.358639E-04
       122    8.254423E-06
       123   -7.163337E-05
       124    2.138330E-04
       125   -9.601912E-06
       126    1.748937E-04
       127   -3.155247E-05
       128   -1.472558E-06
       129    7.673617E-07
       130   -3.649054E-03
       131   -8.255580E-03
       132    1.560498E-02
       133   -1.066255E-02
       134    6.973403E-02
       135    1.093863E-02
       136    3.702848E-02
       137   -7.563558E-04
       138   -1.276990E-03
       139    3.738042E-03
       140    6.113993E-03
       141   -1.291210E-03
       142   -1.166824E-02
       143    8.855019E-03
       144   -8.298887E-04
       145    1.023932E-03
       146   -8.724853E-04
       147   -1.514471E-04
       148    2.657240E-04
       149   -2.881273E-05
       150   -4.008595E-06
       151   -4.817726E-03
       152    3.112080E-03
       153    1.705646E-03
       154    7.071996E-05
       155   -7.709775E-05
       156    1.794934E-05
       157   -6.993276E-03
       158    7.801945E-03
       159   -8.086692E-04
       160    8.388103E-04
       161    2.935417E-04
       162   -9.914776E-05
       163    3.391966E-05
       164    2.492930E-05
       165    7.596297E-06
       166    1.626034E-05
       167   -2.511924E-05
       168   -8.888402E-06
       169   -6.176834E-05
       170   -8.326932E-06
       171   -1.303099E-06
       172   -1.154412E-06
       173    8.845776E-08
       174    2.036719E-07
       175   -5.424790E-07
       176    1.649618E-06
       177    6.440625E-05
       178    7.105052E-06
       179   -3.022602E-07
       180    1.900028E-02
       181    3.729620E-08
       182   -5.563894E-07
       183    2.399826E-02
       184    1.130553E-07
       185    1.300722E-05
       186    3.678258E-02
       187   -2.557387E-06
       188   -2.493863E-08
       189    2.893663E-08
       190   -3.998001E-09
       191   -3.251093E-07
       192   -3.290872E-09
       193    4.108032E-05
       194    2.619199E-07
       195   -1.465170E-07
       196   -1.154029E-07
       197    3.329724E-03
       198   -1.081479E-07
       199    1.555503E-04
       200   -8.857059E-06
       201    1.074598E-05
       202   -1.888919E-06
       203    5.092901E-03
       204   -5.485670E-07
       205   -2.985406E-04
       206   -3.657244E-09
       207    2.298008E-04
       208    5.862344E-10
       209    2.535476E-10
       210   -2.123982E-04
       211   -3.141053E-09
       212    4.653160E-09
       213   -9.591194E-05
       214    2.354537E-09
       215    7.970061E-06
       216    3.649203E-03
       217    8.255921E-03
       218   -1.560561E-02
       219    1.066472E-02
       220   -6.988486E-02
       221   -1.094581E-02
       222   -3.703101E-02
       223   -7.553728E-04
       224    1.276420E-03
       225   -3.740211E-03
       226    6.114990E-03
       227    1.291137E-03
       228    1.166218E-02
       229    8.913896E-03
       230    8.311313E-04
       231   -1.023989E-03
       232    8.725546E-04
       233    1.514345E-04
       234    2.655770E-04
       235    2.878609E-05
       236   -3.983989E-06
       237    4.817667E-03
       238   -3.112195E-03
       239   -1.705471E-03
       240    7.048338E-05
       241    7.721783E-05
       242    1.780513E-05
       243    6.988039E-03
       244   -7.796694E-03
       245    8.086554E-04
       246    8.455676E-04
       247   -2.941619E-04
       248   -1.008763E-04
       249   -3.393625E-05
       250    2.495974E-05
       251   -7.590295E-06
       252   -1.625591E-05
       253   -2.515155E-05
       254    8.881039E-06
       255    6.178617E-05
       256   -8.335455E-06
       257    1.302410E-06
       258   -1.155987E-06
       259    1.817871E-02
       260    2.503202E-02
       261    3.578889E-02
       262   -1.855544E-03
       263   -3.019981E-03
       264    4.682751E-05
       265   -7.408753E-03
       266    6.328141E-04
       267    1.569454E-05
       268   -1.817914E-02
       269   -2.503241E-02
       270   -3.577765E-02
       271    1.855758E-03
       272   -3.019941E-03
       273   -4.684423E-05
       274    7.395725E-03
       275    6.294875E-04
       276   -1.807493E-05
       277   -4.994994E-03
       278   -8.504039E-03
       279   -2.395669E-02
       280    3.642095E-04
       281   -7.970331E-04
       282   -6.065535E-05
       283   -4.037071E-04
       284   -1.576143E-03
       285   -6.415610E-05
       286    4.996273E-03
       287    8.505674E-03
       288    2.393729E-02
       289   -3.641940E-04
       290   -7.971441E-04
       291    6.055020E-05
       292    3.971156E-04
       293   -1.573876E-03
       294    6.368987E-05
       295    1.624512E-07
       296    3.800508E-07
       297   -4.302538E-07
       298   -9.418693E-07
       299   -2.969940E-05
       300   -8.346960E-06
       301    4.465436E-06
       302    2.972315E-02
       303   -4.659202E-07
       304    3.814718E-06
       305    2.243322E-02
       306   -6.855190E-08
       307   -8.389504E-06
       308   -7.474707E-03
       309    4.552884E-06
       310   -4.396750E-07
       311    5.202309E-07
       312   -8.055594E-08
       313    9.344891E-03
       314   -9.793671E-08
       315    1.181882E-05
       316   -1.408647E-06
       317    1.310790E-06
       318    9.785724E-08
       319    2.598600E-02
       320    4.803085E-08
       321    3.395688E-05
       322    1.726160E-06
       323    2.927258E-07
       324   -2.018885E-06
       325   -6.557456E-03
       326    4.281916E-06
       327   -5.797688E-05
       328    3.301057E-10
       329   -2.248279E-03
       330   -2.400369E-09
       331   -4.596377E-09
       332    3.127533E-03
       333   -3.159645E-08
       334    4.153494E-09
       335   -1.111497E-04
       336    3.481689E-08
       337    6.792237E-06
       338    6.609729E-04
       339    1.769006E-03
       340   -2.725313E-03
       341    3.976207E-03
       342   -9.579339E-03
       343    1.974937E-02
       344   -2.641671E-01
       345   -2.217434E-01
       346   -3.066066E-04
       347   -2.396486E-01
       348   -1.942884E-01
       349   -2.685966E-04
       350   -1.772086E-01
       351   -1.412327E-01
       352   -2.307245E-04
       353   -2.991147E-02
       354   -1.479565E-02
       355   -6.468206E-05
       356    2.148972E-03
       357   -2.712220E-03
       358    5.632485E-04
       359   -9.633395E-05
       360    3.116161E-06
       361    3.007122E-06
       362    6.622178E-03
       363   -7.131088E-03
       364    5.089102E-04
       365   -1.399427E-03
       366    1.146154E-05
       367    6.539863E-06
       368    8.375174E-03
       369   -7.170033E-03
       370   -1.205141E-03
       371   -6.934085E-04
       372    2.163700E-05
       373   -6.116767E-06
       374   -2.074270E-04
       375   -7.821914E-04
       376   -1.269806E-06
       377    3.996096E-04
       378    8.977461E-04
       379   -3.676696E-07
       380   -1.213172E-04
       381    1.516739E-04
       382    2.071293E-06
       383    1.289242E-06
       384   -6.610717E-04
       385   -1.769254E-03
       386    2.725515E-03
       387   -3.976258E-03
       388    9.584294E-03
       389   -1.974420E-02
       390    2.641419E-01
       391   -2.217393E-01
       392    3.107986E-04
       393    2.396260E-01
       394   -1.942846E-01
       395    2.728513E-04
       396    1.771962E-01
       397   -1.412346E-01
       398    2.259633E-04
       399    2.990970E-02
       400   -1.479509E-02
       401    6.374521E-05
       402   -2.148862E-03
       403    2.712190E-03
       404   -5.633277E-04
       405   -9.611690E-05
       406   -3.142072E-06
       407    2.944792E-06
       408   -6.621775E-03
       409    7.131033E-03
       410   -5.092575E-04
       411   -1.399000E-03
       412   -1.151388E-05
       413    6.668646E-06
       414   -8.375351E-03
       415    7.171169E-03
       416    1.204182E-03
       417   -6.943767E-04
       418   -2.372832E-05
       419   -2.513377E-06
       420    2.074656E-04
       421   -7.821499E-04
       422    1.273520E-06
       423   -3.996622E-04
       424    8.976500E-04
       425    3.336358E-07
       426    1.213180E-04
       427    1.517141E-04
       428   -2.042242E-06
       429    1.293490E-06
       430    4.095351E-08
       431    1.006519E-07
       432   -1.660323E-07
       433   -2.229314E-07
       434    3.575221E-06
       435    1.865487E-06
       436    3.282849E-08
       437   -7.886470E-03
       438    1.681715E-07
       439   -7.207430E-08
       440   -5.951879E-03
       441    1.723899E-07
       442   -4.388268E-06
       443   -4.179600E-03
       444   -1.486515E-07
       445    4.429034E-09
       446   -4.959727E-09
       447    5.306934E-10
       448    4.326914E-04
       449    6.590194E-09
       450   -1.094877E-04
       451   -1.122234E-07
       452    8.685186E-08
       453    2.537151E-08
       454    1.435891E-03
       455   -2.256000E-08
       456   -1.640569E-04
       457   -1.334871E-06
       458    4.190782E-07
       459    9.157933E-07
       460   -8.967659E-04
       461   -5.208704E-08
       462    8.641858E-05
       463   -2.644718E-09
       464   -7.504938E-05
       465    5.859056E-11
       466    2.078118E-09
       467    8.772446E-05
       468    4.072650E-10
       469    1.470144E-09
       470    1.296484E-05
       471   -4.858724E-10
       472    2.637881E-05
       473    4.274260E-03
       474    6.387867E-03
       475    8.986661E-03
       476    2.836947E-04
       477    3.847638E-04
       478   -1.310468E-04
       479    1.359752E-03
       480    8.273852E-04
       481   -3.179122E-04
       482   -4.274303E-03
       483   -6.388228E-03
       484   -8.985353E-03
       485   -2.836804E-04
       486    3.847864E-04
       487    1.309730E-04
       488   -1.360060E-03
       489    8.259930E-04
       490    3.174061E-04
 Sym= X
 Ene= 0.833363
 Spin= Alpha
 Occup= 0.833363
         1   -5.762714E-05
         2   -1.195156E-04
         3   -2.143787E-04
         4    5.129940E-03
         5   -1.370414E-01
         6   -2.789150E-02
         7   -6.667817E-04
         8   -2.964400E-05
         9    2.143806E-01
        10   -7.979668E-04
        11   -9.359121E-04
        12    2.180156E-01
        13   -5.412446E-03
        14    6.133719E-02
        15    1.347439E-01
        16    3.172521E-06
        17    6.366312E-07
        18   -3.809152E-06
        19   -3.366683E-05
        20    6.328753E-03
        21   -1.000027E-03
        22   -2.026273E-04
        23    1.371533E-04
        24    6.547401E-05
        25   -2.831851E-04
        26    2.087613E-02
        27    4.099023E-03
        28   -8.423298E-04
        29   -2.928013E-03
        30    3.770343E-03
        31    1.269863E-02
        32    2.349826E-02
        33    2.519798E-02
        34   -6.317380E-06
        35   -1.182873E-05
        36   -2.120279E-04
        37    4.451613E-06
        38    9.384910E-06
        39   -2.771067E-04
        40    4.024041E-06
        41    6.485001E-06
        42    5.615720E-04
        43   -5.043178E-06
        44    8.868746E-07
        45    1.960827E-06
        46    5.982215E-07
        47   -3.888472E-05
        48   -7.291575E-04
        49    1.386288E-04
        50   -9.228993E-07
        51    2.686379E-04
        52   -1.289065E-06
        53    3.017757E-06
        54   -1.335847E-03
        55   -4.731243E-06
        56    1.288189E-04
        57    1.259859E-01
        58    7.999171E-06
        59    1.549437E-08
        60   -3.517551E-07
        61    3.362607E-07
        62   -2.528303E-05