[Molden Format]
[Title]
ADC(2) - opt by CAM-B3LYP gaussian                                              
[Atoms] AU
 c     1    6 0.12593230616935E+01 0.22795690751954E+01 -.36278607975490E-01
 c     2    6 0.25504236399298E+01 0.18897261300000E-05 -.34511714041240E-01
 c     3    6 0.12593268411458E+01 -.22795652957431E+01 -.36289946332290E-01
 c     4    6 -.13369660030996E+01 -.22791608943507E+01 -.39583738981910E-01
 c     5    6 -.26856068523561E+01 -.18897261300000E-05 -.40110972572980E-01
 c     6    6 -.13369678928258E+01 0.22791590046246E+01 -.39570510898980E-01
 h     7    1 0.23068095955089E+01 0.40296066523382E+01 -.33243707806080E-01
 h     8    1 0.23068152646873E+01 -.40296028728859E+01 -.33262605067400E-01
 h     9    1 -.23553205188504E+01 -.40525668248527E+01 -.45200005048840E-01
 h    10    1 -.23553280777549E+01 0.40525630454004E+01 -.45173548882980E-01
 n    11    7 0.52878147756133E+01 0.00000000000000E+00 -.27472484196240E-01
 o    12    8 0.63764576548767E+01 -.20283488830896E+01 -.24482937454020E-01
 o    13    8 0.63764614343290E+01 0.20283469933635E+01 -.24515062798280E-01
 n    14    7 -.52636676188715E+01 0.00000000000000E+00 -.10786332361533E+00
 h    15    1 -.61947904866021E+01 -.16076731691957E+01 0.28377485852069E+00
 h    16    1 -.61947848174237E+01 0.16076731691957E+01 0.28378430715135E+00
[GTO]
    1 0
 s    6 1.00
 0.13575349682000E+05 0.60645503603591E-03
 0.20352333680000E+04 0.46979088884982E-02
 0.46322562359000E+03 0.24332477647552E-01
 0.13120019598000E+03 0.97399968307759E-01
 0.42853015891000E+02 0.30195584253780E+00
 0.15584185766000E+02 0.66233609137875E+00
 s    2 1.00
 0.62067138508000E+01 0.65595308539952E+00
 0.25764896527000E+01 0.37585633285142E+00
 s    1 1.00
 0.57696339419000E+00 0.10000000000000E+01
 s    1 1.00
 0.22972831358000E+00 0.10000000000000E+01
 s    1 1.00
 0.95164440028000E-01 0.10000000000000E+01
 s    1 1.00
 0.48475401370000E-01 0.10000000000000E+01
 p    4 1.00
 0.34697232244000E+02 0.11327220003114E-01
 0.79582622826000E+01 0.76169659202087E-01
 0.23780826883000E+01 0.30192252202676E+00
 0.81433208183000E+00 0.72785027349547E+00
 p    1 1.00
 0.28887547253000E+00 0.10000000000000E+01
 p    1 1.00
 0.10056823671000E+00 0.10000000000000E+01
 d    1 1.00
 0.10970000000000E+01 0.10000000000000E+01
 d    1 1.00
 0.31800000000000E+00 0.10000000000000E+01
 d    1 1.00
 0.90985336424000E-01 0.10000000000000E+01
 f    1 1.00
 0.76100000000000E+00 0.10000000000000E+01
 
    2 0
 s    6 1.00
 0.13575349682000E+05 0.60645503603591E-03
 0.20352333680000E+04 0.46979088884982E-02
 0.46322562359000E+03 0.24332477647552E-01
 0.13120019598000E+03 0.97399968307759E-01
 0.42853015891000E+02 0.30195584253780E+00
 0.15584185766000E+02 0.66233609137875E+00
 s    2 1.00
 0.62067138508000E+01 0.65595308539952E+00
 0.25764896527000E+01 0.37585633285142E+00
 s    1 1.00
 0.57696339419000E+00 0.10000000000000E+01
 s    1 1.00
 0.22972831358000E+00 0.10000000000000E+01
 s    1 1.00
 0.95164440028000E-01 0.10000000000000E+01
 s    1 1.00
 0.48475401370000E-01 0.10000000000000E+01
 p    4 1.00
 0.34697232244000E+02 0.11327220003114E-01
 0.79582622826000E+01 0.76169659202087E-01
 0.23780826883000E+01 0.30192252202676E+00
 0.81433208183000E+00 0.72785027349547E+00
 p    1 1.00
 0.28887547253000E+00 0.10000000000000E+01
 p    1 1.00
 0.10056823671000E+00 0.10000000000000E+01
 d    1 1.00
 0.10970000000000E+01 0.10000000000000E+01
 d    1 1.00
 0.31800000000000E+00 0.10000000000000E+01
 d    1 1.00
 0.90985336424000E-01 0.10000000000000E+01
 f    1 1.00
 0.76100000000000E+00 0.10000000000000E+01
 
    3 0
 s    6 1.00
 0.13575349682000E+05 0.60645503603591E-03
 0.20352333680000E+04 0.46979088884982E-02
 0.46322562359000E+03 0.24332477647552E-01
 0.13120019598000E+03 0.97399968307759E-01
 0.42853015891000E+02 0.30195584253780E+00
 0.15584185766000E+02 0.66233609137875E+00
 s    2 1.00
 0.62067138508000E+01 0.65595308539952E+00
 0.25764896527000E+01 0.37585633285142E+00
 s    1 1.00
 0.57696339419000E+00 0.10000000000000E+01
 s    1 1.00
 0.22972831358000E+00 0.10000000000000E+01
 s    1 1.00
 0.95164440028000E-01 0.10000000000000E+01
 s    1 1.00
 0.48475401370000E-01 0.10000000000000E+01
 p    4 1.00
 0.34697232244000E+02 0.11327220003114E-01
 0.79582622826000E+01 0.76169659202087E-01
 0.23780826883000E+01 0.30192252202676E+00
 0.81433208183000E+00 0.72785027349547E+00
 p    1 1.00
 0.28887547253000E+00 0.10000000000000E+01
 p    1 1.00
 0.10056823671000E+00 0.10000000000000E+01
 d    1 1.00
 0.10970000000000E+01 0.10000000000000E+01
 d    1 1.00
 0.31800000000000E+00 0.10000000000000E+01
 d    1 1.00
 0.90985336424000E-01 0.10000000000000E+01
 f    1 1.00
 0.76100000000000E+00 0.10000000000000E+01
 
    4 0
 s    6 1.00
 0.13575349682000E+05 0.60645503603591E-03
 0.20352333680000E+04 0.46979088884982E-02
 0.46322562359000E+03 0.24332477647552E-01
 0.13120019598000E+03 0.97399968307759E-01
 0.42853015891000E+02 0.30195584253780E+00
 0.15584185766000E+02 0.66233609137875E+00
 s    2 1.00
 0.62067138508000E+01 0.65595308539952E+00
 0.25764896527000E+01 0.37585633285142E+00
 s    1 1.00
 0.57696339419000E+00 0.10000000000000E+01
 s    1 1.00
 0.22972831358000E+00 0.10000000000000E+01
 s    1 1.00
 0.95164440028000E-01 0.10000000000000E+01
 s    1 1.00
 0.48475401370000E-01 0.10000000000000E+01
 p    4 1.00
 0.34697232244000E+02 0.11327220003114E-01
 0.79582622826000E+01 0.76169659202087E-01
 0.23780826883000E+01 0.30192252202676E+00
 0.81433208183000E+00 0.72785027349547E+00
 p    1 1.00
 0.28887547253000E+00 0.10000000000000E+01
 p    1 1.00
 0.10056823671000E+00 0.10000000000000E+01
 d    1 1.00
 0.10970000000000E+01 0.10000000000000E+01
 d    1 1.00
 0.31800000000000E+00 0.10000000000000E+01
 d    1 1.00
 0.90985336424000E-01 0.10000000000000E+01
 f    1 1.00
 0.76100000000000E+00 0.10000000000000E+01
 
    5 0
 s    6 1.00
 0.13575349682000E+05 0.60645503603591E-03
 0.20352333680000E+04 0.46979088884982E-02
 0.46322562359000E+03 0.24332477647552E-01
 0.13120019598000E+03 0.97399968307759E-01
 0.42853015891000E+02 0.30195584253780E+00
 0.15584185766000E+02 0.66233609137875E+00
 s    2 1.00
 0.62067138508000E+01 0.65595308539952E+00
 0.25764896527000E+01 0.37585633285142E+00
 s    1 1.00
 0.57696339419000E+00 0.10000000000000E+01
 s    1 1.00
 0.22972831358000E+00 0.10000000000000E+01
 s    1 1.00
 0.95164440028000E-01 0.10000000000000E+01
 s    1 1.00
 0.48475401370000E-01 0.10000000000000E+01
 p    4 1.00
 0.34697232244000E+02 0.11327220003114E-01
 0.79582622826000E+01 0.76169659202087E-01
 0.23780826883000E+01 0.30192252202676E+00
 0.81433208183000E+00 0.72785027349547E+00
 p    1 1.00
 0.28887547253000E+00 0.10000000000000E+01
 p    1 1.00
 0.10056823671000E+00 0.10000000000000E+01
 d    1 1.00
 0.10970000000000E+01 0.10000000000000E+01
 d    1 1.00
 0.31800000000000E+00 0.10000000000000E+01
 d    1 1.00
 0.90985336424000E-01 0.10000000000000E+01
 f    1 1.00
 0.76100000000000E+00 0.10000000000000E+01
 
    6 0
 s    6 1.00
 0.13575349682000E+05 0.60645503603591E-03
 0.20352333680000E+04 0.46979088884982E-02
 0.46322562359000E+03 0.24332477647552E-01
 0.13120019598000E+03 0.97399968307759E-01
 0.42853015891000E+02 0.30195584253780E+00
 0.15584185766000E+02 0.66233609137875E+00
 s    2 1.00
 0.62067138508000E+01 0.65595308539952E+00
 0.25764896527000E+01 0.37585633285142E+00
 s    1 1.00
 0.57696339419000E+00 0.10000000000000E+01
 s    1 1.00
 0.22972831358000E+00 0.10000000000000E+01
 s    1 1.00
 0.95164440028000E-01 0.10000000000000E+01
 s    1 1.00
 0.48475401370000E-01 0.10000000000000E+01
 p    4 1.00
 0.34697232244000E+02 0.11327220003114E-01
 0.79582622826000E+01 0.76169659202087E-01
 0.23780826883000E+01 0.30192252202676E+00
 0.81433208183000E+00 0.72785027349547E+00
 p    1 1.00
 0.28887547253000E+00 0.10000000000000E+01
 p    1 1.00
 0.10056823671000E+00 0.10000000000000E+01
 d    1 1.00
 0.10970000000000E+01 0.10000000000000E+01
 d    1 1.00
 0.31800000000000E+00 0.10000000000000E+01
 d    1 1.00
 0.90985336424000E-01 0.10000000000000E+01
 f    1 1.00
 0.76100000000000E+00 0.10000000000000E+01
 
    7 0
 s    3 1.00
 0.34061341000000E+02 0.25439307208879E-01
 0.51235746000000E+01 0.19008594890375E+00
 0.11646626000000E+01 0.85244113011042E+00
 s    1 1.00
 0.32723041000000E+00 0.10000000000000E+01
 s    1 1.00
 0.10307241000000E+00 0.10000000000000E+01
 p    1 1.00
 0.80000000000000E+00 0.10000000000000E+01
 p    1 1.00
 0.95774129632000E-01 0.10000000000000E+01
 
    8 0
 s    3 1.00
 0.34061341000000E+02 0.25439307208879E-01
 0.51235746000000E+01 0.19008594890375E+00
 0.11646626000000E+01 0.85244113011042E+00
 s    1 1.00
 0.32723041000000E+00 0.10000000000000E+01
 s    1 1.00
 0.10307241000000E+00 0.10000000000000E+01
 p    1 1.00
 0.80000000000000E+00 0.10000000000000E+01
 p    1 1.00
 0.95774129632000E-01 0.10000000000000E+01
 
    9 0
 s    3 1.00
 0.34061341000000E+02 0.25439307208879E-01
 0.51235746000000E+01 0.19008594890375E+00
 0.11646626000000E+01 0.85244113011042E+00
 s    1 1.00
 0.32723041000000E+00 0.10000000000000E+01
 s    1 1.00
 0.10307241000000E+00 0.10000000000000E+01
 p    1 1.00
 0.80000000000000E+00 0.10000000000000E+01
 p    1 1.00
 0.95774129632000E-01 0.10000000000000E+01
 
   10 0
 s    3 1.00
 0.34061341000000E+02 0.25439307208879E-01
 0.51235746000000E+01 0.19008594890375E+00
 0.11646626000000E+01 0.85244113011042E+00
 s    1 1.00
 0.32723041000000E+00 0.10000000000000E+01
 s    1 1.00
 0.10307241000000E+00 0.10000000000000E+01
 p    1 1.00
 0.80000000000000E+00 0.10000000000000E+01
 p    1 1.00
 0.95774129632000E-01 0.10000000000000E+01
 
   11 0
 s    6 1.00
 0.19730800647000E+05 0.58626402628763E-03
 0.29578958745000E+04 0.45428820586397E-02
 0.67322133595000E+03 0.23558413450084E-01
 0.19068249494000E+03 0.94709193292923E-01
 0.62295441898000E+02 0.29719784913376E+00
 0.22654161182000E+02 0.66916246895232E+00
 s    2 1.00
 0.89791477428000E+01 0.64596683630063E+00
 0.36863002370000E+01 0.38700574393705E+00
 s    1 1.00
 0.84660076805000E+00 0.10000000000000E+01
 s    1 1.00
 0.33647133771000E+00 0.10000000000000E+01
 s    1 1.00
 0.13647653675000E+00 0.10000000000000E+01
 s    1 1.00
 0.68441605847000E-01 0.10000000000000E+01
 p    4 1.00
 0.49200380510000E+02 0.11448825101764E-01
 0.11346790537000E+02 0.78422337970864E-01
 0.34273972411000E+01 0.30818094738830E+00
 0.11785525134000E+01 0.72027196368413E+00
 p    1 1.00
 0.41642204972000E+00 0.10000000000000E+01
 p    1 1.00
 0.14260826011000E+00 0.10000000000000E+01
 d    1 1.00
 0.16540000000000E+01 0.10000000000000E+01
 d    1 1.00
 0.46900000000000E+00 0.10000000000000E+01
 d    1 1.00
 0.12829642058000E+00 0.10000000000000E+01
 f    1 1.00
 0.10930000000000E+01 0.10000000000000E+01
 
   12 0
 s    6 1.00
 0.27032382631000E+05 0.57227335211155E-03
 0.40523871392000E+04 0.44353233492995E-02
 0.92232722710000E+03 0.23020107706038E-01
 0.26124070989000E+03 0.92822490667928E-01
 0.85354641351000E+02 0.29378500009671E+00
 0.31035035245000E+02 0.67401604501641E+00
 s    2 1.00
 0.12260860728000E+02 0.63839937025506E+00
 0.49987076005000E+01 0.39534587125718E+00
 s    1 1.00
 0.11703108158000E+01 0.10000000000000E+01
 s    1 1.00
 0.46474740994000E+00 0.10000000000000E+01
 s    1 1.00
 0.18504536357000E+00 0.10000000000000E+01
 s    1 1.00
 0.70288026270000E-01 0.10000000000000E+01
 p    4 1.00
 0.63274954801000E+02 0.12018332222616E-01
 0.14627049379000E+02 0.83005421790056E-01
 0.44501223456000E+01 0.31991743925964E+00
 0.15275799647000E+01 0.70715542916104E+00
 p    1 1.00
 0.52935117943000E+00 0.10000000000000E+01
 p    1 1.00
 0.17478421270000E+00 0.10000000000000E+01
 p    1 1.00
 0.51112745706000E-01 0.10000000000000E+01
 d    1 1.00
 0.23140000000000E+01 0.10000000000000E+01
 d    1 1.00
 0.64500000000000E+00 0.10000000000000E+01
 d    1 1.00
 0.14696477366000E+00 0.10000000000000E+01
 f    1 1.00
 0.14280000000000E+01 0.10000000000000E+01
 
   13 0
 s    6 1.00
 0.27032382631000E+05 0.57227335211155E-03
 0.40523871392000E+04 0.44353233492995E-02
 0.92232722710000E+03 0.23020107706038E-01
 0.26124070989000E+03 0.92822490667928E-01
 0.85354641351000E+02 0.29378500009671E+00
 0.31035035245000E+02 0.67401604501641E+00
 s    2 1.00
 0.12260860728000E+02 0.63839937025506E+00
 0.49987076005000E+01 0.39534587125718E+00
 s    1 1.00
 0.11703108158000E+01 0.10000000000000E+01
 s    1 1.00
 0.46474740994000E+00 0.10000000000000E+01
 s    1 1.00
 0.18504536357000E+00 0.10000000000000E+01
 s    1 1.00
 0.70288026270000E-01 0.10000000000000E+01
 p    4 1.00
 0.63274954801000E+02 0.12018332222616E-01
 0.14627049379000E+02 0.83005421790056E-01
 0.44501223456000E+01 0.31991743925964E+00
 0.15275799647000E+01 0.70715542916104E+00
 p    1 1.00
 0.52935117943000E+00 0.10000000000000E+01
 p    1 1.00
 0.17478421270000E+00 0.10000000000000E+01
 p    1 1.00
 0.51112745706000E-01 0.10000000000000E+01
 d    1 1.00
 0.23140000000000E+01 0.10000000000000E+01
 d    1 1.00
 0.64500000000000E+00 0.10000000000000E+01
 d    1 1.00
 0.14696477366000E+00 0.10000000000000E+01
 f    1 1.00
 0.14280000000000E+01 0.10000000000000E+01
 
   14 0
 s    6 1.00
 0.19730800647000E+05 0.58626402628763E-03
 0.29578958745000E+04 0.45428820586397E-02
 0.67322133595000E+03 0.23558413450084E-01
 0.19068249494000E+03 0.94709193292923E-01
 0.62295441898000E+02 0.29719784913376E+00
 0.22654161182000E+02 0.66916246895232E+00
 s    2 1.00
 0.89791477428000E+01 0.64596683630063E+00
 0.36863002370000E+01 0.38700574393705E+00
 s    1 1.00
 0.84660076805000E+00 0.10000000000000E+01
 s    1 1.00
 0.33647133771000E+00 0.10000000000000E+01
 s    1 1.00
 0.13647653675000E+00 0.10000000000000E+01
 s    1 1.00
 0.68441605847000E-01 0.10000000000000E+01
 p    4 1.00
 0.49200380510000E+02 0.11448825101764E-01
 0.11346790537000E+02 0.78422337970864E-01
 0.34273972411000E+01 0.30818094738830E+00
 0.11785525134000E+01 0.72027196368413E+00
 p    1 1.00
 0.41642204972000E+00 0.10000000000000E+01
 p    1 1.00
 0.14260826011000E+00 0.10000000000000E+01
 d    1 1.00
 0.16540000000000E+01 0.10000000000000E+01
 d    1 1.00
 0.46900000000000E+00 0.10000000000000E+01
 d    1 1.00
 0.12829642058000E+00 0.10000000000000E+01
 f    1 1.00
 0.10930000000000E+01 0.10000000000000E+01
 
   15 0
 s    3 1.00
 0.34061341000000E+02 0.25439307208879E-01
 0.51235746000000E+01 0.19008594890375E+00
 0.11646626000000E+01 0.85244113011042E+00
 s    1 1.00
 0.32723041000000E+00 0.10000000000000E+01
 s    1 1.00
 0.10307241000000E+00 0.10000000000000E+01
 p    1 1.00
 0.80000000000000E+00 0.10000000000000E+01
 p    1 1.00
 0.95774129632000E-01 0.10000000000000E+01
 
   16 0
 s    3 1.00
 0.34061341000000E+02 0.25439307208879E-01
 0.51235746000000E+01 0.19008594890375E+00
 0.11646626000000E+01 0.85244113011042E+00
 s    1 1.00
 0.32723041000000E+00 0.10000000000000E+01
 s    1 1.00
 0.10307241000000E+00 0.10000000000000E+01
 p    1 1.00
 0.80000000000000E+00 0.10000000000000E+01
 p    1 1.00
 0.95774129632000E-01 0.10000000000000E+01
 
[MO]
 Sym= X
 Ene= -0.139803
 Spin= Alpha
 Occup= -0.139803
         1   -3.218256E-04
         2   -7.453780E-04
         3    2.082021E-03
         4   -4.843376E-03
         5    3.526541E-02
         6   -1.898669E-02
         7   -3.441437E-03
         8   -4.147500E-04
         9    1.928658E-02
        10    3.877328E-03
        11   -9.422135E-04
        12    1.756893E-02
        13    4.662397E-02
        14   -1.922498E-02
        15    9.720042E-03
        16    2.678482E-05
        17   -4.287461E-05
        18    1.608979E-05
        19   -2.472260E-05
        20    5.868320E-03
        21   -3.330564E-03
        22   -1.069062E-03
        23    6.378734E-04
        24    4.311887E-04
        25   -1.215471E-03
        26    1.332455E-02
        27   -6.356251E-03
        28   -4.375024E-03
        29    3.956982E-03
        30    4.180419E-04
        31    2.665347E-03
        32   -4.224787E-03
        33    1.069246E-02
        34    3.255508E-05
        35   -1.084724E-05
        36   -2.335099E-05
        37   -1.449342E-05
        38    8.435884E-06
        39   -7.262689E-04
        40   -2.918381E-05
        41    6.117216E-06
        42    7.575975E-04
        43   -6.108661E-04
        44    7.559098E-05
        45    1.655283E-04
        46    2.112698E-04
        47   -5.890070E-03
        48   -7.920766E-02
        49    1.029825E-02
        50   -2.896967E-04
        51   -1.994379E-07
        52    1.742227E-01
        53    1.125142E-03
        54   -7.294237E-06
        55    1.810124E-01
        56    2.000074E-02
        57    3.328923E-04
        58    1.834042E-01
        59    9.350187E-05
        60   -8.887407E-05
        61   -4.627802E-06
        62    4.577830E-08
        63    3.904360E-04
        64    1.097179E-06
        65    6.876889E-04
        66   -1.125070E-03
        67    4.373809E-04
        68    1.384279E-06
        69    2.393400E-03
        70    2.613580E-06
        71    2.119188E-02
        72   -2.342706E-02
        73    2.235179E-03
        74   -6.125647E-05
        75   -3.033870E-03
        76    2.241187E-05
        77   -1.095034E-05
        78   -4.205042E-09
        79   -9.216636E-04
        80    1.341961E-05
        81   -2.113971E-08
        82    5.033413E-04
        83    1.271814E-06
        84    2.678136E-08
        85    7.332002E-04
        86   -1.144648E-07
        87   -3.205896E-04
        88   -7.426154E-04
        89    2.077956E-03
        90   -4.850188E-03
        91    3.611585E-02
        92   -1.898825E-02
        93   -3.442316E-03
        94    4.174632E-04
        95    1.923580E-02
        96    3.858878E-03
        97    9.418471E-04
        98    1.751820E-02
        99    4.674361E-02
       100    1.953217E-02
       101    9.707352E-03
       102    2.673668E-05
       103   -4.290888E-05
       104    1.617220E-05
       105    2.485433E-05
       106    5.869683E-03
       107    3.330444E-03
       108   -1.065409E-03
       109    6.341530E-04
       110    4.312565E-04
       111    1.214306E-03
       112    1.332617E-02
       113    6.356180E-03
       114   -4.438582E-03
       115    4.028665E-03
       116    4.099171E-04
       117   -2.598764E-03
       118   -4.197143E-03
       119   -1.067303E-02
       120    3.258542E-05
       121    1.082381E-05
       122   -2.298451E-05
       123   -1.458407E-05
       124   -8.392791E-06
       125   -7.267232E-04
       126   -2.913387E-05
       127   -6.128877E-06
       128    7.575601E-04
       129    6.108306E-04
       130    2.138545E-04
       131    4.663133E-04
       132    7.689258E-04
       133   -1.657043E-02
       134    3.100783E-03
       135    2.256722E-02
       136    2.974061E-03
       137   -1.149082E-03
       138   -1.514394E-01
       139    1.594885E-02
       140   -1.025426E-02
       141   -1.540013E-01
       142    1.881324E-02
       143    1.317192E-02
       144   -9.409023E-02
       145    2.623046E-04
       146   -3.128547E-04
       147    5.055013E-05
       148    4.940181E-06
       149    8.091467E-04
       150   -2.996229E-03
       151    1.163753E-03
       152   -1.315301E-03
       153    1.515479E-04
       154    2.732759E-03
       155    4.356079E-03
       156   -4.813293E-03
       157    1.172738E-02
       158   -8.641222E-03
       159   -3.086159E-03
       160   -1.838203E-02
       161   -4.957941E-03
       162    1.292166E-02
       163    2.999980E-05
       164   -1.680474E-05
       165    8.646473E-04
       166    2.887897E-05
       167   -2.654378E-05
       168   -2.147849E-04
       169   -6.912793E-05
       170    4.908971E-05
       171   -9.452613E-04
       172    3.184016E-04
       173   -1.805174E-03
       174   -4.103689E-03
       175    4.032928E-03
       176    3.598509E-02
       177   -7.698612E-02
       178    1.057236E-02
       179   -1.509922E-02
       180    2.682874E-07
       181   -1.107675E-01
       182   -9.264160E-04
       183    7.090325E-06
       184   -1.143861E-01
       185    6.841919E-02
       186   -3.907583E-04
       187   -1.395537E-01
       188    8.324360E-04
       189   -4.891651E-04
       190   -3.432708E-04
       191    1.651773E-07
       192   -1.023105E-02
       193    9.008907E-07
       194   -2.938483E-03
       195    6.554152E-03
       196   -3.615669E-03
       197    1.803391E-06
       198   -2.502001E-02
       199    3.633910E-06
       200   -1.457375E-02
       201    1.580153E-02
       202   -1.227783E-03
       203   -1.033002E-04
       204   -1.447165E-02
       205   -2.480555E-05
       206   -1.926301E-04
       207    6.314522E-09
       208    2.476913E-04
       209    1.398542E-04
       210    2.621948E-08
       211    1.171319E-03
       212    1.185861E-04
       213   -3.469130E-08
       214   -1.503632E-03
       215    1.998830E-07
       216    2.134640E-04
       217    4.654246E-04
       218    7.704159E-04
       219   -1.657341E-02
       220    4.125293E-03
       221    2.254099E-02
       222    2.974988E-03
       223    1.147787E-03
       224   -1.513835E-01
       225    1.596030E-02
       226    1.025922E-02
       227   -1.539483E-01
       228    1.872559E-02
       229   -1.358233E-02
       230   -9.401403E-02
       231    2.623117E-04
       232   -3.130233E-04
       233    5.071162E-05
       234   -4.777003E-06
       235    8.104383E-04
       236    2.996145E-03
       237    1.167081E-03
       238   -1.318870E-03
       239    1.517888E-04
       240   -2.734442E-03
       241    4.358150E-03
       242    4.813393E-03
       243    1.166166E-02
       244   -8.576761E-03
       245   -3.084903E-03
       246    1.844037E-02
       247   -4.992234E-03
       248   -1.294826E-02
       249    3.005439E-05
       250    1.684556E-05
       251    8.643454E-04
       252    2.894340E-05
       253    2.649648E-05
       254   -2.144309E-04
       255   -6.926560E-05
       256   -4.909717E-05
       257   -9.452102E-04
       258   -3.184100E-04
       259   -8.057765E-04
       260   -5.704322E-04
       261   -2.686928E-02
       262    2.110629E-05
       263    1.643562E-05
       264    8.209368E-04
       265    8.010960E-03
       266    1.520800E-03
       267   -5.722375E-03
       268   -8.086936E-04
       269   -5.702441E-04
       270   -2.685068E-02
       271    2.090884E-05
       272   -1.623711E-05
       273    8.186853E-04
       274    8.074979E-03
       275   -1.494531E-03
       276   -5.722948E-03
       277   -8.510328E-04
       278   -4.171684E-03
       279    5.879904E-02
       280    3.406946E-05
       281   -1.910286E-04
       282   -6.123404E-03
       283    2.184140E-03
       284    5.096742E-03
       285    9.932315E-04
       286   -8.522776E-04
       287   -4.167783E-03
       288    5.889995E-02
       289    3.403123E-05
       290    1.906416E-04
       291   -6.121167E-03
       292    2.148767E-03
       293   -5.124838E-03
       294    1.001220E-03
       295   -8.795497E-05
       296   -2.059351E-04
       297    2.252426E-04
       298    5.143819E-04
       299   -1.426509E-02
       300   -2.525634E-03
       301   -9.192368E-04
       302    1.769357E-08
       303    4.593093E-03
       304   -3.532489E-04
       305    3.968914E-07
       306    7.342315E-03
       307    4.978638E-03
       308    7.264232E-07
       309   -6.922544E-04
       310    2.261062E-05
       311   -1.055081E-05
       312   -1.205981E-05
       313   -1.765912E-08
       314   -3.751199E-03
       315    2.762062E-06
       316   -1.703588E-05
       317    9.098031E-05
       318   -7.394444E-05
       319   -7.526823E-08
       320   -1.111635E-02
       321    8.105411E-06
       322   -6.153059E-04
       323    4.327995E-03
       324   -3.712689E-03
       325    8.671899E-06
       326   -2.169639E-03
       327   -3.528772E-06
       328   -9.955607E-06
       329   -6.679249E-09
       330    4.847735E-05
       331    6.824767E-06
       332   -4.236927E-09
       333    5.835678E-04
       334    6.532081E-06
       335    1.319808E-08
       336   -6.486070E-04
       337    4.445545E-07
       338   -3.508934E-05
       339   -7.956131E-05
       340    4.249316E-05
       341    9.464118E-04
       342   -1.005564E-02
       343   -1.937196E-03
       344    2.202213E-04
       345   -3.058562E-04
       346   -6.865002E-02
       347    4.230422E-04
       348   -4.906830E-04
       349   -6.355614E-02
       350    1.711697E-03
       351   -1.140459E-03
       352   -4.896575E-02
       353    4.550867E-04
       354   -3.043976E-04
       355   -5.520383E-03
       356    6.525956E-06
       357   -9.813067E-06
       358    3.287111E-06
       359    4.790456E-07
       360    6.517845E-05
       361   -5.346571E-04
       362   -1.188897E-05
       363   -2.434343E-05
       364    3.623240E-05
       365    1.246377E-05
       366    6.678443E-04
       367   -1.687809E-03
       368   -8.427710E-05
       369   -1.166209E-05
       370    9.593919E-05
       371   -3.670405E-05
       372    5.397498E-04
       373   -4.135472E-04
       374   -1.086149E-06
       375   -3.816167E-06
       376    7.531597E-05
       377    1.990915E-06
       378    1.894073E-06
       379    7.730754E-05
       380   -5.336939E-07
       381    3.225853E-06
       382   -1.783545E-04
       383    1.429073E-04
       384   -3.488889E-05
       385   -7.907893E-05
       386    4.184433E-05
       387    9.453419E-04
       388   -1.006585E-02
       389   -1.924323E-03
       390    2.182860E-04
       391    3.049837E-04
       392   -6.850348E-02
       393    4.213938E-04
       394    4.900724E-04
       395   -6.342218E-02
       396    1.705177E-03
       397    1.143517E-03
       398   -4.886103E-02
       399    4.494337E-04
       400    3.063927E-04
       401   -5.506374E-03
       402    6.523959E-06
       403   -9.785991E-06
       404    3.262032E-06
       405   -4.775511E-07
       406    6.437305E-05
       407    5.334317E-04
       408   -1.176334E-05
       409   -2.438698E-05
       410    3.615032E-05
       411   -1.240465E-05
       412    6.650833E-04
       413    1.683566E-03
       414   -8.508861E-05
       415   -1.069998E-05
       416    9.578859E-05
       417    3.602627E-05
       418    5.365862E-04
       419    4.091924E-04
       420   -1.084972E-06
       421    3.809523E-06
       422    7.509751E-05
       423    1.986176E-06
       424   -1.898678E-06
       425    7.726474E-05
       426   -5.305338E-07
       427   -3.212334E-06
       428   -1.780186E-04
       429   -1.425064E-04
       430    8.177166E-03
       431    1.938109E-02
       432   -2.995595E-02
       433   -4.918203E-02
       434   -1.511135E-02
       435   -9.860065E-02
       436    2.962026E-02
       437   -6.832312E-06
       438    2.822193E-01
       439    3.358621E-02
       440   -2.686943E-06
       441    2.772825E-01
       442    3.906409E-02
       443    4.258841E-05
       444    2.231732E-01
       445   -2.145133E-04
       446   -9.685765E-05
       447    3.113710E-04
       448    1.247926E-07
       449   -7.662237E-04
       450   -1.607207E-07
       451   -4.151189E-04
       452   -2.767555E-03
       453    3.182674E-03
       454   -1.660593E-06
       455   -3.425119E-03
       456   -8.354666E-07
       457   -3.139285E-03
       458   -7.108367E-03
       459    1.024765E-02
       460   -4.762019E-06
       461   -2.381699E-03
       462   -4.301849E-06
       463    2.190608E-04
       464   -3.767321E-08
       465   -1.089345E-03
       466    1.566515E-04
       467   -1.782835E-08
       468    5.953569E-04
       469   -4.505523E-04
       470    6.837227E-08
       471    8.661528E-04
       472    2.017145E-08
       473    1.442550E-02
       474    2.903210E-02
       475    5.630868E-02
       476    3.625308E-03
       477    3.013021E-03
       478    1.396209E-02
       479    3.741970E-04
       480    6.296485E-03
       481    1.532405E-02
       482    1.442111E-02
       483    2.899609E-02
       484    5.615053E-02
       485    3.623144E-03
       486   -3.010035E-03
       487    1.396472E-02
       488    3.445845E-04
       489   -6.280081E-03
       490    1.533673E-02
 Sym= X
 Ene= -0.719582
 Spin= Alpha
 Occup= -0.719582
         1   -3.602384E-05
         2   -8.250616E-05
         3    2.190293E-04
         4   -4.097946E-04
         5   -6.432170E-03
         6   -4.481880E-04
         7    4.085980E-05
         8    1.794918E-04
         9   -1.384155E-01
        10    8.782849E-04
        11   -9.537777E-05
        12   -1.391371E-01
        13   -5.101209E-03
        14    5.157169E-03
        15   -7.440155E-02
        16   -6.358741E-06
        17    2.391876E-06
        18    3.966865E-06
        19    3.673657E-06
        20    3.810306E-03
        21    3.815713E-04
        22   -1.791065E-04
        23    1.267433E-04
        24    5.236326E-05
        25    5.534094E-06
        26    8.200488E-03
        27   -5.490819E-04
        28    1.078123E-03
        29   -1.136846E-03
        30    5.872288E-05
        31    5.042569E-04
        32    5.314061E-03
        33   -3.221136E-03
        34    5.519860E-06
        35    4.462453E-07
        36    8.254662E-04
        37   -1.496155E-06
        38   -1.781065E-07
        39   -1.007931E-03
        40   -5.909515E-06
        41   -4.205944E-07
        42   -9.954818E-05
        43   -3.887781E-05
        44    1.429631E-07
        45    3.660291E-07
        46   -3.383558E-06
        47    1.167975E-05
        48    9.558151E-04
        49    5.092085E-05
        50   -8.067481E-07
        51   -1.561900E-04
        52   -1.245578E-05
        53   -7.424695E-06
        54   -4.882183E-04
        55   -1.103126E-05
        56   -4.075899E-04
        57    9.503125E-03
        58   -2.182669E-05
        59   -7.746368E-08
        60    1.428321E-07
        61   -6.536846E-08
        62    8.423066E-06