[Molden Format]
[Title]
ADC(2) - opt by CAM-B3LYP gaussian                                              
[Atoms] AU
 c     1    6 0.12593230616935E+01 0.22795690751954E+01 -.36278607975490E-01
 c     2    6 0.25504236399298E+01 0.18897261300000E-05 -.34511714041240E-01
 c     3    6 0.12593268411458E+01 -.22795652957431E+01 -.36289946332290E-01
 c     4    6 -.13369660030996E+01 -.22791608943507E+01 -.39583738981910E-01
 c     5    6 -.26856068523561E+01 -.18897261300000E-05 -.40110972572980E-01
 c     6    6 -.13369678928258E+01 0.22791590046246E+01 -.39570510898980E-01
 h     7    1 0.23068095955089E+01 0.40296066523382E+01 -.33243707806080E-01
 h     8    1 0.23068152646873E+01 -.40296028728859E+01 -.33262605067400E-01
 h     9    1 -.23553205188504E+01 -.40525668248527E+01 -.45200005048840E-01
 h    10    1 -.23553280777549E+01 0.40525630454004E+01 -.45173548882980E-01
 n    11    7 0.52878147756133E+01 0.00000000000000E+00 -.27472484196240E-01
 o    12    8 0.63764576548767E+01 -.20283488830896E+01 -.24482937454020E-01
 o    13    8 0.63764614343290E+01 0.20283469933635E+01 -.24515062798280E-01
 n    14    7 -.52636676188715E+01 0.00000000000000E+00 -.10786332361533E+00
 h    15    1 -.61947904866021E+01 -.16076731691957E+01 0.28377485852069E+00
 h    16    1 -.61947848174237E+01 0.16076731691957E+01 0.28378430715135E+00
[GTO]
    1 0
 s    6 1.00
 0.13575349682000E+05 0.60645503603591E-03
 0.20352333680000E+04 0.46979088884982E-02
 0.46322562359000E+03 0.24332477647552E-01
 0.13120019598000E+03 0.97399968307759E-01
 0.42853015891000E+02 0.30195584253780E+00
 0.15584185766000E+02 0.66233609137875E+00
 s    2 1.00
 0.62067138508000E+01 0.65595308539952E+00
 0.25764896527000E+01 0.37585633285142E+00
 s    1 1.00
 0.57696339419000E+00 0.10000000000000E+01
 s    1 1.00
 0.22972831358000E+00 0.10000000000000E+01
 s    1 1.00
 0.95164440028000E-01 0.10000000000000E+01
 s    1 1.00
 0.48475401370000E-01 0.10000000000000E+01
 p    4 1.00
 0.34697232244000E+02 0.11327220003114E-01
 0.79582622826000E+01 0.76169659202087E-01
 0.23780826883000E+01 0.30192252202676E+00
 0.81433208183000E+00 0.72785027349547E+00
 p    1 1.00
 0.28887547253000E+00 0.10000000000000E+01
 p    1 1.00
 0.10056823671000E+00 0.10000000000000E+01
 d    1 1.00
 0.10970000000000E+01 0.10000000000000E+01
 d    1 1.00
 0.31800000000000E+00 0.10000000000000E+01
 d    1 1.00
 0.90985336424000E-01 0.10000000000000E+01
 f    1 1.00
 0.76100000000000E+00 0.10000000000000E+01
 
    2 0
 s    6 1.00
 0.13575349682000E+05 0.60645503603591E-03
 0.20352333680000E+04 0.46979088884982E-02
 0.46322562359000E+03 0.24332477647552E-01
 0.13120019598000E+03 0.97399968307759E-01
 0.42853015891000E+02 0.30195584253780E+00
 0.15584185766000E+02 0.66233609137875E+00
 s    2 1.00
 0.62067138508000E+01 0.65595308539952E+00
 0.25764896527000E+01 0.37585633285142E+00
 s    1 1.00
 0.57696339419000E+00 0.10000000000000E+01
 s    1 1.00
 0.22972831358000E+00 0.10000000000000E+01
 s    1 1.00
 0.95164440028000E-01 0.10000000000000E+01
 s    1 1.00
 0.48475401370000E-01 0.10000000000000E+01
 p    4 1.00
 0.34697232244000E+02 0.11327220003114E-01
 0.79582622826000E+01 0.76169659202087E-01
 0.23780826883000E+01 0.30192252202676E+00
 0.81433208183000E+00 0.72785027349547E+00
 p    1 1.00
 0.28887547253000E+00 0.10000000000000E+01
 p    1 1.00
 0.10056823671000E+00 0.10000000000000E+01
 d    1 1.00
 0.10970000000000E+01 0.10000000000000E+01
 d    1 1.00
 0.31800000000000E+00 0.10000000000000E+01
 d    1 1.00
 0.90985336424000E-01 0.10000000000000E+01
 f    1 1.00
 0.76100000000000E+00 0.10000000000000E+01
 
    3 0
 s    6 1.00
 0.13575349682000E+05 0.60645503603591E-03
 0.20352333680000E+04 0.46979088884982E-02
 0.46322562359000E+03 0.24332477647552E-01
 0.13120019598000E+03 0.97399968307759E-01
 0.42853015891000E+02 0.30195584253780E+00
 0.15584185766000E+02 0.66233609137875E+00
 s    2 1.00
 0.62067138508000E+01 0.65595308539952E+00
 0.25764896527000E+01 0.37585633285142E+00
 s    1 1.00
 0.57696339419000E+00 0.10000000000000E+01
 s    1 1.00
 0.22972831358000E+00 0.10000000000000E+01
 s    1 1.00
 0.95164440028000E-01 0.10000000000000E+01
 s    1 1.00
 0.48475401370000E-01 0.10000000000000E+01
 p    4 1.00
 0.34697232244000E+02 0.11327220003114E-01
 0.79582622826000E+01 0.76169659202087E-01
 0.23780826883000E+01 0.30192252202676E+00
 0.81433208183000E+00 0.72785027349547E+00
 p    1 1.00
 0.28887547253000E+00 0.10000000000000E+01
 p    1 1.00
 0.10056823671000E+00 0.10000000000000E+01
 d    1 1.00
 0.10970000000000E+01 0.10000000000000E+01
 d    1 1.00
 0.31800000000000E+00 0.10000000000000E+01
 d    1 1.00
 0.90985336424000E-01 0.10000000000000E+01
 f    1 1.00
 0.76100000000000E+00 0.10000000000000E+01
 
    4 0
 s    6 1.00
 0.13575349682000E+05 0.60645503603591E-03
 0.20352333680000E+04 0.46979088884982E-02
 0.46322562359000E+03 0.24332477647552E-01
 0.13120019598000E+03 0.97399968307759E-01
 0.42853015891000E+02 0.30195584253780E+00
 0.15584185766000E+02 0.66233609137875E+00
 s    2 1.00
 0.62067138508000E+01 0.65595308539952E+00
 0.25764896527000E+01 0.37585633285142E+00
 s    1 1.00
 0.57696339419000E+00 0.10000000000000E+01
 s    1 1.00
 0.22972831358000E+00 0.10000000000000E+01
 s    1 1.00
 0.95164440028000E-01 0.10000000000000E+01
 s    1 1.00
 0.48475401370000E-01 0.10000000000000E+01
 p    4 1.00
 0.34697232244000E+02 0.11327220003114E-01
 0.79582622826000E+01 0.76169659202087E-01
 0.23780826883000E+01 0.30192252202676E+00
 0.81433208183000E+00 0.72785027349547E+00
 p    1 1.00
 0.28887547253000E+00 0.10000000000000E+01
 p    1 1.00
 0.10056823671000E+00 0.10000000000000E+01
 d    1 1.00
 0.10970000000000E+01 0.10000000000000E+01
 d    1 1.00
 0.31800000000000E+00 0.10000000000000E+01
 d    1 1.00
 0.90985336424000E-01 0.10000000000000E+01
 f    1 1.00
 0.76100000000000E+00 0.10000000000000E+01
 
    5 0
 s    6 1.00
 0.13575349682000E+05 0.60645503603591E-03
 0.20352333680000E+04 0.46979088884982E-02
 0.46322562359000E+03 0.24332477647552E-01
 0.13120019598000E+03 0.97399968307759E-01
 0.42853015891000E+02 0.30195584253780E+00
 0.15584185766000E+02 0.66233609137875E+00
 s    2 1.00
 0.62067138508000E+01 0.65595308539952E+00
 0.25764896527000E+01 0.37585633285142E+00
 s    1 1.00
 0.57696339419000E+00 0.10000000000000E+01
 s    1 1.00
 0.22972831358000E+00 0.10000000000000E+01
 s    1 1.00
 0.95164440028000E-01 0.10000000000000E+01
 s    1 1.00
 0.48475401370000E-01 0.10000000000000E+01
 p    4 1.00
 0.34697232244000E+02 0.11327220003114E-01
 0.79582622826000E+01 0.76169659202087E-01
 0.23780826883000E+01 0.30192252202676E+00
 0.81433208183000E+00 0.72785027349547E+00
 p    1 1.00
 0.28887547253000E+00 0.10000000000000E+01
 p    1 1.00
 0.10056823671000E+00 0.10000000000000E+01
 d    1 1.00
 0.10970000000000E+01 0.10000000000000E+01
 d    1 1.00
 0.31800000000000E+00 0.10000000000000E+01
 d    1 1.00
 0.90985336424000E-01 0.10000000000000E+01
 f    1 1.00
 0.76100000000000E+00 0.10000000000000E+01
 
    6 0
 s    6 1.00
 0.13575349682000E+05 0.60645503603591E-03
 0.20352333680000E+04 0.46979088884982E-02
 0.46322562359000E+03 0.24332477647552E-01
 0.13120019598000E+03 0.97399968307759E-01
 0.42853015891000E+02 0.30195584253780E+00
 0.15584185766000E+02 0.66233609137875E+00
 s    2 1.00
 0.62067138508000E+01 0.65595308539952E+00
 0.25764896527000E+01 0.37585633285142E+00
 s    1 1.00
 0.57696339419000E+00 0.10000000000000E+01
 s    1 1.00
 0.22972831358000E+00 0.10000000000000E+01
 s    1 1.00
 0.95164440028000E-01 0.10000000000000E+01
 s    1 1.00
 0.48475401370000E-01 0.10000000000000E+01
 p    4 1.00
 0.34697232244000E+02 0.11327220003114E-01
 0.79582622826000E+01 0.76169659202087E-01
 0.23780826883000E+01 0.30192252202676E+00
 0.81433208183000E+00 0.72785027349547E+00
 p    1 1.00
 0.28887547253000E+00 0.10000000000000E+01
 p    1 1.00
 0.10056823671000E+00 0.10000000000000E+01
 d    1 1.00
 0.10970000000000E+01 0.10000000000000E+01
 d    1 1.00
 0.31800000000000E+00 0.10000000000000E+01
 d    1 1.00
 0.90985336424000E-01 0.10000000000000E+01
 f    1 1.00
 0.76100000000000E+00 0.10000000000000E+01
 
    7 0
 s    3 1.00
 0.34061341000000E+02 0.25439307208879E-01
 0.51235746000000E+01 0.19008594890375E+00
 0.11646626000000E+01 0.85244113011042E+00
 s    1 1.00
 0.32723041000000E+00 0.10000000000000E+01
 s    1 1.00
 0.10307241000000E+00 0.10000000000000E+01
 p    1 1.00
 0.80000000000000E+00 0.10000000000000E+01
 p    1 1.00
 0.95774129632000E-01 0.10000000000000E+01
 
    8 0
 s    3 1.00
 0.34061341000000E+02 0.25439307208879E-01
 0.51235746000000E+01 0.19008594890375E+00
 0.11646626000000E+01 0.85244113011042E+00
 s    1 1.00
 0.32723041000000E+00 0.10000000000000E+01
 s    1 1.00
 0.10307241000000E+00 0.10000000000000E+01
 p    1 1.00
 0.80000000000000E+00 0.10000000000000E+01
 p    1 1.00
 0.95774129632000E-01 0.10000000000000E+01
 
    9 0
 s    3 1.00
 0.34061341000000E+02 0.25439307208879E-01
 0.51235746000000E+01 0.19008594890375E+00
 0.11646626000000E+01 0.85244113011042E+00
 s    1 1.00
 0.32723041000000E+00 0.10000000000000E+01
 s    1 1.00
 0.10307241000000E+00 0.10000000000000E+01
 p    1 1.00
 0.80000000000000E+00 0.10000000000000E+01
 p    1 1.00
 0.95774129632000E-01 0.10000000000000E+01
 
   10 0
 s    3 1.00
 0.34061341000000E+02 0.25439307208879E-01
 0.51235746000000E+01 0.19008594890375E+00
 0.11646626000000E+01 0.85244113011042E+00
 s    1 1.00
 0.32723041000000E+00 0.10000000000000E+01
 s    1 1.00
 0.10307241000000E+00 0.10000000000000E+01
 p    1 1.00
 0.80000000000000E+00 0.10000000000000E+01
 p    1 1.00
 0.95774129632000E-01 0.10000000000000E+01
 
   11 0
 s    6 1.00
 0.19730800647000E+05 0.58626402628763E-03
 0.29578958745000E+04 0.45428820586397E-02
 0.67322133595000E+03 0.23558413450084E-01
 0.19068249494000E+03 0.94709193292923E-01
 0.62295441898000E+02 0.29719784913376E+00
 0.22654161182000E+02 0.66916246895232E+00
 s    2 1.00
 0.89791477428000E+01 0.64596683630063E+00
 0.36863002370000E+01 0.38700574393705E+00
 s    1 1.00
 0.84660076805000E+00 0.10000000000000E+01
 s    1 1.00
 0.33647133771000E+00 0.10000000000000E+01
 s    1 1.00
 0.13647653675000E+00 0.10000000000000E+01
 s    1 1.00
 0.68441605847000E-01 0.10000000000000E+01
 p    4 1.00
 0.49200380510000E+02 0.11448825101764E-01
 0.11346790537000E+02 0.78422337970864E-01
 0.34273972411000E+01 0.30818094738830E+00
 0.11785525134000E+01 0.72027196368413E+00
 p    1 1.00
 0.41642204972000E+00 0.10000000000000E+01
 p    1 1.00
 0.14260826011000E+00 0.10000000000000E+01
 d    1 1.00
 0.16540000000000E+01 0.10000000000000E+01
 d    1 1.00
 0.46900000000000E+00 0.10000000000000E+01
 d    1 1.00
 0.12829642058000E+00 0.10000000000000E+01
 f    1 1.00
 0.10930000000000E+01 0.10000000000000E+01
 
   12 0
 s    6 1.00
 0.27032382631000E+05 0.57227335211155E-03
 0.40523871392000E+04 0.44353233492995E-02
 0.92232722710000E+03 0.23020107706038E-01
 0.26124070989000E+03 0.92822490667928E-01
 0.85354641351000E+02 0.29378500009671E+00
 0.31035035245000E+02 0.67401604501641E+00
 s    2 1.00
 0.12260860728000E+02 0.63839937025506E+00
 0.49987076005000E+01 0.39534587125718E+00
 s    1 1.00
 0.11703108158000E+01 0.10000000000000E+01
 s    1 1.00
 0.46474740994000E+00 0.10000000000000E+01
 s    1 1.00
 0.18504536357000E+00 0.10000000000000E+01
 s    1 1.00
 0.70288026270000E-01 0.10000000000000E+01
 p    4 1.00
 0.63274954801000E+02 0.12018332222616E-01
 0.14627049379000E+02 0.83005421790056E-01
 0.44501223456000E+01 0.31991743925964E+00
 0.15275799647000E+01 0.70715542916104E+00
 p    1 1.00
 0.52935117943000E+00 0.10000000000000E+01
 p    1 1.00
 0.17478421270000E+00 0.10000000000000E+01
 p    1 1.00
 0.51112745706000E-01 0.10000000000000E+01
 d    1 1.00
 0.23140000000000E+01 0.10000000000000E+01
 d    1 1.00
 0.64500000000000E+00 0.10000000000000E+01
 d    1 1.00
 0.14696477366000E+00 0.10000000000000E+01
 f    1 1.00
 0.14280000000000E+01 0.10000000000000E+01
 
   13 0
 s    6 1.00
 0.27032382631000E+05 0.57227335211155E-03
 0.40523871392000E+04 0.44353233492995E-02
 0.92232722710000E+03 0.23020107706038E-01
 0.26124070989000E+03 0.92822490667928E-01
 0.85354641351000E+02 0.29378500009671E+00
 0.31035035245000E+02 0.67401604501641E+00
 s    2 1.00
 0.12260860728000E+02 0.63839937025506E+00
 0.49987076005000E+01 0.39534587125718E+00
 s    1 1.00
 0.11703108158000E+01 0.10000000000000E+01
 s    1 1.00
 0.46474740994000E+00 0.10000000000000E+01
 s    1 1.00
 0.18504536357000E+00 0.10000000000000E+01
 s    1 1.00
 0.70288026270000E-01 0.10000000000000E+01
 p    4 1.00
 0.63274954801000E+02 0.12018332222616E-01
 0.14627049379000E+02 0.83005421790056E-01
 0.44501223456000E+01 0.31991743925964E+00
 0.15275799647000E+01 0.70715542916104E+00
 p    1 1.00
 0.52935117943000E+00 0.10000000000000E+01
 p    1 1.00
 0.17478421270000E+00 0.10000000000000E+01
 p    1 1.00
 0.51112745706000E-01 0.10000000000000E+01
 d    1 1.00
 0.23140000000000E+01 0.10000000000000E+01
 d    1 1.00
 0.64500000000000E+00 0.10000000000000E+01
 d    1 1.00
 0.14696477366000E+00 0.10000000000000E+01
 f    1 1.00
 0.14280000000000E+01 0.10000000000000E+01
 
   14 0
 s    6 1.00
 0.19730800647000E+05 0.58626402628763E-03
 0.29578958745000E+04 0.45428820586397E-02
 0.67322133595000E+03 0.23558413450084E-01
 0.19068249494000E+03 0.94709193292923E-01
 0.62295441898000E+02 0.29719784913376E+00
 0.22654161182000E+02 0.66916246895232E+00
 s    2 1.00
 0.89791477428000E+01 0.64596683630063E+00
 0.36863002370000E+01 0.38700574393705E+00
 s    1 1.00
 0.84660076805000E+00 0.10000000000000E+01
 s    1 1.00
 0.33647133771000E+00 0.10000000000000E+01
 s    1 1.00
 0.13647653675000E+00 0.10000000000000E+01
 s    1 1.00
 0.68441605847000E-01 0.10000000000000E+01
 p    4 1.00
 0.49200380510000E+02 0.11448825101764E-01
 0.11346790537000E+02 0.78422337970864E-01
 0.34273972411000E+01 0.30818094738830E+00
 0.11785525134000E+01 0.72027196368413E+00
 p    1 1.00
 0.41642204972000E+00 0.10000000000000E+01
 p    1 1.00
 0.14260826011000E+00 0.10000000000000E+01
 d    1 1.00
 0.16540000000000E+01 0.10000000000000E+01
 d    1 1.00
 0.46900000000000E+00 0.10000000000000E+01
 d    1 1.00
 0.12829642058000E+00 0.10000000000000E+01
 f    1 1.00
 0.10930000000000E+01 0.10000000000000E+01
 
   15 0
 s    3 1.00
 0.34061341000000E+02 0.25439307208879E-01
 0.51235746000000E+01 0.19008594890375E+00
 0.11646626000000E+01 0.85244113011042E+00
 s    1 1.00
 0.32723041000000E+00 0.10000000000000E+01
 s    1 1.00
 0.10307241000000E+00 0.10000000000000E+01
 p    1 1.00
 0.80000000000000E+00 0.10000000000000E+01
 p    1 1.00
 0.95774129632000E-01 0.10000000000000E+01
 
   16 0
 s    3 1.00
 0.34061341000000E+02 0.25439307208879E-01
 0.51235746000000E+01 0.19008594890375E+00
 0.11646626000000E+01 0.85244113011042E+00
 s    1 1.00
 0.32723041000000E+00 0.10000000000000E+01
 s    1 1.00
 0.10307241000000E+00 0.10000000000000E+01
 p    1 1.00
 0.80000000000000E+00 0.10000000000000E+01
 p    1 1.00
 0.95774129632000E-01 0.10000000000000E+01
 
[MO]
 Sym= X
 Ene= -0.073632
 Spin= Alpha
 Occup= -0.073632
         1   -4.749556E-04
         2   -1.089755E-03
         3    2.328045E-03
         4   -1.733230E-03
         5    3.144990E-02
         6   -1.644934E-02
         7   -6.917319E-03
         8   -9.630433E-04
         9   -1.310189E-01
        10   -1.268356E-04
        11   -1.505157E-03
        12   -1.294392E-01
        13    3.236783E-02
        14   -3.848139E-03
        15   -4.760330E-02
        16    1.633416E-04
        17   -1.496617E-04
        18   -1.367992E-05
        19   -8.629032E-05
        20   -9.717644E-04
        21    4.333968E-03
        22   -5.655993E-04
        23    3.693682E-04
        24    1.962311E-04
        25   -1.215559E-03
        26   -2.556014E-03
        27    7.187323E-03
        28   -1.617988E-03
        29    1.070113E-03
        30    5.478742E-04
        31    3.178548E-03
        32   -6.567055E-03
        33    4.605800E-03
        34    8.400565E-06
        35   -1.876522E-05
        36    1.073607E-03
        37   -1.369295E-07
        38    1.660168E-05
        39   -5.090448E-04
        40   -1.113361E-05
        41    8.574501E-06
        42   -9.313502E-04
        43    5.063148E-04
        44    3.233778E-04
        45    7.166796E-04
        46   -4.735365E-04
        47   -7.825882E-03
        48   -2.461140E-02
        49    1.380403E-02
        50    6.532337E-04
        51   -9.315323E-07
        52   -2.038230E-01
        53    2.093336E-03
        54    8.372579E-06
        55   -2.066796E-01
        56    9.301951E-03
        57    2.534762E-04
        58   -7.460193E-02
        59    1.872622E-04
        60   -2.025735E-04
        61    1.531128E-05
        62    7.147785E-08
        63    3.021011E-03
        64   -1.537079E-06
        65    8.591594E-04
        66   -1.272460E-03
        67    4.133008E-04
        68   -2.037065E-06
        69    4.872007E-03
        70   -3.573908E-06
        71    2.141140E-02
        72   -2.222690E-02
        73    8.155010E-04
        74   -2.580220E-05
        75    7.742221E-03
        76    1.829261E-05
        77   -6.196675E-06
        78    5.554940E-08
        79    1.536875E-03
        80    2.122080E-05
        81   -7.368652E-09
        82   -7.234984E-04
        83   -1.290709E-05
        84   -6.715869E-08
        85   -1.338435E-03
        86    2.146163E-07
        87   -4.751104E-04
        88   -1.090100E-03
        89    2.327467E-03
        90   -1.730939E-03
        91    3.241208E-02
        92   -1.648697E-02
        93   -6.916172E-03
        94    9.648913E-04
        95   -1.309389E-01
        96   -1.235514E-04
        97    1.517364E-03
        98   -1.293605E-01
        99    3.225621E-02
       100    4.151402E-03
       101   -4.753072E-02
       102    1.631499E-04
       103   -1.495024E-04
       104   -1.364756E-05
       105    8.648420E-05
       106   -9.737959E-04
       107   -4.333815E-03
       108   -5.648533E-04
       109    3.695336E-04
       110    1.953197E-04
       111    1.218147E-03
       112   -2.559635E-03
       113   -7.186858E-03
       114   -1.612792E-03
       115    1.073456E-03
       116    5.393361E-04
       117   -3.156875E-03
       118   -6.545354E-03
       119   -4.572170E-03
       120    8.349262E-06
       121    1.879871E-05
       122    1.073134E-03
       123   -5.958616E-08
       124   -1.655535E-05
       125   -5.084901E-04
       126   -1.114212E-05
       127   -8.665771E-06
       128   -9.312706E-04
       129   -5.062880E-04
       130    3.925117E-04
       131    8.710890E-04
       132    7.511047E-05
       133   -1.620941E-02
       134   -2.097144E-02
       135    1.931544E-02
       136    6.901824E-03
       137   -2.691264E-03
       138   -3.260651E-02
       139    1.669220E-02
       140   -1.010155E-02
       141   -3.238284E-02
       142    1.350907E-02
       143    1.494013E-02
       144   -6.853666E-03
       145    4.477527E-04
       146   -5.209998E-04
       147    7.324715E-05
       148    2.973422E-05
       149   -3.958988E-03
       150    7.989331E-04
       151    9.320776E-04
       152   -1.245664E-03
       153    3.135866E-04
       154    2.499548E-03
       155   -6.993860E-03
       156    2.070816E-03
       157    9.595957E-03
       158   -7.378444E-03
       159   -2.217513E-03
       160   -1.392668E-02
       161   -4.033817E-03
       162    1.104405E-02
       163    2.619493E-05
       164   -3.398770E-05
       165    2.801284E-04
       166    4.170090E-05
       167   -3.644103E-06
       168   -5.138079E-04
       169   -7.684509E-05
       170    4.924339E-05
       171    1.379761E-04
       172   -3.734940E-04
       173   -1.599876E-03
       174   -3.611507E-03
       175    3.825593E-03
       176    2.416935E-02
       177   -8.852952E-02
       178    1.754834E-03
       179   -2.125354E-02
       180    2.942296E-06
       181    8.783446E-02
       182   -4.772734E-03
       183    1.074580E-05
       184    8.475023E-02
       185    6.693698E-02
       186   -5.992869E-06
       187   -1.699825E-02
       188    1.040979E-03
       189   -7.556279E-04
       190   -2.853507E-04
       191    1.600526E-07
       192   -6.428661E-03
       193   -1.623475E-06
       194   -2.647704E-03
       195    5.469958E-03
       196   -2.822254E-03
       197    2.999004E-06
       198   -1.344759E-02
       199   -4.054046E-06
       200   -1.686329E-02
       201    1.685858E-02
       202    4.712646E-06
       203   -5.210020E-05
       204   -2.326123E-03
       205   -3.210881E-05
       206   -1.970061E-04
       207    2.262369E-08
       208   -8.910654E-04
       209    1.184500E-04
       210    4.799894E-08
       211    1.368172E-03
       212    1.458615E-04
       213   -7.835179E-08
       214   -1.726819E-04
       215   -2.917534E-07
       216    3.918565E-04
       217    8.696209E-04
       218    7.925431E-05
       219   -1.622560E-02
       220   -2.030830E-02
       221    1.925654E-02
       222    6.901870E-03
       223    2.685980E-03
       224   -3.269059E-02
       225    1.670129E-02
       226    1.010752E-02
       227   -3.246942E-02
       228    1.379836E-02
       229   -1.508667E-02
       230   -6.837581E-03
       231    4.479122E-04
       232   -5.210828E-04
       233    7.317066E-05
       234   -2.940139E-05
       235   -3.960905E-03
       236   -7.986358E-04
       237    9.335088E-04
       238   -1.248676E-03
       239    3.151674E-04
       240   -2.501169E-03
       241   -6.997700E-03
       242   -2.071631E-03
       243    9.569050E-03
       244   -7.353131E-03
       245   -2.215919E-03
       246    1.390288E-02
       247   -4.068585E-03
       248   -1.107527E-02
       249    2.611861E-05
       250    3.401988E-05
       251    2.806400E-04
       252    4.185057E-05
       253    3.574851E-06
       254   -5.144133E-04
       255   -7.689236E-05
       256   -4.921731E-05
       257    1.378953E-04
       258    3.735067E-04
       259   -1.948338E-03
       260   -2.549162E-03
       261   -2.725714E-02
       262    5.192481E-05
       263    2.231349E-04
       264   -4.723134E-03
       265    6.341411E-03
       266    2.668589E-03
       267   -2.438005E-03
       268   -1.948880E-03
       269   -2.546009E-03
       270   -2.716299E-02
       271    5.166743E-05
       272   -2.226455E-04
       273   -4.719680E-03
       274    6.343335E-03
       275   -2.656924E-03
       276   -2.419668E-03
       277   -1.690454E-03
       278   -5.028504E-03
       279    5.124898E-02
       280    6.299543E-05
       281   -3.237219E-04
       282   -7.320182E-04
       283    6.518113E-03
       284    3.788357E-03
       285    8.608098E-03
       286   -1.692894E-03
       287   -5.021797E-03
       288    5.125320E-02
       289    6.263903E-05
       290    3.229417E-04
       291   -7.357878E-04
       292    6.502133E-03
       293   -3.798978E-03
       294    8.611519E-03
       295   -1.094920E-04
       296   -2.572206E-04
       297    2.915134E-04
       298    9.185630E-04
       299   -1.714975E-02
       300   -8.642576E-03
       301   -2.046615E-03
       302   -8.684238E-07
       303    4.134124E-02
       304   -1.423553E-03
       305   -2.416124E-08
       306    3.937180E-02
       307    5.675769E-03
       308   -9.751036E-06
       309    1.157768E-03
       310   -5.306297E-05
       311    2.488598E-05
       312    2.817699E-05
       313   -1.141597E-07
       314    4.129094E-03
       315   -5.162365E-07
       316   -2.233142E-04
       317    1.777757E-04
       318    4.553854E-05
       319   -2.474015E-07
       320    1.142651E-02
       321   -1.467242E-06
       322    7.926001E-05
       323    3.280939E-03
       324   -3.360199E-03
       325    8.141756E-06
       326    5.041609E-03
       327    6.322765E-07
       328   -4.130628E-06
       329    2.969857E-08
       330   -2.445049E-04
       331   -4.520201E-08
       332   -2.339229E-08
       333   -5.400474E-04
       334    5.587021E-06
       335   -1.645252E-08
       336    8.680851E-04
       337   -4.747773E-08
       338   -1.835082E-04
       339   -4.441839E-04
       340    6.039351E-04
       341    1.639260E-03
       342   -7.958549E-03
       343   -1.228113E-03
       344   -1.220293E-03
       345   -1.329016E-03
       346    8.452948E-02
       347   -8.823561E-04
       348   -1.327902E-03
       349    7.758106E-02
       350    1.381934E-04
       351   -1.698339E-03
       352    5.164427E-02
       353    4.283334E-04
       354   -8.421082E-05
       355    4.211276E-03
       356    2.185483E-05
       357   -2.831578E-05
       358    6.460945E-06
       359   -1.043367E-05
       360   -3.897286E-04
       361    1.093426E-03
       362    3.963670E-05
       363   -7.762313E-05
       364    3.798644E-05
       365   -2.842342E-05
       366   -1.591153E-03
       367    3.274206E-03
       368    7.657877E-06
       369   -1.093011E-04
       370    1.016433E-04
       371   -1.587535E-04
       372   -2.144413E-03
       373    6.762637E-04
       374   -3.208712E-07
       375   -1.090331E-05
       376   -1.755609E-04
       377    7.079384E-07
       378    1.208896E-05
       379   -8.093399E-05
       380   -2.774445E-07
       381    2.539371E-06
       382    3.164736E-04
       383   -2.769696E-04
       384   -1.836081E-04
       385   -4.444085E-04
       386    6.041173E-04
       387    1.640968E-03
       388   -7.965723E-03
       389   -1.230839E-03
       390   -1.224946E-03
       391    1.336452E-03
       392    8.450522E-02
       393   -8.867478E-04
       394    1.334918E-03
       395    7.755925E-02
       396    1.316279E-04
       397    1.702251E-03
       398    5.162450E-02
       399    4.311507E-04
       400    8.172312E-05
       401    4.207063E-03
       402    2.189804E-05
       403   -2.842241E-05
       404    6.524374E-06
       405    1.039600E-05
       406   -3.895833E-04
       407   -1.093212E-03
       408    3.985335E-05
       409   -7.803800E-05
       410    3.818465E-05
       411    2.831589E-05
       412   -1.590536E-03
       413   -3.273507E-03
       414    6.083794E-06
       415   -1.077777E-04
       416    1.016939E-04
       417    1.600837E-04
       418   -2.144011E-03
       419   -6.740194E-04
       420   -3.283538E-07
       421    1.093719E-05
       422   -1.755203E-04
       423    7.405012E-07
       424   -1.210630E-05
       425   -8.092592E-05
       426   -2.999684E-07
       427   -2.567479E-06
       428    3.164111E-04
       429    2.768980E-04
       430    6.951250E-03
       431    1.643751E-02
       432   -2.526971E-02
       433   -4.212141E-02
       434    2.259089E-03
       435   -4.642783E-02
       436    3.059166E-02
       437   -2.793837E-06
       438    2.483682E-01
       439    3.417369E-02
       440   -9.774327E-08
       441    2.403534E-01
       442    4.790841E-02
       443    2.585478E-05
       444    1.637687E-01
       445   -1.781506E-04
       446   -2.731017E-04
       447    4.512523E-04
       448    1.024511E-07
       449    1.797494E-03
       450   -2.394525E-07
       451    3.750244E-05
       452   -3.210790E-03
       453    3.173287E-03
       454   -1.306312E-06
       455    3.935161E-03
       456   -7.519100E-07
       457    1.223970E-03
       458   -9.649299E-03
       459    8.425329E-03
       460   -4.535698E-06
       461    5.569226E-04
       462   -3.163401E-06
       463    1.355173E-04
       464   -3.756380E-08
       465   -1.257887E-03
       466    1.723867E-04
       467   -5.771041E-10
       468    1.066303E-03
       469   -3.542022E-04
       470    5.097424E-08
       471    6.213295E-04
       472   -2.173876E-08
       473    8.865230E-03
       474    2.131931E-02
       475    4.324521E-02
       476    3.558680E-03
       477    2.597873E-03
       478    1.123216E-02
       479    5.261446E-03
       480    4.151268E-03
       481    4.493345E-03
       482    8.863211E-03
       483    2.129335E-02
       484    4.313620E-02
       485    3.556982E-03
       486   -2.595776E-03
       487    1.123378E-02
       488    5.241666E-03
       489   -4.139777E-03
       490    4.507031E-03
 Sym= X
 Ene= -0.768691
 Spin= Alpha
 Occup= -0.768691
         1    2.881833E-04
         2    6.678749E-04
         3   -1.909343E-03
         4    4.738945E-03
         5   -3.134789E-02
         6    1.720958E-02
         7    2.735652E-03
         8    2.208270E-04
         9   -3.735515E-02
        10   -3.953598E-03
        11    7.095339E-04
        12   -3.536656E-02
        13   -4.372320E-02
        14    1.879610E-02
        15   -1.622875E-02
        16   -1.306032E-05
        17    2.970194E-05
        18   -1.664161E-05
        19    2.311137E-05
        20   -6.004060E-03
        21    3.937407E-03
        22    1.027239E-03
        23   -6.085800E-04
        24   -4.186590E-04
        25    1.101549E-03
        26   -1.368879E-02
        27    7.369047E-03
        28    4.257931E-03
        29   -3.870405E-03
        30   -3.875259E-04
        31   -2.288157E-03
        32    3.484067E-03
        33   -1.030035E-02
        34   -3.175696E-05
        35    9.101261E-06
        36    1.738167E-04
        37    1.438236E-05
        38   -7.511056E-06
        39    6.538214E-04
        40    2.822408E-05
        41   -4.699567E-06
        42   -8.870209E-04
        43    6.810164E-04
        44    7.355820E-06
        45    2.035879E-05
        46   -4.249960E-04
        47    4.828554E-03
        48    7.685117E-02
        49   -8.800164E-03
        50    1.481148E-04
        51    1.612302E-06
        52   -2.030692E-01
        53   -1.080480E-03
        54    9.958662E-06
        55   -2.101435E-01
        56   -1.895898E-02
        57   -3.007494E-04
        58   -1.945028E-01
        59   -8.014774E-05
        60    7.187491E-05
        61    8.272827E-06
        62   -9.198799E-08