[Molden Format]
[Title]
ADC(2) - opt by CAM-B3LYP gaussian                                              
[Atoms] AU
 c     1    6 0.12593230616935E+01 0.22795690751954E+01 -.36278607975490E-01
 c     2    6 0.25504236399298E+01 0.18897261300000E-05 -.34511714041240E-01
 c     3    6 0.12593268411458E+01 -.22795652957431E+01 -.36289946332290E-01
 c     4    6 -.13369660030996E+01 -.22791608943507E+01 -.39583738981910E-01
 c     5    6 -.26856068523561E+01 -.18897261300000E-05 -.40110972572980E-01
 c     6    6 -.13369678928258E+01 0.22791590046246E+01 -.39570510898980E-01
 h     7    1 0.23068095955089E+01 0.40296066523382E+01 -.33243707806080E-01
 h     8    1 0.23068152646873E+01 -.40296028728859E+01 -.33262605067400E-01
 h     9    1 -.23553205188504E+01 -.40525668248527E+01 -.45200005048840E-01
 h    10    1 -.23553280777549E+01 0.40525630454004E+01 -.45173548882980E-01
 n    11    7 0.52878147756133E+01 0.00000000000000E+00 -.27472484196240E-01
 o    12    8 0.63764576548767E+01 -.20283488830896E+01 -.24482937454020E-01
 o    13    8 0.63764614343290E+01 0.20283469933635E+01 -.24515062798280E-01
 n    14    7 -.52636676188715E+01 0.00000000000000E+00 -.10786332361533E+00
 h    15    1 -.61947904866021E+01 -.16076731691957E+01 0.28377485852069E+00
 h    16    1 -.61947848174237E+01 0.16076731691957E+01 0.28378430715135E+00
[GTO]
    1 0
 s    6 1.00
 0.13575349682000E+05 0.60645503603591E-03
 0.20352333680000E+04 0.46979088884982E-02
 0.46322562359000E+03 0.24332477647552E-01
 0.13120019598000E+03 0.97399968307759E-01
 0.42853015891000E+02 0.30195584253780E+00
 0.15584185766000E+02 0.66233609137875E+00
 s    2 1.00
 0.62067138508000E+01 0.65595308539952E+00
 0.25764896527000E+01 0.37585633285142E+00
 s    1 1.00
 0.57696339419000E+00 0.10000000000000E+01
 s    1 1.00
 0.22972831358000E+00 0.10000000000000E+01
 s    1 1.00
 0.95164440028000E-01 0.10000000000000E+01
 s    1 1.00
 0.48475401370000E-01 0.10000000000000E+01
 p    4 1.00
 0.34697232244000E+02 0.11327220003114E-01
 0.79582622826000E+01 0.76169659202087E-01
 0.23780826883000E+01 0.30192252202676E+00
 0.81433208183000E+00 0.72785027349547E+00
 p    1 1.00
 0.28887547253000E+00 0.10000000000000E+01
 p    1 1.00
 0.10056823671000E+00 0.10000000000000E+01
 d    1 1.00
 0.10970000000000E+01 0.10000000000000E+01
 d    1 1.00
 0.31800000000000E+00 0.10000000000000E+01
 d    1 1.00
 0.90985336424000E-01 0.10000000000000E+01
 f    1 1.00
 0.76100000000000E+00 0.10000000000000E+01
 
    2 0
 s    6 1.00
 0.13575349682000E+05 0.60645503603591E-03
 0.20352333680000E+04 0.46979088884982E-02
 0.46322562359000E+03 0.24332477647552E-01
 0.13120019598000E+03 0.97399968307759E-01
 0.42853015891000E+02 0.30195584253780E+00
 0.15584185766000E+02 0.66233609137875E+00
 s    2 1.00
 0.62067138508000E+01 0.65595308539952E+00
 0.25764896527000E+01 0.37585633285142E+00
 s    1 1.00
 0.57696339419000E+00 0.10000000000000E+01
 s    1 1.00
 0.22972831358000E+00 0.10000000000000E+01
 s    1 1.00
 0.95164440028000E-01 0.10000000000000E+01
 s    1 1.00
 0.48475401370000E-01 0.10000000000000E+01
 p    4 1.00
 0.34697232244000E+02 0.11327220003114E-01
 0.79582622826000E+01 0.76169659202087E-01
 0.23780826883000E+01 0.30192252202676E+00
 0.81433208183000E+00 0.72785027349547E+00
 p    1 1.00
 0.28887547253000E+00 0.10000000000000E+01
 p    1 1.00
 0.10056823671000E+00 0.10000000000000E+01
 d    1 1.00
 0.10970000000000E+01 0.10000000000000E+01
 d    1 1.00
 0.31800000000000E+00 0.10000000000000E+01
 d    1 1.00
 0.90985336424000E-01 0.10000000000000E+01
 f    1 1.00
 0.76100000000000E+00 0.10000000000000E+01
 
    3 0
 s    6 1.00
 0.13575349682000E+05 0.60645503603591E-03
 0.20352333680000E+04 0.46979088884982E-02
 0.46322562359000E+03 0.24332477647552E-01
 0.13120019598000E+03 0.97399968307759E-01
 0.42853015891000E+02 0.30195584253780E+00
 0.15584185766000E+02 0.66233609137875E+00
 s    2 1.00
 0.62067138508000E+01 0.65595308539952E+00
 0.25764896527000E+01 0.37585633285142E+00
 s    1 1.00
 0.57696339419000E+00 0.10000000000000E+01
 s    1 1.00
 0.22972831358000E+00 0.10000000000000E+01
 s    1 1.00
 0.95164440028000E-01 0.10000000000000E+01
 s    1 1.00
 0.48475401370000E-01 0.10000000000000E+01
 p    4 1.00
 0.34697232244000E+02 0.11327220003114E-01
 0.79582622826000E+01 0.76169659202087E-01
 0.23780826883000E+01 0.30192252202676E+00
 0.81433208183000E+00 0.72785027349547E+00
 p    1 1.00
 0.28887547253000E+00 0.10000000000000E+01
 p    1 1.00
 0.10056823671000E+00 0.10000000000000E+01
 d    1 1.00
 0.10970000000000E+01 0.10000000000000E+01
 d    1 1.00
 0.31800000000000E+00 0.10000000000000E+01
 d    1 1.00
 0.90985336424000E-01 0.10000000000000E+01
 f    1 1.00
 0.76100000000000E+00 0.10000000000000E+01
 
    4 0
 s    6 1.00
 0.13575349682000E+05 0.60645503603591E-03
 0.20352333680000E+04 0.46979088884982E-02
 0.46322562359000E+03 0.24332477647552E-01
 0.13120019598000E+03 0.97399968307759E-01
 0.42853015891000E+02 0.30195584253780E+00
 0.15584185766000E+02 0.66233609137875E+00
 s    2 1.00
 0.62067138508000E+01 0.65595308539952E+00
 0.25764896527000E+01 0.37585633285142E+00
 s    1 1.00
 0.57696339419000E+00 0.10000000000000E+01
 s    1 1.00
 0.22972831358000E+00 0.10000000000000E+01
 s    1 1.00
 0.95164440028000E-01 0.10000000000000E+01
 s    1 1.00
 0.48475401370000E-01 0.10000000000000E+01
 p    4 1.00
 0.34697232244000E+02 0.11327220003114E-01
 0.79582622826000E+01 0.76169659202087E-01
 0.23780826883000E+01 0.30192252202676E+00
 0.81433208183000E+00 0.72785027349547E+00
 p    1 1.00
 0.28887547253000E+00 0.10000000000000E+01
 p    1 1.00
 0.10056823671000E+00 0.10000000000000E+01
 d    1 1.00
 0.10970000000000E+01 0.10000000000000E+01
 d    1 1.00
 0.31800000000000E+00 0.10000000000000E+01
 d    1 1.00
 0.90985336424000E-01 0.10000000000000E+01
 f    1 1.00
 0.76100000000000E+00 0.10000000000000E+01
 
    5 0
 s    6 1.00
 0.13575349682000E+05 0.60645503603591E-03
 0.20352333680000E+04 0.46979088884982E-02
 0.46322562359000E+03 0.24332477647552E-01
 0.13120019598000E+03 0.97399968307759E-01
 0.42853015891000E+02 0.30195584253780E+00
 0.15584185766000E+02 0.66233609137875E+00
 s    2 1.00
 0.62067138508000E+01 0.65595308539952E+00
 0.25764896527000E+01 0.37585633285142E+00
 s    1 1.00
 0.57696339419000E+00 0.10000000000000E+01
 s    1 1.00
 0.22972831358000E+00 0.10000000000000E+01
 s    1 1.00
 0.95164440028000E-01 0.10000000000000E+01
 s    1 1.00
 0.48475401370000E-01 0.10000000000000E+01
 p    4 1.00
 0.34697232244000E+02 0.11327220003114E-01
 0.79582622826000E+01 0.76169659202087E-01
 0.23780826883000E+01 0.30192252202676E+00
 0.81433208183000E+00 0.72785027349547E+00
 p    1 1.00
 0.28887547253000E+00 0.10000000000000E+01
 p    1 1.00
 0.10056823671000E+00 0.10000000000000E+01
 d    1 1.00
 0.10970000000000E+01 0.10000000000000E+01
 d    1 1.00
 0.31800000000000E+00 0.10000000000000E+01
 d    1 1.00
 0.90985336424000E-01 0.10000000000000E+01
 f    1 1.00
 0.76100000000000E+00 0.10000000000000E+01
 
    6 0
 s    6 1.00
 0.13575349682000E+05 0.60645503603591E-03
 0.20352333680000E+04 0.46979088884982E-02
 0.46322562359000E+03 0.24332477647552E-01
 0.13120019598000E+03 0.97399968307759E-01
 0.42853015891000E+02 0.30195584253780E+00
 0.15584185766000E+02 0.66233609137875E+00
 s    2 1.00
 0.62067138508000E+01 0.65595308539952E+00
 0.25764896527000E+01 0.37585633285142E+00
 s    1 1.00
 0.57696339419000E+00 0.10000000000000E+01
 s    1 1.00
 0.22972831358000E+00 0.10000000000000E+01
 s    1 1.00
 0.95164440028000E-01 0.10000000000000E+01
 s    1 1.00
 0.48475401370000E-01 0.10000000000000E+01
 p    4 1.00
 0.34697232244000E+02 0.11327220003114E-01
 0.79582622826000E+01 0.76169659202087E-01
 0.23780826883000E+01 0.30192252202676E+00
 0.81433208183000E+00 0.72785027349547E+00
 p    1 1.00
 0.28887547253000E+00 0.10000000000000E+01
 p    1 1.00
 0.10056823671000E+00 0.10000000000000E+01
 d    1 1.00
 0.10970000000000E+01 0.10000000000000E+01
 d    1 1.00
 0.31800000000000E+00 0.10000000000000E+01
 d    1 1.00
 0.90985336424000E-01 0.10000000000000E+01
 f    1 1.00
 0.76100000000000E+00 0.10000000000000E+01
 
    7 0
 s    3 1.00
 0.34061341000000E+02 0.25439307208879E-01
 0.51235746000000E+01 0.19008594890375E+00
 0.11646626000000E+01 0.85244113011042E+00
 s    1 1.00
 0.32723041000000E+00 0.10000000000000E+01
 s    1 1.00
 0.10307241000000E+00 0.10000000000000E+01
 p    1 1.00
 0.80000000000000E+00 0.10000000000000E+01
 p    1 1.00
 0.95774129632000E-01 0.10000000000000E+01
 
    8 0
 s    3 1.00
 0.34061341000000E+02 0.25439307208879E-01
 0.51235746000000E+01 0.19008594890375E+00
 0.11646626000000E+01 0.85244113011042E+00
 s    1 1.00
 0.32723041000000E+00 0.10000000000000E+01
 s    1 1.00
 0.10307241000000E+00 0.10000000000000E+01
 p    1 1.00
 0.80000000000000E+00 0.10000000000000E+01
 p    1 1.00
 0.95774129632000E-01 0.10000000000000E+01
 
    9 0
 s    3 1.00
 0.34061341000000E+02 0.25439307208879E-01
 0.51235746000000E+01 0.19008594890375E+00
 0.11646626000000E+01 0.85244113011042E+00
 s    1 1.00
 0.32723041000000E+00 0.10000000000000E+01
 s    1 1.00
 0.10307241000000E+00 0.10000000000000E+01
 p    1 1.00
 0.80000000000000E+00 0.10000000000000E+01
 p    1 1.00
 0.95774129632000E-01 0.10000000000000E+01
 
   10 0
 s    3 1.00
 0.34061341000000E+02 0.25439307208879E-01
 0.51235746000000E+01 0.19008594890375E+00
 0.11646626000000E+01 0.85244113011042E+00
 s    1 1.00
 0.32723041000000E+00 0.10000000000000E+01
 s    1 1.00
 0.10307241000000E+00 0.10000000000000E+01
 p    1 1.00
 0.80000000000000E+00 0.10000000000000E+01
 p    1 1.00
 0.95774129632000E-01 0.10000000000000E+01
 
   11 0
 s    6 1.00
 0.19730800647000E+05 0.58626402628763E-03
 0.29578958745000E+04 0.45428820586397E-02
 0.67322133595000E+03 0.23558413450084E-01
 0.19068249494000E+03 0.94709193292923E-01
 0.62295441898000E+02 0.29719784913376E+00
 0.22654161182000E+02 0.66916246895232E+00
 s    2 1.00
 0.89791477428000E+01 0.64596683630063E+00
 0.36863002370000E+01 0.38700574393705E+00
 s    1 1.00
 0.84660076805000E+00 0.10000000000000E+01
 s    1 1.00
 0.33647133771000E+00 0.10000000000000E+01
 s    1 1.00
 0.13647653675000E+00 0.10000000000000E+01
 s    1 1.00
 0.68441605847000E-01 0.10000000000000E+01
 p    4 1.00
 0.49200380510000E+02 0.11448825101764E-01
 0.11346790537000E+02 0.78422337970864E-01
 0.34273972411000E+01 0.30818094738830E+00
 0.11785525134000E+01 0.72027196368413E+00
 p    1 1.00
 0.41642204972000E+00 0.10000000000000E+01
 p    1 1.00
 0.14260826011000E+00 0.10000000000000E+01
 d    1 1.00
 0.16540000000000E+01 0.10000000000000E+01
 d    1 1.00
 0.46900000000000E+00 0.10000000000000E+01
 d    1 1.00
 0.12829642058000E+00 0.10000000000000E+01
 f    1 1.00
 0.10930000000000E+01 0.10000000000000E+01
 
   12 0
 s    6 1.00
 0.27032382631000E+05 0.57227335211155E-03
 0.40523871392000E+04 0.44353233492995E-02
 0.92232722710000E+03 0.23020107706038E-01
 0.26124070989000E+03 0.92822490667928E-01
 0.85354641351000E+02 0.29378500009671E+00
 0.31035035245000E+02 0.67401604501641E+00
 s    2 1.00
 0.12260860728000E+02 0.63839937025506E+00
 0.49987076005000E+01 0.39534587125718E+00
 s    1 1.00
 0.11703108158000E+01 0.10000000000000E+01
 s    1 1.00
 0.46474740994000E+00 0.10000000000000E+01
 s    1 1.00
 0.18504536357000E+00 0.10000000000000E+01
 s    1 1.00
 0.70288026270000E-01 0.10000000000000E+01
 p    4 1.00
 0.63274954801000E+02 0.12018332222616E-01
 0.14627049379000E+02 0.83005421790056E-01
 0.44501223456000E+01 0.31991743925964E+00
 0.15275799647000E+01 0.70715542916104E+00
 p    1 1.00
 0.52935117943000E+00 0.10000000000000E+01
 p    1 1.00
 0.17478421270000E+00 0.10000000000000E+01
 p    1 1.00
 0.51112745706000E-01 0.10000000000000E+01
 d    1 1.00
 0.23140000000000E+01 0.10000000000000E+01
 d    1 1.00
 0.64500000000000E+00 0.10000000000000E+01
 d    1 1.00
 0.14696477366000E+00 0.10000000000000E+01
 f    1 1.00
 0.14280000000000E+01 0.10000000000000E+01
 
   13 0
 s    6 1.00
 0.27032382631000E+05 0.57227335211155E-03
 0.40523871392000E+04 0.44353233492995E-02
 0.92232722710000E+03 0.23020107706038E-01
 0.26124070989000E+03 0.92822490667928E-01
 0.85354641351000E+02 0.29378500009671E+00
 0.31035035245000E+02 0.67401604501641E+00
 s    2 1.00
 0.12260860728000E+02 0.63839937025506E+00
 0.49987076005000E+01 0.39534587125718E+00
 s    1 1.00
 0.11703108158000E+01 0.10000000000000E+01
 s    1 1.00
 0.46474740994000E+00 0.10000000000000E+01
 s    1 1.00
 0.18504536357000E+00 0.10000000000000E+01
 s    1 1.00
 0.70288026270000E-01 0.10000000000000E+01
 p    4 1.00
 0.63274954801000E+02 0.12018332222616E-01
 0.14627049379000E+02 0.83005421790056E-01
 0.44501223456000E+01 0.31991743925964E+00
 0.15275799647000E+01 0.70715542916104E+00
 p    1 1.00
 0.52935117943000E+00 0.10000000000000E+01
 p    1 1.00
 0.17478421270000E+00 0.10000000000000E+01
 p    1 1.00
 0.51112745706000E-01 0.10000000000000E+01
 d    1 1.00
 0.23140000000000E+01 0.10000000000000E+01
 d    1 1.00
 0.64500000000000E+00 0.10000000000000E+01
 d    1 1.00
 0.14696477366000E+00 0.10000000000000E+01
 f    1 1.00
 0.14280000000000E+01 0.10000000000000E+01
 
   14 0
 s    6 1.00
 0.19730800647000E+05 0.58626402628763E-03
 0.29578958745000E+04 0.45428820586397E-02
 0.67322133595000E+03 0.23558413450084E-01
 0.19068249494000E+03 0.94709193292923E-01
 0.62295441898000E+02 0.29719784913376E+00
 0.22654161182000E+02 0.66916246895232E+00
 s    2 1.00
 0.89791477428000E+01 0.64596683630063E+00
 0.36863002370000E+01 0.38700574393705E+00
 s    1 1.00
 0.84660076805000E+00 0.10000000000000E+01
 s    1 1.00
 0.33647133771000E+00 0.10000000000000E+01
 s    1 1.00
 0.13647653675000E+00 0.10000000000000E+01
 s    1 1.00
 0.68441605847000E-01 0.10000000000000E+01
 p    4 1.00
 0.49200380510000E+02 0.11448825101764E-01
 0.11346790537000E+02 0.78422337970864E-01
 0.34273972411000E+01 0.30818094738830E+00
 0.11785525134000E+01 0.72027196368413E+00
 p    1 1.00
 0.41642204972000E+00 0.10000000000000E+01
 p    1 1.00
 0.14260826011000E+00 0.10000000000000E+01
 d    1 1.00
 0.16540000000000E+01 0.10000000000000E+01
 d    1 1.00
 0.46900000000000E+00 0.10000000000000E+01
 d    1 1.00
 0.12829642058000E+00 0.10000000000000E+01
 f    1 1.00
 0.10930000000000E+01 0.10000000000000E+01
 
   15 0
 s    3 1.00
 0.34061341000000E+02 0.25439307208879E-01
 0.51235746000000E+01 0.19008594890375E+00
 0.11646626000000E+01 0.85244113011042E+00
 s    1 1.00
 0.32723041000000E+00 0.10000000000000E+01
 s    1 1.00
 0.10307241000000E+00 0.10000000000000E+01
 p    1 1.00
 0.80000000000000E+00 0.10000000000000E+01
 p    1 1.00
 0.95774129632000E-01 0.10000000000000E+01
 
   16 0
 s    3 1.00
 0.34061341000000E+02 0.25439307208879E-01
 0.51235746000000E+01 0.19008594890375E+00
 0.11646626000000E+01 0.85244113011042E+00
 s    1 1.00
 0.32723041000000E+00 0.10000000000000E+01
 s    1 1.00
 0.10307241000000E+00 0.10000000000000E+01
 p    1 1.00
 0.80000000000000E+00 0.10000000000000E+01
 p    1 1.00
 0.95774129632000E-01 0.10000000000000E+01
 
[MO]
 Sym= X
 Ene= -0.090017
 Spin= Alpha
 Occup= -0.090017
         1   -4.093025E-04
         2   -9.448948E-04
         3    2.480575E-03
         4   -4.961115E-03
         5    3.979918E-02
         6   -2.137652E-02
         7   -4.322634E-03
         8   -4.514116E-04
         9   -1.402099E-02
        10    3.927636E-03
        11   -1.067987E-03
        12   -1.523084E-02
        13    4.992870E-02
        14   -1.875973E-02
        15   -1.865492E-03
        16    5.036550E-05
        17   -6.241394E-05
        18    1.204844E-05
        19   -3.356270E-05
        20    5.449270E-03
        21   -2.137328E-03
        22   -1.142403E-03
        23    6.879746E-04
        24    4.544287E-04
        25   -1.385044E-03
        26    1.226091E-02
        27   -4.346159E-03
        28   -4.430165E-03
        29    3.969958E-03
        30    4.602065E-04
        31    3.153411E-03
        32   -5.504644E-03
        33    1.070272E-02
        34    3.355678E-05
        35   -1.257926E-05
        36    2.463433E-04
        37   -1.361065E-05
        38    9.772707E-06
        39   -8.294385E-04
        40   -3.141050E-05
        41    7.104135E-06
        42    4.989343E-04
        43   -4.687552E-04
        44    1.043583E-04
        45    2.295404E-04
        46    1.969861E-04
        47   -6.948212E-03
        48   -7.898629E-02
        49    1.266759E-02
        50   -4.606940E-05
        51   -4.326232E-08
        52    1.179329E-01
        53    1.571062E-03
        54   -3.969701E-06
        55    1.237851E-01
        56    2.067068E-02
        57    3.736193E-04
        58    1.551929E-01
        59    1.188824E-04
        60   -1.167762E-04
        61   -2.106183E-06
        62    3.919461E-09
        63    1.180665E-03
        64    2.336944E-06
        65    8.150394E-04
        66   -1.304188E-03
        67    4.891482E-04
        68    8.395309E-07
        69    3.603065E-03
        70    6.091351E-06
        71    2.408073E-02
        72   -2.636476E-02
        73    2.284036E-03
        74   -6.313638E-05
        75   -1.014854E-03
        76    2.856702E-05
        77   -1.058479E-05
        78    2.216162E-08
        79   -5.170134E-04
        80    1.590723E-05
        81   -3.325697E-08
        82    3.205212E-04
        83   -1.706250E-06
        84    3.524034E-09
        85    3.731250E-04
        86   -4.104321E-07
        87   -4.075275E-04
        88   -9.409080E-04
        89    2.473828E-03
        90   -4.967095E-03
        91    4.083943E-02
        92   -2.138738E-02
        93   -4.324499E-03
        94    4.554857E-04
        95   -1.415466E-02
        96    3.908428E-03
        97    1.071813E-03
        98   -1.536537E-02
        99    5.001046E-02
       100    1.912366E-02
       101   -1.912070E-03
       102    5.032290E-05
       103   -6.249204E-05
       104    1.216914E-05
       105    3.378828E-05
       106    5.453057E-03
       107    2.136980E-03
       108   -1.138151E-03
       109    6.841101E-04
       110    4.540407E-04
       111    1.384747E-03
       112    1.226839E-02
       113    4.346744E-03
       114   -4.488419E-03
       115    4.037906E-03
       116    4.505130E-04
       117   -3.086620E-03
       118   -5.469949E-03
       119   -1.067342E-02
       120    3.357405E-05
       121    1.256227E-05
       122    2.471763E-04
       123   -1.368512E-05
       124   -9.711545E-06
       125   -8.304738E-04
       126   -3.135919E-05
       127   -7.142507E-06
       128    4.988521E-04
       129    4.687782E-04
       130    2.974894E-04
       131    6.538053E-04
       132    6.644335E-04
       133   -1.888097E-02
       134   -1.510678E-03
       135    2.555021E-02
       136    3.980981E-03
       137   -1.367882E-03
       138   -1.559809E-01
       139    1.831068E-02
       140   -1.151484E-02
       141   -1.582319E-01
       142    1.946161E-02
       143    1.578046E-02
       144   -9.360470E-02
       145    3.263806E-04
       146   -3.884149E-04
       147    6.203430E-05
       148   -4.667044E-07
       149   -1.286916E-04
       150   -2.802036E-03
       151    1.281594E-03
       152   -1.478079E-03
       153    1.964848E-04
       154    3.072535E-03
       155    2.560498E-03
       156   -4.341212E-03
       157    1.310038E-02
       158   -9.773485E-03
       159   -3.326897E-03
       160   -2.026472E-02
       161   -5.454719E-03
       162    1.426043E-02
       163    3.358323E-05
       164   -2.076161E-05
       165    9.293377E-04
       166    3.512072E-05
       167   -2.712937E-05
       168   -3.508217E-04
       169   -8.017734E-05
       170    5.498399E-05
       171   -8.960157E-04
       172    2.333812E-04
       173   -2.087473E-03
       174   -4.742139E-03
       175    4.824387E-03
       176    3.910362E-02
       177   -9.246898E-02
       178    9.564338E-03
       179   -1.812206E-02
       180    7.903855E-07
       181   -9.275859E-02
       182   -1.479482E-03
       183    8.760250E-06
       184   -9.662754E-02
       185    7.873426E-02
       186   -3.791866E-04
       187   -1.357239E-01
       188    9.815878E-04
       189   -5.969955E-04
       190   -3.845924E-04
       191    1.884743E-07
       192   -1.110103E-02
       193    2.673761E-06
       194   -3.343252E-03
       195    7.324253E-03
       196   -3.981000E-03
       197    2.280304E-06
       198   -2.675958E-02
       199    7.059809E-06
       200   -1.677279E-02
       201    1.787573E-02
       202   -1.102934E-03
       203   -1.087715E-04
       204   -1.440202E-02
       205   -3.210218E-05
       206   -2.200609E-04
       207    3.657098E-09
       208    1.103721E-04
       209    1.567099E-04
       210    3.985524E-08
       211    1.353222E-03
       212    1.385328E-04
       213   -4.476175E-08
       214   -1.501302E-03
       215    4.614768E-07
       216    2.975785E-04
       217    6.539892E-04
       218    6.643857E-04
       219   -1.888786E-02
       220   -3.660428E-04
       221    2.551349E-02
       222    3.982582E-03
       223    1.363978E-03
       224   -1.558323E-01
       225    1.832574E-02
       226    1.151946E-02
       227   -1.580854E-01
       228    1.944567E-02
       229   -1.621188E-02
       230   -9.345389E-02
       231    3.264297E-04
       232   -3.886604E-04
       233    6.223074E-05
       234    7.688465E-07
       235   -1.253359E-04
       236    2.801754E-03
       237    1.285457E-03
       238   -1.482356E-03
       239    1.968984E-04
       240   -3.074378E-03
       241    2.565755E-03
       242    4.340835E-03
       243    1.303432E-02
       244   -9.708712E-03
       245   -3.325609E-03
       246    2.031456E-02
       247   -5.495385E-03
       248   -1.429607E-02
       249    3.362591E-05
       250    2.080475E-05
       251    9.284225E-04
       252    3.521516E-05
       253    2.706831E-05
       254   -3.498111E-04
       255   -8.032906E-05
       256   -5.498080E-05
       257   -8.957984E-04
       258   -2.333535E-04
       259   -1.003748E-03
       260   -8.270543E-04
       261   -3.083152E-02
       262    2.305676E-05
       263    3.840364E-05
       264   -3.715214E-04
       265    8.872508E-03
       266    1.955230E-03
       267   -5.648129E-03
       268   -1.008055E-03
       269   -8.280018E-04
       270   -3.079292E-02
       271    2.298945E-05
       272   -3.828859E-05
       273   -3.768409E-04
       274    8.932912E-03
       275   -1.927966E-03
       276   -5.647217E-03
       277   -1.212472E-03
       278   -5.065418E-03
       279    6.635050E-02
       280    3.360173E-05
       281   -2.521797E-04
       282   -6.160179E-03
       283    3.465748E-03
       284    5.603751E-03
       285    2.482980E-03
       286   -1.215889E-03
       287   -5.062912E-03
       288    6.645163E-02
       289    3.335747E-05
       290    2.518922E-04
       291   -6.153874E-03
       292    3.430511E-03
       293   -5.632640E-03
       294    2.499298E-03
       295   -1.343421E-04
       296   -3.162311E-04
       297    3.870934E-04
       298    8.216521E-04
       299   -1.650791E-02
       300   -4.000538E-03
       301   -1.164241E-03
       302    8.760811E-07
       303    1.874962E-02
       304   -5.126005E-04
       305    1.072497E-06
       306    2.063562E-02
       307    5.842465E-03
       308   -2.716932E-06
       309    9.722021E-04
       310    2.508148E-05
       311   -1.954300E-05
       312   -5.538479E-06
       313    2.673255E-07
       314   -2.532414E-03
       315   -2.753209E-06
       316   -2.583486E-05
       317    8.431148E-05
       318   -5.847661E-05
       319    7.048090E-07
       320   -7.777459E-03
       321   -7.903906E-06
       322   -5.802889E-04
       323    4.746200E-03
       324   -4.165911E-03
       325    1.001098E-05
       326   -1.030518E-03
       327   -5.085259E-06
       328   -1.040736E-05
       329   -6.210102E-08
       330   -4.236908E-05
       331    7.345683E-06
       332    8.390194E-08
       333    4.352108E-04
       334    6.617256E-06
       335   -5.846825E-10
       336   -3.783668E-04
       337   -5.307973E-07
       338   -2.026973E-05
       339   -4.244804E-05
       340   -2.150864E-05
       341    9.620436E-04
       342   -1.130915E-02
       343   -2.132564E-03
       344    3.134691E-04
       345   -2.483023E-04
       346   -4.204648E-02
       347    5.390260E-04
       348   -4.684503E-04
       349   -3.915144E-02
       350    1.881733E-03
       351   -1.300637E-03
       352   -3.285145E-02
       353    5.390228E-04
       354   -3.003326E-04
       355   -4.174264E-03
       356    6.852761E-06
       357   -9.654688E-06
       358    2.801927E-06
       359   -6.930048E-07
       360   -6.527592E-05
       361   -1.843674E-04
       362   -1.397676E-05
       363   -2.483643E-05
       364    3.881320E-05
       365    1.048101E-05
       366    1.460766E-04
       367   -6.452613E-04
       368   -8.152256E-05
       369   -3.251815E-05
       370    1.140407E-04
       371   -6.343713E-05
       372   -3.164109E-05
       373   -1.615045E-04
       374   -9.652050E-07
       375   -3.914971E-06
       376    1.754161E-05
       377    1.922620E-06
       378    2.122101E-06
       379    5.322448E-05
       380   -6.276616E-07
       381    3.130383E-06
       382   -7.675902E-05
       383    5.363449E-05
       384   -2.060470E-05
       385   -4.326982E-05
       386   -2.030323E-05
       387    9.634456E-04
       388   -1.131810E-02
       389   -2.121958E-03
       390    3.268566E-04
       391    2.366372E-04
       392   -4.219878E-02
       393    5.511877E-04
       394    4.584273E-04
       395   -3.929199E-02
       396    1.884619E-03
       397    1.296191E-03
       398   -3.294797E-02
       399    5.360054E-04
       400    3.008548E-04
       401   -4.187903E-03
       402    6.726910E-06
       403   -9.495054E-06
       404    2.768144E-06
       405    6.733094E-07
       406   -6.449068E-05
       407    1.856524E-04
       408   -1.421915E-05
       409   -2.454739E-05
       410    3.876654E-05
       411   -1.053624E-05
       412    1.486171E-04
       413    6.495351E-04
       414   -8.315916E-05
       415   -3.084898E-05
       416    1.140081E-04
       417    6.308337E-05
       418   -2.952465E-05
       419    1.640268E-04
       420   -9.525632E-07
       421    3.870286E-06
       422    1.775813E-05
       423    1.901743E-06
       424   -2.074267E-06
       425    5.328064E-05
       426   -6.237451E-07
       427   -3.118267E-06
       428   -7.710567E-05
       429   -5.404520E-05
       430    9.138290E-03
       431    2.165313E-02
       432   -3.344243E-02
       433   -5.499280E-02
       434   -1.365789E-02
       435   -1.023870E-01
       436    3.394229E-02
       437   -6.791557E-06
       438    3.159432E-01
       439    3.844792E-02
       440   -2.428299E-06
       441    3.097951E-01
       442    4.655324E-02
       443    4.637861E-05
       444    2.437728E-01
       445   -2.384512E-04
       446   -1.421380E-04
       447    3.805893E-04
       448    1.193167E-07
       449   -4.270186E-04
       450   -1.076353E-07
       451   -3.769837E-04
       452   -3.249187E-03
       453    3.626171E-03
       454   -1.862332E-06
       455   -2.625582E-03
       456   -7.239762E-07
       457   -2.686093E-03
       458   -8.649353E-03
       459    1.133545E-02
       460   -5.226787E-06
       461   -2.271232E-03
       462   -4.731385E-06
       463    2.353255E-04
       464   -4.234751E-08
       465   -1.270996E-03
       466    1.817425E-04
       467   -2.210122E-08
       468    7.608026E-04
       469   -4.974647E-04
       470    7.891637E-08
       471    9.444174E-04
       472    5.073068E-08
       473    1.544797E-02
       474    3.177732E-02
       475    6.188828E-02
       476    4.124590E-03
       477    3.361711E-03
       478    1.544679E-02
       479    1.428579E-03
       480    6.717570E-03
       481    1.549247E-02
       482    1.544398E-02
       483    3.173862E-02
       484    6.171697E-02
       485    4.122286E-03
       486   -3.358525E-03
       487    1.544980E-02
       488    1.396380E-03
       489   -6.699943E-03
       490    1.550830E-02
 Sym= X
 Ene= -0.760328
 Spin= Alpha
 Occup= -0.760328
         1    3.111971E-05
         2    7.128526E-05
         3   -1.744822E-04
         4    2.323566E-04
         5    1.042377E-03
         6    5.385020E-04
         7   -6.812703E-05
         8   -1.905772E-04
         9    1.074985E-01
        10   -5.672338E-04
        11    1.046150E-05
        12    1.077912E-01
        13    1.304895E-03
        14   -1.435355E-03
        15    7.324371E-02
        16    5.144642E-06
        17   -3.206234E-06
        18   -1.938408E-06
        19   -5.051214E-06
        20   -2.596884E-03
        21   -3.599346E-04
        22    1.052258E-04
        23   -8.157555E-05
        24   -2.365022E-05
        25   -6.697858E-06
        26   -4.043548E-03
        27   -3.919732E-05
        28    5.273143E-05
        29   -1.126333E-04
        30    5.990190E-05
        31   -4.048962E-05
        32   -7.868550E-06
        33   -2.003940E-03
        34   -4.294067E-06
        35   -2.219177E-07
        36   -7.331839E-04
        37    9.049428E-07
        38   -6.319924E-08
        39    8.680000E-04
        40    4.856153E-06
        41    3.609331E-07
        42    1.156694E-04
        43   -4.718784E-05
        44    7.337894E-09
        45   -2.701330E-08
        46    2.854781E-06
        47   -1.213250E-05
        48   -6.716523E-04
        49   -6.759835E-05
        50   -5.427071E-07
        51    1.412022E-04
        52   -1.344275E-07
        53    7.141486E-06
        54    3.396750E-04
        55   -1.803985E-06
        56    2.698837E-04
        57   -2.316209E-03
        58   -1.381348E-05
        59    1.944759E-08
        60   -4.142408E-08
        61    2.197649E-08
        62   -9.632116E-06