[Molden Format]
[Title]
ADC(2) - opt by CAM-B3LYP gaussian                                              
[Atoms] AU
 c     1    6 0.12593230616935E+01 0.22795690751954E+01 -.36278607975490E-01
 c     2    6 0.25504236399298E+01 0.18897261300000E-05 -.34511714041240E-01
 c     3    6 0.12593268411458E+01 -.22795652957431E+01 -.36289946332290E-01
 c     4    6 -.13369660030996E+01 -.22791608943507E+01 -.39583738981910E-01
 c     5    6 -.26856068523561E+01 -.18897261300000E-05 -.40110972572980E-01
 c     6    6 -.13369678928258E+01 0.22791590046246E+01 -.39570510898980E-01
 h     7    1 0.23068095955089E+01 0.40296066523382E+01 -.33243707806080E-01
 h     8    1 0.23068152646873E+01 -.40296028728859E+01 -.33262605067400E-01
 h     9    1 -.23553205188504E+01 -.40525668248527E+01 -.45200005048840E-01
 h    10    1 -.23553280777549E+01 0.40525630454004E+01 -.45173548882980E-01
 n    11    7 0.52878147756133E+01 0.00000000000000E+00 -.27472484196240E-01
 o    12    8 0.63764576548767E+01 -.20283488830896E+01 -.24482937454020E-01
 o    13    8 0.63764614343290E+01 0.20283469933635E+01 -.24515062798280E-01
 n    14    7 -.52636676188715E+01 0.00000000000000E+00 -.10786332361533E+00
 h    15    1 -.61947904866021E+01 -.16076731691957E+01 0.28377485852069E+00
 h    16    1 -.61947848174237E+01 0.16076731691957E+01 0.28378430715135E+00
[GTO]
    1 0
 s    6 1.00
 0.13575349682000E+05 0.60645503603591E-03
 0.20352333680000E+04 0.46979088884982E-02
 0.46322562359000E+03 0.24332477647552E-01
 0.13120019598000E+03 0.97399968307759E-01
 0.42853015891000E+02 0.30195584253780E+00
 0.15584185766000E+02 0.66233609137875E+00
 s    2 1.00
 0.62067138508000E+01 0.65595308539952E+00
 0.25764896527000E+01 0.37585633285142E+00
 s    1 1.00
 0.57696339419000E+00 0.10000000000000E+01
 s    1 1.00
 0.22972831358000E+00 0.10000000000000E+01
 s    1 1.00
 0.95164440028000E-01 0.10000000000000E+01
 s    1 1.00
 0.48475401370000E-01 0.10000000000000E+01
 p    4 1.00
 0.34697232244000E+02 0.11327220003114E-01
 0.79582622826000E+01 0.76169659202087E-01
 0.23780826883000E+01 0.30192252202676E+00
 0.81433208183000E+00 0.72785027349547E+00
 p    1 1.00
 0.28887547253000E+00 0.10000000000000E+01
 p    1 1.00
 0.10056823671000E+00 0.10000000000000E+01
 d    1 1.00
 0.10970000000000E+01 0.10000000000000E+01
 d    1 1.00
 0.31800000000000E+00 0.10000000000000E+01
 d    1 1.00
 0.90985336424000E-01 0.10000000000000E+01
 f    1 1.00
 0.76100000000000E+00 0.10000000000000E+01
 
    2 0
 s    6 1.00
 0.13575349682000E+05 0.60645503603591E-03
 0.20352333680000E+04 0.46979088884982E-02
 0.46322562359000E+03 0.24332477647552E-01
 0.13120019598000E+03 0.97399968307759E-01
 0.42853015891000E+02 0.30195584253780E+00
 0.15584185766000E+02 0.66233609137875E+00
 s    2 1.00
 0.62067138508000E+01 0.65595308539952E+00
 0.25764896527000E+01 0.37585633285142E+00
 s    1 1.00
 0.57696339419000E+00 0.10000000000000E+01
 s    1 1.00
 0.22972831358000E+00 0.10000000000000E+01
 s    1 1.00
 0.95164440028000E-01 0.10000000000000E+01
 s    1 1.00
 0.48475401370000E-01 0.10000000000000E+01
 p    4 1.00
 0.34697232244000E+02 0.11327220003114E-01
 0.79582622826000E+01 0.76169659202087E-01
 0.23780826883000E+01 0.30192252202676E+00
 0.81433208183000E+00 0.72785027349547E+00
 p    1 1.00
 0.28887547253000E+00 0.10000000000000E+01
 p    1 1.00
 0.10056823671000E+00 0.10000000000000E+01
 d    1 1.00
 0.10970000000000E+01 0.10000000000000E+01
 d    1 1.00
 0.31800000000000E+00 0.10000000000000E+01
 d    1 1.00
 0.90985336424000E-01 0.10000000000000E+01
 f    1 1.00
 0.76100000000000E+00 0.10000000000000E+01
 
    3 0
 s    6 1.00
 0.13575349682000E+05 0.60645503603591E-03
 0.20352333680000E+04 0.46979088884982E-02
 0.46322562359000E+03 0.24332477647552E-01
 0.13120019598000E+03 0.97399968307759E-01
 0.42853015891000E+02 0.30195584253780E+00
 0.15584185766000E+02 0.66233609137875E+00
 s    2 1.00
 0.62067138508000E+01 0.65595308539952E+00
 0.25764896527000E+01 0.37585633285142E+00
 s    1 1.00
 0.57696339419000E+00 0.10000000000000E+01
 s    1 1.00
 0.22972831358000E+00 0.10000000000000E+01
 s    1 1.00
 0.95164440028000E-01 0.10000000000000E+01
 s    1 1.00
 0.48475401370000E-01 0.10000000000000E+01
 p    4 1.00
 0.34697232244000E+02 0.11327220003114E-01
 0.79582622826000E+01 0.76169659202087E-01
 0.23780826883000E+01 0.30192252202676E+00
 0.81433208183000E+00 0.72785027349547E+00
 p    1 1.00
 0.28887547253000E+00 0.10000000000000E+01
 p    1 1.00
 0.10056823671000E+00 0.10000000000000E+01
 d    1 1.00
 0.10970000000000E+01 0.10000000000000E+01
 d    1 1.00
 0.31800000000000E+00 0.10000000000000E+01
 d    1 1.00
 0.90985336424000E-01 0.10000000000000E+01
 f    1 1.00
 0.76100000000000E+00 0.10000000000000E+01
 
    4 0
 s    6 1.00
 0.13575349682000E+05 0.60645503603591E-03
 0.20352333680000E+04 0.46979088884982E-02
 0.46322562359000E+03 0.24332477647552E-01
 0.13120019598000E+03 0.97399968307759E-01
 0.42853015891000E+02 0.30195584253780E+00
 0.15584185766000E+02 0.66233609137875E+00
 s    2 1.00
 0.62067138508000E+01 0.65595308539952E+00
 0.25764896527000E+01 0.37585633285142E+00
 s    1 1.00
 0.57696339419000E+00 0.10000000000000E+01
 s    1 1.00
 0.22972831358000E+00 0.10000000000000E+01
 s    1 1.00
 0.95164440028000E-01 0.10000000000000E+01
 s    1 1.00
 0.48475401370000E-01 0.10000000000000E+01
 p    4 1.00
 0.34697232244000E+02 0.11327220003114E-01
 0.79582622826000E+01 0.76169659202087E-01
 0.23780826883000E+01 0.30192252202676E+00
 0.81433208183000E+00 0.72785027349547E+00
 p    1 1.00
 0.28887547253000E+00 0.10000000000000E+01
 p    1 1.00
 0.10056823671000E+00 0.10000000000000E+01
 d    1 1.00
 0.10970000000000E+01 0.10000000000000E+01
 d    1 1.00
 0.31800000000000E+00 0.10000000000000E+01
 d    1 1.00
 0.90985336424000E-01 0.10000000000000E+01
 f    1 1.00
 0.76100000000000E+00 0.10000000000000E+01
 
    5 0
 s    6 1.00
 0.13575349682000E+05 0.60645503603591E-03
 0.20352333680000E+04 0.46979088884982E-02
 0.46322562359000E+03 0.24332477647552E-01
 0.13120019598000E+03 0.97399968307759E-01
 0.42853015891000E+02 0.30195584253780E+00
 0.15584185766000E+02 0.66233609137875E+00
 s    2 1.00
 0.62067138508000E+01 0.65595308539952E+00
 0.25764896527000E+01 0.37585633285142E+00
 s    1 1.00
 0.57696339419000E+00 0.10000000000000E+01
 s    1 1.00
 0.22972831358000E+00 0.10000000000000E+01
 s    1 1.00
 0.95164440028000E-01 0.10000000000000E+01
 s    1 1.00
 0.48475401370000E-01 0.10000000000000E+01
 p    4 1.00
 0.34697232244000E+02 0.11327220003114E-01
 0.79582622826000E+01 0.76169659202087E-01
 0.23780826883000E+01 0.30192252202676E+00
 0.81433208183000E+00 0.72785027349547E+00
 p    1 1.00
 0.28887547253000E+00 0.10000000000000E+01
 p    1 1.00
 0.10056823671000E+00 0.10000000000000E+01
 d    1 1.00
 0.10970000000000E+01 0.10000000000000E+01
 d    1 1.00
 0.31800000000000E+00 0.10000000000000E+01
 d    1 1.00
 0.90985336424000E-01 0.10000000000000E+01
 f    1 1.00
 0.76100000000000E+00 0.10000000000000E+01
 
    6 0
 s    6 1.00
 0.13575349682000E+05 0.60645503603591E-03
 0.20352333680000E+04 0.46979088884982E-02
 0.46322562359000E+03 0.24332477647552E-01
 0.13120019598000E+03 0.97399968307759E-01
 0.42853015891000E+02 0.30195584253780E+00
 0.15584185766000E+02 0.66233609137875E+00
 s    2 1.00
 0.62067138508000E+01 0.65595308539952E+00
 0.25764896527000E+01 0.37585633285142E+00
 s    1 1.00
 0.57696339419000E+00 0.10000000000000E+01
 s    1 1.00
 0.22972831358000E+00 0.10000000000000E+01
 s    1 1.00
 0.95164440028000E-01 0.10000000000000E+01
 s    1 1.00
 0.48475401370000E-01 0.10000000000000E+01
 p    4 1.00
 0.34697232244000E+02 0.11327220003114E-01
 0.79582622826000E+01 0.76169659202087E-01
 0.23780826883000E+01 0.30192252202676E+00
 0.81433208183000E+00 0.72785027349547E+00
 p    1 1.00
 0.28887547253000E+00 0.10000000000000E+01
 p    1 1.00
 0.10056823671000E+00 0.10000000000000E+01
 d    1 1.00
 0.10970000000000E+01 0.10000000000000E+01
 d    1 1.00
 0.31800000000000E+00 0.10000000000000E+01
 d    1 1.00
 0.90985336424000E-01 0.10000000000000E+01
 f    1 1.00
 0.76100000000000E+00 0.10000000000000E+01
 
    7 0
 s    3 1.00
 0.34061341000000E+02 0.25439307208879E-01
 0.51235746000000E+01 0.19008594890375E+00
 0.11646626000000E+01 0.85244113011042E+00
 s    1 1.00
 0.32723041000000E+00 0.10000000000000E+01
 s    1 1.00
 0.10307241000000E+00 0.10000000000000E+01
 p    1 1.00
 0.80000000000000E+00 0.10000000000000E+01
 p    1 1.00
 0.95774129632000E-01 0.10000000000000E+01
 
    8 0
 s    3 1.00
 0.34061341000000E+02 0.25439307208879E-01
 0.51235746000000E+01 0.19008594890375E+00
 0.11646626000000E+01 0.85244113011042E+00
 s    1 1.00
 0.32723041000000E+00 0.10000000000000E+01
 s    1 1.00
 0.10307241000000E+00 0.10000000000000E+01
 p    1 1.00
 0.80000000000000E+00 0.10000000000000E+01
 p    1 1.00
 0.95774129632000E-01 0.10000000000000E+01
 
    9 0
 s    3 1.00
 0.34061341000000E+02 0.25439307208879E-01
 0.51235746000000E+01 0.19008594890375E+00
 0.11646626000000E+01 0.85244113011042E+00
 s    1 1.00
 0.32723041000000E+00 0.10000000000000E+01
 s    1 1.00
 0.10307241000000E+00 0.10000000000000E+01
 p    1 1.00
 0.80000000000000E+00 0.10000000000000E+01
 p    1 1.00
 0.95774129632000E-01 0.10000000000000E+01
 
   10 0
 s    3 1.00
 0.34061341000000E+02 0.25439307208879E-01
 0.51235746000000E+01 0.19008594890375E+00
 0.11646626000000E+01 0.85244113011042E+00
 s    1 1.00
 0.32723041000000E+00 0.10000000000000E+01
 s    1 1.00
 0.10307241000000E+00 0.10000000000000E+01
 p    1 1.00
 0.80000000000000E+00 0.10000000000000E+01
 p    1 1.00
 0.95774129632000E-01 0.10000000000000E+01
 
   11 0
 s    6 1.00
 0.19730800647000E+05 0.58626402628763E-03
 0.29578958745000E+04 0.45428820586397E-02
 0.67322133595000E+03 0.23558413450084E-01
 0.19068249494000E+03 0.94709193292923E-01
 0.62295441898000E+02 0.29719784913376E+00
 0.22654161182000E+02 0.66916246895232E+00
 s    2 1.00
 0.89791477428000E+01 0.64596683630063E+00
 0.36863002370000E+01 0.38700574393705E+00
 s    1 1.00
 0.84660076805000E+00 0.10000000000000E+01
 s    1 1.00
 0.33647133771000E+00 0.10000000000000E+01
 s    1 1.00
 0.13647653675000E+00 0.10000000000000E+01
 s    1 1.00
 0.68441605847000E-01 0.10000000000000E+01
 p    4 1.00
 0.49200380510000E+02 0.11448825101764E-01
 0.11346790537000E+02 0.78422337970864E-01
 0.34273972411000E+01 0.30818094738830E+00
 0.11785525134000E+01 0.72027196368413E+00
 p    1 1.00
 0.41642204972000E+00 0.10000000000000E+01
 p    1 1.00
 0.14260826011000E+00 0.10000000000000E+01
 d    1 1.00
 0.16540000000000E+01 0.10000000000000E+01
 d    1 1.00
 0.46900000000000E+00 0.10000000000000E+01
 d    1 1.00
 0.12829642058000E+00 0.10000000000000E+01
 f    1 1.00
 0.10930000000000E+01 0.10000000000000E+01
 
   12 0
 s    6 1.00
 0.27032382631000E+05 0.57227335211155E-03
 0.40523871392000E+04 0.44353233492995E-02
 0.92232722710000E+03 0.23020107706038E-01
 0.26124070989000E+03 0.92822490667928E-01
 0.85354641351000E+02 0.29378500009671E+00
 0.31035035245000E+02 0.67401604501641E+00
 s    2 1.00
 0.12260860728000E+02 0.63839937025506E+00
 0.49987076005000E+01 0.39534587125718E+00
 s    1 1.00
 0.11703108158000E+01 0.10000000000000E+01
 s    1 1.00
 0.46474740994000E+00 0.10000000000000E+01
 s    1 1.00
 0.18504536357000E+00 0.10000000000000E+01
 s    1 1.00
 0.70288026270000E-01 0.10000000000000E+01
 p    4 1.00
 0.63274954801000E+02 0.12018332222616E-01
 0.14627049379000E+02 0.83005421790056E-01
 0.44501223456000E+01 0.31991743925964E+00
 0.15275799647000E+01 0.70715542916104E+00
 p    1 1.00
 0.52935117943000E+00 0.10000000000000E+01
 p    1 1.00
 0.17478421270000E+00 0.10000000000000E+01
 p    1 1.00
 0.51112745706000E-01 0.10000000000000E+01
 d    1 1.00
 0.23140000000000E+01 0.10000000000000E+01
 d    1 1.00
 0.64500000000000E+00 0.10000000000000E+01
 d    1 1.00
 0.14696477366000E+00 0.10000000000000E+01
 f    1 1.00
 0.14280000000000E+01 0.10000000000000E+01
 
   13 0
 s    6 1.00
 0.27032382631000E+05 0.57227335211155E-03
 0.40523871392000E+04 0.44353233492995E-02
 0.92232722710000E+03 0.23020107706038E-01
 0.26124070989000E+03 0.92822490667928E-01
 0.85354641351000E+02 0.29378500009671E+00
 0.31035035245000E+02 0.67401604501641E+00
 s    2 1.00
 0.12260860728000E+02 0.63839937025506E+00
 0.49987076005000E+01 0.39534587125718E+00
 s    1 1.00
 0.11703108158000E+01 0.10000000000000E+01
 s    1 1.00
 0.46474740994000E+00 0.10000000000000E+01
 s    1 1.00
 0.18504536357000E+00 0.10000000000000E+01
 s    1 1.00
 0.70288026270000E-01 0.10000000000000E+01
 p    4 1.00
 0.63274954801000E+02 0.12018332222616E-01
 0.14627049379000E+02 0.83005421790056E-01
 0.44501223456000E+01 0.31991743925964E+00
 0.15275799647000E+01 0.70715542916104E+00
 p    1 1.00
 0.52935117943000E+00 0.10000000000000E+01
 p    1 1.00
 0.17478421270000E+00 0.10000000000000E+01
 p    1 1.00
 0.51112745706000E-01 0.10000000000000E+01
 d    1 1.00
 0.23140000000000E+01 0.10000000000000E+01
 d    1 1.00
 0.64500000000000E+00 0.10000000000000E+01
 d    1 1.00
 0.14696477366000E+00 0.10000000000000E+01
 f    1 1.00
 0.14280000000000E+01 0.10000000000000E+01
 
   14 0
 s    6 1.00
 0.19730800647000E+05 0.58626402628763E-03
 0.29578958745000E+04 0.45428820586397E-02
 0.67322133595000E+03 0.23558413450084E-01
 0.19068249494000E+03 0.94709193292923E-01
 0.62295441898000E+02 0.29719784913376E+00
 0.22654161182000E+02 0.66916246895232E+00
 s    2 1.00
 0.89791477428000E+01 0.64596683630063E+00
 0.36863002370000E+01 0.38700574393705E+00
 s    1 1.00
 0.84660076805000E+00 0.10000000000000E+01
 s    1 1.00
 0.33647133771000E+00 0.10000000000000E+01
 s    1 1.00
 0.13647653675000E+00 0.10000000000000E+01
 s    1 1.00
 0.68441605847000E-01 0.10000000000000E+01
 p    4 1.00
 0.49200380510000E+02 0.11448825101764E-01
 0.11346790537000E+02 0.78422337970864E-01
 0.34273972411000E+01 0.30818094738830E+00
 0.11785525134000E+01 0.72027196368413E+00
 p    1 1.00
 0.41642204972000E+00 0.10000000000000E+01
 p    1 1.00
 0.14260826011000E+00 0.10000000000000E+01
 d    1 1.00
 0.16540000000000E+01 0.10000000000000E+01
 d    1 1.00
 0.46900000000000E+00 0.10000000000000E+01
 d    1 1.00
 0.12829642058000E+00 0.10000000000000E+01
 f    1 1.00
 0.10930000000000E+01 0.10000000000000E+01
 
   15 0
 s    3 1.00
 0.34061341000000E+02 0.25439307208879E-01
 0.51235746000000E+01 0.19008594890375E+00
 0.11646626000000E+01 0.85244113011042E+00
 s    1 1.00
 0.32723041000000E+00 0.10000000000000E+01
 s    1 1.00
 0.10307241000000E+00 0.10000000000000E+01
 p    1 1.00
 0.80000000000000E+00 0.10000000000000E+01
 p    1 1.00
 0.95774129632000E-01 0.10000000000000E+01
 
   16 0
 s    3 1.00
 0.34061341000000E+02 0.25439307208879E-01
 0.51235746000000E+01 0.19008594890375E+00
 0.11646626000000E+01 0.85244113011042E+00
 s    1 1.00
 0.32723041000000E+00 0.10000000000000E+01
 s    1 1.00
 0.10307241000000E+00 0.10000000000000E+01
 p    1 1.00
 0.80000000000000E+00 0.10000000000000E+01
 p    1 1.00
 0.95774129632000E-01 0.10000000000000E+01
 
[MO]
 Sym= X
 Ene= -0.063344
 Spin= Alpha
 Occup= -0.063344
         1    9.710664E-06
         2   -2.461560E-05
         3    1.094789E-03
         4   -6.690072E-03
         5    4.080059E-02
         6   -2.188946E-02
         7   -9.388232E-03
         8   -3.756362E-03
         9    1.919672E-02
        10    5.347661E-04
        11   -4.035621E-03
        12    1.725024E-02
        13    6.252956E-02
        14   -2.202700E-02
        15    5.628961E-03
        16    1.459612E-04
        17   -1.884274E-04
        18    4.246622E-05
        19   -1.806543E-04
        20    4.490939E-03
        21   -2.771948E-03
        22   -1.136493E-03
        23    6.762114E-04
        24    4.602819E-04
        25   -1.703278E-03
        26    1.038343E-02
        27   -5.292432E-03
        28   -4.886253E-03
        29    3.866755E-03
        30    1.019498E-03
        31    3.166192E-03
        32   -5.113876E-03
        33    1.366023E-02
        34    2.772287E-05
        35   -3.730235E-05
        36   -6.999385E-05
        37   -2.354514E-05
        38    3.052840E-05
        39   -5.341169E-04
        40   -1.364899E-05
        41    1.951795E-05
        42    6.280235E-04
        43   -4.673433E-04
        44    3.521501E-04
        45    7.632133E-04
        46   -3.027073E-04
        47   -9.478160E-03
        48   -9.410803E-02
        49    1.257845E-02
        50   -1.594447E-03
        51   -5.180368E-07
        52    1.432485E-01
        53    6.111032E-04
        54   -7.654375E-06
        55    1.480735E-01
        56    2.214063E-02
        57    2.711856E-04
        58    1.679813E-01
        59    2.420495E-04
        60   -2.511033E-04
        61    9.053802E-06
        62    1.296625E-07
        63    2.838034E-04
        64    9.997430E-07
        65    1.055078E-03
        66   -1.701894E-03
        67    6.468154E-04
        68    1.415310E-06
        69    1.960441E-03
        70    2.695738E-06
        71    3.014661E-02
        72   -3.251119E-02
        73    2.364582E-03
        74   -5.209069E-05
        75   -2.472796E-03
        76    3.257569E-05
        77   -2.292900E-05
        78    2.987278E-08
        79   -7.860238E-04
        80    2.567648E-05
        81   -6.431949E-08
        82    4.338914E-04
        83    5.085993E-06
        84    2.424095E-08
        85    6.206702E-04
        86   -1.648059E-07
        87    1.096470E-05
        88   -2.182310E-05
        89    1.092393E-03
        90   -6.710519E-03
        91    4.146763E-02
        92   -2.190347E-02
        93   -9.399416E-03
        94    3.765211E-03
        95    1.914118E-02
        96    5.192118E-04
        97    4.040155E-03
        98    1.719424E-02
        99    6.261790E-02
       100    2.226552E-02
       101    5.617474E-03
       102    1.461844E-04
       103   -1.887672E-04
       104    4.258280E-05
       105    1.812546E-04
       106    4.492538E-03
       107    2.771827E-03
       108   -1.134638E-03
       109    6.732355E-04
       110    4.614024E-04
       111    1.702416E-03
       112    1.038641E-02
       113    5.292556E-03
       114   -4.943536E-03
       115    3.930220E-03
       116    1.013316E-03
       117   -3.096588E-03
       118   -5.071476E-03
       119   -1.363273E-02
       120    2.779123E-05
       121    3.729831E-05
       122   -6.962382E-05
       123   -2.367305E-05
       124   -3.050400E-05
       125   -5.345924E-04
       126   -1.361280E-05
       127   -1.953694E-05
       128    6.280026E-04
       129    4.673369E-04
       130   -1.983776E-05
       131   -3.909615E-05
       132    2.034903E-03
       133   -2.074862E-02
       134   -1.367223E-04
       135    2.487371E-02
       136    6.781740E-03
       137   -4.411290E-03
       138   -1.062894E-01
       139    2.191629E-02
       140   -1.521356E-02
       141   -1.095480E-01
       142    3.245979E-02
       143    1.447489E-02
       144   -6.750479E-02
       145    5.094727E-04
       146   -5.701938E-04
       147    6.072107E-05
       148    1.425782E-04
       149    1.265453E-04
       150   -1.540447E-03
       151    1.534709E-03
       152   -1.844624E-03
       153    3.099150E-04
       154    3.597260E-03
       155    2.817857E-03
       156   -2.219875E-03
       157    1.392058E-02
       158   -9.844584E-03
       159   -4.075992E-03
       160   -2.124757E-02
       161   -6.626423E-03
       162    1.692052E-02
       163    3.931384E-05
       164   -5.134154E-05
       165    4.856813E-04
       166    4.247949E-05
       167   -4.375149E-06
       168   -4.126313E-05
       169   -9.522455E-05
       170    7.325706E-05
       171   -6.103467E-04
       172    1.148499E-04
       173   -2.119054E-03
       174   -4.789563E-03
       175    4.327471E-03
       176    4.209294E-02
       177   -8.586548E-02
       178    1.686800E-02
       179   -2.632205E-02
       180    5.730113E-06
       181   -2.968501E-02
       182   -6.254846E-03
       183    1.791595E-05
       184   -3.549838E-02
       185    8.355389E-02
       186   -1.991420E-04
       187   -1.331145E-01
       188    1.329044E-03
       189   -8.845195E-04
       190   -4.445247E-04
       191    3.950573E-07
       192   -1.083497E-02
       193    1.018105E-06
       194   -3.379560E-03
       195    7.878190E-03
       196   -4.498630E-03
       197    3.988018E-06
       198   -2.517331E-02
       199    3.304222E-06
       200   -2.318103E-02
       201    2.466659E-02
       202   -1.485558E-03
       203   -9.909782E-05
       204   -1.231526E-02
       205   -3.874684E-05
       206   -2.788863E-04
       207    4.415784E-08
       208   -5.044975E-04
       209    1.819617E-04
       210    3.919712E-08
       211    1.804747E-03
       212    1.922035E-04
       213   -9.844109E-08
       214   -1.127892E-03
       215    1.930439E-07
       216   -1.730781E-05
       217   -3.349879E-05
       218    2.029696E-03
       219   -2.078132E-02
       220    5.338734E-04
       221    2.482591E-02
       222    6.777867E-03
       223    4.395327E-03
       224   -1.062273E-01
       225    2.191896E-02
       226    1.521412E-02
       227   -1.094886E-01
       228    3.248535E-02
       229   -1.472785E-02
       230   -6.740997E-02
       231    5.093210E-04
       232   -5.703832E-04
       233    6.106229E-05
       234   -1.417432E-04
       235    1.280401E-04
       236    1.540369E-03
       237    1.535435E-03
       238   -1.848228E-03
       239    3.127931E-04
       240   -3.599829E-03
       241    2.819474E-03
       242    2.219609E-03
       243    1.384464E-02
       244   -9.775852E-03
       245   -4.068793E-03
       246    2.128768E-02
       247   -6.678026E-03
       248   -1.695436E-02
       249    3.917289E-05
       250    5.137612E-05
       251    4.853115E-04
       252    4.274012E-05
       253    4.301399E-06
       254   -4.086673E-05
       255   -9.529607E-05
       256   -7.322969E-05
       257   -6.102470E-04
       258   -1.148346E-04
       259   -4.187703E-03
       260   -5.437130E-03
       261   -3.425637E-02
       262    2.162889E-04
       263    4.751318E-04
       264    7.117283E-04
       265    9.562264E-03
       266    2.379405E-03
       267   -7.633659E-03
       268   -4.196679E-03
       269   -5.447113E-03
       270   -3.423150E-02
       271    2.164409E-04
       272   -4.758026E-04
       273    7.094586E-04
       274    9.629495E-03
       275   -2.351698E-03
       276   -7.635315E-03
       277   -4.118974E-04
       278   -4.125959E-03
       279    6.892777E-02
       280    1.745611E-04
       281   -1.765434E-04
       282   -4.320723E-03
       283    3.594315E-03
       284    5.777792E-03
       285    4.996264E-03
       286   -4.222018E-04
       287   -4.132882E-03
       288    6.897647E-02
       289    1.734733E-04
       290    1.769442E-04
       291   -4.318351E-03
       292    3.546347E-03
       293   -5.805574E-03
       294    5.001583E-03
       295   -2.678949E-04
       296   -6.385203E-04
       297    9.256098E-04
       298    1.688671E-03
       299   -2.214967E-02
       300   -7.453279E-03
       301   -1.236229E-03
       302   -8.574900E-07
       303    6.089949E-03
       304   -6.166650E-04
       305   -3.027552E-07
       306    8.463014E-03
       307    6.693085E-03
       308    6.207920E-06
       309   -2.652787E-03
       310   -9.306793E-05
       311    1.080808E-04
       312   -1.501291E-05
       313   -1.943963E-08
       314   -3.039397E-03
       315   -4.421058E-07
       316   -3.427617E-04
       317    4.018627E-04
       318   -5.910106E-05
       319   -2.779590E-08
       320   -9.051222E-03
       321   -1.227337E-06
       322   -4.943880E-04
       323    5.323330E-03
       324   -4.828942E-03
       325    8.198762E-06
       326   -1.245324E-03
       327   -5.420659E-06
       328   -1.508906E-05
       329   -1.343933E-08
       330    2.602194E-05
       331    1.215011E-05
       332    9.227995E-09
       333    4.798105E-04
       334    8.093999E-06
       335    8.802756E-09
       336   -5.147226E-04
       337   -1.042881E-07
       338   -5.835123E-05
       339   -1.367455E-04
       340    1.103288E-04
       341    1.208603E-03
       342   -1.240735E-02
       343   -1.662546E-03
       344   -2.898778E-03
       345   -1.243071E-03
       346   -5.467517E-02
       347   -2.262766E-03
       348   -1.391074E-03
       349   -5.070301E-02
       350    7.537601E-05
       351   -2.009093E-03
       352   -3.907213E-02
       353    3.924780E-04
       354   -2.892265E-04
       355   -4.446679E-03
       356    2.247573E-05
       357   -2.172847E-05
       358   -7.472581E-07
       359   -3.266699E-05
       360    3.414704E-05
       361   -4.069595E-04
       362    2.559320E-05
       363   -6.242377E-05
       364    3.683057E-05
       365   -8.005892E-05
       366    4.984046E-04
       367   -1.274722E-03
       368   -8.197046E-05
       369   -3.314132E-05
       370    1.151118E-04
       371   -1.089894E-04
       372    2.068901E-04
       373   -3.125235E-04
       374    2.594764E-06
       375   -1.382146E-05
       376    5.549273E-05
       377   -4.438365E-06
       378    1.668210E-05
       379    6.290362E-05
       380    9.571240E-07
       381    1.861339E-06
       382   -1.373549E-04
       383    1.089696E-04
       384   -5.841644E-05
       385   -1.369005E-04
       386    1.105204E-04
       387    1.209557E-03
       388   -1.242267E-02
       389   -1.653851E-03
       390   -2.898611E-03
       391    1.243270E-03
       392   -5.470063E-02
       393   -2.262631E-03
       394    1.391483E-03
       395   -5.072712E-02
       396    7.205937E-05
       397    2.013345E-03
       398   -3.908130E-02
       399    3.889054E-04
       400    2.905703E-04
       401   -4.448547E-03
       402    2.247195E-05
       403   -2.172178E-05
       404   -7.501683E-07
       405    3.262974E-05
       406    3.427618E-05
       407    4.071881E-04
       408    2.572269E-05
       409   -6.253698E-05
       410    3.681429E-05
       411    7.995120E-05
       412    4.987426E-04
       413    1.275328E-03
       414   -8.301038E-05
       415   -3.183646E-05
       416    1.148468E-04
       417    1.082654E-04
       418    2.066150E-04
       419    3.122114E-04
       420    2.589171E-06
       421    1.381549E-05
       422    5.552796E-05
       423   -4.430755E-06
       424   -1.667738E-05
       425    6.291353E-05
       426    9.570183E-07
       427   -1.858042E-06
       428   -1.374121E-04
       429   -1.090363E-04
       430    1.041497E-02
       431    2.466040E-02
       432   -3.800995E-02
       433   -6.257488E-02
       434   -1.488203E-02
       435   -1.104554E-01
       436    4.298301E-02
       437   -1.162444E-05
       438    3.586900E-01
       439    4.733600E-02
       440   -5.815741E-06
       441    3.502661E-01
       442    5.453454E-02
       443    3.847608E-05
       444    2.685535E-01
       445   -2.138970E-04
       446   -2.816642E-04
       447    4.955612E-04
       448    2.889349E-07
       449    4.236049E-04
       450   -2.636682E-07
       451   -3.579060E-04
       452   -3.920200E-03
       453    4.278106E-03
       454   -1.855565E-06
       455   -4.248907E-04
       456   -1.059210E-06
       457   -2.879983E-03
       458   -1.011145E-02
       459    1.299144E-02
       460   -8.793144E-06
       461   -1.011258E-03
       462   -5.262390E-06
       463    2.487704E-04
       464   -6.862469E-08
       465   -1.551991E-03
       466    2.255643E-04
       467   -1.168190E-08
       468    1.058120E-03
       469   -5.593248E-04
       470    1.037516E-07
       471    1.024094E-03
       472    3.343034E-08
       473    1.545753E-02
       474    3.324250E-02
       475    6.842766E-02
       476    4.785154E-03
       477    3.637959E-03
       478    1.720570E-02
       479    2.047146E-03
       480    7.995086E-03
       481    1.521311E-02
       482    1.544875E-02
       483    3.319430E-02
       484    6.823966E-02
       485    4.782135E-03
       486   -3.633964E-03
       487    1.720898E-02
       488    2.015284E-03
       489   -7.973297E-03
       490    1.523086E-02
 Sym= X
 Ene= -0.825577
 Spin= Alpha
 Occup= -0.825577
         1   -8.055104E-05
         2   -1.831829E-04
         3    4.384913E-04
         4   -6.039779E-04
         5   -5.127429E-03
         6   -4.603646E-04
         7    3.530822E-04
         8    1.768566E-04
         9   -1.857573E-01
        10    1.441952E-03
        11   -1.444754E-04
        12   -1.865796E-01
        13   -4.901208E-03
        14    4.917522E-03
        15   -1.082893E-01
        16   -1.691512E-05
        17    1.339978E-05
        18    3.515339E-06
        19    1.680529E-06
        20    4.916182E-03
        21    5.467898E-04
        22   -2.789138E-04
        23    1.982898E-04
        24    8.062399E-05
        25    1.506633E-05
        26    9.737410E-03
        27   -4.826789E-04
        28    9.617204E-04
        29   -9.564100E-04
        30   -5.310450E-06
        31    3.666820E-04
        32    4.878791E-03
        33   -1.860853E-03
        34    7.778150E-06
        35   -1.473233E-07
        36    1.158113E-03
        37   -1.514342E-06
        38    5.042001E-07
        39   -1.399252E-03
        40   -8.921142E-06
        41   -3.065452E-07
        42   -1.545188E-04
        43   -9.972488E-06
        44    1.014174E-08
        45    7.163442E-08
        46   -4.035861E-06
        47    1.678079E-05
        48    1.231338E-03
        49    8.597786E-05
        50    4.128156E-06
        51    7.239395E-05
        52   -1.164979E-05
        53   -6.827412E-06
        54   -2.927591E-04
        55   -8.704748E-06
        56   -5.193505E-04
        57    8.614813E-03
        58    7.149362E-06
        59    1.940964E-07
        60   -1.152977E-07
        61   -7.879871E-08
        62   -3.470107E-06