[Molden Format]
[Title]
ADC(2) - opt by CAM-B3LYP gaussian                                              
[Atoms] AU
 c     1    6 0.12593230616935E+01 0.22795690751954E+01 -.36278607975490E-01
 c     2    6 0.25504236399298E+01 0.18897261300000E-05 -.34511714041240E-01
 c     3    6 0.12593268411458E+01 -.22795652957431E+01 -.36289946332290E-01
 c     4    6 -.13369660030996E+01 -.22791608943507E+01 -.39583738981910E-01
 c     5    6 -.26856068523561E+01 -.18897261300000E-05 -.40110972572980E-01
 c     6    6 -.13369678928258E+01 0.22791590046246E+01 -.39570510898980E-01
 h     7    1 0.23068095955089E+01 0.40296066523382E+01 -.33243707806080E-01
 h     8    1 0.23068152646873E+01 -.40296028728859E+01 -.33262605067400E-01
 h     9    1 -.23553205188504E+01 -.40525668248527E+01 -.45200005048840E-01
 h    10    1 -.23553280777549E+01 0.40525630454004E+01 -.45173548882980E-01
 n    11    7 0.52878147756133E+01 0.00000000000000E+00 -.27472484196240E-01
 o    12    8 0.63764576548767E+01 -.20283488830896E+01 -.24482937454020E-01
 o    13    8 0.63764614343290E+01 0.20283469933635E+01 -.24515062798280E-01
 n    14    7 -.52636676188715E+01 0.00000000000000E+00 -.10786332361533E+00
 h    15    1 -.61947904866021E+01 -.16076731691957E+01 0.28377485852069E+00
 h    16    1 -.61947848174237E+01 0.16076731691957E+01 0.28378430715135E+00
[GTO]
    1 0
 s    6 1.00
 0.13575349682000E+05 0.60645503603591E-03
 0.20352333680000E+04 0.46979088884982E-02
 0.46322562359000E+03 0.24332477647552E-01
 0.13120019598000E+03 0.97399968307759E-01
 0.42853015891000E+02 0.30195584253780E+00
 0.15584185766000E+02 0.66233609137875E+00
 s    2 1.00
 0.62067138508000E+01 0.65595308539952E+00
 0.25764896527000E+01 0.37585633285142E+00
 s    1 1.00
 0.57696339419000E+00 0.10000000000000E+01
 s    1 1.00
 0.22972831358000E+00 0.10000000000000E+01
 s    1 1.00
 0.95164440028000E-01 0.10000000000000E+01
 s    1 1.00
 0.48475401370000E-01 0.10000000000000E+01
 p    4 1.00
 0.34697232244000E+02 0.11327220003114E-01
 0.79582622826000E+01 0.76169659202087E-01
 0.23780826883000E+01 0.30192252202676E+00
 0.81433208183000E+00 0.72785027349547E+00
 p    1 1.00
 0.28887547253000E+00 0.10000000000000E+01
 p    1 1.00
 0.10056823671000E+00 0.10000000000000E+01
 d    1 1.00
 0.10970000000000E+01 0.10000000000000E+01
 d    1 1.00
 0.31800000000000E+00 0.10000000000000E+01
 d    1 1.00
 0.90985336424000E-01 0.10000000000000E+01
 f    1 1.00
 0.76100000000000E+00 0.10000000000000E+01
 
    2 0
 s    6 1.00
 0.13575349682000E+05 0.60645503603591E-03
 0.20352333680000E+04 0.46979088884982E-02
 0.46322562359000E+03 0.24332477647552E-01
 0.13120019598000E+03 0.97399968307759E-01
 0.42853015891000E+02 0.30195584253780E+00
 0.15584185766000E+02 0.66233609137875E+00
 s    2 1.00
 0.62067138508000E+01 0.65595308539952E+00
 0.25764896527000E+01 0.37585633285142E+00
 s    1 1.00
 0.57696339419000E+00 0.10000000000000E+01
 s    1 1.00
 0.22972831358000E+00 0.10000000000000E+01
 s    1 1.00
 0.95164440028000E-01 0.10000000000000E+01
 s    1 1.00
 0.48475401370000E-01 0.10000000000000E+01
 p    4 1.00
 0.34697232244000E+02 0.11327220003114E-01
 0.79582622826000E+01 0.76169659202087E-01
 0.23780826883000E+01 0.30192252202676E+00
 0.81433208183000E+00 0.72785027349547E+00
 p    1 1.00
 0.28887547253000E+00 0.10000000000000E+01
 p    1 1.00
 0.10056823671000E+00 0.10000000000000E+01
 d    1 1.00
 0.10970000000000E+01 0.10000000000000E+01
 d    1 1.00
 0.31800000000000E+00 0.10000000000000E+01
 d    1 1.00
 0.90985336424000E-01 0.10000000000000E+01
 f    1 1.00
 0.76100000000000E+00 0.10000000000000E+01
 
    3 0
 s    6 1.00
 0.13575349682000E+05 0.60645503603591E-03
 0.20352333680000E+04 0.46979088884982E-02
 0.46322562359000E+03 0.24332477647552E-01
 0.13120019598000E+03 0.97399968307759E-01
 0.42853015891000E+02 0.30195584253780E+00
 0.15584185766000E+02 0.66233609137875E+00
 s    2 1.00
 0.62067138508000E+01 0.65595308539952E+00
 0.25764896527000E+01 0.37585633285142E+00
 s    1 1.00
 0.57696339419000E+00 0.10000000000000E+01
 s    1 1.00
 0.22972831358000E+00 0.10000000000000E+01
 s    1 1.00
 0.95164440028000E-01 0.10000000000000E+01
 s    1 1.00
 0.48475401370000E-01 0.10000000000000E+01
 p    4 1.00
 0.34697232244000E+02 0.11327220003114E-01
 0.79582622826000E+01 0.76169659202087E-01
 0.23780826883000E+01 0.30192252202676E+00
 0.81433208183000E+00 0.72785027349547E+00
 p    1 1.00
 0.28887547253000E+00 0.10000000000000E+01
 p    1 1.00
 0.10056823671000E+00 0.10000000000000E+01
 d    1 1.00
 0.10970000000000E+01 0.10000000000000E+01
 d    1 1.00
 0.31800000000000E+00 0.10000000000000E+01
 d    1 1.00
 0.90985336424000E-01 0.10000000000000E+01
 f    1 1.00
 0.76100000000000E+00 0.10000000000000E+01
 
    4 0
 s    6 1.00
 0.13575349682000E+05 0.60645503603591E-03
 0.20352333680000E+04 0.46979088884982E-02
 0.46322562359000E+03 0.24332477647552E-01
 0.13120019598000E+03 0.97399968307759E-01
 0.42853015891000E+02 0.30195584253780E+00
 0.15584185766000E+02 0.66233609137875E+00
 s    2 1.00
 0.62067138508000E+01 0.65595308539952E+00
 0.25764896527000E+01 0.37585633285142E+00
 s    1 1.00
 0.57696339419000E+00 0.10000000000000E+01
 s    1 1.00
 0.22972831358000E+00 0.10000000000000E+01
 s    1 1.00
 0.95164440028000E-01 0.10000000000000E+01
 s    1 1.00
 0.48475401370000E-01 0.10000000000000E+01
 p    4 1.00
 0.34697232244000E+02 0.11327220003114E-01
 0.79582622826000E+01 0.76169659202087E-01
 0.23780826883000E+01 0.30192252202676E+00
 0.81433208183000E+00 0.72785027349547E+00
 p    1 1.00
 0.28887547253000E+00 0.10000000000000E+01
 p    1 1.00
 0.10056823671000E+00 0.10000000000000E+01
 d    1 1.00
 0.10970000000000E+01 0.10000000000000E+01
 d    1 1.00
 0.31800000000000E+00 0.10000000000000E+01
 d    1 1.00
 0.90985336424000E-01 0.10000000000000E+01
 f    1 1.00
 0.76100000000000E+00 0.10000000000000E+01
 
    5 0
 s    6 1.00
 0.13575349682000E+05 0.60645503603591E-03
 0.20352333680000E+04 0.46979088884982E-02
 0.46322562359000E+03 0.24332477647552E-01
 0.13120019598000E+03 0.97399968307759E-01
 0.42853015891000E+02 0.30195584253780E+00
 0.15584185766000E+02 0.66233609137875E+00
 s    2 1.00
 0.62067138508000E+01 0.65595308539952E+00
 0.25764896527000E+01 0.37585633285142E+00
 s    1 1.00
 0.57696339419000E+00 0.10000000000000E+01
 s    1 1.00
 0.22972831358000E+00 0.10000000000000E+01
 s    1 1.00
 0.95164440028000E-01 0.10000000000000E+01
 s    1 1.00
 0.48475401370000E-01 0.10000000000000E+01
 p    4 1.00
 0.34697232244000E+02 0.11327220003114E-01
 0.79582622826000E+01 0.76169659202087E-01
 0.23780826883000E+01 0.30192252202676E+00
 0.81433208183000E+00 0.72785027349547E+00
 p    1 1.00
 0.28887547253000E+00 0.10000000000000E+01
 p    1 1.00
 0.10056823671000E+00 0.10000000000000E+01
 d    1 1.00
 0.10970000000000E+01 0.10000000000000E+01
 d    1 1.00
 0.31800000000000E+00 0.10000000000000E+01
 d    1 1.00
 0.90985336424000E-01 0.10000000000000E+01
 f    1 1.00
 0.76100000000000E+00 0.10000000000000E+01
 
    6 0
 s    6 1.00
 0.13575349682000E+05 0.60645503603591E-03
 0.20352333680000E+04 0.46979088884982E-02
 0.46322562359000E+03 0.24332477647552E-01
 0.13120019598000E+03 0.97399968307759E-01
 0.42853015891000E+02 0.30195584253780E+00
 0.15584185766000E+02 0.66233609137875E+00
 s    2 1.00
 0.62067138508000E+01 0.65595308539952E+00
 0.25764896527000E+01 0.37585633285142E+00
 s    1 1.00
 0.57696339419000E+00 0.10000000000000E+01
 s    1 1.00
 0.22972831358000E+00 0.10000000000000E+01
 s    1 1.00
 0.95164440028000E-01 0.10000000000000E+01
 s    1 1.00
 0.48475401370000E-01 0.10000000000000E+01
 p    4 1.00
 0.34697232244000E+02 0.11327220003114E-01
 0.79582622826000E+01 0.76169659202087E-01
 0.23780826883000E+01 0.30192252202676E+00
 0.81433208183000E+00 0.72785027349547E+00
 p    1 1.00
 0.28887547253000E+00 0.10000000000000E+01
 p    1 1.00
 0.10056823671000E+00 0.10000000000000E+01
 d    1 1.00
 0.10970000000000E+01 0.10000000000000E+01
 d    1 1.00
 0.31800000000000E+00 0.10000000000000E+01
 d    1 1.00
 0.90985336424000E-01 0.10000000000000E+01
 f    1 1.00
 0.76100000000000E+00 0.10000000000000E+01
 
    7 0
 s    3 1.00
 0.34061341000000E+02 0.25439307208879E-01
 0.51235746000000E+01 0.19008594890375E+00
 0.11646626000000E+01 0.85244113011042E+00
 s    1 1.00
 0.32723041000000E+00 0.10000000000000E+01
 s    1 1.00
 0.10307241000000E+00 0.10000000000000E+01
 p    1 1.00
 0.80000000000000E+00 0.10000000000000E+01
 p    1 1.00
 0.95774129632000E-01 0.10000000000000E+01
 
    8 0
 s    3 1.00
 0.34061341000000E+02 0.25439307208879E-01
 0.51235746000000E+01 0.19008594890375E+00
 0.11646626000000E+01 0.85244113011042E+00
 s    1 1.00
 0.32723041000000E+00 0.10000000000000E+01
 s    1 1.00
 0.10307241000000E+00 0.10000000000000E+01
 p    1 1.00
 0.80000000000000E+00 0.10000000000000E+01
 p    1 1.00
 0.95774129632000E-01 0.10000000000000E+01
 
    9 0
 s    3 1.00
 0.34061341000000E+02 0.25439307208879E-01
 0.51235746000000E+01 0.19008594890375E+00
 0.11646626000000E+01 0.85244113011042E+00
 s    1 1.00
 0.32723041000000E+00 0.10000000000000E+01
 s    1 1.00
 0.10307241000000E+00 0.10000000000000E+01
 p    1 1.00
 0.80000000000000E+00 0.10000000000000E+01
 p    1 1.00
 0.95774129632000E-01 0.10000000000000E+01
 
   10 0
 s    3 1.00
 0.34061341000000E+02 0.25439307208879E-01
 0.51235746000000E+01 0.19008594890375E+00
 0.11646626000000E+01 0.85244113011042E+00
 s    1 1.00
 0.32723041000000E+00 0.10000000000000E+01
 s    1 1.00
 0.10307241000000E+00 0.10000000000000E+01
 p    1 1.00
 0.80000000000000E+00 0.10000000000000E+01
 p    1 1.00
 0.95774129632000E-01 0.10000000000000E+01
 
   11 0
 s    6 1.00
 0.19730800647000E+05 0.58626402628763E-03
 0.29578958745000E+04 0.45428820586397E-02
 0.67322133595000E+03 0.23558413450084E-01
 0.19068249494000E+03 0.94709193292923E-01
 0.62295441898000E+02 0.29719784913376E+00
 0.22654161182000E+02 0.66916246895232E+00
 s    2 1.00
 0.89791477428000E+01 0.64596683630063E+00
 0.36863002370000E+01 0.38700574393705E+00
 s    1 1.00
 0.84660076805000E+00 0.10000000000000E+01
 s    1 1.00
 0.33647133771000E+00 0.10000000000000E+01
 s    1 1.00
 0.13647653675000E+00 0.10000000000000E+01
 s    1 1.00
 0.68441605847000E-01 0.10000000000000E+01
 p    4 1.00
 0.49200380510000E+02 0.11448825101764E-01
 0.11346790537000E+02 0.78422337970864E-01
 0.34273972411000E+01 0.30818094738830E+00
 0.11785525134000E+01 0.72027196368413E+00
 p    1 1.00
 0.41642204972000E+00 0.10000000000000E+01
 p    1 1.00
 0.14260826011000E+00 0.10000000000000E+01
 d    1 1.00
 0.16540000000000E+01 0.10000000000000E+01
 d    1 1.00
 0.46900000000000E+00 0.10000000000000E+01
 d    1 1.00
 0.12829642058000E+00 0.10000000000000E+01
 f    1 1.00
 0.10930000000000E+01 0.10000000000000E+01
 
   12 0
 s    6 1.00
 0.27032382631000E+05 0.57227335211155E-03
 0.40523871392000E+04 0.44353233492995E-02
 0.92232722710000E+03 0.23020107706038E-01
 0.26124070989000E+03 0.92822490667928E-01
 0.85354641351000E+02 0.29378500009671E+00
 0.31035035245000E+02 0.67401604501641E+00
 s    2 1.00
 0.12260860728000E+02 0.63839937025506E+00
 0.49987076005000E+01 0.39534587125718E+00
 s    1 1.00
 0.11703108158000E+01 0.10000000000000E+01
 s    1 1.00
 0.46474740994000E+00 0.10000000000000E+01
 s    1 1.00
 0.18504536357000E+00 0.10000000000000E+01
 s    1 1.00
 0.70288026270000E-01 0.10000000000000E+01
 p    4 1.00
 0.63274954801000E+02 0.12018332222616E-01
 0.14627049379000E+02 0.83005421790056E-01
 0.44501223456000E+01 0.31991743925964E+00
 0.15275799647000E+01 0.70715542916104E+00
 p    1 1.00
 0.52935117943000E+00 0.10000000000000E+01
 p    1 1.00
 0.17478421270000E+00 0.10000000000000E+01
 p    1 1.00
 0.51112745706000E-01 0.10000000000000E+01
 d    1 1.00
 0.23140000000000E+01 0.10000000000000E+01
 d    1 1.00
 0.64500000000000E+00 0.10000000000000E+01
 d    1 1.00
 0.14696477366000E+00 0.10000000000000E+01
 f    1 1.00
 0.14280000000000E+01 0.10000000000000E+01
 
   13 0
 s    6 1.00
 0.27032382631000E+05 0.57227335211155E-03
 0.40523871392000E+04 0.44353233492995E-02
 0.92232722710000E+03 0.23020107706038E-01
 0.26124070989000E+03 0.92822490667928E-01
 0.85354641351000E+02 0.29378500009671E+00
 0.31035035245000E+02 0.67401604501641E+00
 s    2 1.00
 0.12260860728000E+02 0.63839937025506E+00
 0.49987076005000E+01 0.39534587125718E+00
 s    1 1.00
 0.11703108158000E+01 0.10000000000000E+01
 s    1 1.00
 0.46474740994000E+00 0.10000000000000E+01
 s    1 1.00
 0.18504536357000E+00 0.10000000000000E+01
 s    1 1.00
 0.70288026270000E-01 0.10000000000000E+01
 p    4 1.00
 0.63274954801000E+02 0.12018332222616E-01
 0.14627049379000E+02 0.83005421790056E-01
 0.44501223456000E+01 0.31991743925964E+00
 0.15275799647000E+01 0.70715542916104E+00
 p    1 1.00
 0.52935117943000E+00 0.10000000000000E+01
 p    1 1.00
 0.17478421270000E+00 0.10000000000000E+01
 p    1 1.00
 0.51112745706000E-01 0.10000000000000E+01
 d    1 1.00
 0.23140000000000E+01 0.10000000000000E+01
 d    1 1.00
 0.64500000000000E+00 0.10000000000000E+01
 d    1 1.00
 0.14696477366000E+00 0.10000000000000E+01
 f    1 1.00
 0.14280000000000E+01 0.10000000000000E+01
 
   14 0
 s    6 1.00
 0.19730800647000E+05 0.58626402628763E-03
 0.29578958745000E+04 0.45428820586397E-02
 0.67322133595000E+03 0.23558413450084E-01
 0.19068249494000E+03 0.94709193292923E-01
 0.62295441898000E+02 0.29719784913376E+00
 0.22654161182000E+02 0.66916246895232E+00
 s    2 1.00
 0.89791477428000E+01 0.64596683630063E+00
 0.36863002370000E+01 0.38700574393705E+00
 s    1 1.00
 0.84660076805000E+00 0.10000000000000E+01
 s    1 1.00
 0.33647133771000E+00 0.10000000000000E+01
 s    1 1.00
 0.13647653675000E+00 0.10000000000000E+01
 s    1 1.00
 0.68441605847000E-01 0.10000000000000E+01
 p    4 1.00
 0.49200380510000E+02 0.11448825101764E-01
 0.11346790537000E+02 0.78422337970864E-01
 0.34273972411000E+01 0.30818094738830E+00
 0.11785525134000E+01 0.72027196368413E+00
 p    1 1.00
 0.41642204972000E+00 0.10000000000000E+01
 p    1 1.00
 0.14260826011000E+00 0.10000000000000E+01
 d    1 1.00
 0.16540000000000E+01 0.10000000000000E+01
 d    1 1.00
 0.46900000000000E+00 0.10000000000000E+01
 d    1 1.00
 0.12829642058000E+00 0.10000000000000E+01
 f    1 1.00
 0.10930000000000E+01 0.10000000000000E+01
 
   15 0
 s    3 1.00
 0.34061341000000E+02 0.25439307208879E-01
 0.51235746000000E+01 0.19008594890375E+00
 0.11646626000000E+01 0.85244113011042E+00
 s    1 1.00
 0.32723041000000E+00 0.10000000000000E+01
 s    1 1.00
 0.10307241000000E+00 0.10000000000000E+01
 p    1 1.00
 0.80000000000000E+00 0.10000000000000E+01
 p    1 1.00
 0.95774129632000E-01 0.10000000000000E+01
 
   16 0
 s    3 1.00
 0.34061341000000E+02 0.25439307208879E-01
 0.51235746000000E+01 0.19008594890375E+00
 0.11646626000000E+01 0.85244113011042E+00
 s    1 1.00
 0.32723041000000E+00 0.10000000000000E+01
 s    1 1.00
 0.10307241000000E+00 0.10000000000000E+01
 p    1 1.00
 0.80000000000000E+00 0.10000000000000E+01
 p    1 1.00
 0.95774129632000E-01 0.10000000000000E+01
 
[MO]
 Sym= X
 Ene= -0.896411
 Spin= Alpha
 Occup= -0.896411
         1   -5.602381E-03
         2   -1.285959E-02
         3    2.666257E-02
         4   -8.881323E-03
         5    1.747163E-01
         6    3.446518E-02
         7    3.481602E-02
         8    2.006893E-03
         9    1.263443E-04
        10    4.579550E-02
        11    3.961176E-03
        12    1.357756E-04
        13    4.910832E-02
        14   -6.855466E-02
        15    2.433634E-04
        16   -1.207626E-03
        17    1.421251E-03
        18   -2.136253E-04
        19   -2.450186E-04
        20   -2.574993E-06
        21    1.056519E-06
        22   -9.736803E-03
        23    6.563820E-03
        24    3.172983E-03
        25    1.297369E-03
        26   -2.720250E-05
        27    7.442428E-07
        28    4.873962E-03
        29   -1.342317E-03
        30   -3.531645E-03
        31   -1.159309E-02
        32   -2.045356E-05
        33    4.782148E-06
        34    3.205431E-05
        35   -1.360390E-04
        36   -6.331056E-07
        37    5.638948E-05
        38    2.082428E-04
        39    5.416494E-07
        40   -9.939485E-05
        41   -2.572736E-05
        42    3.077509E-07
        43    7.015266E-07
        44    7.976697E-07
        45    1.780320E-06
        46   -2.116190E-06
        47   -8.812874E-06
        48   -4.509530E-05
        49   -6.093476E-06
        50   -6.777635E-06
        51    2.678848E-02
        52   -5.244537E-06
        53   -6.690599E-06
        54    3.725141E-02
        55   -5.082350E-06
        56    7.472387E-06
        57   -1.626388E-01
        58    1.232104E-05
        59   -2.145938E-07
        60    1.800695E-07
        61    3.452429E-08
        62   -2.048579E-03
        63   -1.547749E-08
        64   -7.915849E-07
        65   -3.042243E-07
        66    2.408624E-07
        67    6.336197E-08
        68    2.468126E-03
        69    3.557005E-07
        70    1.155758E-05
        71    1.938813E-05
        72   -2.017661E-05
        73    7.884770E-07
        74    3.093335E-02
        75   -1.831271E-06
        76    8.024314E-05
        77   -5.429686E-08
        78    5.242985E-04
        79    1.690113E-08
        80    4.946665E-08
        81   -5.161487E-04
        82    2.496109E-10
        83    2.338024E-08
        84   -1.872715E-04
        85   -2.292486E-08
        86   -1.023531E-06
        87    5.602325E-03
        88    1.285946E-02
        89   -2.666270E-02
        90    8.883020E-03
        91   -1.745578E-01
        92   -3.446036E-02
        93   -3.481458E-02
        94    2.010675E-03
        95   -1.296231E-04
        96   -4.579512E-02
        97    3.965019E-03
        98   -1.385399E-04
        99   -4.909303E-02
       100   -6.852000E-02
       101   -2.554894E-04
       102    1.207461E-03
       103   -1.421067E-03
       104    2.136066E-04
       105   -2.450172E-04
       106    2.354166E-06
       107    8.590938E-07
       108    9.736818E-03
       109   -6.563659E-03
       110   -3.173159E-03
       111    1.297407E-03
       112    2.680548E-05
       113    1.339344E-07
       114   -4.862836E-03
       115    1.329894E-03
       116    3.532943E-03
       117   -1.160069E-02
       118    1.931493E-05
       119    1.459230E-07
       120   -3.206317E-05
       121   -1.359939E-04
       122    6.565262E-07
       123   -5.638737E-05
       124    2.081919E-04
       125   -5.373634E-07
       126    9.940463E-05
       127   -2.573698E-05
       128   -3.434590E-07
       129    6.645541E-07
       130   -2.740815E-03
       131   -6.231917E-03
       132    1.237110E-02
       133   -1.286627E-02
       134    7.930595E-02
       135    1.151035E-02
       136    2.118023E-02
       137   -1.888016E-04
       138   -3.951818E-05
       139   -8.130057E-03
       140    6.484109E-03
       141   -3.706465E-05
       142   -2.327252E-02
       143    1.474957E-02
       144    2.870374E-05
       145    5.145126E-04
       146   -4.260296E-04
       147   -8.848295E-05
       148    1.167855E-04
       149   -8.307370E-07
       150   -8.873591E-07
       151   -5.182868E-03
       152    3.489381E-03
       153    1.693487E-03
       154   -2.290008E-04
       155   -2.417720E-05
       156    1.662760E-05
       157   -6.243092E-03
       158    7.198815E-03
       159   -9.557230E-04
       160   -7.208437E-04
       161    8.364954E-05
       162    2.298362E-05
       163   -2.410478E-05
       164    3.325972E-05
       165   -2.950090E-07
       166    2.248238E-05
       167   -3.030011E-05
       168   -1.603644E-08
       169    9.857573E-06
       170   -1.432248E-05
       171    4.118326E-07
       172   -1.188891E-06
       173    1.254661E-07
       174    2.914515E-07
       175   -7.164613E-07
       176    1.129695E-06
       177    4.964373E-05
       178    6.599602E-06
       179   -2.288620E-07
       180    9.278145E-03
       181    2.612065E-06
       182   -5.511801E-07
       183    1.663290E-02
       184    2.772352E-06
       185    6.540982E-06
       186    5.327775E-02
       187   -3.525681E-07
       188   -1.735001E-08
       189    1.525622E-08
       190    2.093791E-09
       191   -1.512694E-04
       192    1.494759E-07
       193   -3.580520E-06
       194    2.984994E-07
       195   -2.109212E-07
       196   -8.757826E-08
       197    3.162558E-03
       198    3.393922E-07
       199    4.876811E-05
       200   -9.695163E-06
       201    1.119782E-05
       202   -1.502660E-06
       203    5.967597E-03
       204   -1.720892E-07
       205   -4.692789E-07
       206   -1.690466E-09
       207    1.203342E-04
       208   -8.731436E-09
       209   -7.931573E-10
       210   -1.078346E-04
       211   -1.689041E-08
       212    3.061155E-09
       213   -5.361076E-05
       214    2.860486E-08
       215   -1.501566E-07
       216    2.740969E-03
       217    6.232271E-03
       218   -1.237162E-02
       219    1.286699E-02
       220   -7.944396E-02
       221   -1.151736E-02
       222   -2.118193E-02
       223   -1.881473E-04
       224    4.434892E-05
       225    8.127675E-03
       226    6.484609E-03
       227    4.233224E-05
       228    2.326694E-02
       229    1.479878E-02
       230   -2.337093E-05
       231   -5.145449E-04
       232    4.260715E-04
       233    8.847334E-05
       234    1.166398E-04
       235    7.247522E-07
       236   -9.936861E-07
       237    5.182629E-03
       238   -3.489398E-03
       239   -1.693232E-03
       240   -2.291408E-04
       241    2.398416E-05
       242    1.633904E-05
       243    6.236423E-03
       244   -7.191616E-03
       245    9.551922E-04
       246   -7.150346E-04
       247   -8.424367E-05
       248    2.163071E-05
       249    2.408503E-05
       250    3.328867E-05
       251    2.741811E-07
       252   -2.247183E-05
       253   -3.033458E-05
       254    8.704619E-09
       255   -9.841625E-06
       256   -1.432685E-05
       257   -3.765571E-07
       258   -1.173757E-06
       259    1.213246E-02
       260    1.623333E-02
       261    3.263320E-02
       262   -1.699939E-03
       263   -2.094029E-03
       264   -6.830117E-07
       265   -7.387635E-03
       266    7.046803E-04
       267   -3.675561E-05
       268   -1.213290E-02
       269   -1.623390E-02
       270   -3.262188E-02
       271    1.700168E-03
       272   -2.094037E-03
       273    5.737691E-07
       274    7.374589E-03
       275    7.006600E-04
       276    3.437597E-05
       277   -2.312819E-03
       278   -4.455023E-03
       279   -1.983860E-02
       280    2.483749E-04
       281   -3.022898E-04
       282   -4.306404E-06
       283    6.416815E-05
       284   -1.686121E-03
       285    3.757023E-05
       286    2.313732E-03
       287    4.456370E-03
       288    1.981800E-02
       289   -2.483849E-04
       290   -3.023880E-04
       291    4.476563E-06
       292   -7.101714E-05
       293   -1.684722E-03
       294   -3.789987E-05
       295   -1.935839E-08
       296   -5.698710E-08
       297    3.220829E-07
       298   -1.015221E-07
       299   -3.143966E-05
       300   -8.552754E-06
       301    5.105735E-06
       302    3.352279E-02
       303   -2.568973E-07
       304    4.397479E-06
       305    2.499364E-02
       306    5.818785E-08
       307   -7.380787E-06
       308   -7.322382E-03
       309    4.845233E-06
       310   -5.940623E-07
       311    6.942340E-07
       312   -1.001718E-07
       313    9.705351E-03
       314   -3.726082E-09
       315    2.654676E-05
       316   -1.830251E-06
       317    1.756272E-06
       318    7.397939E-08
       319    2.681365E-02
       320    3.337735E-07
       321    7.400610E-05
       322    1.909121E-06
       323    1.941857E-07
       324   -2.103307E-06
       325   -6.516652E-03
       326    4.410386E-06
       327   -2.320666E-05
       328   -4.112926E-09
       329   -2.231397E-03
       330   -4.719942E-09
       331    1.327326E-09
       332    3.120297E-03
       333   -4.658122E-08
       334    4.190744E-09
       335   -1.265635E-04
       336    5.291369E-08
       337    1.020497E-05
       338    1.654703E-03
       339    4.194492E-03
       340   -6.220770E-03
       341   -6.755269E-04
       342   -1.152096E-02
       343    1.897299E-02
       344   -2.657827E-01
       345   -2.253559E-01
       346   -7.173448E-04
       347   -2.410821E-01
       348   -1.974339E-01
       349   -6.500625E-04
       350   -1.784072E-01
       351   -1.425695E-01
       352   -4.905053E-04
       353   -2.991666E-02
       354   -1.499537E-02
       355   -8.571595E-05
       356    2.192802E-03
       357   -2.789753E-03
       358    5.969510E-04
       359   -3.923779E-05
       360    4.844360E-06
       361   -2.103844E-07
       362    6.735372E-03
       363   -7.310514E-03
       364    5.751421E-04
       365   -1.225636E-03
       366    1.761243E-05
       367   -4.812610E-06
       368    8.540163E-03
       369   -7.250886E-03
       370   -1.289277E-03
       371   -8.100252E-04
       372    2.253907E-05
       373   -1.202311E-05
       374   -2.243970E-04
       375   -7.968733E-04
       376   -8.073831E-07
       377    4.279828E-04
       378    9.025838E-04
       379   -1.398886E-07
       380   -1.269226E-04
       381    1.665339E-04
       382    1.223107E-06
       383    2.344299E-06
       384   -1.654561E-03
       385   -4.194151E-03
       386    6.220068E-03
       387    6.738520E-04
       388    1.152520E-02
       389   -1.896814E-02
       390    2.657484E-01
       391   -2.253503E-01
       392    7.253247E-04
       393    2.410515E-01
       394   -1.974286E-01
       395    6.578242E-04
       396    1.783891E-01
       397   -1.425701E-01
       398    4.881209E-04
       399    2.991446E-02
       400   -1.499462E-02
       401    8.503768E-05
       402   -2.192656E-03
       403    2.789711E-03
       404   -5.970556E-04
       405   -3.893279E-05
       406   -4.879512E-06
       407   -3.104561E-07
       408   -6.734835E-03
       409    7.310392E-03
       410   -5.755563E-04
       411   -1.225005E-03
       412   -1.771541E-05
       413   -4.795966E-06
       414   -8.540189E-03
       415    7.251930E-03
       416    1.288259E-03
       417   -8.108363E-04
       418   -2.469272E-05
       419   -8.379030E-06
       420    2.244450E-04
       421   -7.968128E-04
       422    8.055827E-07
       423   -4.280545E-04
       424    9.024554E-04
       425    1.013970E-07
       426    1.269299E-04
       427    1.665812E-04
       428   -1.182200E-06
       429    2.358739E-06
       430   -9.863413E-08
       431   -2.315232E-07
       432    3.626556E-07
       433    5.927850E-07
       434    3.922016E-06
       435    3.186121E-06
       436   -2.477941E-07
       437   -3.252270E-03
       438   -3.730145E-06
       439   -4.320019E-07
       440   -1.886824E-03
       441   -3.678775E-06
       442   -4.104390E-06
       443   -3.327794E-03
       444   -3.333095E-06
       445    8.014498E-09
       446   -4.777946E-09
       447   -3.236551E-09
       448    2.087940E-04
       449    2.953015E-08
       450   -4.959454E-05
       451   -8.388742E-08
       452    9.763469E-08
       453   -1.374726E-08
       454    9.572978E-04
       455    7.839747E-08
       456   -7.080561E-05
       457   -1.087309E-06
       458    2.553217E-07
       459    8.319870E-07
       460   -1.084869E-03
       461    3.841904E-08
       462   -1.688130E-05
       463   -5.942986E-09
       464   -4.247929E-05
       465    1.295793E-08
       466    4.253756E-10
       467    5.514953E-05
       468   -4.752905E-09
       469    7.547977E-09
       470    1.842422E-06
       471   -1.263198E-08
       472    1.376693E-05
       473    1.902756E-03
       474    2.770164E-03
       475    6.376259E-03
       476    9.124585E-05
       477    1.527378E-04
       478   -4.400966E-05
       479    9.599800E-04
       480    7.509565E-04
       481   -3.301708E-04
       482   -1.903256E-03
       483   -2.771088E-03
       484   -6.374424E-03
       485   -9.131774E-05
       486    1.528424E-04
       487    4.357939E-05
       488   -9.597466E-04
       489    7.496719E-04
       490    3.291441E-04
 Sym= X
 Ene= 0.896411
 Spin= Alpha
 Occup= 0.896411
         1    1.801928E-05
         2    4.382141E-05
         3   -2.232752E-04
         4    8.562907E-04
         5    1.966278E-02
         6    1.358178E-03
         7    2.783588E-04
         8    7.133261E-05
         9   -9.740192E-02
        10   -9.903952E-05
        11    6.740254E-05
        12   -9.730103E-02
        13   -2.502450E-02
        14    2.208878E-02
        15   -5.695591E-02
        16   -4.425272E-06
        17    1.722233E-06
        18    2.703039E-06
        19   -7.396709E-06
        20    7.555684E-05
        21    2.307102E-04
        22    1.962445E-04
        23   -7.681195E-05
        24   -1.194326E-04
        25    8.156084E-05
        26   -4.235685E-03
        27   -1.110699E-03
        28    7.365060E-03
        29   -7.956199E-03
        30    5.911384E-04
        31   -4.248590E-04
        32   -3.850833E-03
        33   -1.488937E-02
        34   -7.226393E-06
        35    1.354489E-06
        36    1.621646E-04
        37    6.951875E-06
        38    1.182198E-06
        39    1.031220E-04
        40    2.743349E-06
        41   -2.999435E-06
        42   -3.206886E-04
        43   -9.596811E-05
        44   -8.680681E-07
        45   -5.423123E-06
        46    1.011680E-04
        47   -1.580979E-03
        48    8.215912E-02
        49    5.290412E-03
        50   -3.111499E-05
        51    2.205019E-08
        52    1.916841E-02
        53    1.876540E-04
        54    7.238533E-06
        55    1.678531E-02
        56   -2.598961E-02
        57    1.532047E-04
        58   -5.075467E-02
        59   -4.432411E-05
        60   -2.432478E-06
        61    4.675659E-05
        62    7.863275E-08