[Molden Format]
[Title]
ADC(2) - opt by CAM-B3LYP gaussian                                              
[Atoms] AU
 c     1    6 0.12593230616935E+01 0.22795690751954E+01 -.36278607975490E-01
 c     2    6 0.25504236399298E+01 0.18897261300000E-05 -.34511714041240E-01
 c     3    6 0.12593268411458E+01 -.22795652957431E+01 -.36289946332290E-01
 c     4    6 -.13369660030996E+01 -.22791608943507E+01 -.39583738981910E-01
 c     5    6 -.26856068523561E+01 -.18897261300000E-05 -.40110972572980E-01
 c     6    6 -.13369678928258E+01 0.22791590046246E+01 -.39570510898980E-01
 h     7    1 0.23068095955089E+01 0.40296066523382E+01 -.33243707806080E-01
 h     8    1 0.23068152646873E+01 -.40296028728859E+01 -.33262605067400E-01
 h     9    1 -.23553205188504E+01 -.40525668248527E+01 -.45200005048840E-01
 h    10    1 -.23553280777549E+01 0.40525630454004E+01 -.45173548882980E-01
 n    11    7 0.52878147756133E+01 0.00000000000000E+00 -.27472484196240E-01
 o    12    8 0.63764576548767E+01 -.20283488830896E+01 -.24482937454020E-01
 o    13    8 0.63764614343290E+01 0.20283469933635E+01 -.24515062798280E-01
 n    14    7 -.52636676188715E+01 0.00000000000000E+00 -.10786332361533E+00
 h    15    1 -.61947904866021E+01 -.16076731691957E+01 0.28377485852069E+00
 h    16    1 -.61947848174237E+01 0.16076731691957E+01 0.28378430715135E+00
[GTO]
    1 0
 s    6 1.00
 0.13575349682000E+05 0.60645503603591E-03
 0.20352333680000E+04 0.46979088884982E-02
 0.46322562359000E+03 0.24332477647552E-01
 0.13120019598000E+03 0.97399968307759E-01
 0.42853015891000E+02 0.30195584253780E+00
 0.15584185766000E+02 0.66233609137875E+00
 s    2 1.00
 0.62067138508000E+01 0.65595308539952E+00
 0.25764896527000E+01 0.37585633285142E+00
 s    1 1.00
 0.57696339419000E+00 0.10000000000000E+01
 s    1 1.00
 0.22972831358000E+00 0.10000000000000E+01
 s    1 1.00
 0.95164440028000E-01 0.10000000000000E+01
 s    1 1.00
 0.48475401370000E-01 0.10000000000000E+01
 p    4 1.00
 0.34697232244000E+02 0.11327220003114E-01
 0.79582622826000E+01 0.76169659202087E-01
 0.23780826883000E+01 0.30192252202676E+00
 0.81433208183000E+00 0.72785027349547E+00
 p    1 1.00
 0.28887547253000E+00 0.10000000000000E+01
 p    1 1.00
 0.10056823671000E+00 0.10000000000000E+01
 d    1 1.00
 0.10970000000000E+01 0.10000000000000E+01
 d    1 1.00
 0.31800000000000E+00 0.10000000000000E+01
 d    1 1.00
 0.90985336424000E-01 0.10000000000000E+01
 f    1 1.00
 0.76100000000000E+00 0.10000000000000E+01
 
    2 0
 s    6 1.00
 0.13575349682000E+05 0.60645503603591E-03
 0.20352333680000E+04 0.46979088884982E-02
 0.46322562359000E+03 0.24332477647552E-01
 0.13120019598000E+03 0.97399968307759E-01
 0.42853015891000E+02 0.30195584253780E+00
 0.15584185766000E+02 0.66233609137875E+00
 s    2 1.00
 0.62067138508000E+01 0.65595308539952E+00
 0.25764896527000E+01 0.37585633285142E+00
 s    1 1.00
 0.57696339419000E+00 0.10000000000000E+01
 s    1 1.00
 0.22972831358000E+00 0.10000000000000E+01
 s    1 1.00
 0.95164440028000E-01 0.10000000000000E+01
 s    1 1.00
 0.48475401370000E-01 0.10000000000000E+01
 p    4 1.00
 0.34697232244000E+02 0.11327220003114E-01
 0.79582622826000E+01 0.76169659202087E-01
 0.23780826883000E+01 0.30192252202676E+00
 0.81433208183000E+00 0.72785027349547E+00
 p    1 1.00
 0.28887547253000E+00 0.10000000000000E+01
 p    1 1.00
 0.10056823671000E+00 0.10000000000000E+01
 d    1 1.00
 0.10970000000000E+01 0.10000000000000E+01
 d    1 1.00
 0.31800000000000E+00 0.10000000000000E+01
 d    1 1.00
 0.90985336424000E-01 0.10000000000000E+01
 f    1 1.00
 0.76100000000000E+00 0.10000000000000E+01
 
    3 0
 s    6 1.00
 0.13575349682000E+05 0.60645503603591E-03
 0.20352333680000E+04 0.46979088884982E-02
 0.46322562359000E+03 0.24332477647552E-01
 0.13120019598000E+03 0.97399968307759E-01
 0.42853015891000E+02 0.30195584253780E+00
 0.15584185766000E+02 0.66233609137875E+00
 s    2 1.00
 0.62067138508000E+01 0.65595308539952E+00
 0.25764896527000E+01 0.37585633285142E+00
 s    1 1.00
 0.57696339419000E+00 0.10000000000000E+01
 s    1 1.00
 0.22972831358000E+00 0.10000000000000E+01
 s    1 1.00
 0.95164440028000E-01 0.10000000000000E+01
 s    1 1.00
 0.48475401370000E-01 0.10000000000000E+01
 p    4 1.00
 0.34697232244000E+02 0.11327220003114E-01
 0.79582622826000E+01 0.76169659202087E-01
 0.23780826883000E+01 0.30192252202676E+00
 0.81433208183000E+00 0.72785027349547E+00
 p    1 1.00
 0.28887547253000E+00 0.10000000000000E+01
 p    1 1.00
 0.10056823671000E+00 0.10000000000000E+01
 d    1 1.00
 0.10970000000000E+01 0.10000000000000E+01
 d    1 1.00
 0.31800000000000E+00 0.10000000000000E+01
 d    1 1.00
 0.90985336424000E-01 0.10000000000000E+01
 f    1 1.00
 0.76100000000000E+00 0.10000000000000E+01
 
    4 0
 s    6 1.00
 0.13575349682000E+05 0.60645503603591E-03
 0.20352333680000E+04 0.46979088884982E-02
 0.46322562359000E+03 0.24332477647552E-01
 0.13120019598000E+03 0.97399968307759E-01
 0.42853015891000E+02 0.30195584253780E+00
 0.15584185766000E+02 0.66233609137875E+00
 s    2 1.00
 0.62067138508000E+01 0.65595308539952E+00
 0.25764896527000E+01 0.37585633285142E+00
 s    1 1.00
 0.57696339419000E+00 0.10000000000000E+01
 s    1 1.00
 0.22972831358000E+00 0.10000000000000E+01
 s    1 1.00
 0.95164440028000E-01 0.10000000000000E+01
 s    1 1.00
 0.48475401370000E-01 0.10000000000000E+01
 p    4 1.00
 0.34697232244000E+02 0.11327220003114E-01
 0.79582622826000E+01 0.76169659202087E-01
 0.23780826883000E+01 0.30192252202676E+00
 0.81433208183000E+00 0.72785027349547E+00
 p    1 1.00
 0.28887547253000E+00 0.10000000000000E+01
 p    1 1.00
 0.10056823671000E+00 0.10000000000000E+01
 d    1 1.00
 0.10970000000000E+01 0.10000000000000E+01
 d    1 1.00
 0.31800000000000E+00 0.10000000000000E+01
 d    1 1.00
 0.90985336424000E-01 0.10000000000000E+01
 f    1 1.00
 0.76100000000000E+00 0.10000000000000E+01
 
    5 0
 s    6 1.00
 0.13575349682000E+05 0.60645503603591E-03
 0.20352333680000E+04 0.46979088884982E-02
 0.46322562359000E+03 0.24332477647552E-01
 0.13120019598000E+03 0.97399968307759E-01
 0.42853015891000E+02 0.30195584253780E+00
 0.15584185766000E+02 0.66233609137875E+00
 s    2 1.00
 0.62067138508000E+01 0.65595308539952E+00
 0.25764896527000E+01 0.37585633285142E+00
 s    1 1.00
 0.57696339419000E+00 0.10000000000000E+01
 s    1 1.00
 0.22972831358000E+00 0.10000000000000E+01
 s    1 1.00
 0.95164440028000E-01 0.10000000000000E+01
 s    1 1.00
 0.48475401370000E-01 0.10000000000000E+01
 p    4 1.00
 0.34697232244000E+02 0.11327220003114E-01
 0.79582622826000E+01 0.76169659202087E-01
 0.23780826883000E+01 0.30192252202676E+00
 0.81433208183000E+00 0.72785027349547E+00
 p    1 1.00
 0.28887547253000E+00 0.10000000000000E+01
 p    1 1.00
 0.10056823671000E+00 0.10000000000000E+01
 d    1 1.00
 0.10970000000000E+01 0.10000000000000E+01
 d    1 1.00
 0.31800000000000E+00 0.10000000000000E+01
 d    1 1.00
 0.90985336424000E-01 0.10000000000000E+01
 f    1 1.00
 0.76100000000000E+00 0.10000000000000E+01
 
    6 0
 s    6 1.00
 0.13575349682000E+05 0.60645503603591E-03
 0.20352333680000E+04 0.46979088884982E-02
 0.46322562359000E+03 0.24332477647552E-01
 0.13120019598000E+03 0.97399968307759E-01
 0.42853015891000E+02 0.30195584253780E+00
 0.15584185766000E+02 0.66233609137875E+00
 s    2 1.00
 0.62067138508000E+01 0.65595308539952E+00
 0.25764896527000E+01 0.37585633285142E+00
 s    1 1.00
 0.57696339419000E+00 0.10000000000000E+01
 s    1 1.00
 0.22972831358000E+00 0.10000000000000E+01
 s    1 1.00
 0.95164440028000E-01 0.10000000000000E+01
 s    1 1.00
 0.48475401370000E-01 0.10000000000000E+01
 p    4 1.00
 0.34697232244000E+02 0.11327220003114E-01
 0.79582622826000E+01 0.76169659202087E-01
 0.23780826883000E+01 0.30192252202676E+00
 0.81433208183000E+00 0.72785027349547E+00
 p    1 1.00
 0.28887547253000E+00 0.10000000000000E+01
 p    1 1.00
 0.10056823671000E+00 0.10000000000000E+01
 d    1 1.00
 0.10970000000000E+01 0.10000000000000E+01
 d    1 1.00
 0.31800000000000E+00 0.10000000000000E+01
 d    1 1.00
 0.90985336424000E-01 0.10000000000000E+01
 f    1 1.00
 0.76100000000000E+00 0.10000000000000E+01
 
    7 0
 s    3 1.00
 0.34061341000000E+02 0.25439307208879E-01
 0.51235746000000E+01 0.19008594890375E+00
 0.11646626000000E+01 0.85244113011042E+00
 s    1 1.00
 0.32723041000000E+00 0.10000000000000E+01
 s    1 1.00
 0.10307241000000E+00 0.10000000000000E+01
 p    1 1.00
 0.80000000000000E+00 0.10000000000000E+01
 p    1 1.00
 0.95774129632000E-01 0.10000000000000E+01
 
    8 0
 s    3 1.00
 0.34061341000000E+02 0.25439307208879E-01
 0.51235746000000E+01 0.19008594890375E+00
 0.11646626000000E+01 0.85244113011042E+00
 s    1 1.00
 0.32723041000000E+00 0.10000000000000E+01
 s    1 1.00
 0.10307241000000E+00 0.10000000000000E+01
 p    1 1.00
 0.80000000000000E+00 0.10000000000000E+01
 p    1 1.00
 0.95774129632000E-01 0.10000000000000E+01
 
    9 0
 s    3 1.00
 0.34061341000000E+02 0.25439307208879E-01
 0.51235746000000E+01 0.19008594890375E+00
 0.11646626000000E+01 0.85244113011042E+00
 s    1 1.00
 0.32723041000000E+00 0.10000000000000E+01
 s    1 1.00
 0.10307241000000E+00 0.10000000000000E+01
 p    1 1.00
 0.80000000000000E+00 0.10000000000000E+01
 p    1 1.00
 0.95774129632000E-01 0.10000000000000E+01
 
   10 0
 s    3 1.00
 0.34061341000000E+02 0.25439307208879E-01
 0.51235746000000E+01 0.19008594890375E+00
 0.11646626000000E+01 0.85244113011042E+00
 s    1 1.00
 0.32723041000000E+00 0.10000000000000E+01
 s    1 1.00
 0.10307241000000E+00 0.10000000000000E+01
 p    1 1.00
 0.80000000000000E+00 0.10000000000000E+01
 p    1 1.00
 0.95774129632000E-01 0.10000000000000E+01
 
   11 0
 s    6 1.00
 0.19730800647000E+05 0.58626402628763E-03
 0.29578958745000E+04 0.45428820586397E-02
 0.67322133595000E+03 0.23558413450084E-01
 0.19068249494000E+03 0.94709193292923E-01
 0.62295441898000E+02 0.29719784913376E+00
 0.22654161182000E+02 0.66916246895232E+00
 s    2 1.00
 0.89791477428000E+01 0.64596683630063E+00
 0.36863002370000E+01 0.38700574393705E+00
 s    1 1.00
 0.84660076805000E+00 0.10000000000000E+01
 s    1 1.00
 0.33647133771000E+00 0.10000000000000E+01
 s    1 1.00
 0.13647653675000E+00 0.10000000000000E+01
 s    1 1.00
 0.68441605847000E-01 0.10000000000000E+01
 p    4 1.00
 0.49200380510000E+02 0.11448825101764E-01
 0.11346790537000E+02 0.78422337970864E-01
 0.34273972411000E+01 0.30818094738830E+00
 0.11785525134000E+01 0.72027196368413E+00
 p    1 1.00
 0.41642204972000E+00 0.10000000000000E+01
 p    1 1.00
 0.14260826011000E+00 0.10000000000000E+01
 d    1 1.00
 0.16540000000000E+01 0.10000000000000E+01
 d    1 1.00
 0.46900000000000E+00 0.10000000000000E+01
 d    1 1.00
 0.12829642058000E+00 0.10000000000000E+01
 f    1 1.00
 0.10930000000000E+01 0.10000000000000E+01
 
   12 0
 s    6 1.00
 0.27032382631000E+05 0.57227335211155E-03
 0.40523871392000E+04 0.44353233492995E-02
 0.92232722710000E+03 0.23020107706038E-01
 0.26124070989000E+03 0.92822490667928E-01
 0.85354641351000E+02 0.29378500009671E+00
 0.31035035245000E+02 0.67401604501641E+00
 s    2 1.00
 0.12260860728000E+02 0.63839937025506E+00
 0.49987076005000E+01 0.39534587125718E+00
 s    1 1.00
 0.11703108158000E+01 0.10000000000000E+01
 s    1 1.00
 0.46474740994000E+00 0.10000000000000E+01
 s    1 1.00
 0.18504536357000E+00 0.10000000000000E+01
 s    1 1.00
 0.70288026270000E-01 0.10000000000000E+01
 p    4 1.00
 0.63274954801000E+02 0.12018332222616E-01
 0.14627049379000E+02 0.83005421790056E-01
 0.44501223456000E+01 0.31991743925964E+00
 0.15275799647000E+01 0.70715542916104E+00
 p    1 1.00
 0.52935117943000E+00 0.10000000000000E+01
 p    1 1.00
 0.17478421270000E+00 0.10000000000000E+01
 p    1 1.00
 0.51112745706000E-01 0.10000000000000E+01
 d    1 1.00
 0.23140000000000E+01 0.10000000000000E+01
 d    1 1.00
 0.64500000000000E+00 0.10000000000000E+01
 d    1 1.00
 0.14696477366000E+00 0.10000000000000E+01
 f    1 1.00
 0.14280000000000E+01 0.10000000000000E+01
 
   13 0
 s    6 1.00
 0.27032382631000E+05 0.57227335211155E-03
 0.40523871392000E+04 0.44353233492995E-02
 0.92232722710000E+03 0.23020107706038E-01
 0.26124070989000E+03 0.92822490667928E-01
 0.85354641351000E+02 0.29378500009671E+00
 0.31035035245000E+02 0.67401604501641E+00
 s    2 1.00
 0.12260860728000E+02 0.63839937025506E+00
 0.49987076005000E+01 0.39534587125718E+00
 s    1 1.00
 0.11703108158000E+01 0.10000000000000E+01
 s    1 1.00
 0.46474740994000E+00 0.10000000000000E+01
 s    1 1.00
 0.18504536357000E+00 0.10000000000000E+01
 s    1 1.00
 0.70288026270000E-01 0.10000000000000E+01
 p    4 1.00
 0.63274954801000E+02 0.12018332222616E-01
 0.14627049379000E+02 0.83005421790056E-01
 0.44501223456000E+01 0.31991743925964E+00
 0.15275799647000E+01 0.70715542916104E+00
 p    1 1.00
 0.52935117943000E+00 0.10000000000000E+01
 p    1 1.00
 0.17478421270000E+00 0.10000000000000E+01
 p    1 1.00
 0.51112745706000E-01 0.10000000000000E+01
 d    1 1.00
 0.23140000000000E+01 0.10000000000000E+01
 d    1 1.00
 0.64500000000000E+00 0.10000000000000E+01
 d    1 1.00
 0.14696477366000E+00 0.10000000000000E+01
 f    1 1.00
 0.14280000000000E+01 0.10000000000000E+01
 
   14 0
 s    6 1.00
 0.19730800647000E+05 0.58626402628763E-03
 0.29578958745000E+04 0.45428820586397E-02
 0.67322133595000E+03 0.23558413450084E-01
 0.19068249494000E+03 0.94709193292923E-01
 0.62295441898000E+02 0.29719784913376E+00
 0.22654161182000E+02 0.66916246895232E+00
 s    2 1.00
 0.89791477428000E+01 0.64596683630063E+00
 0.36863002370000E+01 0.38700574393705E+00
 s    1 1.00
 0.84660076805000E+00 0.10000000000000E+01
 s    1 1.00
 0.33647133771000E+00 0.10000000000000E+01
 s    1 1.00
 0.13647653675000E+00 0.10000000000000E+01
 s    1 1.00
 0.68441605847000E-01 0.10000000000000E+01
 p    4 1.00
 0.49200380510000E+02 0.11448825101764E-01
 0.11346790537000E+02 0.78422337970864E-01
 0.34273972411000E+01 0.30818094738830E+00
 0.11785525134000E+01 0.72027196368413E+00
 p    1 1.00
 0.41642204972000E+00 0.10000000000000E+01
 p    1 1.00
 0.14260826011000E+00 0.10000000000000E+01
 d    1 1.00
 0.16540000000000E+01 0.10000000000000E+01
 d    1 1.00
 0.46900000000000E+00 0.10000000000000E+01
 d    1 1.00
 0.12829642058000E+00 0.10000000000000E+01
 f    1 1.00
 0.10930000000000E+01 0.10000000000000E+01
 
   15 0
 s    3 1.00
 0.34061341000000E+02 0.25439307208879E-01
 0.51235746000000E+01 0.19008594890375E+00
 0.11646626000000E+01 0.85244113011042E+00
 s    1 1.00
 0.32723041000000E+00 0.10000000000000E+01
 s    1 1.00
 0.10307241000000E+00 0.10000000000000E+01
 p    1 1.00
 0.80000000000000E+00 0.10000000000000E+01
 p    1 1.00
 0.95774129632000E-01 0.10000000000000E+01
 
   16 0
 s    3 1.00
 0.34061341000000E+02 0.25439307208879E-01
 0.51235746000000E+01 0.19008594890375E+00
 0.11646626000000E+01 0.85244113011042E+00
 s    1 1.00
 0.32723041000000E+00 0.10000000000000E+01
 s    1 1.00
 0.10307241000000E+00 0.10000000000000E+01
 p    1 1.00
 0.80000000000000E+00 0.10000000000000E+01
 p    1 1.00
 0.95774129632000E-01 0.10000000000000E+01
 
[MO]
 Sym= X
 Ene= -0.238707
 Spin= Alpha
 Occup= -0.238707
         1    3.586336E-05
         2    8.208137E-05
         3   -2.476553E-04
         4    5.814411E-04
         5    6.058104E-03
         6    7.093462E-04
         7   -1.054026E-04
         8   -1.646983E-04
         9    1.884374E-01
        10   -1.136700E-03
        11    1.725224E-04
        12    1.892465E-01
        13    4.999401E-03
        14   -5.157817E-03
        15    1.113441E-01
        16    9.848343E-06
        17   -3.936100E-06
        18   -5.912243E-06
        19   -6.136756E-07
        20   -4.953449E-03
        21   -5.597572E-04
        22    2.236382E-04
        23   -1.610325E-04
        24   -6.260567E-05
        25   -2.768639E-06
        26   -9.656757E-03
        27    4.468454E-04
        28   -8.633191E-04
        29    8.718960E-04
        30   -8.576910E-06
        31   -4.092944E-04
        32   -4.556722E-03
        33    1.455751E-03
        34   -7.813733E-06
        35   -2.819222E-07
        36   -1.183615E-03
        37    2.164381E-06
        38    1.442415E-07
        39    1.427757E-03
        40    8.318841E-06
        41    2.339969E-07
        42    1.602296E-04
        43    2.811638E-06
        44   -2.848462E-07
        45   -7.115692E-07
        46    5.308327E-06
        47   -1.641605E-05
        48   -1.241348E-03
        49   -8.880251E-05
        50    1.761981E-06
        51    1.288420E-04
        52   -4.302686E-05
        53    1.199073E-05
        54    5.470412E-04
        55   -4.666624E-05
        56    5.208396E-04
        57   -9.292142E-03
        58   -3.102643E-05
        59    1.483735E-07
        60   -2.110794E-07
        61    6.270588E-08
        62   -9.808474E-06
        63   -2.817857E-08
        64    7.145147E-03
        65    9.464245E-07
        66   -4.018638E-06
        67    3.072213E-06
        68   -1.834326E-04
        69    3.047240E-07
        70    1.623575E-02
        71   -3.310569E-05
        72    6.841277E-06
        73    2.626441E-05
        74    1.094680E-03
        75    7.619806E-07
        76    3.327321E-03
        77   -2.047583E-08
        78    9.275542E-07
        79    3.008171E-07
        80    9.539244E-08
        81    2.388848E-06
        82   -1.780157E-07
        83   -6.792123E-08
        84   -3.633293E-06
        85   -2.255728E-07
        86   -1.027293E-03
        87   -3.555144E-05
        88   -8.131515E-05
        89    2.371578E-04
        90   -5.393414E-04
        91   -3.714767E-03
        92   -5.713962E-04
        93    1.026698E-04
        94   -1.634234E-04
        95   -1.884604E-01
        96    1.101691E-03
        97    1.936950E-04
        98   -1.892674E-01
        99   -5.655350E-03
       100   -4.127067E-03
       101   -1.113267E-01
       102   -9.696351E-06
       103    3.717453E-06
       104    5.978898E-06
       105   -3.965653E-07
       106    4.951515E-03
       107   -5.614792E-04
       108   -2.138834E-04
       109    1.582226E-04
       110    5.566079E-05
       111    2.572907E-06
       112    9.652064E-03
       113    4.447224E-04
       114    8.523560E-04
       115   -8.164362E-04
       116   -3.591979E-05
       117   -4.660846E-04
       118    4.551751E-03
       119    1.460585E-03
       120    7.483147E-06
       121   -1.871720E-07
       122    1.183782E-03
       123   -1.928211E-06
       124    2.267604E-07
       125   -1.427633E-03
       126   -8.111484E-06
       127    2.435720E-08
       128   -1.605777E-04
       129    2.575043E-06
       130    9.211129E-06
       131    2.441036E-05
       132   -2.182485E-04
       133    1.745370E-03
       134    1.270300E-02
       135    3.446256E-04
       136    3.270333E-04
       137    8.370647E-05
       138   -2.018825E-01
       139    9.352479E-04
       140    3.257383E-04
       141   -2.047943E-01
       142   -9.504155E-03
       143    8.748450E-03
       144   -1.324479E-01
       145    2.305567E-05
       146    8.153915E-06
       147   -3.120958E-05
       148   -6.000025E-06
       149   -4.585267E-03
       150   -4.817150E-04
       151    3.099924E-04
       152   -9.754575E-05
       153   -2.124467E-04
       154   -1.278924E-04
       155   -8.055331E-03
       156   -4.176457E-04
       157    2.044546E-04
       158    1.981462E-04
       159   -4.026009E-04
       160   -1.774105E-03
       161    4.253192E-03
       162   -3.313437E-03
       163    1.012306E-05
       164    1.661610E-06
       165    1.327887E-03
       166   -6.743343E-06
       167    2.138913E-06
       168   -1.468069E-03
       169   -6.838171E-06
       170   -4.368197E-06
       171   -3.134785E-04
       172    4.579084E-05
       173    4.879935E-07
       174    1.175262E-06
       175   -6.125203E-06
       176    6.022261E-06
       177    1.568977E-03
       178    1.192866E-04
       179    3.094182E-07
       180   -2.337555E-04
       181    2.361471E-05
       182    1.198210E-05
       183   -8.344282E-05
       184    2.585149E-05
       185    5.724904E-04
       186    2.457825E-02
       187    1.983184E-05
       188   -2.457326E-07
       189    4.216420E-08
       190    2.035684E-07
       191    2.694960E-05
       192    9.781991E-07
       193    7.653965E-03
       194   -4.880359E-09
       195    4.164413E-06
       196   -4.159532E-06
       197    9.421495E-05
       198    3.397636E-06
       199    1.613539E-02
       200    2.596721E-05
       201    9.967457E-06
       202   -3.593467E-05
       203    9.720718E-04
       204    4.093416E-06
       205   -8.504864E-03
       206   -1.798611E-08
       207    6.442613E-06
       208   -1.188915E-07
       209    1.370602E-07
       210   -7.910477E-06
       211   -5.243347E-08
       212   -1.129293E-07
       213   -7.331954E-07
       214    2.119432E-07
       215    1.192169E-03
       216   -9.856613E-06
       217   -2.593520E-05
       218    2.307849E-04
       219   -1.788937E-03
       220   -1.532917E-02
       221   -5.007115E-04
       222   -3.265640E-04
       223    8.592531E-05
       224    2.019235E-01
       225   -9.663013E-04
       226    3.486925E-04
       227    2.048355E-01
       228    8.956246E-03
       229    9.884460E-03
       230    1.324455E-01
       231   -2.304530E-05
       232   -7.982035E-06
       233    3.102734E-05
       234   -6.266937E-06
       235    4.584614E-03
       236   -4.828300E-04
       237   -3.195788E-04
       238    9.906051E-05
       239    2.205183E-04
       240   -1.330957E-04
       241    8.052787E-03
       242   -4.184487E-04
       243   -1.981715E-04
       244   -2.516191E-04
       245    4.497905E-04
       246   -1.728896E-03
       247   -4.259014E-03
       248   -3.308127E-03
       249   -1.044046E-05
       250    1.798338E-06
       251   -1.328116E-03
       252    7.014232E-06
       253    2.187752E-06
       254    1.468087E-03
       255    6.993121E-06
       256   -4.600475E-06
       257    3.137677E-04
       258    4.590585E-05
       259   -2.166967E-05
       260   -2.227745E-05
       261    7.459530E-04
       262   -1.418174E-05
       263    5.632479E-07
       264    7.749928E-03
       265   -1.424159E-04
       266   -2.122051E-04
       267    6.865342E-03
       268    1.945911E-05
       269    2.872846E-05
       270   -4.205193E-04
       271    1.382126E-05
       272    1.320742E-06
       273   -7.750744E-03
       274    1.058387E-04
       275   -1.258155E-04
       276   -6.863186E-03
       277    8.717671E-05
       278    2.490485E-04
       279    3.172111E-03
       280    4.446731E-05
       281    3.307659E-05
       282   -8.793896E-03
       283    4.169645E-04
       284    5.683114E-05
       285   -9.863369E-03
       286   -8.470983E-05
       287   -2.516952E-04
       288   -3.535272E-03
       289   -4.469340E-05
       290    3.366301E-05
       291    8.795405E-03
       292   -4.581080E-04
       293    1.512181E-04
       294    9.861478E-03
       295   -9.214671E-08
       296   -2.346358E-07
       297    4.566377E-07
       298   -2.048962E-06
       299   -6.884058E-06
       300    4.944494E-05
       301   -2.382796E-06
       302   -4.399851E-05
       303   -6.477179E-06
       304   -7.097326E-07
       305    1.403464E-08
       306   -6.373617E-06
       307    9.473163E-07
       308    7.276839E-04
       309   -2.471294E-06
       310    1.786180E-07
       311   -2.274312E-07
       312    4.881320E-08
       313   -5.265431E-06
       314    7.856910E-07
       315   -4.674001E-04
       316    3.954472E-07
       317   -2.233229E-07
       318   -1.721243E-07
       319   -3.619991E-05
       320    2.411214E-06
       321   -1.019575E-03
       322   -1.010579E-07
       323    4.471482E-06
       324   -4.370424E-06
       325   -1.789329E-04
       326    2.483497E-06
       327   -1.894400E-03
       328   -2.758193E-09
       329    2.211793E-07
       330    3.368459E-08
       331   -2.432519E-09
       332    8.464379E-07
       333   -1.480326E-07
       334    6.133024E-09
       335   -1.143181E-06
       336    1.028399E-07
       337   -2.398110E-04
       338   -2.032554E-06
       339   -5.295883E-06
       340    1.152631E-05
       341   -2.815881E-05
       342    2.197329E-04
       343   -3.994627E-05
       344    5.667623E-05
       345    1.319938E-04
       346    1.888983E-02
       347    5.458043E-05
       348    1.157714E-04
       349    1.783231E-02
       350   -1.357417E-04
       351    1.193085E-04
       352    1.242471E-02
       353   -1.577109E-05
       354   -1.539416E-05
       355   -2.071775E-04
       356   -1.497149E-06
       357    1.901422E-06
       358   -4.042733E-07
       359   -5.382299E-07
       360   -2.324712E-05
       361    1.409243E-04
       362   -9.844298E-07
       363    3.800215E-06
       364   -2.815786E-06
       365   -5.202332E-06
       366   -1.168716E-04
       367    6.347153E-04
       368    1.845111E-05
       369   -2.230789E-05
       370    3.856776E-06
       371   -2.718818E-05
       372    2.504968E-04
       373   -3.582330E-04
       374    3.763349E-07
       375    3.483146E-07
       376   -1.216177E-05
       377   -6.112732E-07
       378    6.589884E-09
       379   -2.660191E-05
       380    1.063669E-07
       381   -4.739030E-07
       382    4.291863E-05
       383   -4.814595E-05
       384    1.971452E-06
       385    5.158196E-06
       386   -1.134628E-05
       387    2.976114E-05
       388   -2.426588E-04
       389    2.106436E-05
       390   -4.728158E-05
       391    1.304749E-04
       392   -1.886741E-02
       393   -4.568542E-05
       394    1.148631E-04
       395   -1.781123E-02
       396    1.473814E-04
       397    1.228323E-04
       398   -1.240821E-02
       399    1.795915E-05
       400   -1.333105E-05
       401    2.094825E-04
       402    1.463106E-06
       403   -1.903597E-06
       404    4.404913E-07
       405   -5.982101E-07
       406    2.329922E-05
       407    1.408381E-04
       408    9.086274E-07
       409   -3.821384E-06
       410    2.912756E-06
       411   -5.547434E-06
       412    1.168466E-04
       413    6.343828E-04
       414   -1.881761E-05
       415    2.224870E-05
       416   -3.431096E-06
       417   -2.813544E-05
       418   -2.513031E-04
       419   -3.576269E-04
       420   -3.913870E-07
       421    3.375624E-07
       422    1.216101E-05
       423    6.337978E-07
       424    3.413521E-08
       425    2.656923E-05
       426   -1.086971E-07
       427   -4.870227E-07
       428   -4.288494E-05
       429   -4.812171E-05
       430   -5.573811E-07
       431   -1.293383E-06
       432    1.566763E-06
       433    8.650116E-06
       434    9.791847E-06
       435   -2.790489E-05
       436   -3.313563E-06
       437   -1.424120E-03
       438   -2.265637E-05
       439   -1.777076E-06
       440   -1.597730E-03
       441   -2.237948E-05
       442   -2.263225E-05
       443   -1.878878E-03
       444   -1.831050E-05
       445   -1.802834E-08
       446    3.393944E-08
       447   -1.591109E-08
       448   -2.380667E-05
       449    2.344452E-07
       450    3.053282E-04
       451    1.008987E-07
       452   -1.511199E-07
       453    5.022122E-08
       454   -1.758242E-05
       455    9.888854E-07
       456    6.362535E-04
       457   -6.150320E-06
       458    2.398281E-06
       459    3.752039E-06
       460   -1.944152E-04
       461    4.655650E-07
       462   -2.002395E-04
       463   -1.975454E-08
       464   -5.322500E-06
       465    6.891312E-08
       466   -2.430915E-08
       467   -1.940180E-05
       468    3.241216E-09
       469    5.081265E-08
       470    2.654268E-05
       471   -9.569786E-08
       472    1.314353E-04
       473   -8.915540E-05
       474   -2.567992E-04
       475    3.510475E-04
       476   -8.225248E-05
       477   -3.800187E-05
       478   -3.732548E-04
       479    2.373868E-04
       480   -6.541666E-05
       481   -1.743923E-03
       482    8.676876E-05
       483    2.537627E-04
       484   -3.655117E-04
       485    8.203913E-05
       486   -3.771834E-05
       487    3.707214E-04
       488   -2.439200E-04
       489   -6.792000E-05
       490    1.738641E-03
 Sym= X
 Ene= -0.656096
 Spin= Alpha
 Occup= -0.656096
         1    2.186865E-04
         2    5.084859E-04
         3   -1.571476E-03
         4    4.460589E-03
         5   -2.827160E-02
         6    1.538327E-02
         7    2.147447E-03
         8    2.314112E-04
         9   -4.667598E-02
        10   -3.723260E-03
        11    6.399715E-04
        12   -4.458416E-02
        13   -3.927897E-02
        14    1.844013E-02
        15   -2.045513E-02
        16    2.758017E-06
        17    1.631729E-05
        18   -1.907531E-05
        19    8.171346E-06
        20   -6.186542E-03
        21    4.291880E-03
        22    9.341497E-04
        23   -5.483730E-04
        24   -3.857767E-04
        25    9.454154E-04
        26   -1.410067E-02
        27    7.970444E-03
        28    3.993161E-03
        29   -3.702142E-03
        30   -2.910195E-04
        31   -1.930217E-03
        32    2.938054E-03
        33   -9.271444E-03
        34   -2.999695E-05
        35    7.327857E-06
        36    2.486518E-04
        37    1.454716E-05
        38   -5.683280E-06
        39    6.281683E-04
        40    2.569798E-05
        41   -4.148071E-06
        42   -9.617698E-04
        43    7.316248E-04
        44   -4.884526E-05
        45   -1.065732E-04
        46   -1.693549E-04
        47    4.350524E-03
        48    7.380540E-02
        49   -7.296808E-03
        50    4.805484E-04
        51    1.258761E-06
        52   -2.208462E-01
        53   -6.173722E-04
        54    1.030463E-05
        55   -2.281228E-01
        56   -1.780721E-02
        57   -2.807814E-04
        58   -1.982493E-01
        59   -5.464589E-05
        60    5.043191E-05
        61    4.213977E-06
        62   -8.581768E-08