[Molden Format]
[Title]
ADC(2) - opt by CAM-B3LYP gaussian                                              
[Atoms] AU
 c     1    6 0.12593230616935E+01 0.22795690751954E+01 -.36278607975490E-01
 c     2    6 0.25504236399298E+01 0.18897261300000E-05 -.34511714041240E-01
 c     3    6 0.12593268411458E+01 -.22795652957431E+01 -.36289946332290E-01
 c     4    6 -.13369660030996E+01 -.22791608943507E+01 -.39583738981910E-01
 c     5    6 -.26856068523561E+01 -.18897261300000E-05 -.40110972572980E-01
 c     6    6 -.13369678928258E+01 0.22791590046246E+01 -.39570510898980E-01
 h     7    1 0.23068095955089E+01 0.40296066523382E+01 -.33243707806080E-01
 h     8    1 0.23068152646873E+01 -.40296028728859E+01 -.33262605067400E-01
 h     9    1 -.23553205188504E+01 -.40525668248527E+01 -.45200005048840E-01
 h    10    1 -.23553280777549E+01 0.40525630454004E+01 -.45173548882980E-01
 n    11    7 0.52878147756133E+01 0.00000000000000E+00 -.27472484196240E-01
 o    12    8 0.63764576548767E+01 -.20283488830896E+01 -.24482937454020E-01
 o    13    8 0.63764614343290E+01 0.20283469933635E+01 -.24515062798280E-01
 n    14    7 -.52636676188715E+01 0.00000000000000E+00 -.10786332361533E+00
 h    15    1 -.61947904866021E+01 -.16076731691957E+01 0.28377485852069E+00
 h    16    1 -.61947848174237E+01 0.16076731691957E+01 0.28378430715135E+00
[GTO]
    1 0
 s    6 1.00
 0.13575349682000E+05 0.60645503603591E-03
 0.20352333680000E+04 0.46979088884982E-02
 0.46322562359000E+03 0.24332477647552E-01
 0.13120019598000E+03 0.97399968307759E-01
 0.42853015891000E+02 0.30195584253780E+00
 0.15584185766000E+02 0.66233609137875E+00
 s    2 1.00
 0.62067138508000E+01 0.65595308539952E+00
 0.25764896527000E+01 0.37585633285142E+00
 s    1 1.00
 0.57696339419000E+00 0.10000000000000E+01
 s    1 1.00
 0.22972831358000E+00 0.10000000000000E+01
 s    1 1.00
 0.95164440028000E-01 0.10000000000000E+01
 s    1 1.00
 0.48475401370000E-01 0.10000000000000E+01
 p    4 1.00
 0.34697232244000E+02 0.11327220003114E-01
 0.79582622826000E+01 0.76169659202087E-01
 0.23780826883000E+01 0.30192252202676E+00
 0.81433208183000E+00 0.72785027349547E+00
 p    1 1.00
 0.28887547253000E+00 0.10000000000000E+01
 p    1 1.00
 0.10056823671000E+00 0.10000000000000E+01
 d    1 1.00
 0.10970000000000E+01 0.10000000000000E+01
 d    1 1.00
 0.31800000000000E+00 0.10000000000000E+01
 d    1 1.00
 0.90985336424000E-01 0.10000000000000E+01
 f    1 1.00
 0.76100000000000E+00 0.10000000000000E+01
 
    2 0
 s    6 1.00
 0.13575349682000E+05 0.60645503603591E-03
 0.20352333680000E+04 0.46979088884982E-02
 0.46322562359000E+03 0.24332477647552E-01
 0.13120019598000E+03 0.97399968307759E-01
 0.42853015891000E+02 0.30195584253780E+00
 0.15584185766000E+02 0.66233609137875E+00
 s    2 1.00
 0.62067138508000E+01 0.65595308539952E+00
 0.25764896527000E+01 0.37585633285142E+00
 s    1 1.00
 0.57696339419000E+00 0.10000000000000E+01
 s    1 1.00
 0.22972831358000E+00 0.10000000000000E+01
 s    1 1.00
 0.95164440028000E-01 0.10000000000000E+01
 s    1 1.00
 0.48475401370000E-01 0.10000000000000E+01
 p    4 1.00
 0.34697232244000E+02 0.11327220003114E-01
 0.79582622826000E+01 0.76169659202087E-01
 0.23780826883000E+01 0.30192252202676E+00
 0.81433208183000E+00 0.72785027349547E+00
 p    1 1.00
 0.28887547253000E+00 0.10000000000000E+01
 p    1 1.00
 0.10056823671000E+00 0.10000000000000E+01
 d    1 1.00
 0.10970000000000E+01 0.10000000000000E+01
 d    1 1.00
 0.31800000000000E+00 0.10000000000000E+01
 d    1 1.00
 0.90985336424000E-01 0.10000000000000E+01
 f    1 1.00
 0.76100000000000E+00 0.10000000000000E+01
 
    3 0
 s    6 1.00
 0.13575349682000E+05 0.60645503603591E-03
 0.20352333680000E+04 0.46979088884982E-02
 0.46322562359000E+03 0.24332477647552E-01
 0.13120019598000E+03 0.97399968307759E-01
 0.42853015891000E+02 0.30195584253780E+00
 0.15584185766000E+02 0.66233609137875E+00
 s    2 1.00
 0.62067138508000E+01 0.65595308539952E+00
 0.25764896527000E+01 0.37585633285142E+00
 s    1 1.00
 0.57696339419000E+00 0.10000000000000E+01
 s    1 1.00
 0.22972831358000E+00 0.10000000000000E+01
 s    1 1.00
 0.95164440028000E-01 0.10000000000000E+01
 s    1 1.00
 0.48475401370000E-01 0.10000000000000E+01
 p    4 1.00
 0.34697232244000E+02 0.11327220003114E-01
 0.79582622826000E+01 0.76169659202087E-01
 0.23780826883000E+01 0.30192252202676E+00
 0.81433208183000E+00 0.72785027349547E+00
 p    1 1.00
 0.28887547253000E+00 0.10000000000000E+01
 p    1 1.00
 0.10056823671000E+00 0.10000000000000E+01
 d    1 1.00
 0.10970000000000E+01 0.10000000000000E+01
 d    1 1.00
 0.31800000000000E+00 0.10000000000000E+01
 d    1 1.00
 0.90985336424000E-01 0.10000000000000E+01
 f    1 1.00
 0.76100000000000E+00 0.10000000000000E+01
 
    4 0
 s    6 1.00
 0.13575349682000E+05 0.60645503603591E-03
 0.20352333680000E+04 0.46979088884982E-02
 0.46322562359000E+03 0.24332477647552E-01
 0.13120019598000E+03 0.97399968307759E-01
 0.42853015891000E+02 0.30195584253780E+00
 0.15584185766000E+02 0.66233609137875E+00
 s    2 1.00
 0.62067138508000E+01 0.65595308539952E+00
 0.25764896527000E+01 0.37585633285142E+00
 s    1 1.00
 0.57696339419000E+00 0.10000000000000E+01
 s    1 1.00
 0.22972831358000E+00 0.10000000000000E+01
 s    1 1.00
 0.95164440028000E-01 0.10000000000000E+01
 s    1 1.00
 0.48475401370000E-01 0.10000000000000E+01
 p    4 1.00
 0.34697232244000E+02 0.11327220003114E-01
 0.79582622826000E+01 0.76169659202087E-01
 0.23780826883000E+01 0.30192252202676E+00
 0.81433208183000E+00 0.72785027349547E+00
 p    1 1.00
 0.28887547253000E+00 0.10000000000000E+01
 p    1 1.00
 0.10056823671000E+00 0.10000000000000E+01
 d    1 1.00
 0.10970000000000E+01 0.10000000000000E+01
 d    1 1.00
 0.31800000000000E+00 0.10000000000000E+01
 d    1 1.00
 0.90985336424000E-01 0.10000000000000E+01
 f    1 1.00
 0.76100000000000E+00 0.10000000000000E+01
 
    5 0
 s    6 1.00
 0.13575349682000E+05 0.60645503603591E-03
 0.20352333680000E+04 0.46979088884982E-02
 0.46322562359000E+03 0.24332477647552E-01
 0.13120019598000E+03 0.97399968307759E-01
 0.42853015891000E+02 0.30195584253780E+00
 0.15584185766000E+02 0.66233609137875E+00
 s    2 1.00
 0.62067138508000E+01 0.65595308539952E+00
 0.25764896527000E+01 0.37585633285142E+00
 s    1 1.00
 0.57696339419000E+00 0.10000000000000E+01
 s    1 1.00
 0.22972831358000E+00 0.10000000000000E+01
 s    1 1.00
 0.95164440028000E-01 0.10000000000000E+01
 s    1 1.00
 0.48475401370000E-01 0.10000000000000E+01
 p    4 1.00
 0.34697232244000E+02 0.11327220003114E-01
 0.79582622826000E+01 0.76169659202087E-01
 0.23780826883000E+01 0.30192252202676E+00
 0.81433208183000E+00 0.72785027349547E+00
 p    1 1.00
 0.28887547253000E+00 0.10000000000000E+01
 p    1 1.00
 0.10056823671000E+00 0.10000000000000E+01
 d    1 1.00
 0.10970000000000E+01 0.10000000000000E+01
 d    1 1.00
 0.31800000000000E+00 0.10000000000000E+01
 d    1 1.00
 0.90985336424000E-01 0.10000000000000E+01
 f    1 1.00
 0.76100000000000E+00 0.10000000000000E+01
 
    6 0
 s    6 1.00
 0.13575349682000E+05 0.60645503603591E-03
 0.20352333680000E+04 0.46979088884982E-02
 0.46322562359000E+03 0.24332477647552E-01
 0.13120019598000E+03 0.97399968307759E-01
 0.42853015891000E+02 0.30195584253780E+00
 0.15584185766000E+02 0.66233609137875E+00
 s    2 1.00
 0.62067138508000E+01 0.65595308539952E+00
 0.25764896527000E+01 0.37585633285142E+00
 s    1 1.00
 0.57696339419000E+00 0.10000000000000E+01
 s    1 1.00
 0.22972831358000E+00 0.10000000000000E+01
 s    1 1.00
 0.95164440028000E-01 0.10000000000000E+01
 s    1 1.00
 0.48475401370000E-01 0.10000000000000E+01
 p    4 1.00
 0.34697232244000E+02 0.11327220003114E-01
 0.79582622826000E+01 0.76169659202087E-01
 0.23780826883000E+01 0.30192252202676E+00
 0.81433208183000E+00 0.72785027349547E+00
 p    1 1.00
 0.28887547253000E+00 0.10000000000000E+01
 p    1 1.00
 0.10056823671000E+00 0.10000000000000E+01
 d    1 1.00
 0.10970000000000E+01 0.10000000000000E+01
 d    1 1.00
 0.31800000000000E+00 0.10000000000000E+01
 d    1 1.00
 0.90985336424000E-01 0.10000000000000E+01
 f    1 1.00
 0.76100000000000E+00 0.10000000000000E+01
 
    7 0
 s    3 1.00
 0.34061341000000E+02 0.25439307208879E-01
 0.51235746000000E+01 0.19008594890375E+00
 0.11646626000000E+01 0.85244113011042E+00
 s    1 1.00
 0.32723041000000E+00 0.10000000000000E+01
 s    1 1.00
 0.10307241000000E+00 0.10000000000000E+01
 p    1 1.00
 0.80000000000000E+00 0.10000000000000E+01
 p    1 1.00
 0.95774129632000E-01 0.10000000000000E+01
 
    8 0
 s    3 1.00
 0.34061341000000E+02 0.25439307208879E-01
 0.51235746000000E+01 0.19008594890375E+00
 0.11646626000000E+01 0.85244113011042E+00
 s    1 1.00
 0.32723041000000E+00 0.10000000000000E+01
 s    1 1.00
 0.10307241000000E+00 0.10000000000000E+01
 p    1 1.00
 0.80000000000000E+00 0.10000000000000E+01
 p    1 1.00
 0.95774129632000E-01 0.10000000000000E+01
 
    9 0
 s    3 1.00
 0.34061341000000E+02 0.25439307208879E-01
 0.51235746000000E+01 0.19008594890375E+00
 0.11646626000000E+01 0.85244113011042E+00
 s    1 1.00
 0.32723041000000E+00 0.10000000000000E+01
 s    1 1.00
 0.10307241000000E+00 0.10000000000000E+01
 p    1 1.00
 0.80000000000000E+00 0.10000000000000E+01
 p    1 1.00
 0.95774129632000E-01 0.10000000000000E+01
 
   10 0
 s    3 1.00
 0.34061341000000E+02 0.25439307208879E-01
 0.51235746000000E+01 0.19008594890375E+00
 0.11646626000000E+01 0.85244113011042E+00
 s    1 1.00
 0.32723041000000E+00 0.10000000000000E+01
 s    1 1.00
 0.10307241000000E+00 0.10000000000000E+01
 p    1 1.00
 0.80000000000000E+00 0.10000000000000E+01
 p    1 1.00
 0.95774129632000E-01 0.10000000000000E+01
 
   11 0
 s    6 1.00
 0.19730800647000E+05 0.58626402628763E-03
 0.29578958745000E+04 0.45428820586397E-02
 0.67322133595000E+03 0.23558413450084E-01
 0.19068249494000E+03 0.94709193292923E-01
 0.62295441898000E+02 0.29719784913376E+00
 0.22654161182000E+02 0.66916246895232E+00
 s    2 1.00
 0.89791477428000E+01 0.64596683630063E+00
 0.36863002370000E+01 0.38700574393705E+00
 s    1 1.00
 0.84660076805000E+00 0.10000000000000E+01
 s    1 1.00
 0.33647133771000E+00 0.10000000000000E+01
 s    1 1.00
 0.13647653675000E+00 0.10000000000000E+01
 s    1 1.00
 0.68441605847000E-01 0.10000000000000E+01
 p    4 1.00
 0.49200380510000E+02 0.11448825101764E-01
 0.11346790537000E+02 0.78422337970864E-01
 0.34273972411000E+01 0.30818094738830E+00
 0.11785525134000E+01 0.72027196368413E+00
 p    1 1.00
 0.41642204972000E+00 0.10000000000000E+01
 p    1 1.00
 0.14260826011000E+00 0.10000000000000E+01
 d    1 1.00
 0.16540000000000E+01 0.10000000000000E+01
 d    1 1.00
 0.46900000000000E+00 0.10000000000000E+01
 d    1 1.00
 0.12829642058000E+00 0.10000000000000E+01
 f    1 1.00
 0.10930000000000E+01 0.10000000000000E+01
 
   12 0
 s    6 1.00
 0.27032382631000E+05 0.57227335211155E-03
 0.40523871392000E+04 0.44353233492995E-02
 0.92232722710000E+03 0.23020107706038E-01
 0.26124070989000E+03 0.92822490667928E-01
 0.85354641351000E+02 0.29378500009671E+00
 0.31035035245000E+02 0.67401604501641E+00
 s    2 1.00
 0.12260860728000E+02 0.63839937025506E+00
 0.49987076005000E+01 0.39534587125718E+00
 s    1 1.00
 0.11703108158000E+01 0.10000000000000E+01
 s    1 1.00
 0.46474740994000E+00 0.10000000000000E+01
 s    1 1.00
 0.18504536357000E+00 0.10000000000000E+01
 s    1 1.00
 0.70288026270000E-01 0.10000000000000E+01
 p    4 1.00
 0.63274954801000E+02 0.12018332222616E-01
 0.14627049379000E+02 0.83005421790056E-01
 0.44501223456000E+01 0.31991743925964E+00
 0.15275799647000E+01 0.70715542916104E+00
 p    1 1.00
 0.52935117943000E+00 0.10000000000000E+01
 p    1 1.00
 0.17478421270000E+00 0.10000000000000E+01
 p    1 1.00
 0.51112745706000E-01 0.10000000000000E+01
 d    1 1.00
 0.23140000000000E+01 0.10000000000000E+01
 d    1 1.00
 0.64500000000000E+00 0.10000000000000E+01
 d    1 1.00
 0.14696477366000E+00 0.10000000000000E+01
 f    1 1.00
 0.14280000000000E+01 0.10000000000000E+01
 
   13 0
 s    6 1.00
 0.27032382631000E+05 0.57227335211155E-03
 0.40523871392000E+04 0.44353233492995E-02
 0.92232722710000E+03 0.23020107706038E-01
 0.26124070989000E+03 0.92822490667928E-01
 0.85354641351000E+02 0.29378500009671E+00
 0.31035035245000E+02 0.67401604501641E+00
 s    2 1.00
 0.12260860728000E+02 0.63839937025506E+00
 0.49987076005000E+01 0.39534587125718E+00
 s    1 1.00
 0.11703108158000E+01 0.10000000000000E+01
 s    1 1.00
 0.46474740994000E+00 0.10000000000000E+01
 s    1 1.00
 0.18504536357000E+00 0.10000000000000E+01
 s    1 1.00
 0.70288026270000E-01 0.10000000000000E+01
 p    4 1.00
 0.63274954801000E+02 0.12018332222616E-01
 0.14627049379000E+02 0.83005421790056E-01
 0.44501223456000E+01 0.31991743925964E+00
 0.15275799647000E+01 0.70715542916104E+00
 p    1 1.00
 0.52935117943000E+00 0.10000000000000E+01
 p    1 1.00
 0.17478421270000E+00 0.10000000000000E+01
 p    1 1.00
 0.51112745706000E-01 0.10000000000000E+01
 d    1 1.00
 0.23140000000000E+01 0.10000000000000E+01
 d    1 1.00
 0.64500000000000E+00 0.10000000000000E+01
 d    1 1.00
 0.14696477366000E+00 0.10000000000000E+01
 f    1 1.00
 0.14280000000000E+01 0.10000000000000E+01
 
   14 0
 s    6 1.00
 0.19730800647000E+05 0.58626402628763E-03
 0.29578958745000E+04 0.45428820586397E-02
 0.67322133595000E+03 0.23558413450084E-01
 0.19068249494000E+03 0.94709193292923E-01
 0.62295441898000E+02 0.29719784913376E+00
 0.22654161182000E+02 0.66916246895232E+00
 s    2 1.00
 0.89791477428000E+01 0.64596683630063E+00
 0.36863002370000E+01 0.38700574393705E+00
 s    1 1.00
 0.84660076805000E+00 0.10000000000000E+01
 s    1 1.00
 0.33647133771000E+00 0.10000000000000E+01
 s    1 1.00
 0.13647653675000E+00 0.10000000000000E+01
 s    1 1.00
 0.68441605847000E-01 0.10000000000000E+01
 p    4 1.00
 0.49200380510000E+02 0.11448825101764E-01
 0.11346790537000E+02 0.78422337970864E-01
 0.34273972411000E+01 0.30818094738830E+00
 0.11785525134000E+01 0.72027196368413E+00
 p    1 1.00
 0.41642204972000E+00 0.10000000000000E+01
 p    1 1.00
 0.14260826011000E+00 0.10000000000000E+01
 d    1 1.00
 0.16540000000000E+01 0.10000000000000E+01
 d    1 1.00
 0.46900000000000E+00 0.10000000000000E+01
 d    1 1.00
 0.12829642058000E+00 0.10000000000000E+01
 f    1 1.00
 0.10930000000000E+01 0.10000000000000E+01
 
   15 0
 s    3 1.00
 0.34061341000000E+02 0.25439307208879E-01
 0.51235746000000E+01 0.19008594890375E+00
 0.11646626000000E+01 0.85244113011042E+00
 s    1 1.00
 0.32723041000000E+00 0.10000000000000E+01
 s    1 1.00
 0.10307241000000E+00 0.10000000000000E+01
 p    1 1.00
 0.80000000000000E+00 0.10000000000000E+01
 p    1 1.00
 0.95774129632000E-01 0.10000000000000E+01
 
   16 0
 s    3 1.00
 0.34061341000000E+02 0.25439307208879E-01
 0.51235746000000E+01 0.19008594890375E+00
 0.11646626000000E+01 0.85244113011042E+00
 s    1 1.00
 0.32723041000000E+00 0.10000000000000E+01
 s    1 1.00
 0.10307241000000E+00 0.10000000000000E+01
 p    1 1.00
 0.80000000000000E+00 0.10000000000000E+01
 p    1 1.00
 0.95774129632000E-01 0.10000000000000E+01
 
[MO]
 Sym= X
 Ene= -0.897885
 Spin= Alpha
 Occup= -0.897885
         1   -2.132779E-05
         2   -4.813119E-05
         3    2.484771E-05
         4    4.388090E-04
         5    8.467719E-03
         6    1.095470E-03
         7    3.748425E-04
         8   -2.004445E-04
         9    1.872727E-01
        10   -5.562681E-04
        11    1.690123E-04
        12    1.880909E-01
        13    5.882897E-03
        14   -6.232926E-03
        15    1.098156E-01
        16   -5.430571E-06
        17    1.373920E-05
        18   -8.308626E-06
        19   -1.050507E-05
        20   -4.941282E-03
        21   -5.535490E-04
        22    1.158290E-04
        23   -8.741949E-05
        24   -2.840950E-05
        25    1.491107E-06
        26   -9.720440E-03
        27    4.679817E-04
        28   -8.815451E-04
        29    9.388424E-04
        30   -5.729725E-05
        31   -6.191916E-04
        32   -4.755549E-03
        33    1.693307E-03
        34   -7.190078E-06
        35   -2.304707E-06
        36   -1.171318E-03
        37    2.783174E-06
        38    3.004873E-06
        39    1.414171E-03
        40    6.863328E-06
        41    8.721635E-08
        42    1.573168E-04
        43    6.869699E-06
        44   -6.616458E-09
        45   -9.304805E-08
        46    4.424082E-06
        47   -1.798956E-05
        48   -1.253637E-03
        49   -8.638396E-05
        50   -3.763549E-07
        51    5.577979E-04
        52   -5.515628E-06
        53    1.016717E-05
        54    1.068087E-03
        55   -8.096478E-06
        56    5.237417E-04
        57   -1.171307E-02
        58   -4.783395E-07
        59    1.111120E-07
        60   -1.893422E-07
        61    7.823012E-08
        62   -3.464921E-05
        63   -4.709942E-08
        64    7.045438E-03
        65    9.705915E-07
        66   -4.050869E-06
        67    3.080277E-06
        68   -1.579154E-04
        69    5.761639E-07
        70    1.612660E-02
        71   -3.103635E-05
        72    4.423442E-06
        73    2.661291E-05
        74    1.546835E-03
        75   -3.777706E-07
        76    3.864260E-03
        77   -3.607683E-08
        78    7.749612E-06
        79    5.969659E-08
        80    1.071303E-07
        81   -4.063420E-06
        82   -3.426316E-08
        83   -5.872812E-08
        84   -6.333776E-06
        85   -4.582822E-08
        86   -1.032527E-03
        87    2.233077E-05
        88    5.044025E-05
        89   -3.762387E-05
        90   -4.003569E-04
        91   -6.120588E-03
        92   -9.627831E-04
        93   -3.784566E-04
        94   -1.961236E-04
        95   -1.872753E-01
        96    5.211146E-04
        97    1.925581E-04
        98   -1.880922E-01
        99   -6.525119E-03
       100   -5.196092E-03
       101   -1.097905E-01
       102    5.519077E-06
       103   -1.395147E-05
       104    8.432393E-06
       105   -1.021826E-05
       106    4.941170E-03
       107   -5.538051E-04
       108   -1.062219E-04
       109    8.467220E-05
       110    2.154973E-05
       111    6.964210E-06
       112    9.719922E-03
       113    4.685284E-04
       114    8.692987E-04
       115   -8.819330E-04
       116    1.263428E-05
       117   -6.765328E-04
       118    4.750238E-03
       119    1.695507E-03
       120    6.871226E-06
       121   -2.190761E-06
       122    1.171353E-03
       123   -2.565087E-06
       124    3.068365E-06
       125   -1.414195E-03
       126   -6.653631E-06
       127   -1.291503E-07
       128   -1.573401E-04
       129    6.871912E-06
       130    2.436124E-05
       131    5.626601E-05
       132   -2.286043E-04
       133    1.389870E-03
       134    1.358257E-02
       135    4.756557E-04
       136    7.382332E-04
       137    3.325805E-04
       138   -2.009460E-01
       139    9.906726E-04
       140    5.854244E-04
       141   -2.038017E-01
       142   -9.815162E-03
       143    9.139177E-03
       144   -1.318917E-01
       145    3.366460E-05
       146   -4.962241E-06
       147   -2.870236E-05
       148   -1.474915E-05
       149   -4.560728E-03
       150   -4.794977E-04
       151    2.572141E-04
       152   -6.853816E-05
       153   -1.886760E-04
       154   -1.368321E-04
       155   -7.976369E-03
       156   -4.225510E-04
       157    5.356015E-05
       158    3.590888E-04
       159   -4.126489E-04
       160   -1.822468E-03
       161    4.217712E-03
       162   -3.462053E-03
       163    9.532864E-06
       164    2.152733E-06
       165    1.321090E-03
       166   -5.443275E-06
       167    2.553685E-06
       168   -1.459279E-03
       169   -7.346404E-06
       170   -5.441879E-06
       171   -3.131496E-04
       172    4.635180E-05
       173    1.636096E-07
       174    4.515029E-07
       175   -5.271030E-06
       176    9.997738E-06
       177    1.555790E-03
       178    1.186352E-04
       179   -2.480240E-07
       180   -1.910439E-04
       181    1.836608E-06
       182    1.229701E-05
       183    2.606325E-05
       184    3.775468E-06
       185    5.756124E-04
       186    2.531469E-02
       187    1.204904E-06
       188   -2.205388E-07
       189    6.963128E-08
       190    1.509075E-07
       191    2.521616E-05
       192   -7.974676E-08
       193    7.619649E-03
       194   -2.492686E-07
       195    4.762073E-06
       196   -4.512804E-06
       197    1.250633E-04
       198    6.510238E-07
       199    1.604268E-02
       200    2.511693E-05
       201    1.088690E-05
       202   -3.600383E-05
       203    1.183938E-03
       204    2.180587E-06
       205   -8.521452E-03
       206   -3.450615E-08
       207    1.006898E-05
       208   -2.133264E-08
       209    1.532654E-07
       210   -1.231745E-05
       211    2.301543E-08
       212   -1.069706E-07
       213   -1.191502E-06
       214    5.605311E-09
       215    1.186068E-03
       216   -2.558339E-05
       217   -5.907752E-05
       218    2.433821E-04
       219   -1.434536E-03
       220   -1.619244E-02
       221   -6.255448E-04
       222   -7.397910E-04
       223    3.357394E-04
       224    2.009467E-01
       225   -1.021536E-03
       226    6.107555E-04
       227    2.038021E-01
       228    9.272677E-03
       229    1.027021E-02
       230    1.318630E-01
       231   -3.368297E-05
       232    5.201521E-06
       233    2.848145E-05
       234   -1.511382E-05
       235    4.560768E-03
       236   -4.796361E-04
       237   -2.666988E-04
       238    6.996054E-05
       239    1.967382E-04
       240   -1.425228E-04
       241    7.975897E-03
       242   -4.216962E-04
       243   -4.507437E-05
       244   -4.141540E-04
       245    4.592283E-04
       246   -1.773158E-03
       247   -4.224487E-03
       248   -3.458981E-03
       249   -9.846658E-06
       250    2.302157E-06
       251   -1.321097E-03
       252    5.705125E-06
       253    2.593111E-06
       254    1.459290E-03
       255    7.505553E-06
       256   -5.681779E-06
       257    3.131479E-04
       258    4.632800E-05
       259    9.105330E-05
       260    1.217907E-04
       261    1.095951E-03
       262   -2.972067E-05
       263   -2.201187E-05
       264    7.676715E-03
       265   -1.568159E-04
       266   -2.317123E-04
       267    6.768461E-03
       268   -9.529867E-05
       269   -1.182366E-04
       270   -7.773031E-04
       271    2.958448E-05
       272   -2.153340E-05
       273   -7.676751E-03
       274    1.221429E-04
       275   -1.453797E-04
       276   -6.767834E-03
       277   -1.528791E-04
       278   -1.181031E-04
       279    2.877132E-03
       280    3.224813E-05
       281    2.195012E-06
       282   -8.755503E-03
       283    3.651886E-04
       284    7.050547E-05
       285   -9.969108E-03
       286    1.570507E-04
       287    1.175415E-04
       288   -3.226160E-03
       289   -3.239685E-05
       290    2.538548E-06
       291    8.755320E-03
       292   -4.066051E-04
       293    1.633827E-04
       294    9.966295E-03
       295   -9.248428E-08
       296   -2.350003E-07
       297    4.454508E-07
       298   -1.876233E-06
       299   -9.145364E-06
       300    4.707114E-05
       301   -1.145948E-06
       302    2.706692E-04
       303   -4.943149E-07
       304    5.675400E-07
       305    2.375932E-04
       306   -3.529099E-07
       307    2.369702E-06
       308    6.082832E-04
       309   -4.993285E-07
       310   -1.166376E-08
       311   -2.355866E-08
       312    3.522242E-08
       313    1.004616E-04
       314    1.210866E-07
       315   -1.347572E-03
       316   -1.457973E-07
       317    3.264162E-07
       318   -1.806188E-07
       319    2.587750E-04
       320    3.570674E-07
       321   -3.593381E-03
       322    2.022291E-07
       323    4.511959E-06
       324   -4.714188E-06
       325   -2.580897E-04
       326    1.924245E-06
       327   -2.151788E-03
       328   -6.376135E-09
       329   -2.480734E-05
       330    2.624695E-09
       331    2.155948E-09
       332    3.628823E-05
       333   -2.280445E-08
       334    6.398535E-09
       335   -3.005693E-06
       336    1.928305E-08
       337   -3.891491E-04
       338    1.224274E-05
       339    3.140941E-05
       340   -4.504943E-05
       341   -1.981416E-05
       342    6.792860E-05
       343    1.777973E-04
       344   -2.959206E-03
       345   -2.309791E-03
       346    4.247875E-02
       347   -2.681136E-03
       348   -2.024683E-03
       349    3.949033E-02
       350   -2.150649E-03
       351   -1.445256E-03
       352    2.819803E-02
       353   -3.551881E-04
       354   -1.820278E-04
       355    2.033161E-03
       356    2.299348E-05
       357   -2.800826E-05
       358    5.014783E-06
       359   -2.484455E-06
       360   -1.526363E-04
       361    3.400348E-04
       362    7.478251E-05
       363   -7.514415E-05
       364    3.616382E-07
       365   -2.294767E-05
       366   -5.427260E-04
       367    1.300848E-03
       368    1.127179E-04
       369   -1.019410E-04
       370   -1.077686E-05
       371   -3.598258E-05
       372   -1.923560E-04
       373    1.865150E-04
       374   -1.839760E-06
       375   -8.317424E-06
       376   -4.722564E-05
       377    3.574972E-06
       378    1.028654E-05
       379   -3.331261E-05
       380   -1.106676E-06
       381    8.724526E-07
       382    9.667245E-05
       383   -1.122565E-04
       384   -1.239642E-05
       385   -3.177728E-05
       386    4.555986E-05
       387    2.160919E-05
       388   -9.190197E-05
       389   -1.961379E-04
       390    2.958255E-03
       391   -2.309195E-03
       392   -4.247452E-02
       393    2.680978E-03
       394   -2.023526E-03
       395   -3.948621E-02
       396    2.156016E-03
       397   -1.439519E-03
       398   -2.819637E-02
       399    3.568128E-04
       400   -1.797249E-04
       401   -2.032653E-03
       402   -2.298675E-05
       403    2.799512E-05
       404   -5.008376E-06
       405   -2.452892E-06
       406    1.526361E-04
       407    3.400062E-04
       408   -7.469721E-05
       409    7.503248E-05
       410   -3.352757E-07
       411   -2.311201E-05
       412    5.427104E-04
       413    1.300736E-03
       414   -1.129112E-04
       415    1.017290E-04
       416    1.118217E-05
       417   -3.696331E-05
       418    1.917491E-04
       419    1.871450E-04
       420    1.832354E-06
       421   -8.308081E-06
       422    4.722560E-05
       423   -3.572463E-06
       424    1.027746E-05
       425    3.330458E-05
       426    1.114102E-06
       427    8.690032E-07
       428   -9.666437E-05
       429   -1.122484E-04
       430    1.240170E-07
       431    3.297403E-07
       432   -9.700043E-07
       433    4.362198E-06
       434    7.315661E-06
       435   -3.782926E-05
       436   -1.185338E-06
       437   -1.762814E-03
       438    1.510049E-06
       439    6.726597E-07
       440   -1.874384E-03
       441    1.599104E-06
       442   -2.020329E-05
       443   -1.977154E-03
       444    2.882904E-06
       445   -3.793117E-08
       446    4.203116E-08
       447   -4.099989E-09
       448   -1.518858E-05
       449    6.163102E-09
       450    2.996630E-04
       451    3.983673E-08
       452   -3.276317E-07
       453    2.877950E-07
       454   -4.274461E-06
       455    2.361701E-07
       456    6.309644E-04
       457   -6.629477E-06
       458    2.039769E-06
       459    4.589707E-06
       460   -2.092764E-04
       461    6.868533E-08
       462   -1.938596E-04
       463    3.319911E-09
       464   -6.497302E-06
       465   -5.094039E-09
       466   -1.328788E-08
       467   -1.889040E-05
       468    1.887139E-08
       469    8.833756E-09
       470    2.760745E-05
       471   -1.203702E-08
       472    1.314715E-04
       473    6.253074E-05
       474   -2.869062E-05
       475    4.049173E-04
       476   -6.612436E-05
       477   -1.830864E-05
       478   -3.765419E-04
       479    2.193812E-04
       480   -4.849077E-05
       481   -1.750170E-03
       482   -6.180762E-05
       483    3.130522E-05
       484   -4.096623E-04
       485    6.649724E-05
       486   -1.855918E-05
       487    3.765303E-04
       488   -2.264578E-04
       489   -5.213794E-05
       490    1.748731E-03
 Sym= X
 Ene= 0.897885
 Spin= Alpha
 Occup= 0.897885
         1   -1.016344E-02
         2   -2.271437E-02
         3    2.825700E-02
         4    2.051765E-01
         5   -1.061665E+00
         6   -4.695835E-01
         7    2.398736E-02
         8    1.615200E-02
         9   -1.353225E-04
        10    1.108466E-01
        11    2.206852E-02
        12    2.456448E-03
        13    8.419824E-01
        14    5.340801E-01
        15    2.253197E-02
        16    2.303649E-03
        17   -2.812506E-04
        18   -2.022398E-03
        19   -2.131465E-03
        20    2.709673E-04
        21   -1.914530E-04
        22   -8.202638E-03
        23    1.477888E-02
        24   -6.576243E-03
        25   -4.056279E-03
        26   -5.400538E-04
        27   -2.595171E-04
        28   -5.913188E-01
        29    3.545267E-01
        30    2.367921E-01
        31   -3.211400E-01
        32    1.508763E-02
        33   -1.578618E-02
        34   -2.975931E-05
        35    1.330088E-04
        36    1.416626E-05
        37    7.245599E-04
        38    7.365612E-05
        39   -7.130369E-06
        40   -6.846336E-04
        41   -2.521061E-04
        42   -1.187567E-05
        43    2.248884E-05
        44   -7.571808E-03
        45   -1.658880E-02
        46    1.119193E-02
        47    2.345800E-01
        48   -6.677585E-03
        49   -6.158802E-01
        50    1.234820E-02
        51    9.838603E-07
        52    5.386410E-03
        53    8.626194E-02
        54    3.479725E-05
        55    9.275756E-03
        56    1.570960E+00
        57    2.006930E-03
        58   -6.422938E-02
        59   -2.229454E-03
        60    4.635469E-03
        61   -2.406015E-03
        62   -1.031728E-07