[Molden Format]
[Title]
ADC(2) - opt by CAM-B3LYP gaussian                                              
[Atoms] AU
 c     1    6 0.12593230616935E+01 0.22795690751954E+01 -.36278607975490E-01
 c     2    6 0.25504236399298E+01 0.18897261300000E-05 -.34511714041240E-01
 c     3    6 0.12593268411458E+01 -.22795652957431E+01 -.36289946332290E-01
 c     4    6 -.13369660030996E+01 -.22791608943507E+01 -.39583738981910E-01
 c     5    6 -.26856068523561E+01 -.18897261300000E-05 -.40110972572980E-01
 c     6    6 -.13369678928258E+01 0.22791590046246E+01 -.39570510898980E-01
 h     7    1 0.23068095955089E+01 0.40296066523382E+01 -.33243707806080E-01
 h     8    1 0.23068152646873E+01 -.40296028728859E+01 -.33262605067400E-01
 h     9    1 -.23553205188504E+01 -.40525668248527E+01 -.45200005048840E-01
 h    10    1 -.23553280777549E+01 0.40525630454004E+01 -.45173548882980E-01
 n    11    7 0.52878147756133E+01 0.00000000000000E+00 -.27472484196240E-01
 o    12    8 0.63764576548767E+01 -.20283488830896E+01 -.24482937454020E-01
 o    13    8 0.63764614343290E+01 0.20283469933635E+01 -.24515062798280E-01
 n    14    7 -.52636676188715E+01 0.00000000000000E+00 -.10786332361533E+00
 h    15    1 -.61947904866021E+01 -.16076731691957E+01 0.28377485852069E+00
 h    16    1 -.61947848174237E+01 0.16076731691957E+01 0.28378430715135E+00
[GTO]
    1 0
 s    6 1.00
 0.13575349682000E+05 0.60645503603591E-03
 0.20352333680000E+04 0.46979088884982E-02
 0.46322562359000E+03 0.24332477647552E-01
 0.13120019598000E+03 0.97399968307759E-01
 0.42853015891000E+02 0.30195584253780E+00
 0.15584185766000E+02 0.66233609137875E+00
 s    2 1.00
 0.62067138508000E+01 0.65595308539952E+00
 0.25764896527000E+01 0.37585633285142E+00
 s    1 1.00
 0.57696339419000E+00 0.10000000000000E+01
 s    1 1.00
 0.22972831358000E+00 0.10000000000000E+01
 s    1 1.00
 0.95164440028000E-01 0.10000000000000E+01
 s    1 1.00
 0.48475401370000E-01 0.10000000000000E+01
 p    4 1.00
 0.34697232244000E+02 0.11327220003114E-01
 0.79582622826000E+01 0.76169659202087E-01
 0.23780826883000E+01 0.30192252202676E+00
 0.81433208183000E+00 0.72785027349547E+00
 p    1 1.00
 0.28887547253000E+00 0.10000000000000E+01
 p    1 1.00
 0.10056823671000E+00 0.10000000000000E+01
 d    1 1.00
 0.10970000000000E+01 0.10000000000000E+01
 d    1 1.00
 0.31800000000000E+00 0.10000000000000E+01
 d    1 1.00
 0.90985336424000E-01 0.10000000000000E+01
 f    1 1.00
 0.76100000000000E+00 0.10000000000000E+01
 
    2 0
 s    6 1.00
 0.13575349682000E+05 0.60645503603591E-03
 0.20352333680000E+04 0.46979088884982E-02
 0.46322562359000E+03 0.24332477647552E-01
 0.13120019598000E+03 0.97399968307759E-01
 0.42853015891000E+02 0.30195584253780E+00
 0.15584185766000E+02 0.66233609137875E+00
 s    2 1.00
 0.62067138508000E+01 0.65595308539952E+00
 0.25764896527000E+01 0.37585633285142E+00
 s    1 1.00
 0.57696339419000E+00 0.10000000000000E+01
 s    1 1.00
 0.22972831358000E+00 0.10000000000000E+01
 s    1 1.00
 0.95164440028000E-01 0.10000000000000E+01
 s    1 1.00
 0.48475401370000E-01 0.10000000000000E+01
 p    4 1.00
 0.34697232244000E+02 0.11327220003114E-01
 0.79582622826000E+01 0.76169659202087E-01
 0.23780826883000E+01 0.30192252202676E+00
 0.81433208183000E+00 0.72785027349547E+00
 p    1 1.00
 0.28887547253000E+00 0.10000000000000E+01
 p    1 1.00
 0.10056823671000E+00 0.10000000000000E+01
 d    1 1.00
 0.10970000000000E+01 0.10000000000000E+01
 d    1 1.00
 0.31800000000000E+00 0.10000000000000E+01
 d    1 1.00
 0.90985336424000E-01 0.10000000000000E+01
 f    1 1.00
 0.76100000000000E+00 0.10000000000000E+01
 
    3 0
 s    6 1.00
 0.13575349682000E+05 0.60645503603591E-03
 0.20352333680000E+04 0.46979088884982E-02
 0.46322562359000E+03 0.24332477647552E-01
 0.13120019598000E+03 0.97399968307759E-01
 0.42853015891000E+02 0.30195584253780E+00
 0.15584185766000E+02 0.66233609137875E+00
 s    2 1.00
 0.62067138508000E+01 0.65595308539952E+00
 0.25764896527000E+01 0.37585633285142E+00
 s    1 1.00
 0.57696339419000E+00 0.10000000000000E+01
 s    1 1.00
 0.22972831358000E+00 0.10000000000000E+01
 s    1 1.00
 0.95164440028000E-01 0.10000000000000E+01
 s    1 1.00
 0.48475401370000E-01 0.10000000000000E+01
 p    4 1.00
 0.34697232244000E+02 0.11327220003114E-01
 0.79582622826000E+01 0.76169659202087E-01
 0.23780826883000E+01 0.30192252202676E+00
 0.81433208183000E+00 0.72785027349547E+00
 p    1 1.00
 0.28887547253000E+00 0.10000000000000E+01
 p    1 1.00
 0.10056823671000E+00 0.10000000000000E+01
 d    1 1.00
 0.10970000000000E+01 0.10000000000000E+01
 d    1 1.00
 0.31800000000000E+00 0.10000000000000E+01
 d    1 1.00
 0.90985336424000E-01 0.10000000000000E+01
 f    1 1.00
 0.76100000000000E+00 0.10000000000000E+01
 
    4 0
 s    6 1.00
 0.13575349682000E+05 0.60645503603591E-03
 0.20352333680000E+04 0.46979088884982E-02
 0.46322562359000E+03 0.24332477647552E-01
 0.13120019598000E+03 0.97399968307759E-01
 0.42853015891000E+02 0.30195584253780E+00
 0.15584185766000E+02 0.66233609137875E+00
 s    2 1.00
 0.62067138508000E+01 0.65595308539952E+00
 0.25764896527000E+01 0.37585633285142E+00
 s    1 1.00
 0.57696339419000E+00 0.10000000000000E+01
 s    1 1.00
 0.22972831358000E+00 0.10000000000000E+01
 s    1 1.00
 0.95164440028000E-01 0.10000000000000E+01
 s    1 1.00
 0.48475401370000E-01 0.10000000000000E+01
 p    4 1.00
 0.34697232244000E+02 0.11327220003114E-01
 0.79582622826000E+01 0.76169659202087E-01
 0.23780826883000E+01 0.30192252202676E+00
 0.81433208183000E+00 0.72785027349547E+00
 p    1 1.00
 0.28887547253000E+00 0.10000000000000E+01
 p    1 1.00
 0.10056823671000E+00 0.10000000000000E+01
 d    1 1.00
 0.10970000000000E+01 0.10000000000000E+01
 d    1 1.00
 0.31800000000000E+00 0.10000000000000E+01
 d    1 1.00
 0.90985336424000E-01 0.10000000000000E+01
 f    1 1.00
 0.76100000000000E+00 0.10000000000000E+01
 
    5 0
 s    6 1.00
 0.13575349682000E+05 0.60645503603591E-03
 0.20352333680000E+04 0.46979088884982E-02
 0.46322562359000E+03 0.24332477647552E-01
 0.13120019598000E+03 0.97399968307759E-01
 0.42853015891000E+02 0.30195584253780E+00
 0.15584185766000E+02 0.66233609137875E+00
 s    2 1.00
 0.62067138508000E+01 0.65595308539952E+00
 0.25764896527000E+01 0.37585633285142E+00
 s    1 1.00
 0.57696339419000E+00 0.10000000000000E+01
 s    1 1.00
 0.22972831358000E+00 0.10000000000000E+01
 s    1 1.00
 0.95164440028000E-01 0.10000000000000E+01
 s    1 1.00
 0.48475401370000E-01 0.10000000000000E+01
 p    4 1.00
 0.34697232244000E+02 0.11327220003114E-01
 0.79582622826000E+01 0.76169659202087E-01
 0.23780826883000E+01 0.30192252202676E+00
 0.81433208183000E+00 0.72785027349547E+00
 p    1 1.00
 0.28887547253000E+00 0.10000000000000E+01
 p    1 1.00
 0.10056823671000E+00 0.10000000000000E+01
 d    1 1.00
 0.10970000000000E+01 0.10000000000000E+01
 d    1 1.00
 0.31800000000000E+00 0.10000000000000E+01
 d    1 1.00
 0.90985336424000E-01 0.10000000000000E+01
 f    1 1.00
 0.76100000000000E+00 0.10000000000000E+01
 
    6 0
 s    6 1.00
 0.13575349682000E+05 0.60645503603591E-03
 0.20352333680000E+04 0.46979088884982E-02
 0.46322562359000E+03 0.24332477647552E-01
 0.13120019598000E+03 0.97399968307759E-01
 0.42853015891000E+02 0.30195584253780E+00
 0.15584185766000E+02 0.66233609137875E+00
 s    2 1.00
 0.62067138508000E+01 0.65595308539952E+00
 0.25764896527000E+01 0.37585633285142E+00
 s    1 1.00
 0.57696339419000E+00 0.10000000000000E+01
 s    1 1.00
 0.22972831358000E+00 0.10000000000000E+01
 s    1 1.00
 0.95164440028000E-01 0.10000000000000E+01
 s    1 1.00
 0.48475401370000E-01 0.10000000000000E+01
 p    4 1.00
 0.34697232244000E+02 0.11327220003114E-01
 0.79582622826000E+01 0.76169659202087E-01
 0.23780826883000E+01 0.30192252202676E+00
 0.81433208183000E+00 0.72785027349547E+00
 p    1 1.00
 0.28887547253000E+00 0.10000000000000E+01
 p    1 1.00
 0.10056823671000E+00 0.10000000000000E+01
 d    1 1.00
 0.10970000000000E+01 0.10000000000000E+01
 d    1 1.00
 0.31800000000000E+00 0.10000000000000E+01
 d    1 1.00
 0.90985336424000E-01 0.10000000000000E+01
 f    1 1.00
 0.76100000000000E+00 0.10000000000000E+01
 
    7 0
 s    3 1.00
 0.34061341000000E+02 0.25439307208879E-01
 0.51235746000000E+01 0.19008594890375E+00
 0.11646626000000E+01 0.85244113011042E+00
 s    1 1.00
 0.32723041000000E+00 0.10000000000000E+01
 s    1 1.00
 0.10307241000000E+00 0.10000000000000E+01
 p    1 1.00
 0.80000000000000E+00 0.10000000000000E+01
 p    1 1.00
 0.95774129632000E-01 0.10000000000000E+01
 
    8 0
 s    3 1.00
 0.34061341000000E+02 0.25439307208879E-01
 0.51235746000000E+01 0.19008594890375E+00
 0.11646626000000E+01 0.85244113011042E+00
 s    1 1.00
 0.32723041000000E+00 0.10000000000000E+01
 s    1 1.00
 0.10307241000000E+00 0.10000000000000E+01
 p    1 1.00
 0.80000000000000E+00 0.10000000000000E+01
 p    1 1.00
 0.95774129632000E-01 0.10000000000000E+01
 
    9 0
 s    3 1.00
 0.34061341000000E+02 0.25439307208879E-01
 0.51235746000000E+01 0.19008594890375E+00
 0.11646626000000E+01 0.85244113011042E+00
 s    1 1.00
 0.32723041000000E+00 0.10000000000000E+01
 s    1 1.00
 0.10307241000000E+00 0.10000000000000E+01
 p    1 1.00
 0.80000000000000E+00 0.10000000000000E+01
 p    1 1.00
 0.95774129632000E-01 0.10000000000000E+01
 
   10 0
 s    3 1.00
 0.34061341000000E+02 0.25439307208879E-01
 0.51235746000000E+01 0.19008594890375E+00
 0.11646626000000E+01 0.85244113011042E+00
 s    1 1.00
 0.32723041000000E+00 0.10000000000000E+01
 s    1 1.00
 0.10307241000000E+00 0.10000000000000E+01
 p    1 1.00
 0.80000000000000E+00 0.10000000000000E+01
 p    1 1.00
 0.95774129632000E-01 0.10000000000000E+01
 
   11 0
 s    6 1.00
 0.19730800647000E+05 0.58626402628763E-03
 0.29578958745000E+04 0.45428820586397E-02
 0.67322133595000E+03 0.23558413450084E-01
 0.19068249494000E+03 0.94709193292923E-01
 0.62295441898000E+02 0.29719784913376E+00
 0.22654161182000E+02 0.66916246895232E+00
 s    2 1.00
 0.89791477428000E+01 0.64596683630063E+00
 0.36863002370000E+01 0.38700574393705E+00
 s    1 1.00
 0.84660076805000E+00 0.10000000000000E+01
 s    1 1.00
 0.33647133771000E+00 0.10000000000000E+01
 s    1 1.00
 0.13647653675000E+00 0.10000000000000E+01
 s    1 1.00
 0.68441605847000E-01 0.10000000000000E+01
 p    4 1.00
 0.49200380510000E+02 0.11448825101764E-01
 0.11346790537000E+02 0.78422337970864E-01
 0.34273972411000E+01 0.30818094738830E+00
 0.11785525134000E+01 0.72027196368413E+00
 p    1 1.00
 0.41642204972000E+00 0.10000000000000E+01
 p    1 1.00
 0.14260826011000E+00 0.10000000000000E+01
 d    1 1.00
 0.16540000000000E+01 0.10000000000000E+01
 d    1 1.00
 0.46900000000000E+00 0.10000000000000E+01
 d    1 1.00
 0.12829642058000E+00 0.10000000000000E+01
 f    1 1.00
 0.10930000000000E+01 0.10000000000000E+01
 
   12 0
 s    6 1.00
 0.27032382631000E+05 0.57227335211155E-03
 0.40523871392000E+04 0.44353233492995E-02
 0.92232722710000E+03 0.23020107706038E-01
 0.26124070989000E+03 0.92822490667928E-01
 0.85354641351000E+02 0.29378500009671E+00
 0.31035035245000E+02 0.67401604501641E+00
 s    2 1.00
 0.12260860728000E+02 0.63839937025506E+00
 0.49987076005000E+01 0.39534587125718E+00
 s    1 1.00
 0.11703108158000E+01 0.10000000000000E+01
 s    1 1.00
 0.46474740994000E+00 0.10000000000000E+01
 s    1 1.00
 0.18504536357000E+00 0.10000000000000E+01
 s    1 1.00
 0.70288026270000E-01 0.10000000000000E+01
 p    4 1.00
 0.63274954801000E+02 0.12018332222616E-01
 0.14627049379000E+02 0.83005421790056E-01
 0.44501223456000E+01 0.31991743925964E+00
 0.15275799647000E+01 0.70715542916104E+00
 p    1 1.00
 0.52935117943000E+00 0.10000000000000E+01
 p    1 1.00
 0.17478421270000E+00 0.10000000000000E+01
 p    1 1.00
 0.51112745706000E-01 0.10000000000000E+01
 d    1 1.00
 0.23140000000000E+01 0.10000000000000E+01
 d    1 1.00
 0.64500000000000E+00 0.10000000000000E+01
 d    1 1.00
 0.14696477366000E+00 0.10000000000000E+01
 f    1 1.00
 0.14280000000000E+01 0.10000000000000E+01
 
   13 0
 s    6 1.00
 0.27032382631000E+05 0.57227335211155E-03
 0.40523871392000E+04 0.44353233492995E-02
 0.92232722710000E+03 0.23020107706038E-01
 0.26124070989000E+03 0.92822490667928E-01
 0.85354641351000E+02 0.29378500009671E+00
 0.31035035245000E+02 0.67401604501641E+00
 s    2 1.00
 0.12260860728000E+02 0.63839937025506E+00
 0.49987076005000E+01 0.39534587125718E+00
 s    1 1.00
 0.11703108158000E+01 0.10000000000000E+01
 s    1 1.00
 0.46474740994000E+00 0.10000000000000E+01
 s    1 1.00
 0.18504536357000E+00 0.10000000000000E+01
 s    1 1.00
 0.70288026270000E-01 0.10000000000000E+01
 p    4 1.00
 0.63274954801000E+02 0.12018332222616E-01
 0.14627049379000E+02 0.83005421790056E-01
 0.44501223456000E+01 0.31991743925964E+00
 0.15275799647000E+01 0.70715542916104E+00
 p    1 1.00
 0.52935117943000E+00 0.10000000000000E+01
 p    1 1.00
 0.17478421270000E+00 0.10000000000000E+01
 p    1 1.00
 0.51112745706000E-01 0.10000000000000E+01
 d    1 1.00
 0.23140000000000E+01 0.10000000000000E+01
 d    1 1.00
 0.64500000000000E+00 0.10000000000000E+01
 d    1 1.00
 0.14696477366000E+00 0.10000000000000E+01
 f    1 1.00
 0.14280000000000E+01 0.10000000000000E+01
 
   14 0
 s    6 1.00
 0.19730800647000E+05 0.58626402628763E-03
 0.29578958745000E+04 0.45428820586397E-02
 0.67322133595000E+03 0.23558413450084E-01
 0.19068249494000E+03 0.94709193292923E-01
 0.62295441898000E+02 0.29719784913376E+00
 0.22654161182000E+02 0.66916246895232E+00
 s    2 1.00
 0.89791477428000E+01 0.64596683630063E+00
 0.36863002370000E+01 0.38700574393705E+00
 s    1 1.00
 0.84660076805000E+00 0.10000000000000E+01
 s    1 1.00
 0.33647133771000E+00 0.10000000000000E+01
 s    1 1.00
 0.13647653675000E+00 0.10000000000000E+01
 s    1 1.00
 0.68441605847000E-01 0.10000000000000E+01
 p    4 1.00
 0.49200380510000E+02 0.11448825101764E-01
 0.11346790537000E+02 0.78422337970864E-01
 0.34273972411000E+01 0.30818094738830E+00
 0.11785525134000E+01 0.72027196368413E+00
 p    1 1.00
 0.41642204972000E+00 0.10000000000000E+01
 p    1 1.00
 0.14260826011000E+00 0.10000000000000E+01
 d    1 1.00
 0.16540000000000E+01 0.10000000000000E+01
 d    1 1.00
 0.46900000000000E+00 0.10000000000000E+01
 d    1 1.00
 0.12829642058000E+00 0.10000000000000E+01
 f    1 1.00
 0.10930000000000E+01 0.10000000000000E+01
 
   15 0
 s    3 1.00
 0.34061341000000E+02 0.25439307208879E-01
 0.51235746000000E+01 0.19008594890375E+00
 0.11646626000000E+01 0.85244113011042E+00
 s    1 1.00
 0.32723041000000E+00 0.10000000000000E+01
 s    1 1.00
 0.10307241000000E+00 0.10000000000000E+01
 p    1 1.00
 0.80000000000000E+00 0.10000000000000E+01
 p    1 1.00
 0.95774129632000E-01 0.10000000000000E+01
 
   16 0
 s    3 1.00
 0.34061341000000E+02 0.25439307208879E-01
 0.51235746000000E+01 0.19008594890375E+00
 0.11646626000000E+01 0.85244113011042E+00
 s    1 1.00
 0.32723041000000E+00 0.10000000000000E+01
 s    1 1.00
 0.10307241000000E+00 0.10000000000000E+01
 p    1 1.00
 0.80000000000000E+00 0.10000000000000E+01
 p    1 1.00
 0.95774129632000E-01 0.10000000000000E+01
 
[MO]
 Sym= X
 Ene= -0.898190
 Spin= Alpha
 Occup= -0.898190
         1    2.763154E-04
         2    6.397998E-04
         3   -1.832013E-03
         4    4.530603E-03
         5   -3.078981E-02
         6    1.672441E-02
         7    2.259211E-03
         8    7.508639E-05
         9   -3.585242E-02
        10   -4.056410E-03
        11    5.537179E-04
        12   -3.391395E-02
        13   -4.143833E-02
        14    1.857830E-02
        15   -1.641732E-02
        16   -1.172666E-07
        17    1.703913E-05
        18   -1.692187E-05
        19    5.624129E-06
        20   -6.135570E-03
        21    3.943568E-03
        22    9.920875E-04
        23   -5.872416E-04
        24   -4.048459E-04
        25    1.031429E-03
        26   -1.395452E-02
        27    7.393213E-03
        28    4.121279E-03
        29   -3.810902E-03
        30   -3.103767E-04
        31   -2.215849E-03
        32    3.418173E-03
        33   -9.704604E-03
        34   -3.172225E-05
        35    7.054826E-06
        36    1.574023E-04
        37    1.404833E-05
        38   -5.462173E-06
        39    6.770858E-04
        40    2.851153E-05
        41   -4.002869E-06
        42   -8.882631E-04
        43    6.916973E-04
        44   -3.496170E-05
        45   -7.624569E-05
        46   -2.461532E-04
        47    4.747908E-03
        48    7.504687E-02
        49   -8.416144E-03
        50    2.878231E-04
        51    1.912633E-06
        52   -2.041983E-01
        53   -8.937841E-04
        54    1.011202E-05
        55   -2.113752E-01
        56   -1.856717E-02
        57   -3.067962E-04
        58   -1.933283E-01
        59   -6.106132E-05
        60    5.558927E-05
        61    5.472051E-06
        62   -1.030473E-07
        63   -1.496986E-04
        64    6.383041E-08
        65   -5.583717E-04
        66    9.320651E-04
        67   -3.736933E-04
        68   -1.810419E-06
        69   -2.054866E-03
        70   -3.788035E-07
        71   -1.789100E-02
        72    2.000905E-02
        73   -2.118059E-03
        74    5.888169E-05
        75    4.060553E-03
        76   -2.082165E-05
        77    9.811668E-06
        78    2.668830E-08
        79    1.156784E-03
        80   -1.037869E-05
        81    1.260362E-08
        82   -6.397553E-04
        83   -2.785039E-06
        84   -4.840973E-08
        85   -9.122337E-04
        86    1.208904E-08
        87    2.765791E-04
        88    6.403830E-04
        89   -1.833074E-03
        90    4.531582E-03
        91   -3.154116E-02
        92    1.672060E-02
        93    2.259371E-03
        94   -7.689868E-05
        95   -3.585337E-02
        96   -4.037020E-03
        97   -5.508172E-04
        98   -3.391529E-02
        99   -4.157524E-02
       100   -1.885307E-02
       101   -1.643782E-02
       102   -1.637029E-07
       103    1.703019E-05
       104   -1.686649E-05
       105   -5.781566E-06
       106   -6.135698E-03
       107   -3.943636E-03
       108    9.882255E-04
       109   -5.834084E-04
       110   -4.048171E-04
       111   -1.030004E-03
       112   -1.395425E-02
       113   -7.393100E-03
       114    4.186139E-03
       115   -3.882869E-03
       116   -3.032704E-04
       117    2.152291E-03
       118    3.394179E-03
       119    9.688669E-03
       120   -3.172509E-05
       121   -7.033409E-06
       122    1.573981E-04
       123    1.410960E-05
       124    5.436044E-06
       125    6.771101E-04
       126    2.845407E-05
       127    4.000265E-06
       128   -8.882817E-04
       129   -6.916850E-04
       130   -1.910359E-04
       131   -4.145652E-04
       132   -6.372368E-04
       133    1.423466E-02
       134   -5.903744E-03
       135   -1.999992E-02
       136   -1.939067E-03
       137    7.374114E-04
       138    1.514755E-01
       139   -1.350016E-02
       140    8.749731E-03
       141    1.539936E-01
       142   -1.618799E-02
       143   -1.113322E-02
       144    9.606645E-02
       145   -1.928005E-04
       146    2.346405E-04
       147   -4.183994E-05
       148    2.175925E-06
       149   -1.364194E-03
       150    3.225140E-03
       151   -1.029842E-03
       152    1.130455E-03
       153   -1.006124E-04
       154   -2.364595E-03
       155   -5.369605E-03
       156    5.302717E-03
       157   -1.038035E-02
       158    7.637917E-03
       159    2.742434E-03
       160    1.644175E-02
       161    4.379515E-03
       162   -1.108823E-02
       163   -2.602559E-05
       164    1.090994E-05
       165   -8.631339E-04
       166   -2.312661E-05
       167    2.738299E-05
       168    1.654568E-04
       169    5.804361E-05
       170   -4.202022E-05
       171    9.925588E-04
       172   -3.836852E-04
       173    1.509101E-03
       174    3.438004E-03
       175   -3.279641E-03
       176   -3.225499E-02
       177    6.514416E-02
       178   -9.877361E-03
       179    1.178766E-02
       180   -1.604690E-06
       181    1.288302E-01
       182    7.317186E-05
       183   -6.598709E-06
       184    1.318832E-01
       185   -5.902982E-02
       186    4.082016E-04
       187    1.377769E-01
       188   -6.699304E-04
       189    3.750071E-04
       190    2.949232E-04
       191   -1.859945E-07
       192    9.397369E-03
       193    1.036025E-07
       194    2.565764E-03
       195   -5.756876E-03
       196    3.191112E-03
       197   -1.334949E-06
       198    2.337836E-02
       199   -1.578359E-06
       200    1.183725E-02
       201   -1.304561E-02
       202    1.208365E-03
       203    9.691930E-05
       204    1.434676E-02
       205    1.851621E-05
       206    1.607889E-04
       207    2.269042E-09
       208   -4.234304E-04
       209   -1.200865E-04
       210   -3.003772E-08
       211   -9.484614E-04
       212   -9.563452E-05
       213    2.699348E-08
       214    1.516553E-03
       215   -4.813014E-08
       216   -1.912296E-04
       217   -4.149593E-04
       218   -6.363410E-04
       219    1.423536E-02
       220   -6.876495E-03
       221   -1.998277E-02
       222   -1.938754E-03
       223   -7.334171E-04
       224    1.514731E-01
       225   -1.351018E-02
       226   -8.750738E-03
       227    1.539951E-01
       228   -1.605390E-02
       229    1.154072E-02
       230    9.603519E-02
       231   -1.927333E-04
       232    2.347808E-04
       233   -4.204750E-05
       234   -2.419206E-06
       235   -1.364248E-03
       236   -3.225173E-03
       237   -1.033189E-03
       238    1.133635E-03
       239   -1.004456E-04
       240    2.365779E-03
       241   -5.369369E-03
       242   -5.303042E-03
       243   -1.031973E-02
       244    7.577801E-03
       245    2.741926E-03
       246   -1.650503E-02
       247    4.406642E-03
       248    1.111057E-02
       249   -2.609048E-05
       250   -1.094482E-05
       251   -8.631962E-04
       252   -2.316527E-05
       253   -2.732861E-05
       254    1.655062E-04
       255    5.816932E-05
       256    4.201263E-05
       257    9.925931E-04
       258    3.837066E-04
       259    3.692677E-04
       260   -1.988164E-05
       261    2.286634E-02
       262   -2.692116E-06
       263    3.649303E-05
       264   -1.432013E-03
       265   -7.100239E-03
       266   -1.123087E-03
       267    5.105055E-03
       268    3.702898E-04
       269   -2.204580E-05
       270    2.286192E-02
       271   -2.327449E-06
       272   -3.691549E-05
       273   -1.432034E-03
       274   -7.163825E-03
       275    1.098865E-03
       276    5.105195E-03
       277    6.344124E-04
       278    3.493764E-03
       279   -5.168877E-02
       280   -2.214825E-05
       281    1.497370E-04
       282    6.196713E-03
       283   -1.259286E-03
       284   -4.577161E-03
       285    5.251102E-04
       286    6.370334E-04
       287    3.493399E-03
       288   -5.179421E-02
       289   -2.198529E-05
       290   -1.496347E-04
       291    6.196770E-03
       292   -1.227602E-03
       293    4.603642E-03
       294    5.192916E-04
       295    5.994534E-05
       296    1.395312E-04
       297   -1.353239E-04
       298   -3.010329E-04
       299    1.156393E-02
       300    1.087968E-03
       301    6.893712E-04
       302   -3.360392E-07
       303   -9.253650E-03
       304    2.005818E-04
       305   -4.374953E-07
       306   -1.171355E-02
       307   -4.136128E-03
       308   -1.606205E-06
       309   -1.748366E-03
       310   -3.333672E-05
       311    1.862331E-05
       312    1.471341E-05
       313    5.768546E-09
       314    4.197351E-03
       315    2.286363E-08
       316   -2.366415E-05
       317   -5.561119E-05
       318    7.927533E-05
       319    6.184526E-08
       320    1.251036E-02
       321    8.904811E-08
       322    6.303559E-04
       323   -3.842582E-03
       324    3.212226E-03
       325   -7.869252E-06
       326    3.144766E-03
       327    4.054210E-06
       328    9.172165E-06
       329   -3.357016E-09
       330   -1.287074E-05
       331   -6.143362E-06
       332    1.624445E-08
       333   -6.774404E-04
       334   -6.162388E-06
       335   -1.174055E-08
       336    6.947083E-04
       337    9.976231E-09
       338    1.691023E-05
       339    3.580132E-05
       340    1.378782E-05
       341   -7.549764E-04
       342    8.856486E-03
       343    1.801790E-03
       344   -4.868723E-04
       345    1.255839E-04
       346    7.333180E-02
       347   -6.278858E-04
       348    3.057403E-04
       349    6.795194E-02
       350   -1.743650E-03
       351    8.895617E-04
       352    5.286174E-02
       353   -4.003643E-04
       354    2.976386E-04
       355    5.935259E-03
       356   -3.742061E-06
       357    6.287854E-06
       358   -2.545793E-06
       359   -3.173873E-06
       360   -4.106087E-05
       361    5.414942E-04
       362    1.633428E-05
       363    1.418319E-05
       364   -3.051747E-05
       365   -1.960433E-05
       366   -6.402018E-04
       367    1.729372E-03
       368    8.302741E-05
       369   -2.433044E-06
       370   -8.059436E-05
       371    1.336367E-05
       372   -7.233432E-04
       373    3.497883E-04
       374    1.261708E-06
       375    2.112237E-06
       376   -7.167966E-05
       377   -2.172223E-06
       378    1.592636E-08
       379   -8.614563E-05
       380    4.794638E-07
       381   -2.849790E-06
       382    1.823140E-04
       383   -1.443109E-04
       384    1.688442E-05
       385    3.574525E-05
       386    1.379956E-05
       387   -7.545786E-04
       388    8.865227E-03
       389    1.788454E-03
       390   -4.836601E-04
       391   -1.254575E-04
       392    7.333321E-02
       393   -6.251112E-04
       394   -3.056873E-04
       395    6.795370E-02
       396   -1.736257E-03
       397   -8.931549E-04
       398    5.285586E-02
       399   -3.939785E-04
       400   -3.001770E-04
       401    5.935694E-03
       402   -3.742740E-06
       403    6.265117E-06
       404   -2.522377E-06
       405    3.164486E-06
       406   -4.108750E-05
       407   -5.415200E-04
       408    1.620453E-05
       409    1.421502E-05
       410   -3.041955E-05
       411    1.948916E-05
       412   -6.401517E-04
       413   -1.729285E-03
       414    8.354379E-05
       415   -3.101489E-06
       416   -8.044230E-05
       417   -1.261527E-05
       418   -7.231649E-04
       419   -3.489022E-04
       420    1.258372E-06
       421   -2.107699E-06
       422   -7.168473E-05
       423   -2.163707E-06
       424   -7.479668E-09
       425   -8.613940E-05
       426    4.754238E-07
       427    2.835254E-06
       428    1.823146E-04
       429    1.443124E-04
       430   -7.137969E-03
       431   -1.692270E-02
       432    2.617575E-02
       433    4.288115E-02
       434    1.530703E-02
       435    9.198524E-02
       436   -2.486847E-02
       437    5.345401E-06
       438   -2.452364E-01
       439   -2.834637E-02
       440    1.670323E-06
       441   -2.415890E-01
       442   -3.193000E-02
       443   -4.035866E-05
       444   -1.992557E-01
       445    1.905182E-04
       446    4.982185E-05
       447   -2.403400E-04
       448   -1.126248E-07
       449    1.091734E-03
       450    1.662206E-07
       451    4.224361E-04
       452    2.276912E-03
       453   -2.699348E-03
       454    1.449016E-06
       455    4.174860E-03
       456    7.986041E-07
       457    3.327115E-03
       458    5.664025E-03
       459   -8.991140E-03
       460    3.869148E-06
       461    2.574547E-03
       462    3.779747E-06
       463   -2.002759E-04
       464    3.077104E-08
       465    8.949012E-04
       466   -1.298069E-04
       467    1.041397E-08
       468   -4.239841E-04
       469    3.985052E-04
       470   -5.169765E-08
       471   -7.766519E-04
       472   -1.370302E-09
       473   -1.321844E-02
       474   -2.601788E-02
       475   -5.000311E-02
       476   -3.090879E-03
       477   -2.634752E-03
       478   -1.231193E-02
       479    4.199977E-04
       480   -5.655995E-03
       481   -1.479442E-02
       482   -1.321492E-02
       483   -2.598616E-02
       484   -4.986071E-02
       485   -3.088999E-03
       486    2.632128E-03
       487   -1.231418E-02
       488    4.468788E-04
       489    5.641334E-03
       490   -1.480455E-02
 Sym= X
 Ene= 0.898190
 Spin= Alpha
 Occup= 0.898190
         1   -3.847077E-03
         2   -8.965890E-03
         3    1.871533E-02
         4   -2.001294E-02
         5    2.905772E+00
         6    8.576747E-01
         7    2.317951E-02
         8    3.671137E-02
         9    2.417769E-03
        10   -4.532692E-03
        11    1.088795E-01
        12    2.129102E-04
        13   -1.963403E-02
        14   -1.510319E+00
        15    6.233827E-03
        16    2.280436E-03
        17   -5.569264E-03
        18    3.288829E-03
        19   -3.158721E-03
        20   -9.028707E-05
        21    1.070786E-04
        22   -6.792283E-03
        23   -5.854643E-03
        24    1.264693E-02
        25    9.710081E-04
        26    8.998715E-04
        27    6.382147E-05
        28   -2.406477E-01
        29    8.200436E-02
        30    1.586433E-01
        31   -7.384677E-01
        32   -1.782585E-02
        33    3.292241E-02
        34   -6.898128E-05
        35    2.784570E-04
        36    2.287981E-05
        37    4.900032E-04
        38    3.009363E-04
        39   -5.617807E-05
        40   -3.974551E-04
        41   -6.745255E-04
        42    2.548158E-05
        43   -1.300724E-05
        44   -3.319092E-04
        45   -1.159646E-03
        46    5.839321E-03
        47   -1.067649E-01
        48   -6.030461E+00
        49    4.239670E+00
        50    5.828246E-02
        51   -1.337630E-06
        52   -2.781084E-03
        53    4.130554E-02
        54   -5.763083E-05
        55   -5.561533E-03
        56    2.724567E+00
        57   -1.014373E-03
        58    1.221998E-01
        59   -6.370836E-03
        60    2.178109E-03
        61    4.192727E-03
        62   -2.411966E-07