[Molden Format]
[Title]
ADC(2) - opt by CAM-B3LYP gaussian                                              
[Atoms] AU
 c     1    6 0.12593230616935E+01 0.22795690751954E+01 -.36278607975490E-01
 c     2    6 0.25504236399298E+01 0.18897261300000E-05 -.34511714041240E-01
 c     3    6 0.12593268411458E+01 -.22795652957431E+01 -.36289946332290E-01
 c     4    6 -.13369660030996E+01 -.22791608943507E+01 -.39583738981910E-01
 c     5    6 -.26856068523561E+01 -.18897261300000E-05 -.40110972572980E-01
 c     6    6 -.13369678928258E+01 0.22791590046246E+01 -.39570510898980E-01
 h     7    1 0.23068095955089E+01 0.40296066523382E+01 -.33243707806080E-01
 h     8    1 0.23068152646873E+01 -.40296028728859E+01 -.33262605067400E-01
 h     9    1 -.23553205188504E+01 -.40525668248527E+01 -.45200005048840E-01
 h    10    1 -.23553280777549E+01 0.40525630454004E+01 -.45173548882980E-01
 n    11    7 0.52878147756133E+01 0.00000000000000E+00 -.27472484196240E-01
 o    12    8 0.63764576548767E+01 -.20283488830896E+01 -.24482937454020E-01
 o    13    8 0.63764614343290E+01 0.20283469933635E+01 -.24515062798280E-01
 n    14    7 -.52636676188715E+01 0.00000000000000E+00 -.10786332361533E+00
 h    15    1 -.61947904866021E+01 -.16076731691957E+01 0.28377485852069E+00
 h    16    1 -.61947848174237E+01 0.16076731691957E+01 0.28378430715135E+00
[GTO]
    1 0
 s    6 1.00
 0.13575349682000E+05 0.60645503603591E-03
 0.20352333680000E+04 0.46979088884982E-02
 0.46322562359000E+03 0.24332477647552E-01
 0.13120019598000E+03 0.97399968307759E-01
 0.42853015891000E+02 0.30195584253780E+00
 0.15584185766000E+02 0.66233609137875E+00
 s    2 1.00
 0.62067138508000E+01 0.65595308539952E+00
 0.25764896527000E+01 0.37585633285142E+00
 s    1 1.00
 0.57696339419000E+00 0.10000000000000E+01
 s    1 1.00
 0.22972831358000E+00 0.10000000000000E+01
 s    1 1.00
 0.95164440028000E-01 0.10000000000000E+01
 s    1 1.00
 0.48475401370000E-01 0.10000000000000E+01
 p    4 1.00
 0.34697232244000E+02 0.11327220003114E-01
 0.79582622826000E+01 0.76169659202087E-01
 0.23780826883000E+01 0.30192252202676E+00
 0.81433208183000E+00 0.72785027349547E+00
 p    1 1.00
 0.28887547253000E+00 0.10000000000000E+01
 p    1 1.00
 0.10056823671000E+00 0.10000000000000E+01
 d    1 1.00
 0.10970000000000E+01 0.10000000000000E+01
 d    1 1.00
 0.31800000000000E+00 0.10000000000000E+01
 d    1 1.00
 0.90985336424000E-01 0.10000000000000E+01
 f    1 1.00
 0.76100000000000E+00 0.10000000000000E+01
 
    2 0
 s    6 1.00
 0.13575349682000E+05 0.60645503603591E-03
 0.20352333680000E+04 0.46979088884982E-02
 0.46322562359000E+03 0.24332477647552E-01
 0.13120019598000E+03 0.97399968307759E-01
 0.42853015891000E+02 0.30195584253780E+00
 0.15584185766000E+02 0.66233609137875E+00
 s    2 1.00
 0.62067138508000E+01 0.65595308539952E+00
 0.25764896527000E+01 0.37585633285142E+00
 s    1 1.00
 0.57696339419000E+00 0.10000000000000E+01
 s    1 1.00
 0.22972831358000E+00 0.10000000000000E+01
 s    1 1.00
 0.95164440028000E-01 0.10000000000000E+01
 s    1 1.00
 0.48475401370000E-01 0.10000000000000E+01
 p    4 1.00
 0.34697232244000E+02 0.11327220003114E-01
 0.79582622826000E+01 0.76169659202087E-01
 0.23780826883000E+01 0.30192252202676E+00
 0.81433208183000E+00 0.72785027349547E+00
 p    1 1.00
 0.28887547253000E+00 0.10000000000000E+01
 p    1 1.00
 0.10056823671000E+00 0.10000000000000E+01
 d    1 1.00
 0.10970000000000E+01 0.10000000000000E+01
 d    1 1.00
 0.31800000000000E+00 0.10000000000000E+01
 d    1 1.00
 0.90985336424000E-01 0.10000000000000E+01
 f    1 1.00
 0.76100000000000E+00 0.10000000000000E+01
 
    3 0
 s    6 1.00
 0.13575349682000E+05 0.60645503603591E-03
 0.20352333680000E+04 0.46979088884982E-02
 0.46322562359000E+03 0.24332477647552E-01
 0.13120019598000E+03 0.97399968307759E-01
 0.42853015891000E+02 0.30195584253780E+00
 0.15584185766000E+02 0.66233609137875E+00
 s    2 1.00
 0.62067138508000E+01 0.65595308539952E+00
 0.25764896527000E+01 0.37585633285142E+00
 s    1 1.00
 0.57696339419000E+00 0.10000000000000E+01
 s    1 1.00
 0.22972831358000E+00 0.10000000000000E+01
 s    1 1.00
 0.95164440028000E-01 0.10000000000000E+01
 s    1 1.00
 0.48475401370000E-01 0.10000000000000E+01
 p    4 1.00
 0.34697232244000E+02 0.11327220003114E-01
 0.79582622826000E+01 0.76169659202087E-01
 0.23780826883000E+01 0.30192252202676E+00
 0.81433208183000E+00 0.72785027349547E+00
 p    1 1.00
 0.28887547253000E+00 0.10000000000000E+01
 p    1 1.00
 0.10056823671000E+00 0.10000000000000E+01
 d    1 1.00
 0.10970000000000E+01 0.10000000000000E+01
 d    1 1.00
 0.31800000000000E+00 0.10000000000000E+01
 d    1 1.00
 0.90985336424000E-01 0.10000000000000E+01
 f    1 1.00
 0.76100000000000E+00 0.10000000000000E+01
 
    4 0
 s    6 1.00
 0.13575349682000E+05 0.60645503603591E-03
 0.20352333680000E+04 0.46979088884982E-02
 0.46322562359000E+03 0.24332477647552E-01
 0.13120019598000E+03 0.97399968307759E-01
 0.42853015891000E+02 0.30195584253780E+00
 0.15584185766000E+02 0.66233609137875E+00
 s    2 1.00
 0.62067138508000E+01 0.65595308539952E+00
 0.25764896527000E+01 0.37585633285142E+00
 s    1 1.00
 0.57696339419000E+00 0.10000000000000E+01
 s    1 1.00
 0.22972831358000E+00 0.10000000000000E+01
 s    1 1.00
 0.95164440028000E-01 0.10000000000000E+01
 s    1 1.00
 0.48475401370000E-01 0.10000000000000E+01
 p    4 1.00
 0.34697232244000E+02 0.11327220003114E-01
 0.79582622826000E+01 0.76169659202087E-01
 0.23780826883000E+01 0.30192252202676E+00
 0.81433208183000E+00 0.72785027349547E+00
 p    1 1.00
 0.28887547253000E+00 0.10000000000000E+01
 p    1 1.00
 0.10056823671000E+00 0.10000000000000E+01
 d    1 1.00
 0.10970000000000E+01 0.10000000000000E+01
 d    1 1.00
 0.31800000000000E+00 0.10000000000000E+01
 d    1 1.00
 0.90985336424000E-01 0.10000000000000E+01
 f    1 1.00
 0.76100000000000E+00 0.10000000000000E+01
 
    5 0
 s    6 1.00
 0.13575349682000E+05 0.60645503603591E-03
 0.20352333680000E+04 0.46979088884982E-02
 0.46322562359000E+03 0.24332477647552E-01
 0.13120019598000E+03 0.97399968307759E-01
 0.42853015891000E+02 0.30195584253780E+00
 0.15584185766000E+02 0.66233609137875E+00
 s    2 1.00
 0.62067138508000E+01 0.65595308539952E+00
 0.25764896527000E+01 0.37585633285142E+00
 s    1 1.00
 0.57696339419000E+00 0.10000000000000E+01
 s    1 1.00
 0.22972831358000E+00 0.10000000000000E+01
 s    1 1.00
 0.95164440028000E-01 0.10000000000000E+01
 s    1 1.00
 0.48475401370000E-01 0.10000000000000E+01
 p    4 1.00
 0.34697232244000E+02 0.11327220003114E-01
 0.79582622826000E+01 0.76169659202087E-01
 0.23780826883000E+01 0.30192252202676E+00
 0.81433208183000E+00 0.72785027349547E+00
 p    1 1.00
 0.28887547253000E+00 0.10000000000000E+01
 p    1 1.00
 0.10056823671000E+00 0.10000000000000E+01
 d    1 1.00
 0.10970000000000E+01 0.10000000000000E+01
 d    1 1.00
 0.31800000000000E+00 0.10000000000000E+01
 d    1 1.00
 0.90985336424000E-01 0.10000000000000E+01
 f    1 1.00
 0.76100000000000E+00 0.10000000000000E+01
 
    6 0
 s    6 1.00
 0.13575349682000E+05 0.60645503603591E-03
 0.20352333680000E+04 0.46979088884982E-02
 0.46322562359000E+03 0.24332477647552E-01
 0.13120019598000E+03 0.97399968307759E-01
 0.42853015891000E+02 0.30195584253780E+00
 0.15584185766000E+02 0.66233609137875E+00
 s    2 1.00
 0.62067138508000E+01 0.65595308539952E+00
 0.25764896527000E+01 0.37585633285142E+00
 s    1 1.00
 0.57696339419000E+00 0.10000000000000E+01
 s    1 1.00
 0.22972831358000E+00 0.10000000000000E+01
 s    1 1.00
 0.95164440028000E-01 0.10000000000000E+01
 s    1 1.00
 0.48475401370000E-01 0.10000000000000E+01
 p    4 1.00
 0.34697232244000E+02 0.11327220003114E-01
 0.79582622826000E+01 0.76169659202087E-01
 0.23780826883000E+01 0.30192252202676E+00
 0.81433208183000E+00 0.72785027349547E+00
 p    1 1.00
 0.28887547253000E+00 0.10000000000000E+01
 p    1 1.00
 0.10056823671000E+00 0.10000000000000E+01
 d    1 1.00
 0.10970000000000E+01 0.10000000000000E+01
 d    1 1.00
 0.31800000000000E+00 0.10000000000000E+01
 d    1 1.00
 0.90985336424000E-01 0.10000000000000E+01
 f    1 1.00
 0.76100000000000E+00 0.10000000000000E+01
 
    7 0
 s    3 1.00
 0.34061341000000E+02 0.25439307208879E-01
 0.51235746000000E+01 0.19008594890375E+00
 0.11646626000000E+01 0.85244113011042E+00
 s    1 1.00
 0.32723041000000E+00 0.10000000000000E+01
 s    1 1.00
 0.10307241000000E+00 0.10000000000000E+01
 p    1 1.00
 0.80000000000000E+00 0.10000000000000E+01
 p    1 1.00
 0.95774129632000E-01 0.10000000000000E+01
 
    8 0
 s    3 1.00
 0.34061341000000E+02 0.25439307208879E-01
 0.51235746000000E+01 0.19008594890375E+00
 0.11646626000000E+01 0.85244113011042E+00
 s    1 1.00
 0.32723041000000E+00 0.10000000000000E+01
 s    1 1.00
 0.10307241000000E+00 0.10000000000000E+01
 p    1 1.00
 0.80000000000000E+00 0.10000000000000E+01
 p    1 1.00
 0.95774129632000E-01 0.10000000000000E+01
 
    9 0
 s    3 1.00
 0.34061341000000E+02 0.25439307208879E-01
 0.51235746000000E+01 0.19008594890375E+00
 0.11646626000000E+01 0.85244113011042E+00
 s    1 1.00
 0.32723041000000E+00 0.10000000000000E+01
 s    1 1.00
 0.10307241000000E+00 0.10000000000000E+01
 p    1 1.00
 0.80000000000000E+00 0.10000000000000E+01
 p    1 1.00
 0.95774129632000E-01 0.10000000000000E+01
 
   10 0
 s    3 1.00
 0.34061341000000E+02 0.25439307208879E-01
 0.51235746000000E+01 0.19008594890375E+00
 0.11646626000000E+01 0.85244113011042E+00
 s    1 1.00
 0.32723041000000E+00 0.10000000000000E+01
 s    1 1.00
 0.10307241000000E+00 0.10000000000000E+01
 p    1 1.00
 0.80000000000000E+00 0.10000000000000E+01
 p    1 1.00
 0.95774129632000E-01 0.10000000000000E+01
 
   11 0
 s    6 1.00
 0.19730800647000E+05 0.58626402628763E-03
 0.29578958745000E+04 0.45428820586397E-02
 0.67322133595000E+03 0.23558413450084E-01
 0.19068249494000E+03 0.94709193292923E-01
 0.62295441898000E+02 0.29719784913376E+00
 0.22654161182000E+02 0.66916246895232E+00
 s    2 1.00
 0.89791477428000E+01 0.64596683630063E+00
 0.36863002370000E+01 0.38700574393705E+00
 s    1 1.00
 0.84660076805000E+00 0.10000000000000E+01
 s    1 1.00
 0.33647133771000E+00 0.10000000000000E+01
 s    1 1.00
 0.13647653675000E+00 0.10000000000000E+01
 s    1 1.00
 0.68441605847000E-01 0.10000000000000E+01
 p    4 1.00
 0.49200380510000E+02 0.11448825101764E-01
 0.11346790537000E+02 0.78422337970864E-01
 0.34273972411000E+01 0.30818094738830E+00
 0.11785525134000E+01 0.72027196368413E+00
 p    1 1.00
 0.41642204972000E+00 0.10000000000000E+01
 p    1 1.00
 0.14260826011000E+00 0.10000000000000E+01
 d    1 1.00
 0.16540000000000E+01 0.10000000000000E+01
 d    1 1.00
 0.46900000000000E+00 0.10000000000000E+01
 d    1 1.00
 0.12829642058000E+00 0.10000000000000E+01
 f    1 1.00
 0.10930000000000E+01 0.10000000000000E+01
 
   12 0
 s    6 1.00
 0.27032382631000E+05 0.57227335211155E-03
 0.40523871392000E+04 0.44353233492995E-02
 0.92232722710000E+03 0.23020107706038E-01
 0.26124070989000E+03 0.92822490667928E-01
 0.85354641351000E+02 0.29378500009671E+00
 0.31035035245000E+02 0.67401604501641E+00
 s    2 1.00
 0.12260860728000E+02 0.63839937025506E+00
 0.49987076005000E+01 0.39534587125718E+00
 s    1 1.00
 0.11703108158000E+01 0.10000000000000E+01
 s    1 1.00
 0.46474740994000E+00 0.10000000000000E+01
 s    1 1.00
 0.18504536357000E+00 0.10000000000000E+01
 s    1 1.00
 0.70288026270000E-01 0.10000000000000E+01
 p    4 1.00
 0.63274954801000E+02 0.12018332222616E-01
 0.14627049379000E+02 0.83005421790056E-01
 0.44501223456000E+01 0.31991743925964E+00
 0.15275799647000E+01 0.70715542916104E+00
 p    1 1.00
 0.52935117943000E+00 0.10000000000000E+01
 p    1 1.00
 0.17478421270000E+00 0.10000000000000E+01
 p    1 1.00
 0.51112745706000E-01 0.10000000000000E+01
 d    1 1.00
 0.23140000000000E+01 0.10000000000000E+01
 d    1 1.00
 0.64500000000000E+00 0.10000000000000E+01
 d    1 1.00
 0.14696477366000E+00 0.10000000000000E+01
 f    1 1.00
 0.14280000000000E+01 0.10000000000000E+01
 
   13 0
 s    6 1.00
 0.27032382631000E+05 0.57227335211155E-03
 0.40523871392000E+04 0.44353233492995E-02
 0.92232722710000E+03 0.23020107706038E-01
 0.26124070989000E+03 0.92822490667928E-01
 0.85354641351000E+02 0.29378500009671E+00
 0.31035035245000E+02 0.67401604501641E+00
 s    2 1.00
 0.12260860728000E+02 0.63839937025506E+00
 0.49987076005000E+01 0.39534587125718E+00
 s    1 1.00
 0.11703108158000E+01 0.10000000000000E+01
 s    1 1.00
 0.46474740994000E+00 0.10000000000000E+01
 s    1 1.00
 0.18504536357000E+00 0.10000000000000E+01
 s    1 1.00
 0.70288026270000E-01 0.10000000000000E+01
 p    4 1.00
 0.63274954801000E+02 0.12018332222616E-01
 0.14627049379000E+02 0.83005421790056E-01
 0.44501223456000E+01 0.31991743925964E+00
 0.15275799647000E+01 0.70715542916104E+00
 p    1 1.00
 0.52935117943000E+00 0.10000000000000E+01
 p    1 1.00
 0.17478421270000E+00 0.10000000000000E+01
 p    1 1.00
 0.51112745706000E-01 0.10000000000000E+01
 d    1 1.00
 0.23140000000000E+01 0.10000000000000E+01
 d    1 1.00
 0.64500000000000E+00 0.10000000000000E+01
 d    1 1.00
 0.14696477366000E+00 0.10000000000000E+01
 f    1 1.00
 0.14280000000000E+01 0.10000000000000E+01
 
   14 0
 s    6 1.00
 0.19730800647000E+05 0.58626402628763E-03
 0.29578958745000E+04 0.45428820586397E-02
 0.67322133595000E+03 0.23558413450084E-01
 0.19068249494000E+03 0.94709193292923E-01
 0.62295441898000E+02 0.29719784913376E+00
 0.22654161182000E+02 0.66916246895232E+00
 s    2 1.00
 0.89791477428000E+01 0.64596683630063E+00
 0.36863002370000E+01 0.38700574393705E+00
 s    1 1.00
 0.84660076805000E+00 0.10000000000000E+01
 s    1 1.00
 0.33647133771000E+00 0.10000000000000E+01
 s    1 1.00
 0.13647653675000E+00 0.10000000000000E+01
 s    1 1.00
 0.68441605847000E-01 0.10000000000000E+01
 p    4 1.00
 0.49200380510000E+02 0.11448825101764E-01
 0.11346790537000E+02 0.78422337970864E-01
 0.34273972411000E+01 0.30818094738830E+00
 0.11785525134000E+01 0.72027196368413E+00
 p    1 1.00
 0.41642204972000E+00 0.10000000000000E+01
 p    1 1.00
 0.14260826011000E+00 0.10000000000000E+01
 d    1 1.00
 0.16540000000000E+01 0.10000000000000E+01
 d    1 1.00
 0.46900000000000E+00 0.10000000000000E+01
 d    1 1.00
 0.12829642058000E+00 0.10000000000000E+01
 f    1 1.00
 0.10930000000000E+01 0.10000000000000E+01
 
   15 0
 s    3 1.00
 0.34061341000000E+02 0.25439307208879E-01
 0.51235746000000E+01 0.19008594890375E+00
 0.11646626000000E+01 0.85244113011042E+00
 s    1 1.00
 0.32723041000000E+00 0.10000000000000E+01
 s    1 1.00
 0.10307241000000E+00 0.10000000000000E+01
 p    1 1.00
 0.80000000000000E+00 0.10000000000000E+01
 p    1 1.00
 0.95774129632000E-01 0.10000000000000E+01
 
   16 0
 s    3 1.00
 0.34061341000000E+02 0.25439307208879E-01
 0.51235746000000E+01 0.19008594890375E+00
 0.11646626000000E+01 0.85244113011042E+00
 s    1 1.00
 0.32723041000000E+00 0.10000000000000E+01
 s    1 1.00
 0.10307241000000E+00 0.10000000000000E+01
 p    1 1.00
 0.80000000000000E+00 0.10000000000000E+01
 p    1 1.00
 0.95774129632000E-01 0.10000000000000E+01
 
[MO]
 Sym= X
 Ene= -0.910648
 Spin= Alpha
 Occup= -0.910648
         1    3.074972E-04
         2    7.147936E-04
         3   -2.038746E-03
         4    4.846169E-03
         5   -3.633164E-02
         6    1.904060E-02
         7    2.729622E-03
         8    2.476968E-04
         9   -2.366832E-02
        10   -4.429112E-03
        11    8.031611E-04
        12   -2.183512E-02
        13   -4.668417E-02
        14    1.926978E-02
        15   -1.129079E-02
        16   -3.945821E-06
        17    2.150118E-05
        18   -1.755536E-05
        19    1.439499E-05
        20   -5.861101E-03
        21    3.467826E-03
        22    1.090714E-03
        23   -6.569453E-04
        24   -4.337685E-04
        25    1.209214E-03
        26   -1.332969E-02
        27    6.586670E-03
        28    4.367728E-03
        29   -3.956157E-03
        30   -4.115714E-04
        31   -2.739664E-03
        32    4.190614E-03
        33   -1.072245E-02
        34   -3.447787E-05
        35    9.629835E-06
        36    6.374584E-05
        37    1.436400E-05
        38   -7.459237E-06
        39    6.996727E-04
        40    3.189291E-05
        41   -5.460543E-06
        42   -7.851967E-04
        43    6.246226E-04
        44   -6.231930E-05
        45   -1.355479E-04
        46   -2.500868E-04
        47    5.826261E-03
        48    7.944993E-02
        49   -1.029157E-02
        50    4.694570E-04
        51    1.369839E-06
        52   -1.810555E-01
        53   -1.003627E-03
        54    8.690698E-06
        55   -1.877265E-01
        56   -2.029050E-02
        57   -3.219277E-04
        58   -1.853640E-01
        59   -6.608066E-05
        60    6.232160E-05
        61    3.759060E-06
        62   -8.277809E-08
        63   -3.936789E-04
        64    3.850248E-08
        65   -6.606420E-04
        66    1.095407E-03
        67   -4.347652E-04
        68   -1.549816E-06
        69   -2.414240E-03
        70   -4.067770E-07
        71   -2.130482E-02
        72    2.355359E-02
        73   -2.248768E-03
        74    6.021909E-05
        75    3.265152E-03
        76   -2.411916E-05
        77    1.232478E-05
        78    1.877010E-08
        79    9.917175E-04
        80   -1.422300E-05
        81    1.380891E-08
        82   -5.567275E-04
        83   -2.312426E-06
        84   -3.899164E-08
        85   -7.738011E-04
        86    1.408483E-08
        87    3.077042E-04
        88    7.152474E-04
        89   -2.039708E-03
        90    4.848601E-03
        91   -3.715033E-02
        92    1.904266E-02
        93    2.729707E-03
        94   -2.486398E-04
        95   -2.366812E-02
        96   -4.411581E-03
        97   -8.007198E-04
        98   -2.183509E-02
        99   -4.680453E-02
       100   -1.956229E-02
       101   -1.131271E-02
       102   -3.954349E-06
       103    2.146965E-05
       104   -1.751530E-05
       105   -1.451656E-05
       106   -5.861259E-03
       107   -3.467881E-03
       108    1.087073E-03
       109   -6.532762E-04
       110   -4.337969E-04
       111   -1.207948E-03
       112   -1.332954E-02
       113   -6.586621E-03
       114    4.431392E-03
       115   -4.027498E-03
       116   -4.038939E-04
       117    2.673562E-03
       118    4.162017E-03
       119    1.070209E-02
       120   -3.448811E-05
       121   -9.607287E-06
       122    6.372928E-05
       123    1.442488E-05
       124    7.427215E-06
       125    6.997141E-04
       126    3.184578E-05
       127    5.462313E-06
       128   -7.852159E-04
       129   -6.246123E-04
       130   -2.724323E-04
       131   -5.974753E-04
       132   -5.736575E-04
       133    1.683144E-02
       134   -2.854833E-03
       135   -2.262501E-02
       136   -2.398793E-03
       137    9.232552E-04
       138    1.483243E-01
       139   -1.553052E-02
       140    1.009590E-02
       141    1.509564E-01
       142   -1.852762E-02
       143   -1.342653E-02
       144    9.303137E-02
       145   -2.350142E-04
       146    2.908595E-04
       147   -5.584524E-05
       148    3.929286E-06
       149   -8.874965E-04
       150    2.935674E-03
       151   -1.126529E-03
       152    1.286558E-03
       153   -1.600290E-04
       154   -2.725531E-03
       155   -4.495636E-03
       156    4.721463E-03
       157   -1.164820E-02
       158    8.554883E-03
       159    3.093315E-03
       160    1.845070E-02
       161    5.050460E-03
       162   -1.288064E-02
       163   -2.794233E-05
       164    1.477550E-05
       165   -8.341846E-04
       166   -2.946954E-05
       167    2.864716E-05
       168    1.869782E-04
       169    6.695811E-05
       170   -4.847058E-05
       171    9.321979E-04
       172   -3.176866E-04
       173    1.807616E-03
       174    4.113793E-03
       175   -4.046268E-03
       176   -3.611105E-02
       177    7.772184E-02
       178   -1.070376E-02
       179    1.437338E-02
       180   -1.163948E-06
       181    1.082015E-01
       182    4.133945E-04
       183   -8.043990E-06
       184    1.119316E-01
       185   -6.793573E-02
       186    3.792823E-04
       187    1.393577E-01
       188   -7.904631E-04
       189    4.527159E-04
       190    3.377472E-04
       191   -1.805703E-07
       192    1.017926E-02
       193    8.554626E-08
       194    2.979229E-03
       195   -6.600219E-03
       196    3.620989E-03
       197   -1.894888E-06
       198    2.486062E-02
       199   -1.486930E-06
       200    1.463885E-02
       201   -1.589696E-02
       202    1.258109E-03
       203    1.017399E-04
       204    1.433203E-02
       205    2.417458E-05
       206    1.895462E-04
       207   -3.195255E-09
       208   -2.186545E-04
       209   -1.389239E-04
       210   -3.517762E-08
       211   -1.189912E-03
       212   -1.153790E-04
       213    3.946450E-08
       214    1.483268E-03
       215   -4.386471E-08
       216   -2.726280E-04
       217   -5.978726E-04
       218   -5.734062E-04
       219    1.683663E-02
       220   -3.840149E-03
       221   -2.259851E-02
       222   -2.398783E-03
       223   -9.195348E-04
       224    1.483207E-01
       225   -1.554096E-02
       226   -1.009921E-02
       227    1.509567E-01
       228   -1.844082E-02
       229    1.382291E-02
       230    9.298996E-02
       231   -2.349699E-04
       232    2.910155E-04
       233   -5.604562E-05
       234   -4.151474E-06
       235   -8.875906E-04
       236   -2.935716E-03
       237   -1.129676E-03
       238    1.290072E-03
       239   -1.603956E-04
       240    2.727201E-03
       241   -4.495338E-03
       242   -4.721644E-03
       243   -1.158298E-02
       244    8.491271E-03
       245    3.091705E-03
       246   -1.850878E-02
       247    5.084187E-03
       248    1.290725E-02
       249   -2.797834E-05
       250   -1.481953E-05
       251   -8.342304E-04
       252   -2.954812E-05
       253   -2.858499E-05
       254    1.870167E-04
       255    6.708500E-05
       256    4.846748E-05
       257    9.322208E-04
       258    3.177022E-04
       259    5.440054E-04
       260    1.737048E-04
       261    2.689941E-02
       262   -1.450908E-05
       263    2.263439E-05
       264   -9.754032E-04
       265   -8.007854E-03
       266   -1.525765E-03
       267    5.710759E-03
       268    5.446167E-04
       269    1.706392E-04
       270    2.688487E-02
       271   -1.409149E-05
       272   -2.313388E-05
       273   -9.753866E-04
       274   -8.072492E-03
       275    1.500055E-03
       276    5.709687E-03
       277    8.544438E-04
       278    4.160129E-03
       279   -5.896571E-02
       280   -1.780459E-05
       281    1.864329E-04
       282    6.017814E-03
       283   -2.135944E-03
       284   -5.159401E-03
       285   -9.462624E-04
       286    8.570196E-04
       287    4.158186E-03
       288   -5.906384E-02
       289   -1.760707E-05
       290   -1.861984E-04
       291    6.017851E-03
       292   -2.100342E-03
       293    5.187042E-03
       294   -9.522267E-04
       295    6.745314E-05
       296    1.571325E-04
       297   -1.530694E-04
       298   -3.583137E-04
       299    1.462859E-02
       300    2.432878E-03
       301    6.012496E-04
       302   -3.580511E-07
       303   -1.146421E-02
       304    4.629974E-05
       305   -5.407632E-07
       306   -1.381022E-02
       307   -5.139291E-03
       308   -1.649360E-06
       309   -1.067182E-03
       310   -1.596698E-05
       311    1.878052E-06
       312    1.408893E-05
       313   -9.239856E-09
       314    3.749440E-03
       315    1.849281E-08
       316    4.204147E-05
       317   -1.186657E-04
       318    7.662423E-05
       319    1.511555E-08
       320    1.123168E-02
       321    6.204629E-08
       322    5.888502E-04
       323   -4.336397E-03
       324    3.747547E-03
       325   -8.552270E-06
       326    2.488315E-03
       327    4.209842E-06
       328    9.685001E-06
       329    1.557532E-09
       330    2.497875E-08
       331   -7.264740E-06
       332    7.294945E-09
       333   -6.111057E-04
       334   -5.729053E-06
       335   -9.384593E-09
       336    6.110722E-04
       337    9.093841E-09
       338    2.223434E-05
       339    4.806861E-05
       340    6.415604E-06
       341   -8.583184E-04
       342    1.015423E-02
       343    2.003380E-03
       344   -6.769606E-05
       345    2.092702E-04
       346    6.505453E-02
       347   -2.929712E-04
       348    4.176411E-04
       349    6.033608E-02
       350   -1.594341E-03
       351    1.115492E-03
       352    4.746019E-02
       353   -4.510165E-04
       354    3.135820E-04
       355    5.448829E-03
       356   -5.281543E-06
       357    6.774404E-06
       358   -1.492861E-06
       359    8.838732E-07
       360   -1.472576E-05
       361    4.498961E-04
       362    1.278902E-05
       363    1.835197E-05
       364   -3.114099E-05
       365   -1.196757E-05
       366   -5.157643E-04
       367    1.447184E-03
       368    8.215234E-05
       369    1.311505E-05
       370   -9.526739E-05
       371    4.530093E-05
       372   -4.948106E-04
       373    3.037342E-04
       374    8.139537E-07
       375    3.044058E-06
       376   -5.791444E-05
       377   -1.371791E-06
       378   -1.442129E-06
       379   -7.731151E-05
       380    2.797575E-07
       381   -2.641904E-06
       382    1.550119E-04
       383   -1.209950E-04
       384    2.222847E-05
       385    4.805918E-05
       386    6.384501E-06
       387   -8.581832E-04
       388    1.016461E-02
       389    1.990809E-03
       390   -6.572196E-05
       391   -2.084837E-04
       392    6.505564E-02
       393   -2.913025E-04
       394   -4.170802E-04
       395    6.033757E-02
       396   -1.587823E-03
       397   -1.118823E-03
       398    4.745416E-02
       399   -4.453347E-04
       400   -3.156764E-04
       401    5.449271E-03
       402   -5.273492E-06
       403    6.744484E-06
       404   -1.470992E-06
       405   -8.908793E-07
       406   -1.474810E-05
       407   -4.499203E-04
       408    1.268036E-05
       409    1.838206E-05
       410   -3.106242E-05
       411    1.187586E-05
       412   -5.157165E-04
       413   -1.447089E-03
       414    8.291838E-05
       415    1.219275E-05
       416   -9.511113E-05
       417   -4.463653E-05
       418   -4.945424E-04
       419   -3.029709E-04
       420    8.101593E-07
       421   -3.037961E-06
       422   -5.791872E-05
       423   -1.364003E-06
       424    1.446892E-06
       425   -7.730638E-05
       426    2.770600E-07
       427    2.628961E-06
       428    1.550125E-04
       429    1.209960E-04
       430   -8.205456E-03
       431   -1.944589E-02
       432    3.003959E-02
       433    4.938788E-02
       434    1.544385E-02
       435    9.869094E-02
       436   -2.876754E-02
       437    6.049585E-06
       438   -2.832265E-01
       439   -3.283210E-02
       440    1.918844E-06
       441   -2.782004E-01
       442   -3.873404E-02
       443   -4.237765E-05
       444   -2.237033E-01
       445    2.354479E-04
       446    7.987275E-05
       447   -3.153207E-04
       448   -1.240114E-07
       449    7.441279E-04
       450    1.943490E-07
       451    4.554837E-04
       452    2.750410E-03
       453   -3.205893E-03
       454    1.653519E-06
       455    3.363153E-03
       456    8.986446E-07
       457    3.130273E-03
       458    7.131303E-03
       459   -1.026158E-02
       460    4.921059E-06
       461    2.340043E-03
       462    4.280227E-06
       463   -2.158291E-04
       464    3.673790E-08
       465    1.098150E-03
       466   -1.570224E-04
       467    1.308981E-08
       468   -6.050704E-04
       469    4.465875E-04
       470   -6.237887E-08
       471   -8.682520E-04
       472   -2.949237E-09
       473   -1.468562E-02
       474   -2.939912E-02
       475   -5.639332E-02
       476   -3.634337E-03
       477   -3.066836E-03
       478   -1.398575E-02
       479   -3.641671E-04
       480   -6.304777E-03
       481   -1.532020E-02
       482   -1.468166E-02
       483   -2.936362E-02
       484   -5.623585E-02
       485   -3.632198E-03
       486    3.063885E-03
       487   -1.398828E-02
       488   -3.349066E-04
       489    6.288226E-03
       490   -1.533255E-02
 Sym= X
 Ene= 0.910648
 Spin= Alpha
 Occup= 0.910648
         1    2.779339E-03
         2    6.131026E-03
         3   -1.366890E-02
         4   -9.077916E-03
         5    3.016011E+00
         6   -1.050790E+00
         7   -1.998926E-02
         8   -5.502126E-03
         9    2.914318E-04
        10   -1.241373E-01
        11   -1.702373E-02
        12   -3.077653E-03
        13   -8.107295E-01
        14   -5.942713E-01
        15   -4.580127E-02
        16   -1.098780E-03
        17   -5.247399E-05
        18    1.151254E-03
        19    1.609077E-03
        20   -3.835495E-04
        21    2.099406E-04
        22    1.836607E-02
        23   -1.865266E-02
        24    2.865928E-04
        25    9.606859E-04
        26    8.318860E-04
        27    2.939636E-04
        28    4.592192E-01
        29   -3.064043E-01
        30   -1.528149E-01
        31    6.579719E-01
        32   -2.208436E-02
        33    3.053050E-02
        34   -2.918623E-04
        35   -1.169857E-04
        36   -3.056802E-05
        37   -3.440949E-04
        38   -1.004606E-04
        39    1.748553E-05
        40    7.356693E-04
        41    2.574134E-04
        42    2.352577E-05
        43   -3.540323E-05
        44    6.087034E-03
        45    1.354305E-02
        46   -1.184090E-02
        47   -1.302643E-01
        48    1.315883E+00
        49    1.290344E+00
        50   -4.455794E-03
        51    2.120152E-06
        52   -5.343180E-03
        53   -5.885001E-02
        54   -2.633972E-05
        55   -1.068234E-02
        56   -5.375634E-01
        57   -3.169994E-03
        58    1.246616E-01
        59    1.945429E-03
        60   -2.959556E-03
        61    1.014127E-03
        62    8.093799E-08