[Molden Format]
[Title]
ADC(2) - opt by CAM-B3LYP gaussian                                              
[Atoms] AU
 c     1    6 -.12590385386216E+01 -.22819701624009E+01 -.30156123253150E-01
 c     2    6 -.25547233845863E+01 -.83266058000000E-06 -.28792213416740E-01
 c     3    6 -.12590428849917E+01 0.22819669475044E+01 -.30169993842970E-01
 c     4    6 0.13339759331395E+01 0.22828246941961E+01 -.32722654800530E-01
 c     5    6 0.26864234278208E+01 0.32869423900000E-05 -.32794180934660E-01
 c     6    6 0.13339778039684E+01 -.22828226745513E+01 -.32706516539360E-01
 h     7    1 -.23005849451053E+01 -.40353719055945E+01 -.27139024303910E-01
 h     8    1 -.23005903875166E+01 0.40353685773143E+01 -.27164403325880E-01
 h     9    1 0.23527432406667E+01 0.40554759247724E+01 -.35914685697900E-01
 h    10    1 0.23527525948111E+01 -.40554698422164E+01 -.35883032785170E-01
 n    11    7 -.52784595104117E+01 -.53030440000000E-06 -.22539903328000E-01
 o    12    8 -.63796877956448E+01 0.20272212823250E+01 -.19883023974210E-01
 o    13    8 -.63796922742957E+01 -.20272201130570E+01 -.19923067270970E-01
 n    14    7 0.52516126460355E+01 -.32243452000000E-06 -.88209511610250E-01
 h    15    1 0.62001707317805E+01 0.16133662892433E+01 0.23199721167530E+00
 h    16    1 0.62001633429513E+01 -.16133706190784E+01 0.23200112340840E+00
[GTO]
    1 0
 s    6 1.00
 0.13575349682000E+05 0.60645503603591E-03
 0.20352333680000E+04 0.46979088884982E-02
 0.46322562359000E+03 0.24332477647552E-01
 0.13120019598000E+03 0.97399968307759E-01
 0.42853015891000E+02 0.30195584253780E+00
 0.15584185766000E+02 0.66233609137875E+00
 s    2 1.00
 0.62067138508000E+01 0.65595308539952E+00
 0.25764896527000E+01 0.37585633285142E+00
 s    1 1.00
 0.57696339419000E+00 0.10000000000000E+01
 s    1 1.00
 0.22972831358000E+00 0.10000000000000E+01
 s    1 1.00
 0.95164440028000E-01 0.10000000000000E+01
 s    1 1.00
 0.48475401370000E-01 0.10000000000000E+01
 p    4 1.00
 0.34697232244000E+02 0.11327220003114E-01
 0.79582622826000E+01 0.76169659202087E-01
 0.23780826883000E+01 0.30192252202676E+00
 0.81433208183000E+00 0.72785027349547E+00
 p    1 1.00
 0.28887547253000E+00 0.10000000000000E+01
 p    1 1.00
 0.10056823671000E+00 0.10000000000000E+01
 d    1 1.00
 0.10970000000000E+01 0.10000000000000E+01
 d    1 1.00
 0.31800000000000E+00 0.10000000000000E+01
 d    1 1.00
 0.90985336424000E-01 0.10000000000000E+01
 f    1 1.00
 0.76100000000000E+00 0.10000000000000E+01
 
    2 0
 s    6 1.00
 0.13575349682000E+05 0.60645503603591E-03
 0.20352333680000E+04 0.46979088884982E-02
 0.46322562359000E+03 0.24332477647552E-01
 0.13120019598000E+03 0.97399968307759E-01
 0.42853015891000E+02 0.30195584253780E+00
 0.15584185766000E+02 0.66233609137875E+00
 s    2 1.00
 0.62067138508000E+01 0.65595308539952E+00
 0.25764896527000E+01 0.37585633285142E+00
 s    1 1.00
 0.57696339419000E+00 0.10000000000000E+01
 s    1 1.00
 0.22972831358000E+00 0.10000000000000E+01
 s    1 1.00
 0.95164440028000E-01 0.10000000000000E+01
 s    1 1.00
 0.48475401370000E-01 0.10000000000000E+01
 p    4 1.00
 0.34697232244000E+02 0.11327220003114E-01
 0.79582622826000E+01 0.76169659202087E-01
 0.23780826883000E+01 0.30192252202676E+00
 0.81433208183000E+00 0.72785027349547E+00
 p    1 1.00
 0.28887547253000E+00 0.10000000000000E+01
 p    1 1.00
 0.10056823671000E+00 0.10000000000000E+01
 d    1 1.00
 0.10970000000000E+01 0.10000000000000E+01
 d    1 1.00
 0.31800000000000E+00 0.10000000000000E+01
 d    1 1.00
 0.90985336424000E-01 0.10000000000000E+01
 f    1 1.00
 0.76100000000000E+00 0.10000000000000E+01
 
    3 0
 s    6 1.00
 0.13575349682000E+05 0.60645503603591E-03
 0.20352333680000E+04 0.46979088884982E-02
 0.46322562359000E+03 0.24332477647552E-01
 0.13120019598000E+03 0.97399968307759E-01
 0.42853015891000E+02 0.30195584253780E+00
 0.15584185766000E+02 0.66233609137875E+00
 s    2 1.00
 0.62067138508000E+01 0.65595308539952E+00
 0.25764896527000E+01 0.37585633285142E+00
 s    1 1.00
 0.57696339419000E+00 0.10000000000000E+01
 s    1 1.00
 0.22972831358000E+00 0.10000000000000E+01
 s    1 1.00
 0.95164440028000E-01 0.10000000000000E+01
 s    1 1.00
 0.48475401370000E-01 0.10000000000000E+01
 p    4 1.00
 0.34697232244000E+02 0.11327220003114E-01
 0.79582622826000E+01 0.76169659202087E-01
 0.23780826883000E+01 0.30192252202676E+00
 0.81433208183000E+00 0.72785027349547E+00
 p    1 1.00
 0.28887547253000E+00 0.10000000000000E+01
 p    1 1.00
 0.10056823671000E+00 0.10000000000000E+01
 d    1 1.00
 0.10970000000000E+01 0.10000000000000E+01
 d    1 1.00
 0.31800000000000E+00 0.10000000000000E+01
 d    1 1.00
 0.90985336424000E-01 0.10000000000000E+01
 f    1 1.00
 0.76100000000000E+00 0.10000000000000E+01
 
    4 0
 s    6 1.00
 0.13575349682000E+05 0.60645503603591E-03
 0.20352333680000E+04 0.46979088884982E-02
 0.46322562359000E+03 0.24332477647552E-01
 0.13120019598000E+03 0.97399968307759E-01
 0.42853015891000E+02 0.30195584253780E+00
 0.15584185766000E+02 0.66233609137875E+00
 s    2 1.00
 0.62067138508000E+01 0.65595308539952E+00
 0.25764896527000E+01 0.37585633285142E+00
 s    1 1.00
 0.57696339419000E+00 0.10000000000000E+01
 s    1 1.00
 0.22972831358000E+00 0.10000000000000E+01
 s    1 1.00
 0.95164440028000E-01 0.10000000000000E+01
 s    1 1.00
 0.48475401370000E-01 0.10000000000000E+01
 p    4 1.00
 0.34697232244000E+02 0.11327220003114E-01
 0.79582622826000E+01 0.76169659202087E-01
 0.23780826883000E+01 0.30192252202676E+00
 0.81433208183000E+00 0.72785027349547E+00
 p    1 1.00
 0.28887547253000E+00 0.10000000000000E+01
 p    1 1.00
 0.10056823671000E+00 0.10000000000000E+01
 d    1 1.00
 0.10970000000000E+01 0.10000000000000E+01
 d    1 1.00
 0.31800000000000E+00 0.10000000000000E+01
 d    1 1.00
 0.90985336424000E-01 0.10000000000000E+01
 f    1 1.00
 0.76100000000000E+00 0.10000000000000E+01
 
    5 0
 s    6 1.00
 0.13575349682000E+05 0.60645503603591E-03
 0.20352333680000E+04 0.46979088884982E-02
 0.46322562359000E+03 0.24332477647552E-01
 0.13120019598000E+03 0.97399968307759E-01
 0.42853015891000E+02 0.30195584253780E+00
 0.15584185766000E+02 0.66233609137875E+00
 s    2 1.00
 0.62067138508000E+01 0.65595308539952E+00
 0.25764896527000E+01 0.37585633285142E+00
 s    1 1.00
 0.57696339419000E+00 0.10000000000000E+01
 s    1 1.00
 0.22972831358000E+00 0.10000000000000E+01
 s    1 1.00
 0.95164440028000E-01 0.10000000000000E+01
 s    1 1.00
 0.48475401370000E-01 0.10000000000000E+01
 p    4 1.00
 0.34697232244000E+02 0.11327220003114E-01
 0.79582622826000E+01 0.76169659202087E-01
 0.23780826883000E+01 0.30192252202676E+00
 0.81433208183000E+00 0.72785027349547E+00
 p    1 1.00
 0.28887547253000E+00 0.10000000000000E+01
 p    1 1.00
 0.10056823671000E+00 0.10000000000000E+01
 d    1 1.00
 0.10970000000000E+01 0.10000000000000E+01
 d    1 1.00
 0.31800000000000E+00 0.10000000000000E+01
 d    1 1.00
 0.90985336424000E-01 0.10000000000000E+01
 f    1 1.00
 0.76100000000000E+00 0.10000000000000E+01
 
    6 0
 s    6 1.00
 0.13575349682000E+05 0.60645503603591E-03
 0.20352333680000E+04 0.46979088884982E-02
 0.46322562359000E+03 0.24332477647552E-01
 0.13120019598000E+03 0.97399968307759E-01
 0.42853015891000E+02 0.30195584253780E+00
 0.15584185766000E+02 0.66233609137875E+00
 s    2 1.00
 0.62067138508000E+01 0.65595308539952E+00
 0.25764896527000E+01 0.37585633285142E+00
 s    1 1.00
 0.57696339419000E+00 0.10000000000000E+01
 s    1 1.00
 0.22972831358000E+00 0.10000000000000E+01
 s    1 1.00
 0.95164440028000E-01 0.10000000000000E+01
 s    1 1.00
 0.48475401370000E-01 0.10000000000000E+01
 p    4 1.00
 0.34697232244000E+02 0.11327220003114E-01
 0.79582622826000E+01 0.76169659202087E-01
 0.23780826883000E+01 0.30192252202676E+00
 0.81433208183000E+00 0.72785027349547E+00
 p    1 1.00
 0.28887547253000E+00 0.10000000000000E+01
 p    1 1.00
 0.10056823671000E+00 0.10000000000000E+01
 d    1 1.00
 0.10970000000000E+01 0.10000000000000E+01
 d    1 1.00
 0.31800000000000E+00 0.10000000000000E+01
 d    1 1.00
 0.90985336424000E-01 0.10000000000000E+01
 f    1 1.00
 0.76100000000000E+00 0.10000000000000E+01
 
    7 0
 s    3 1.00
 0.34061341000000E+02 0.25439307208879E-01
 0.51235746000000E+01 0.19008594890375E+00
 0.11646626000000E+01 0.85244113011042E+00
 s    1 1.00
 0.32723041000000E+00 0.10000000000000E+01
 s    1 1.00
 0.10307241000000E+00 0.10000000000000E+01
 p    1 1.00
 0.80000000000000E+00 0.10000000000000E+01
 p    1 1.00
 0.95774129632000E-01 0.10000000000000E+01
 
    8 0
 s    3 1.00
 0.34061341000000E+02 0.25439307208879E-01
 0.51235746000000E+01 0.19008594890375E+00
 0.11646626000000E+01 0.85244113011042E+00
 s    1 1.00
 0.32723041000000E+00 0.10000000000000E+01
 s    1 1.00
 0.10307241000000E+00 0.10000000000000E+01
 p    1 1.00
 0.80000000000000E+00 0.10000000000000E+01
 p    1 1.00
 0.95774129632000E-01 0.10000000000000E+01
 
    9 0
 s    3 1.00
 0.34061341000000E+02 0.25439307208879E-01
 0.51235746000000E+01 0.19008594890375E+00
 0.11646626000000E+01 0.85244113011042E+00
 s    1 1.00
 0.32723041000000E+00 0.10000000000000E+01
 s    1 1.00
 0.10307241000000E+00 0.10000000000000E+01
 p    1 1.00
 0.80000000000000E+00 0.10000000000000E+01
 p    1 1.00
 0.95774129632000E-01 0.10000000000000E+01
 
   10 0
 s    3 1.00
 0.34061341000000E+02 0.25439307208879E-01
 0.51235746000000E+01 0.19008594890375E+00
 0.11646626000000E+01 0.85244113011042E+00
 s    1 1.00
 0.32723041000000E+00 0.10000000000000E+01
 s    1 1.00
 0.10307241000000E+00 0.10000000000000E+01
 p    1 1.00
 0.80000000000000E+00 0.10000000000000E+01
 p    1 1.00
 0.95774129632000E-01 0.10000000000000E+01
 
   11 0
 s    6 1.00
 0.19730800647000E+05 0.58626402628763E-03
 0.29578958745000E+04 0.45428820586397E-02
 0.67322133595000E+03 0.23558413450084E-01
 0.19068249494000E+03 0.94709193292923E-01
 0.62295441898000E+02 0.29719784913376E+00
 0.22654161182000E+02 0.66916246895232E+00
 s    2 1.00
 0.89791477428000E+01 0.64596683630063E+00
 0.36863002370000E+01 0.38700574393705E+00
 s    1 1.00
 0.84660076805000E+00 0.10000000000000E+01
 s    1 1.00
 0.33647133771000E+00 0.10000000000000E+01
 s    1 1.00
 0.13647653675000E+00 0.10000000000000E+01
 s    1 1.00
 0.68441605847000E-01 0.10000000000000E+01
 p    4 1.00
 0.49200380510000E+02 0.11448825101764E-01
 0.11346790537000E+02 0.78422337970864E-01
 0.34273972411000E+01 0.30818094738830E+00
 0.11785525134000E+01 0.72027196368413E+00
 p    1 1.00
 0.41642204972000E+00 0.10000000000000E+01
 p    1 1.00
 0.14260826011000E+00 0.10000000000000E+01
 d    1 1.00
 0.16540000000000E+01 0.10000000000000E+01
 d    1 1.00
 0.46900000000000E+00 0.10000000000000E+01
 d    1 1.00
 0.12829642058000E+00 0.10000000000000E+01
 f    1 1.00
 0.10930000000000E+01 0.10000000000000E+01
 
   12 0
 s    6 1.00
 0.27032382631000E+05 0.57227335211155E-03
 0.40523871392000E+04 0.44353233492995E-02
 0.92232722710000E+03 0.23020107706038E-01
 0.26124070989000E+03 0.92822490667928E-01
 0.85354641351000E+02 0.29378500009671E+00
 0.31035035245000E+02 0.67401604501641E+00
 s    2 1.00
 0.12260860728000E+02 0.63839937025506E+00
 0.49987076005000E+01 0.39534587125718E+00
 s    1 1.00
 0.11703108158000E+01 0.10000000000000E+01
 s    1 1.00
 0.46474740994000E+00 0.10000000000000E+01
 s    1 1.00
 0.18504536357000E+00 0.10000000000000E+01
 s    1 1.00
 0.70288026270000E-01 0.10000000000000E+01
 p    4 1.00
 0.63274954801000E+02 0.12018332222616E-01
 0.14627049379000E+02 0.83005421790056E-01
 0.44501223456000E+01 0.31991743925964E+00
 0.15275799647000E+01 0.70715542916104E+00
 p    1 1.00
 0.52935117943000E+00 0.10000000000000E+01
 p    1 1.00
 0.17478421270000E+00 0.10000000000000E+01
 p    1 1.00
 0.51112745706000E-01 0.10000000000000E+01
 d    1 1.00
 0.23140000000000E+01 0.10000000000000E+01
 d    1 1.00
 0.64500000000000E+00 0.10000000000000E+01
 d    1 1.00
 0.14696477366000E+00 0.10000000000000E+01
 f    1 1.00
 0.14280000000000E+01 0.10000000000000E+01
 
   13 0
 s    6 1.00
 0.27032382631000E+05 0.57227335211155E-03
 0.40523871392000E+04 0.44353233492995E-02
 0.92232722710000E+03 0.23020107706038E-01
 0.26124070989000E+03 0.92822490667928E-01
 0.85354641351000E+02 0.29378500009671E+00
 0.31035035245000E+02 0.67401604501641E+00
 s    2 1.00
 0.12260860728000E+02 0.63839937025506E+00
 0.49987076005000E+01 0.39534587125718E+00
 s    1 1.00
 0.11703108158000E+01 0.10000000000000E+01
 s    1 1.00
 0.46474740994000E+00 0.10000000000000E+01
 s    1 1.00
 0.18504536357000E+00 0.10000000000000E+01
 s    1 1.00
 0.70288026270000E-01 0.10000000000000E+01
 p    4 1.00
 0.63274954801000E+02 0.12018332222616E-01
 0.14627049379000E+02 0.83005421790056E-01
 0.44501223456000E+01 0.31991743925964E+00
 0.15275799647000E+01 0.70715542916104E+00
 p    1 1.00
 0.52935117943000E+00 0.10000000000000E+01
 p    1 1.00
 0.17478421270000E+00 0.10000000000000E+01
 p    1 1.00
 0.51112745706000E-01 0.10000000000000E+01
 d    1 1.00
 0.23140000000000E+01 0.10000000000000E+01
 d    1 1.00
 0.64500000000000E+00 0.10000000000000E+01
 d    1 1.00
 0.14696477366000E+00 0.10000000000000E+01
 f    1 1.00
 0.14280000000000E+01 0.10000000000000E+01
 
   14 0
 s    6 1.00
 0.19730800647000E+05 0.58626402628763E-03
 0.29578958745000E+04 0.45428820586397E-02
 0.67322133595000E+03 0.23558413450084E-01
 0.19068249494000E+03 0.94709193292923E-01
 0.62295441898000E+02 0.29719784913376E+00
 0.22654161182000E+02 0.66916246895232E+00
 s    2 1.00
 0.89791477428000E+01 0.64596683630063E+00
 0.36863002370000E+01 0.38700574393705E+00
 s    1 1.00
 0.84660076805000E+00 0.10000000000000E+01
 s    1 1.00
 0.33647133771000E+00 0.10000000000000E+01
 s    1 1.00
 0.13647653675000E+00 0.10000000000000E+01
 s    1 1.00
 0.68441605847000E-01 0.10000000000000E+01
 p    4 1.00
 0.49200380510000E+02 0.11448825101764E-01
 0.11346790537000E+02 0.78422337970864E-01
 0.34273972411000E+01 0.30818094738830E+00
 0.11785525134000E+01 0.72027196368413E+00
 p    1 1.00
 0.41642204972000E+00 0.10000000000000E+01
 p    1 1.00
 0.14260826011000E+00 0.10000000000000E+01
 d    1 1.00
 0.16540000000000E+01 0.10000000000000E+01
 d    1 1.00
 0.46900000000000E+00 0.10000000000000E+01
 d    1 1.00
 0.12829642058000E+00 0.10000000000000E+01
 f    1 1.00
 0.10930000000000E+01 0.10000000000000E+01
 
   15 0
 s    3 1.00
 0.34061341000000E+02 0.25439307208879E-01
 0.51235746000000E+01 0.19008594890375E+00
 0.11646626000000E+01 0.85244113011042E+00
 s    1 1.00
 0.32723041000000E+00 0.10000000000000E+01
 s    1 1.00
 0.10307241000000E+00 0.10000000000000E+01
 p    1 1.00
 0.80000000000000E+00 0.10000000000000E+01
 p    1 1.00
 0.95774129632000E-01 0.10000000000000E+01
 
   16 0
 s    3 1.00
 0.34061341000000E+02 0.25439307208879E-01
 0.51235746000000E+01 0.19008594890375E+00
 0.11646626000000E+01 0.85244113011042E+00
 s    1 1.00
 0.32723041000000E+00 0.10000000000000E+01
 s    1 1.00
 0.10307241000000E+00 0.10000000000000E+01
 p    1 1.00
 0.80000000000000E+00 0.10000000000000E+01
 p    1 1.00
 0.95774129632000E-01 0.10000000000000E+01
 
[MO]
 Sym= X
 Ene= -0.074136
 Spin= Alpha
 Occup= -0.074136
         1    4.043633E-04
         2    9.266104E-04
         3   -1.922810E-03
         4    1.087801E-03
         5   -1.443322E-02
         6    1.278062E-02
         7   -5.669462E-03
         8   -7.792394E-04
         9    1.302088E-01
        10   -4.053499E-04
        11   -1.147671E-03
        12    1.284503E-01
        13    2.510960E-02
        14   -2.285734E-03
        15    4.920272E-02
        16   -1.389493E-04
        17    1.263515E-04
        18    1.259779E-05
        19    7.561556E-05
        20   -1.159183E-03
        21    4.394641E-03
        22    4.288666E-04
        23   -2.791926E-04
        24   -1.496740E-04
        25    9.631760E-04
        26   -3.004415E-03
        27    7.372032E-03
        28    2.008292E-03
        29   -1.737199E-03
        30   -2.710927E-04
        31   -2.375111E-03
        32   -6.714366E-03
        33    4.946186E-03
        34    5.050154E-06
        35   -1.528393E-05
        36   -1.067036E-03
        37    1.173199E-06
        38    1.452422E-05
        39    4.891774E-04
        40   -7.948691E-06
        41    5.981325E-06
        42    9.424012E-04
        43   -5.344341E-04
        44   -2.096084E-04
        45   -4.656799E-04
        46    2.440791E-04
        47    5.789408E-03
        48    1.728586E-02
        49   -1.135352E-02
        50    6.806117E-04
        51   -5.219526E-06
        52    2.099378E-01
        53    1.780359E-03
        54    1.548843E-05
        55    2.129099E-01
        56    9.670582E-03
        57    4.618777E-04
        58    7.776904E-02
        59   -1.577336E-04
        60    1.664489E-04
        61   -8.715359E-06
        62   -2.706862E-07
        63    2.803692E-03
        64   -2.159093E-06
        65   -6.911856E-04
        66    1.005144E-03
        67   -3.139585E-04
        68    3.924175E-06
        69    4.236931E-03
        70   -4.088740E-06
        71   -1.457213E-02
        72    1.513353E-02
        73   -5.614078E-04
        74    3.422371E-05
        75    7.767970E-03
        76    6.098685E-06
        77   -2.250482E-06
        78    1.151675E-07
        79   -1.578327E-03
        80    1.495140E-05
        81   -4.179020E-08
        82    7.732347E-04
        83   -1.193206E-05
        84   -1.127233E-07
        85    1.344313E-03
        86   -2.232057E-07
        87    4.044621E-04
        88    9.268199E-04
        89   -1.921130E-03
        90    1.089510E-03
        91   -1.639305E-02
        92    1.284317E-02
        93   -5.669177E-03
        94    7.896985E-04
        95    1.301024E-01
        96   -3.960958E-04
        97    1.178015E-03
        98    1.283443E-01
        99    2.479348E-02
       100    2.892310E-03
       101    4.909885E-02
       102   -1.386258E-04
       103    1.261453E-04
       104    1.248044E-05
       105   -7.633481E-05
       106   -1.161831E-03
       107   -4.394503E-03
       108    4.276951E-04
       109   -2.797565E-04
       110   -1.479386E-04
       111   -9.697705E-04
       112   -3.008479E-03
       113   -7.370399E-03
       114    1.965109E-03
       115   -1.711216E-03
       116   -2.538927E-04
       117    2.360624E-03
       118   -6.712433E-03
       119   -4.912300E-03
       120    4.966055E-06
       121    1.537678E-05
       122   -1.066365E-03
       123    1.303041E-06
       124   -1.443438E-05
       125    4.883971E-04
       126   -7.965703E-06
       127   -6.195734E-06
       128    9.422819E-04
       129    5.343254E-04
       130   -3.290289E-04
       131   -7.298660E-04
       132   -4.076647E-05
       133    1.297219E-02
       134    8.105615E-03
       135   -1.490228E-02
       136    5.692976E-03
       137   -2.333642E-03
       138    2.749336E-02
       139    1.326051E-02
       140   -8.102222E-03
       141    2.732817E-02
       142    1.126012E-02
       143    1.109732E-02
       144    3.155760E-03
       145   -3.706040E-04
       146    4.296781E-04
       147   -5.907410E-05
       148   -2.738204E-05
       149   -3.988715E-03
       150    9.227414E-04
       151   -7.043076E-04
       152    9.834087E-04
       153   -2.791011E-04
       154   -2.005464E-03
       155   -7.069125E-03
       156    2.228473E-03
       157   -8.157293E-03
       158    6.717730E-03
       159    1.439563E-03
       160    1.017361E-02
       161   -3.521514E-03
       162    1.170135E-02
       163    1.845675E-05
       164   -2.864076E-05
       165   -2.394510E-04
       166    3.579157E-05
       167   -1.502676E-06
       168    4.942587E-04
       169   -6.055390E-05
       170    3.992829E-05
       171   -1.730014E-04
       172    3.904361E-04
       173    1.285447E-03
       174    2.904378E-03
       175   -3.220826E-03
       176   -1.840995E-02
       177    6.181615E-02
       178   -7.277113E-04
       179   -1.770626E-02
       180    8.924305E-06
       181   -9.496839E-02
       182   -4.214491E-03
       183    2.118367E-05
       184   -9.172429E-02
       185    4.797016E-02
       186    1.060212E-05
       187    1.420304E-02
       188   -8.617981E-04
       189    6.175920E-04
       190    2.442061E-04
       191   -4.102046E-07
       192   -6.351441E-03
       193   -1.907190E-06
       194    2.103144E-03
       195   -4.354716E-03
       196    2.251571E-03
       197   -5.896387E-06
       198   -1.294588E-02
       199   -6.608720E-06
       200    9.865855E-03
       201   -1.013703E-02
       202    2.711778E-04
       203    6.552727E-05
       204   -3.578687E-03
       205   -2.084423E-05
       206   -1.598795E-04
       207    6.623328E-08
       208    9.227851E-04
       209    9.249337E-05
       210    6.336707E-08
       211   -1.368722E-03
       212    1.220075E-04
       213   -1.522283E-07
       214    1.306754E-04
       215    4.078839E-07
       216   -3.280137E-04
       217   -7.275553E-04
       218   -4.831706E-05
       219    1.300899E-02
       220    6.793674E-03
       221   -1.480909E-02
       222    5.691695E-03
       223    2.317895E-03
       224    2.760241E-02
       225    1.327373E-02
       226    8.109174E-03
       227    2.743662E-02
       228    1.188110E-02
       229   -1.137571E-02
       230    3.150916E-03
       231   -3.709287E-04
       232    4.298729E-04
       233   -5.894421E-05
       234    2.646572E-05
       235   -3.991406E-03
       236   -9.223527E-04
       237   -7.059053E-04
       238    9.879494E-04
       239   -2.820441E-04
       240    2.007537E-03
       241   -7.074170E-03
       242   -2.230202E-03
       243   -8.150582E-03
       244    6.710765E-03
       245    1.439817E-03
       246   -1.009869E-02
       247   -3.533825E-03
       248   -1.172758E-02
       249    1.830127E-05
       250    2.866649E-05
       251   -2.400601E-04
       252    3.604352E-05
       253    1.410013E-06
       254    4.950063E-04
       255   -6.059726E-05
       256   -3.987015E-05
       257   -1.729318E-04
       258   -3.905077E-04
       259    1.597448E-03
       260    2.139106E-03
       261    2.181070E-02
       262    3.945787E-05
       263    1.915374E-04
       264    4.682905E-03
       265    5.064404E-03
       266    1.831985E-03
       267    2.242072E-03
       268    1.602602E-03
       269    2.136661E-03
       270    2.160242E-02
       271    3.929860E-05
       272   -1.908120E-04
       273    4.678128E-03
       274    5.038568E-03
       275   -1.818064E-03
       276    2.213671E-03
       277    1.343861E-03
       278    3.965617E-03
       279   -4.022057E-02
       280    5.232648E-05
       281   -2.606654E-04
       282    5.205633E-04
       283    5.631630E-03
       284    2.615421E-03
       285   -9.648573E-03
       286    1.351304E-03
       287    3.961225E-03
       288   -4.025440E-02
       289    5.124726E-05
       290    2.597243E-04
       291    5.250966E-04
       292    5.645735E-03
       293   -2.624954E-03
       294   -9.658155E-03
       295    1.279442E-04
       296    3.016318E-04
       297   -3.786464E-04
       298   -1.050014E-03
       299    1.216656E-02
       300    6.348453E-03
       301   -1.745323E-03
       302   -3.916965E-07
       303   -3.605308E-02
       304   -1.251811E-03
       305    3.029996E-06
       306   -3.424456E-02
       307    4.637463E-03
       308   -2.907390E-05
       309    2.357182E-03
       310    3.436366E-05
       311   -9.007666E-06
       312   -2.535599E-05
       313    7.995977E-08
       314    4.364441E-03
       315   -2.065781E-06
       316    1.588577E-04
       317   -1.159710E-04
       318   -4.288670E-05
       319   -1.489132E-07
       320    1.220501E-02
       321   -6.194400E-06
       322    1.448174E-04
       323   -2.543614E-03
       324    2.398796E-03
       325   -1.508137E-05
       326    5.275321E-03
       327    3.739891E-06
       328   -3.512386E-06
       329    4.918447E-08
       330    2.352305E-04
       331    5.467139E-07
       332   -2.421994E-08
       333    5.677220E-04
       334    4.165647E-06
       335   -4.176796E-08
       336   -8.833169E-04
       337    3.095723E-07
       338    1.101967E-04
       339    2.658546E-04
       340   -3.536144E-04
       341   -1.107688E-03
       342    6.147016E-03
       343    8.337376E-04
       344   -8.050612E-04
       345   -9.373197E-04
       346   -8.838775E-02
       347   -5.678266E-04
       348   -9.532574E-04
       349   -8.118076E-02
       350    3.141792E-04
       351   -1.288529E-03
       352   -5.568107E-02
       353    3.014734E-04
       354   -5.660697E-05
       355   -4.645405E-03
       356   -1.638983E-05
       357    2.099486E-05
       358   -4.605032E-06
       359    8.158239E-06
       360   -3.654681E-04
       361    1.069608E-03
       362   -2.634877E-05
       363    5.778296E-05
       364   -3.143419E-05
       365    2.147097E-05
       366   -1.534361E-03
       367    3.234106E-03
       368   -3.474535E-06
       369    7.911686E-05
       370   -7.564232E-05
       371    8.763203E-05
       372   -1.902679E-03
       373    6.837547E-04
       374   -3.280239E-07
       375   -8.130494E-06
       376    1.741580E-04
       377    8.422585E-07
       378    8.961124E-06
       379    7.976803E-05
       380   -4.021682E-07
       381    1.947079E-06
       382   -3.134256E-04
       383    2.764056E-04
       384    1.100358E-04
       385    2.654228E-04
       386   -3.526811E-04
       387   -1.109418E-03
       388    6.160977E-03
       389    8.406098E-04
       390   -8.118193E-04
       391    9.451907E-04
       392   -8.827863E-02
       393   -5.736128E-04
       394    9.619941E-04
       395   -8.108165E-02
       396    3.034970E-04
       397    1.294969E-03
       398   -5.559896E-02
       399    3.067293E-04
       400    5.217848E-05
       401   -4.632359E-03
       402   -1.641737E-05
       403    2.106226E-05
       404   -4.644894E-06
       405   -8.156818E-06
       406   -3.648695E-04
       407   -1.068693E-03
       408   -2.673218E-05
       409    5.858265E-05
       410   -3.185047E-05
       411   -2.116028E-05
       412   -1.532206E-03
       413   -3.231161E-03
       414   -4.256087E-07
       415    7.638248E-05
       416   -7.595687E-05
       417   -9.004912E-05
       418   -1.900442E-03
       419   -6.793793E-04
       420   -3.333604E-07
       421    8.174138E-06
       422    1.739866E-04
       423    8.969912E-07
       424   -8.987096E-06
       425    7.974916E-05
       426   -4.497413E-07
       427   -1.979661E-06
       428   -3.131767E-04
       429   -2.761105E-04
       430   -5.393377E-03
       431   -1.275472E-02
       432    1.964006E-02
       433    3.183999E-02
       434    3.885305E-03
       435    3.555644E-02
       436    2.439894E-02
       437   -9.692380E-06
       438   -2.420348E-01
       439    2.722726E-02
       440   -2.398213E-06
       441   -2.347378E-01
       442    3.635019E-02
       443    6.820364E-05
       444   -1.598668E-01
       445    1.081809E-04
       446    2.101898E-04
       447   -3.183708E-04
       448   -3.553354E-07
       449    1.929667E-03
       450   -3.121579E-07
       451   -9.704589E-05
       452    2.504968E-03
       453   -2.407922E-03
       454    2.816654E-06
       455    4.139554E-03
       456   -5.419953E-07
       457   -1.514625E-03
       458    7.090173E-03
       459   -5.575548E-03
       460    8.253931E-06
       461    4.664096E-04
       462   -2.088031E-07
       463    1.084828E-04
       464   -6.698881E-08
       465    1.277843E-03
       466    1.345272E-04
       467    1.158244E-08
       468   -1.098980E-03
       469   -2.800722E-04
       470    7.829248E-08
       471   -6.154257E-04
       472    6.133913E-08
       473   -6.922814E-03
       474   -1.641989E-02
       475   -3.033329E-02
       476    2.842300E-03
       477    2.041516E-03
       478   -1.101986E-02
       479    3.757162E-03
       480    2.766216E-03
       481   -4.429265E-03
       482   -6.915150E-03
       483   -1.635357E-02
       484   -3.012499E-02
       485    2.837902E-03
       486   -2.035702E-03
       487   -1.102245E-02
       488    3.728680E-03
       489   -2.731724E-03
       490   -4.444765E-03
 Sym= X
 Ene= -0.774250
 Spin= Alpha
 Occup= -0.774250
         1   -2.485883E-04
         2   -5.760958E-04
         3    1.555390E-03
         4   -3.222819E-03
         5   -3.719208E-04
         6   -1.372847E-02
         7    2.297307E-03
         8    2.474765E-04
         9    2.839371E-02
        10   -2.825033E-03
        11    5.490537E-04
        12    2.649710E-02
        13   -4.089689E-02
        14    1.355066E-02
        15    7.538204E-03
        16    1.429399E-05
        17   -2.516655E-05
        18    1.087256E-05
        19   -1.919428E-05
        20   -6.104584E-03
        21    3.804177E-03
        22   -7.961260E-04
        23    4.784448E-04
        24    3.176812E-04
        25   -8.821276E-04
        26   -1.384060E-02
        27    7.168928E-03
        28   -5.481198E-03
        29    5.137782E-03
        30    3.434163E-04
        31    1.549442E-03
        32    2.416018E-03
        33   -1.082157E-02
        34   -2.308134E-05
        35    8.627468E-06
        36   -1.251248E-04
        37    9.422723E-06
        38   -8.282690E-06
        39   -6.779453E-04
        40    2.154415E-05
        41   -3.292273E-06
        42    8.458178E-04
        43   -6.766502E-04
        44    2.818002E-05
        45    6.108845E-05
        46    2.005199E-04
        47   -3.631097E-03
        48   -6.177608E-02
        49    6.921003E-03
        50    3.331745E-04
        51    2.573589E-06
        52    1.993073E-01
        53   -6.706415E-04
        54    1.647660E-05
        55    2.066297E-01
        56   -1.909343E-02
        57   -5.105156E-04
        58    1.986303E-01
        59    5.853383E-05
        60   -5.428405E-05
        61   -4.249779E-06
        62    1.385942E-07