[Molden Format]
[Title]
ADC(2) - opt by CAM-B3LYP gaussian                                              
[Atoms] AU
 c     1    6 -.12590385386216E+01 -.22819701624009E+01 -.30156123253150E-01
 c     2    6 -.25547233845863E+01 -.83266058000000E-06 -.28792213416740E-01
 c     3    6 -.12590428849917E+01 0.22819669475044E+01 -.30169993842970E-01
 c     4    6 0.13339759331395E+01 0.22828246941961E+01 -.32722654800530E-01
 c     5    6 0.26864234278208E+01 0.32869423900000E-05 -.32794180934660E-01
 c     6    6 0.13339778039684E+01 -.22828226745513E+01 -.32706516539360E-01
 h     7    1 -.23005849451053E+01 -.40353719055945E+01 -.27139024303910E-01
 h     8    1 -.23005903875166E+01 0.40353685773143E+01 -.27164403325880E-01
 h     9    1 0.23527432406667E+01 0.40554759247724E+01 -.35914685697900E-01
 h    10    1 0.23527525948111E+01 -.40554698422164E+01 -.35883032785170E-01
 n    11    7 -.52784595104117E+01 -.53030440000000E-06 -.22539903328000E-01
 o    12    8 -.63796877956448E+01 0.20272212823250E+01 -.19883023974210E-01
 o    13    8 -.63796922742957E+01 -.20272201130570E+01 -.19923067270970E-01
 n    14    7 0.52516126460355E+01 -.32243452000000E-06 -.88209511610250E-01
 h    15    1 0.62001707317805E+01 0.16133662892433E+01 0.23199721167530E+00
 h    16    1 0.62001633429513E+01 -.16133706190784E+01 0.23200112340840E+00
[GTO]
    1 0
 s    6 1.00
 0.13575349682000E+05 0.60645503603591E-03
 0.20352333680000E+04 0.46979088884982E-02
 0.46322562359000E+03 0.24332477647552E-01
 0.13120019598000E+03 0.97399968307759E-01
 0.42853015891000E+02 0.30195584253780E+00
 0.15584185766000E+02 0.66233609137875E+00
 s    2 1.00
 0.62067138508000E+01 0.65595308539952E+00
 0.25764896527000E+01 0.37585633285142E+00
 s    1 1.00
 0.57696339419000E+00 0.10000000000000E+01
 s    1 1.00
 0.22972831358000E+00 0.10000000000000E+01
 s    1 1.00
 0.95164440028000E-01 0.10000000000000E+01
 s    1 1.00
 0.48475401370000E-01 0.10000000000000E+01
 p    4 1.00
 0.34697232244000E+02 0.11327220003114E-01
 0.79582622826000E+01 0.76169659202087E-01
 0.23780826883000E+01 0.30192252202676E+00
 0.81433208183000E+00 0.72785027349547E+00
 p    1 1.00
 0.28887547253000E+00 0.10000000000000E+01
 p    1 1.00
 0.10056823671000E+00 0.10000000000000E+01
 d    1 1.00
 0.10970000000000E+01 0.10000000000000E+01
 d    1 1.00
 0.31800000000000E+00 0.10000000000000E+01
 d    1 1.00
 0.90985336424000E-01 0.10000000000000E+01
 f    1 1.00
 0.76100000000000E+00 0.10000000000000E+01
 
    2 0
 s    6 1.00
 0.13575349682000E+05 0.60645503603591E-03
 0.20352333680000E+04 0.46979088884982E-02
 0.46322562359000E+03 0.24332477647552E-01
 0.13120019598000E+03 0.97399968307759E-01
 0.42853015891000E+02 0.30195584253780E+00
 0.15584185766000E+02 0.66233609137875E+00
 s    2 1.00
 0.62067138508000E+01 0.65595308539952E+00
 0.25764896527000E+01 0.37585633285142E+00
 s    1 1.00
 0.57696339419000E+00 0.10000000000000E+01
 s    1 1.00
 0.22972831358000E+00 0.10000000000000E+01
 s    1 1.00
 0.95164440028000E-01 0.10000000000000E+01
 s    1 1.00
 0.48475401370000E-01 0.10000000000000E+01
 p    4 1.00
 0.34697232244000E+02 0.11327220003114E-01
 0.79582622826000E+01 0.76169659202087E-01
 0.23780826883000E+01 0.30192252202676E+00
 0.81433208183000E+00 0.72785027349547E+00
 p    1 1.00
 0.28887547253000E+00 0.10000000000000E+01
 p    1 1.00
 0.10056823671000E+00 0.10000000000000E+01
 d    1 1.00
 0.10970000000000E+01 0.10000000000000E+01
 d    1 1.00
 0.31800000000000E+00 0.10000000000000E+01
 d    1 1.00
 0.90985336424000E-01 0.10000000000000E+01
 f    1 1.00
 0.76100000000000E+00 0.10000000000000E+01
 
    3 0
 s    6 1.00
 0.13575349682000E+05 0.60645503603591E-03
 0.20352333680000E+04 0.46979088884982E-02
 0.46322562359000E+03 0.24332477647552E-01
 0.13120019598000E+03 0.97399968307759E-01
 0.42853015891000E+02 0.30195584253780E+00
 0.15584185766000E+02 0.66233609137875E+00
 s    2 1.00
 0.62067138508000E+01 0.65595308539952E+00
 0.25764896527000E+01 0.37585633285142E+00
 s    1 1.00
 0.57696339419000E+00 0.10000000000000E+01
 s    1 1.00
 0.22972831358000E+00 0.10000000000000E+01
 s    1 1.00
 0.95164440028000E-01 0.10000000000000E+01
 s    1 1.00
 0.48475401370000E-01 0.10000000000000E+01
 p    4 1.00
 0.34697232244000E+02 0.11327220003114E-01
 0.79582622826000E+01 0.76169659202087E-01
 0.23780826883000E+01 0.30192252202676E+00
 0.81433208183000E+00 0.72785027349547E+00
 p    1 1.00
 0.28887547253000E+00 0.10000000000000E+01
 p    1 1.00
 0.10056823671000E+00 0.10000000000000E+01
 d    1 1.00
 0.10970000000000E+01 0.10000000000000E+01
 d    1 1.00
 0.31800000000000E+00 0.10000000000000E+01
 d    1 1.00
 0.90985336424000E-01 0.10000000000000E+01
 f    1 1.00
 0.76100000000000E+00 0.10000000000000E+01
 
    4 0
 s    6 1.00
 0.13575349682000E+05 0.60645503603591E-03
 0.20352333680000E+04 0.46979088884982E-02
 0.46322562359000E+03 0.24332477647552E-01
 0.13120019598000E+03 0.97399968307759E-01
 0.42853015891000E+02 0.30195584253780E+00
 0.15584185766000E+02 0.66233609137875E+00
 s    2 1.00
 0.62067138508000E+01 0.65595308539952E+00
 0.25764896527000E+01 0.37585633285142E+00
 s    1 1.00
 0.57696339419000E+00 0.10000000000000E+01
 s    1 1.00
 0.22972831358000E+00 0.10000000000000E+01
 s    1 1.00
 0.95164440028000E-01 0.10000000000000E+01
 s    1 1.00
 0.48475401370000E-01 0.10000000000000E+01
 p    4 1.00
 0.34697232244000E+02 0.11327220003114E-01
 0.79582622826000E+01 0.76169659202087E-01
 0.23780826883000E+01 0.30192252202676E+00
 0.81433208183000E+00 0.72785027349547E+00
 p    1 1.00
 0.28887547253000E+00 0.10000000000000E+01
 p    1 1.00
 0.10056823671000E+00 0.10000000000000E+01
 d    1 1.00
 0.10970000000000E+01 0.10000000000000E+01
 d    1 1.00
 0.31800000000000E+00 0.10000000000000E+01
 d    1 1.00
 0.90985336424000E-01 0.10000000000000E+01
 f    1 1.00
 0.76100000000000E+00 0.10000000000000E+01
 
    5 0
 s    6 1.00
 0.13575349682000E+05 0.60645503603591E-03
 0.20352333680000E+04 0.46979088884982E-02
 0.46322562359000E+03 0.24332477647552E-01
 0.13120019598000E+03 0.97399968307759E-01
 0.42853015891000E+02 0.30195584253780E+00
 0.15584185766000E+02 0.66233609137875E+00
 s    2 1.00
 0.62067138508000E+01 0.65595308539952E+00
 0.25764896527000E+01 0.37585633285142E+00
 s    1 1.00
 0.57696339419000E+00 0.10000000000000E+01
 s    1 1.00
 0.22972831358000E+00 0.10000000000000E+01
 s    1 1.00
 0.95164440028000E-01 0.10000000000000E+01
 s    1 1.00
 0.48475401370000E-01 0.10000000000000E+01
 p    4 1.00
 0.34697232244000E+02 0.11327220003114E-01
 0.79582622826000E+01 0.76169659202087E-01
 0.23780826883000E+01 0.30192252202676E+00
 0.81433208183000E+00 0.72785027349547E+00
 p    1 1.00
 0.28887547253000E+00 0.10000000000000E+01
 p    1 1.00
 0.10056823671000E+00 0.10000000000000E+01
 d    1 1.00
 0.10970000000000E+01 0.10000000000000E+01
 d    1 1.00
 0.31800000000000E+00 0.10000000000000E+01
 d    1 1.00
 0.90985336424000E-01 0.10000000000000E+01
 f    1 1.00
 0.76100000000000E+00 0.10000000000000E+01
 
    6 0
 s    6 1.00
 0.13575349682000E+05 0.60645503603591E-03
 0.20352333680000E+04 0.46979088884982E-02
 0.46322562359000E+03 0.24332477647552E-01
 0.13120019598000E+03 0.97399968307759E-01
 0.42853015891000E+02 0.30195584253780E+00
 0.15584185766000E+02 0.66233609137875E+00
 s    2 1.00
 0.62067138508000E+01 0.65595308539952E+00
 0.25764896527000E+01 0.37585633285142E+00
 s    1 1.00
 0.57696339419000E+00 0.10000000000000E+01
 s    1 1.00
 0.22972831358000E+00 0.10000000000000E+01
 s    1 1.00
 0.95164440028000E-01 0.10000000000000E+01
 s    1 1.00
 0.48475401370000E-01 0.10000000000000E+01
 p    4 1.00
 0.34697232244000E+02 0.11327220003114E-01
 0.79582622826000E+01 0.76169659202087E-01
 0.23780826883000E+01 0.30192252202676E+00
 0.81433208183000E+00 0.72785027349547E+00
 p    1 1.00
 0.28887547253000E+00 0.10000000000000E+01
 p    1 1.00
 0.10056823671000E+00 0.10000000000000E+01
 d    1 1.00
 0.10970000000000E+01 0.10000000000000E+01
 d    1 1.00
 0.31800000000000E+00 0.10000000000000E+01
 d    1 1.00
 0.90985336424000E-01 0.10000000000000E+01
 f    1 1.00
 0.76100000000000E+00 0.10000000000000E+01
 
    7 0
 s    3 1.00
 0.34061341000000E+02 0.25439307208879E-01
 0.51235746000000E+01 0.19008594890375E+00
 0.11646626000000E+01 0.85244113011042E+00
 s    1 1.00
 0.32723041000000E+00 0.10000000000000E+01
 s    1 1.00
 0.10307241000000E+00 0.10000000000000E+01
 p    1 1.00
 0.80000000000000E+00 0.10000000000000E+01
 p    1 1.00
 0.95774129632000E-01 0.10000000000000E+01
 
    8 0
 s    3 1.00
 0.34061341000000E+02 0.25439307208879E-01
 0.51235746000000E+01 0.19008594890375E+00
 0.11646626000000E+01 0.85244113011042E+00
 s    1 1.00
 0.32723041000000E+00 0.10000000000000E+01
 s    1 1.00
 0.10307241000000E+00 0.10000000000000E+01
 p    1 1.00
 0.80000000000000E+00 0.10000000000000E+01
 p    1 1.00
 0.95774129632000E-01 0.10000000000000E+01
 
    9 0
 s    3 1.00
 0.34061341000000E+02 0.25439307208879E-01
 0.51235746000000E+01 0.19008594890375E+00
 0.11646626000000E+01 0.85244113011042E+00
 s    1 1.00
 0.32723041000000E+00 0.10000000000000E+01
 s    1 1.00
 0.10307241000000E+00 0.10000000000000E+01
 p    1 1.00
 0.80000000000000E+00 0.10000000000000E+01
 p    1 1.00
 0.95774129632000E-01 0.10000000000000E+01
 
   10 0
 s    3 1.00
 0.34061341000000E+02 0.25439307208879E-01
 0.51235746000000E+01 0.19008594890375E+00
 0.11646626000000E+01 0.85244113011042E+00
 s    1 1.00
 0.32723041000000E+00 0.10000000000000E+01
 s    1 1.00
 0.10307241000000E+00 0.10000000000000E+01
 p    1 1.00
 0.80000000000000E+00 0.10000000000000E+01
 p    1 1.00
 0.95774129632000E-01 0.10000000000000E+01
 
   11 0
 s    6 1.00
 0.19730800647000E+05 0.58626402628763E-03
 0.29578958745000E+04 0.45428820586397E-02
 0.67322133595000E+03 0.23558413450084E-01
 0.19068249494000E+03 0.94709193292923E-01
 0.62295441898000E+02 0.29719784913376E+00
 0.22654161182000E+02 0.66916246895232E+00
 s    2 1.00
 0.89791477428000E+01 0.64596683630063E+00
 0.36863002370000E+01 0.38700574393705E+00
 s    1 1.00
 0.84660076805000E+00 0.10000000000000E+01
 s    1 1.00
 0.33647133771000E+00 0.10000000000000E+01
 s    1 1.00
 0.13647653675000E+00 0.10000000000000E+01
 s    1 1.00
 0.68441605847000E-01 0.10000000000000E+01
 p    4 1.00
 0.49200380510000E+02 0.11448825101764E-01
 0.11346790537000E+02 0.78422337970864E-01
 0.34273972411000E+01 0.30818094738830E+00
 0.11785525134000E+01 0.72027196368413E+00
 p    1 1.00
 0.41642204972000E+00 0.10000000000000E+01
 p    1 1.00
 0.14260826011000E+00 0.10000000000000E+01
 d    1 1.00
 0.16540000000000E+01 0.10000000000000E+01
 d    1 1.00
 0.46900000000000E+00 0.10000000000000E+01
 d    1 1.00
 0.12829642058000E+00 0.10000000000000E+01
 f    1 1.00
 0.10930000000000E+01 0.10000000000000E+01
 
   12 0
 s    6 1.00
 0.27032382631000E+05 0.57227335211155E-03
 0.40523871392000E+04 0.44353233492995E-02
 0.92232722710000E+03 0.23020107706038E-01
 0.26124070989000E+03 0.92822490667928E-01
 0.85354641351000E+02 0.29378500009671E+00
 0.31035035245000E+02 0.67401604501641E+00
 s    2 1.00
 0.12260860728000E+02 0.63839937025506E+00
 0.49987076005000E+01 0.39534587125718E+00
 s    1 1.00
 0.11703108158000E+01 0.10000000000000E+01
 s    1 1.00
 0.46474740994000E+00 0.10000000000000E+01
 s    1 1.00
 0.18504536357000E+00 0.10000000000000E+01
 s    1 1.00
 0.70288026270000E-01 0.10000000000000E+01
 p    4 1.00
 0.63274954801000E+02 0.12018332222616E-01
 0.14627049379000E+02 0.83005421790056E-01
 0.44501223456000E+01 0.31991743925964E+00
 0.15275799647000E+01 0.70715542916104E+00
 p    1 1.00
 0.52935117943000E+00 0.10000000000000E+01
 p    1 1.00
 0.17478421270000E+00 0.10000000000000E+01
 p    1 1.00
 0.51112745706000E-01 0.10000000000000E+01
 d    1 1.00
 0.23140000000000E+01 0.10000000000000E+01
 d    1 1.00
 0.64500000000000E+00 0.10000000000000E+01
 d    1 1.00
 0.14696477366000E+00 0.10000000000000E+01
 f    1 1.00
 0.14280000000000E+01 0.10000000000000E+01
 
   13 0
 s    6 1.00
 0.27032382631000E+05 0.57227335211155E-03
 0.40523871392000E+04 0.44353233492995E-02
 0.92232722710000E+03 0.23020107706038E-01
 0.26124070989000E+03 0.92822490667928E-01
 0.85354641351000E+02 0.29378500009671E+00
 0.31035035245000E+02 0.67401604501641E+00
 s    2 1.00
 0.12260860728000E+02 0.63839937025506E+00
 0.49987076005000E+01 0.39534587125718E+00
 s    1 1.00
 0.11703108158000E+01 0.10000000000000E+01
 s    1 1.00
 0.46474740994000E+00 0.10000000000000E+01
 s    1 1.00
 0.18504536357000E+00 0.10000000000000E+01
 s    1 1.00
 0.70288026270000E-01 0.10000000000000E+01
 p    4 1.00
 0.63274954801000E+02 0.12018332222616E-01
 0.14627049379000E+02 0.83005421790056E-01
 0.44501223456000E+01 0.31991743925964E+00
 0.15275799647000E+01 0.70715542916104E+00
 p    1 1.00
 0.52935117943000E+00 0.10000000000000E+01
 p    1 1.00
 0.17478421270000E+00 0.10000000000000E+01
 p    1 1.00
 0.51112745706000E-01 0.10000000000000E+01
 d    1 1.00
 0.23140000000000E+01 0.10000000000000E+01
 d    1 1.00
 0.64500000000000E+00 0.10000000000000E+01
 d    1 1.00
 0.14696477366000E+00 0.10000000000000E+01
 f    1 1.00
 0.14280000000000E+01 0.10000000000000E+01
 
   14 0
 s    6 1.00
 0.19730800647000E+05 0.58626402628763E-03
 0.29578958745000E+04 0.45428820586397E-02
 0.67322133595000E+03 0.23558413450084E-01
 0.19068249494000E+03 0.94709193292923E-01
 0.62295441898000E+02 0.29719784913376E+00
 0.22654161182000E+02 0.66916246895232E+00
 s    2 1.00
 0.89791477428000E+01 0.64596683630063E+00
 0.36863002370000E+01 0.38700574393705E+00
 s    1 1.00
 0.84660076805000E+00 0.10000000000000E+01
 s    1 1.00
 0.33647133771000E+00 0.10000000000000E+01
 s    1 1.00
 0.13647653675000E+00 0.10000000000000E+01
 s    1 1.00
 0.68441605847000E-01 0.10000000000000E+01
 p    4 1.00
 0.49200380510000E+02 0.11448825101764E-01
 0.11346790537000E+02 0.78422337970864E-01
 0.34273972411000E+01 0.30818094738830E+00
 0.11785525134000E+01 0.72027196368413E+00
 p    1 1.00
 0.41642204972000E+00 0.10000000000000E+01
 p    1 1.00
 0.14260826011000E+00 0.10000000000000E+01
 d    1 1.00
 0.16540000000000E+01 0.10000000000000E+01
 d    1 1.00
 0.46900000000000E+00 0.10000000000000E+01
 d    1 1.00
 0.12829642058000E+00 0.10000000000000E+01
 f    1 1.00
 0.10930000000000E+01 0.10000000000000E+01
 
   15 0
 s    3 1.00
 0.34061341000000E+02 0.25439307208879E-01
 0.51235746000000E+01 0.19008594890375E+00
 0.11646626000000E+01 0.85244113011042E+00
 s    1 1.00
 0.32723041000000E+00 0.10000000000000E+01
 s    1 1.00
 0.10307241000000E+00 0.10000000000000E+01
 p    1 1.00
 0.80000000000000E+00 0.10000000000000E+01
 p    1 1.00
 0.95774129632000E-01 0.10000000000000E+01
 
   16 0
 s    3 1.00
 0.34061341000000E+02 0.25439307208879E-01
 0.51235746000000E+01 0.19008594890375E+00
 0.11646626000000E+01 0.85244113011042E+00
 s    1 1.00
 0.32723041000000E+00 0.10000000000000E+01
 s    1 1.00
 0.10307241000000E+00 0.10000000000000E+01
 p    1 1.00
 0.80000000000000E+00 0.10000000000000E+01
 p    1 1.00
 0.95774129632000E-01 0.10000000000000E+01
 
[MO]
 Sym= X
 Ene= -0.894104
 Spin= Alpha
 Occup= -0.894104
         1   -2.278423E-04
         2   -5.293885E-04
         3    1.481431E-03
         4   -3.286826E-03
         5   -1.253899E-04
         6   -1.376498E-02
         7    2.020886E-03
         8    2.255397E-04
         9    2.359256E-02
        10   -3.021932E-03
        11    5.212969E-04
        12    2.178415E-02
        13   -4.050687E-02
        14    1.354263E-02
        15    6.228467E-03
        16    4.905070E-06
        17   -1.749026E-05
        18    1.258519E-05
        19   -1.731004E-05
        20   -6.165063E-03
        21    3.683641E-03
        22   -8.006586E-04
        23    4.819600E-04
        24    3.186985E-04
        25   -8.776770E-04
        26   -1.394065E-02
        27    6.975742E-03
        28   -5.452536E-03
        29    5.130184E-03
        30    3.223525E-04
        31    1.535508E-03
        32    2.561356E-03
        33   -1.057925E-02
        34   -2.401193E-05
        35    8.373203E-06
        36   -8.328268E-05
        37    9.674836E-06
        38   -8.196266E-06
        39   -7.080597E-04
        40    2.254055E-05
        41   -3.037564E-06
        42    8.197951E-04
        43   -6.690072E-04
        44    2.902338E-05
        45    6.279350E-05
        46    1.940374E-04
        47   -3.602726E-03
        48   -6.156790E-02
        49    6.974543E-03
        50    4.246971E-04
        51    1.797652E-06
        52    1.941591E-01
        53   -6.007657E-04
        54    1.518368E-05
        55    2.014679E-01
        56   -1.909911E-02
        57   -5.326398E-04
        58    1.957709E-01
        59    4.680534E-05
        60   -4.364791E-05
        61   -3.157427E-06
        62    1.135034E-07
        63   -6.339173E-04
        64    5.312761E-07
        65    4.704670E-04
        66   -7.765435E-04
        67    3.060765E-04
        68    3.239972E-06
        69   -3.082902E-03
        70    8.162720E-07
        71    1.217711E-02
        72   -1.365545E-02
        73    1.478342E-03
        74   -8.550629E-05
        75    4.458146E-03
        76   -1.218271E-05
        77    8.922115E-06
        78    3.298589E-08
        79   -1.076258E-03
        80   -8.968162E-06
        81    2.753369E-08
        82    6.345764E-04
        83   -3.002111E-06
        84   -7.178891E-08
        85    8.093754E-04
        86    6.028873E-08
        87   -2.284739E-04
        88   -5.307668E-04
        89    1.483961E-03
        90   -3.291906E-03
        91    1.646921E-03
        92   -1.376700E-02
        93    2.020959E-03
        94   -2.259724E-04
        95    2.361911E-02
        96   -2.988549E-03
        97   -5.155919E-04
        98    2.181136E-02
        99   -4.051339E-02
       100   -1.404030E-02
       101    6.264105E-03
       102    4.931640E-06
       103   -1.741196E-05
       104    1.248032E-05
       105    1.746893E-05
       106   -6.164642E-03
       107   -3.683805E-03
       108   -7.936533E-04
       109    4.749467E-04
       110    3.187066E-04
       111    8.752908E-04
       112   -1.393888E-02
       113   -6.975392E-03
       114   -5.517645E-03
       115    5.208194E-03
       116    3.094505E-04
       117   -1.452251E-03
       118    2.550591E-03
       119    1.057905E-02
       120   -2.402182E-05
       121   -8.334687E-06
       122   -8.342073E-05
       123    9.790923E-06
       124    8.132945E-06
       125   -7.079048E-04
       126    2.243773E-05
       127    3.049211E-06
       128    8.198254E-04
       129    6.689627E-04
       130    1.505952E-04
       131    3.260065E-04
       132    6.616053E-04
       133   -1.254692E-02
       134    2.574768E-02
       135    1.580750E-02
       136   -1.644646E-03
       137    8.895644E-04
       138   -1.527821E-01
       139   -1.115893E-02
       140    7.587671E-03
       141   -1.555390E-01
       142   -2.428722E-02
       143   -8.988542E-03
       144   -9.378695E-02
       145    1.787879E-04
       146   -2.157107E-04
       147    3.692277E-05
       148   -1.482644E-06
       149   -8.621648E-04
       150    2.990852E-03
       151    7.793312E-04
       152   -9.255963E-04
       153    1.462651E-04
       154    2.045000E-03
       155   -4.246168E-03
       156    4.966259E-03
       157    9.754517E-03
       158   -7.587534E-03
       159   -2.166983E-03
       160   -1.153105E-02
       161    3.894100E-03
       162   -1.271237E-02
       163   -1.875297E-05
       164    1.232419E-05
       165    8.613155E-04
       166   -2.278947E-05
       167    2.032212E-05
       168   -2.099880E-04
       169    4.794922E-05
       170   -3.685676E-05
       171   -9.455880E-04
       172    3.346627E-04
       173   -1.370375E-03
       174   -3.121337E-03
       175    3.179042E-03
       176    2.673386E-02
       177   -2.987911E-02
       178    1.018635E-02
       179    1.103266E-02
       180   -9.805710E-07
       181   -1.126001E-01
       182    6.988737E-04
       183   -1.401475E-05
       184   -1.156671E-01
       185   -3.771074E-02
       186    6.540975E-04
       187   -1.364989E-01
       188    5.920878E-04
       189   -3.292337E-04
       190   -2.628541E-04
       191    2.229773E-07
       192    1.000947E-02
       193    4.271228E-07
       194   -2.206565E-03
       195    4.931431E-03
       196   -2.724866E-03
       197    3.616477E-06
       198    2.460505E-02
       199    3.815633E-07
       200   -7.634865E-03
       201    9.026692E-03
       202   -1.391827E-03
       203   -1.338322E-04
       204    1.781205E-02
       205    3.395528E-06
       206    1.436247E-04
       207   -5.671390E-09
       208    2.994442E-04
       209   -1.018692E-04
       210   -5.661463E-08
       211    1.085405E-03
       212   -9.082362E-05
       213    6.422359E-08
       214   -1.487151E-03
       215   -4.323801E-08
       216    1.508746E-04
       217    3.265034E-04
       218    6.622707E-04
       219   -1.256463E-02
       220    2.767441E-02
       221    1.577586E-02
       222   -1.644511E-03
       223   -8.843024E-04
       224   -1.528044E-01
       225   -1.117907E-02
       226   -7.596402E-03
       227   -1.555624E-01
       228   -2.431226E-02
       229    9.674535E-03
       230   -9.378551E-02
       231    1.786933E-04
       232   -2.160403E-04
       233    3.734701E-05
       234    1.774978E-06
       235   -8.616471E-04
       236   -2.990933E-03
       237    7.850762E-04
       238   -9.315378E-04
       239    1.464616E-04
       240   -2.048421E-03
       241   -4.243499E-03
       242   -4.965946E-03
       243    9.709460E-03
       244   -7.544648E-03
       245   -2.164812E-03
       246    1.160306E-02
       247    3.902573E-03
       248    1.271915E-02
       249   -1.883443E-05
       250   -1.240899E-05
       251    8.615338E-04
       252   -2.290010E-05
       253   -2.021783E-05
       254   -2.102477E-04
       255    4.816914E-05
       256    3.686624E-05
       257   -9.456212E-04
       258   -3.346037E-04
       259   -4.284334E-04
       260   -2.265802E-04
       261   -2.071435E-02
       262   -1.341188E-05
       263    5.798506E-06
       264    9.430685E-04
       265   -6.333117E-03
       266   -4.984348E-04
       267   -6.281627E-03
       268   -4.287294E-04
       269   -2.177554E-04
       270   -2.068427E-02
       271   -1.252550E-05
       272   -6.975366E-06
       273    9.441594E-04
       274   -6.417324E-03
       275    4.713136E-04
       276   -6.288234E-03
       277   -4.948475E-04
       278   -2.861544E-03
       279    4.217486E-02
       280   -1.742493E-05
       281    1.202483E-04
       282   -6.196751E-03
       283   -1.963977E-03
       284   -3.407339E-03
       285    1.725516E-03
       286   -4.982937E-04
       287   -2.859871E-03
       288    4.242635E-02
       289   -1.706424E-05
       290   -1.198024E-04
       291   -6.198043E-03
       292   -1.960608E-03
       293    3.441012E-03
       294    1.725128E-03
       295   -5.179215E-05
       296   -1.199998E-04
       297    1.048718E-04
       298    4.159882E-04
       299   -8.737697E-03
       300    6.660551E-04
       301    4.925714E-04
       302   -2.082469E-07
       303    1.647045E-02
       304    1.130049E-04
       305    2.958833E-07
       306    1.886576E-02
       307   -3.749002E-03
       308    2.351097E-05
       309    6.094273E-03
       310    1.943018E-05
       311   -4.883056E-06
       312   -1.454712E-05
       313   -5.106132E-08
       314    4.181085E-03
       315   -1.332563E-09
       316   -1.168699E-05
       317    8.093432E-05
       318   -6.924733E-05
       319   -5.424267E-07
       320    1.256256E-02
       321   -4.101692E-08
       322   -1.024618E-03
       323    3.381473E-03
       324   -2.356855E-03
       325    1.904830E-05
       326    2.836936E-03
       327    3.287842E-06
       328    7.708981E-06
       329   -7.911727E-09
       330    6.902336E-06
       331   -5.638904E-06
       332    3.586524E-08
       333    6.655122E-04
       334   -4.703780E-06
       335   -2.525055E-08
       336   -6.747726E-04
       337    1.043908E-08
       338   -1.543077E-05
       339   -3.322586E-05
       340   -6.284891E-06
       341    6.235730E-04
       342   -7.236901E-03
       343   -1.290148E-03
       344   -1.740765E-04
       345    1.406790E-04
       346   -7.401447E-02
       347   -2.971804E-04
       348    2.977829E-04
       349   -6.864174E-02
       350   -1.583787E-03
       351    6.683678E-04
       352   -5.520051E-02
       353   -2.366964E-04
       354    2.628123E-04
       355   -6.639763E-03
       356    4.146757E-06
       357   -5.079237E-06
       358    9.324793E-07
       359    4.547866E-08
       360   -2.398474E-06
       361    4.703352E-04
       362   -1.354570E-05
       363   -1.238706E-05
       364    2.593276E-05
       365    1.191728E-05
       366   -5.251126E-04
       367    1.543869E-03
       368   -8.421274E-05
       369    4.365798E-05
       370    4.055476E-05
       371    6.622516E-05
       372   -2.977317E-04
       373    2.777500E-04
       374    8.008406E-07
       375    2.000884E-06
       376    6.309954E-05
       377   -1.447996E-06
       378   -6.347473E-07
       379    8.161051E-05
       380    3.735560E-07
       381   -2.049720E-06
       382   -1.662674E-04
       383    1.314765E-04
       384   -1.535623E-05
       385   -3.307389E-05
       386   -6.119645E-06
       387    6.203283E-04
       388   -7.232569E-03
       389   -1.266102E-03
       390   -1.672219E-04
       391   -1.429010E-04
       392   -7.401323E-02
       393   -2.906255E-04
       394   -2.996155E-04
       395   -6.864100E-02
       396   -1.559926E-03
       397   -6.649287E-04
       398   -5.519420E-02
       399   -2.244779E-04
       400   -2.665287E-04
       401   -6.640780E-03
       402    4.173550E-06
       403   -5.098245E-06
       404    9.246958E-07
       405   -6.831456E-08
       406   -2.422416E-06
       407   -4.703305E-04
       408   -1.329153E-05
       409   -1.241384E-05
       410    2.570537E-05
       411   -1.152412E-05
       412   -5.250512E-04
       413   -1.543822E-03
       414   -8.459144E-05
       415    4.554059E-05
       416    3.905085E-05
       417   -6.579781E-05
       418   -2.978755E-04
       419   -2.769825E-04
       420    7.995576E-07
       421   -2.002855E-06
       422    6.310065E-05
       423   -1.435060E-06
       424    6.505651E-07
       425    8.160536E-05
       426    3.623409E-07
       427    2.036547E-06
       428   -1.662638E-04
       429   -1.314764E-04
       430    6.118008E-03
       431    1.450557E-02
       432   -2.248631E-02
       433   -3.553856E-02
       434   -2.282782E-02
       435   -8.095108E-02
       436   -2.146861E-02
       437    1.043948E-05
       438    2.620147E-01
       439   -2.438766E-02
       440    1.548958E-06
       441    2.584056E-01
       442   -2.423623E-02
       443   -1.019737E-04
       444    2.110569E-01
       445   -1.364600E-04
       446   -3.484175E-05
       447    1.713018E-04
       448    2.656866E-07
       449    7.929742E-04
       450    2.059154E-07
       451   -3.091368E-04
       452   -1.923874E-03
       453    2.233011E-03
       454   -3.647345E-06
       455    3.610130E-03
       456    6.404242E-07
       457   -2.283208E-03
       458   -4.129328E-03
       459    6.412535E-03
       460   -5.953212E-06
       461    2.333927E-03
       462    1.330368E-06
       463   -1.685231E-04
       464    4.105710E-08
       465   -1.025418E-03
       466   -1.103625E-04
       467    1.080852E-08
       468    5.499144E-04
       469    3.364600E-04
       470   -6.589240E-08
       471    8.258278E-04
       472   -4.556428E-08
       473    1.128337E-02
       474    2.177158E-02
       475    3.805043E-02
       476   -2.733361E-03
       477   -2.283514E-03
       478    1.316006E-02
       479    1.146068E-03
       480   -4.377288E-03
       481    1.501629E-02
       482    1.127646E-02
       483    2.169640E-02
       484    3.779218E-02
       485   -2.728787E-03
       486    2.276579E-03
       487    1.316371E-02
       488    1.182371E-03
       489    4.334812E-03
       490    1.502639E-02
 Sym= X
 Ene= 0.894104
 Spin= Alpha
 Occup= 0.894104
         1    5.089600E-03
         2    1.105781E-02
         3   -3.580090E-03
         4   -2.338054E-01
         5   -8.779999E+00
         6   -3.169293E-01
         7    1.696919E-02
         8    4.552532E-02
         9    2.319748E-03
        10    8.327186E-02
        11    6.870707E-03
        12    1.351768E-03
        13    4.200710E+00
        14   -4.052552E+00
        15    1.129636E-02
        16   -8.947890E-04
        17    1.425607E-04
        18    7.522282E-04
        19    2.069416E-03
        20   -1.213875E-04
        21    2.544315E-05
        22    1.591945E-02
        23   -2.134983E-02
        24    5.430383E-03
        25    1.958612E-02
        26   -4.598156E-04
        27   -2.708488E-04
        28    1.503449E+00
        29   -1.476493E+00
        30   -2.695602E-02
        31    1.189109E+00
        32    3.890322E-03
        33    7.152865E-03
        34    1.286732E-04
        35   -2.933079E-04
        36    2.068547E-05
        37    6.442830E-04
        38    5.399964E-04
        39   -4.134468E-05
        40   -8.169162E-04
        41   -1.464826E-04
        42    1.359220E-05
        43   -4.160584E-06
        44    6.685409E-07
        45    1.566274E-06
        46   -3.077140E-06
        47    3.515845E-06
        48    7.211800E-04
        49   -5.334239E-04
        50    1.303717E-05
        51    1.619348E-02
        52    8.035785E-07
        53    7.460715E-06
        54   -9.090426E-02
        55   -1.147867E-06
        56    2.201806E-04
        57   -9.413554E+00
        58    3.210025E-05
        59    1.302091E-06
        60   -5.698025E-07
        61   -7.322881E-07
        62   -1.846867E-03