[Molden Format]
[Title]
ADC(2) - opt by CAM-B3LYP gaussian                                              
[Atoms] AU
 c     1    6 -.12590385386216E+01 -.22819701624009E+01 -.30156123253150E-01
 c     2    6 -.25547233845863E+01 -.83266058000000E-06 -.28792213416740E-01
 c     3    6 -.12590428849917E+01 0.22819669475044E+01 -.30169993842970E-01
 c     4    6 0.13339759331395E+01 0.22828246941961E+01 -.32722654800530E-01
 c     5    6 0.26864234278208E+01 0.32869423900000E-05 -.32794180934660E-01
 c     6    6 0.13339778039684E+01 -.22828226745513E+01 -.32706516539360E-01
 h     7    1 -.23005849451053E+01 -.40353719055945E+01 -.27139024303910E-01
 h     8    1 -.23005903875166E+01 0.40353685773143E+01 -.27164403325880E-01
 h     9    1 0.23527432406667E+01 0.40554759247724E+01 -.35914685697900E-01
 h    10    1 0.23527525948111E+01 -.40554698422164E+01 -.35883032785170E-01
 n    11    7 -.52784595104117E+01 -.53030440000000E-06 -.22539903328000E-01
 o    12    8 -.63796877956448E+01 0.20272212823250E+01 -.19883023974210E-01
 o    13    8 -.63796922742957E+01 -.20272201130570E+01 -.19923067270970E-01
 n    14    7 0.52516126460355E+01 -.32243452000000E-06 -.88209511610250E-01
 h    15    1 0.62001707317805E+01 0.16133662892433E+01 0.23199721167530E+00
 h    16    1 0.62001633429513E+01 -.16133706190784E+01 0.23200112340840E+00
[GTO]
    1 0
 s    6 1.00
 0.13575349682000E+05 0.60645503603591E-03
 0.20352333680000E+04 0.46979088884982E-02
 0.46322562359000E+03 0.24332477647552E-01
 0.13120019598000E+03 0.97399968307759E-01
 0.42853015891000E+02 0.30195584253780E+00
 0.15584185766000E+02 0.66233609137875E+00
 s    2 1.00
 0.62067138508000E+01 0.65595308539952E+00
 0.25764896527000E+01 0.37585633285142E+00
 s    1 1.00
 0.57696339419000E+00 0.10000000000000E+01
 s    1 1.00
 0.22972831358000E+00 0.10000000000000E+01
 s    1 1.00
 0.95164440028000E-01 0.10000000000000E+01
 s    1 1.00
 0.48475401370000E-01 0.10000000000000E+01
 p    4 1.00
 0.34697232244000E+02 0.11327220003114E-01
 0.79582622826000E+01 0.76169659202087E-01
 0.23780826883000E+01 0.30192252202676E+00
 0.81433208183000E+00 0.72785027349547E+00
 p    1 1.00
 0.28887547253000E+00 0.10000000000000E+01
 p    1 1.00
 0.10056823671000E+00 0.10000000000000E+01
 d    1 1.00
 0.10970000000000E+01 0.10000000000000E+01
 d    1 1.00
 0.31800000000000E+00 0.10000000000000E+01
 d    1 1.00
 0.90985336424000E-01 0.10000000000000E+01
 f    1 1.00
 0.76100000000000E+00 0.10000000000000E+01
 
    2 0
 s    6 1.00
 0.13575349682000E+05 0.60645503603591E-03
 0.20352333680000E+04 0.46979088884982E-02
 0.46322562359000E+03 0.24332477647552E-01
 0.13120019598000E+03 0.97399968307759E-01
 0.42853015891000E+02 0.30195584253780E+00
 0.15584185766000E+02 0.66233609137875E+00
 s    2 1.00
 0.62067138508000E+01 0.65595308539952E+00
 0.25764896527000E+01 0.37585633285142E+00
 s    1 1.00
 0.57696339419000E+00 0.10000000000000E+01
 s    1 1.00
 0.22972831358000E+00 0.10000000000000E+01
 s    1 1.00
 0.95164440028000E-01 0.10000000000000E+01
 s    1 1.00
 0.48475401370000E-01 0.10000000000000E+01
 p    4 1.00
 0.34697232244000E+02 0.11327220003114E-01
 0.79582622826000E+01 0.76169659202087E-01
 0.23780826883000E+01 0.30192252202676E+00
 0.81433208183000E+00 0.72785027349547E+00
 p    1 1.00
 0.28887547253000E+00 0.10000000000000E+01
 p    1 1.00
 0.10056823671000E+00 0.10000000000000E+01
 d    1 1.00
 0.10970000000000E+01 0.10000000000000E+01
 d    1 1.00
 0.31800000000000E+00 0.10000000000000E+01
 d    1 1.00
 0.90985336424000E-01 0.10000000000000E+01
 f    1 1.00
 0.76100000000000E+00 0.10000000000000E+01
 
    3 0
 s    6 1.00
 0.13575349682000E+05 0.60645503603591E-03
 0.20352333680000E+04 0.46979088884982E-02
 0.46322562359000E+03 0.24332477647552E-01
 0.13120019598000E+03 0.97399968307759E-01
 0.42853015891000E+02 0.30195584253780E+00
 0.15584185766000E+02 0.66233609137875E+00
 s    2 1.00
 0.62067138508000E+01 0.65595308539952E+00
 0.25764896527000E+01 0.37585633285142E+00
 s    1 1.00
 0.57696339419000E+00 0.10000000000000E+01
 s    1 1.00
 0.22972831358000E+00 0.10000000000000E+01
 s    1 1.00
 0.95164440028000E-01 0.10000000000000E+01
 s    1 1.00
 0.48475401370000E-01 0.10000000000000E+01
 p    4 1.00
 0.34697232244000E+02 0.11327220003114E-01
 0.79582622826000E+01 0.76169659202087E-01
 0.23780826883000E+01 0.30192252202676E+00
 0.81433208183000E+00 0.72785027349547E+00
 p    1 1.00
 0.28887547253000E+00 0.10000000000000E+01
 p    1 1.00
 0.10056823671000E+00 0.10000000000000E+01
 d    1 1.00
 0.10970000000000E+01 0.10000000000000E+01
 d    1 1.00
 0.31800000000000E+00 0.10000000000000E+01
 d    1 1.00
 0.90985336424000E-01 0.10000000000000E+01
 f    1 1.00
 0.76100000000000E+00 0.10000000000000E+01
 
    4 0
 s    6 1.00
 0.13575349682000E+05 0.60645503603591E-03
 0.20352333680000E+04 0.46979088884982E-02
 0.46322562359000E+03 0.24332477647552E-01
 0.13120019598000E+03 0.97399968307759E-01
 0.42853015891000E+02 0.30195584253780E+00
 0.15584185766000E+02 0.66233609137875E+00
 s    2 1.00
 0.62067138508000E+01 0.65595308539952E+00
 0.25764896527000E+01 0.37585633285142E+00
 s    1 1.00
 0.57696339419000E+00 0.10000000000000E+01
 s    1 1.00
 0.22972831358000E+00 0.10000000000000E+01
 s    1 1.00
 0.95164440028000E-01 0.10000000000000E+01
 s    1 1.00
 0.48475401370000E-01 0.10000000000000E+01
 p    4 1.00
 0.34697232244000E+02 0.11327220003114E-01
 0.79582622826000E+01 0.76169659202087E-01
 0.23780826883000E+01 0.30192252202676E+00
 0.81433208183000E+00 0.72785027349547E+00
 p    1 1.00
 0.28887547253000E+00 0.10000000000000E+01
 p    1 1.00
 0.10056823671000E+00 0.10000000000000E+01
 d    1 1.00
 0.10970000000000E+01 0.10000000000000E+01
 d    1 1.00
 0.31800000000000E+00 0.10000000000000E+01
 d    1 1.00
 0.90985336424000E-01 0.10000000000000E+01
 f    1 1.00
 0.76100000000000E+00 0.10000000000000E+01
 
    5 0
 s    6 1.00
 0.13575349682000E+05 0.60645503603591E-03
 0.20352333680000E+04 0.46979088884982E-02
 0.46322562359000E+03 0.24332477647552E-01
 0.13120019598000E+03 0.97399968307759E-01
 0.42853015891000E+02 0.30195584253780E+00
 0.15584185766000E+02 0.66233609137875E+00
 s    2 1.00
 0.62067138508000E+01 0.65595308539952E+00
 0.25764896527000E+01 0.37585633285142E+00
 s    1 1.00
 0.57696339419000E+00 0.10000000000000E+01
 s    1 1.00
 0.22972831358000E+00 0.10000000000000E+01
 s    1 1.00
 0.95164440028000E-01 0.10000000000000E+01
 s    1 1.00
 0.48475401370000E-01 0.10000000000000E+01
 p    4 1.00
 0.34697232244000E+02 0.11327220003114E-01
 0.79582622826000E+01 0.76169659202087E-01
 0.23780826883000E+01 0.30192252202676E+00
 0.81433208183000E+00 0.72785027349547E+00
 p    1 1.00
 0.28887547253000E+00 0.10000000000000E+01
 p    1 1.00
 0.10056823671000E+00 0.10000000000000E+01
 d    1 1.00
 0.10970000000000E+01 0.10000000000000E+01
 d    1 1.00
 0.31800000000000E+00 0.10000000000000E+01
 d    1 1.00
 0.90985336424000E-01 0.10000000000000E+01
 f    1 1.00
 0.76100000000000E+00 0.10000000000000E+01
 
    6 0
 s    6 1.00
 0.13575349682000E+05 0.60645503603591E-03
 0.20352333680000E+04 0.46979088884982E-02
 0.46322562359000E+03 0.24332477647552E-01
 0.13120019598000E+03 0.97399968307759E-01
 0.42853015891000E+02 0.30195584253780E+00
 0.15584185766000E+02 0.66233609137875E+00
 s    2 1.00
 0.62067138508000E+01 0.65595308539952E+00
 0.25764896527000E+01 0.37585633285142E+00
 s    1 1.00
 0.57696339419000E+00 0.10000000000000E+01
 s    1 1.00
 0.22972831358000E+00 0.10000000000000E+01
 s    1 1.00
 0.95164440028000E-01 0.10000000000000E+01
 s    1 1.00
 0.48475401370000E-01 0.10000000000000E+01
 p    4 1.00
 0.34697232244000E+02 0.11327220003114E-01
 0.79582622826000E+01 0.76169659202087E-01
 0.23780826883000E+01 0.30192252202676E+00
 0.81433208183000E+00 0.72785027349547E+00
 p    1 1.00
 0.28887547253000E+00 0.10000000000000E+01
 p    1 1.00
 0.10056823671000E+00 0.10000000000000E+01
 d    1 1.00
 0.10970000000000E+01 0.10000000000000E+01
 d    1 1.00
 0.31800000000000E+00 0.10000000000000E+01
 d    1 1.00
 0.90985336424000E-01 0.10000000000000E+01
 f    1 1.00
 0.76100000000000E+00 0.10000000000000E+01
 
    7 0
 s    3 1.00
 0.34061341000000E+02 0.25439307208879E-01
 0.51235746000000E+01 0.19008594890375E+00
 0.11646626000000E+01 0.85244113011042E+00
 s    1 1.00
 0.32723041000000E+00 0.10000000000000E+01
 s    1 1.00
 0.10307241000000E+00 0.10000000000000E+01
 p    1 1.00
 0.80000000000000E+00 0.10000000000000E+01
 p    1 1.00
 0.95774129632000E-01 0.10000000000000E+01
 
    8 0
 s    3 1.00
 0.34061341000000E+02 0.25439307208879E-01
 0.51235746000000E+01 0.19008594890375E+00
 0.11646626000000E+01 0.85244113011042E+00
 s    1 1.00
 0.32723041000000E+00 0.10000000000000E+01
 s    1 1.00
 0.10307241000000E+00 0.10000000000000E+01
 p    1 1.00
 0.80000000000000E+00 0.10000000000000E+01
 p    1 1.00
 0.95774129632000E-01 0.10000000000000E+01
 
    9 0
 s    3 1.00
 0.34061341000000E+02 0.25439307208879E-01
 0.51235746000000E+01 0.19008594890375E+00
 0.11646626000000E+01 0.85244113011042E+00
 s    1 1.00
 0.32723041000000E+00 0.10000000000000E+01
 s    1 1.00
 0.10307241000000E+00 0.10000000000000E+01
 p    1 1.00
 0.80000000000000E+00 0.10000000000000E+01
 p    1 1.00
 0.95774129632000E-01 0.10000000000000E+01
 
   10 0
 s    3 1.00
 0.34061341000000E+02 0.25439307208879E-01
 0.51235746000000E+01 0.19008594890375E+00
 0.11646626000000E+01 0.85244113011042E+00
 s    1 1.00
 0.32723041000000E+00 0.10000000000000E+01
 s    1 1.00
 0.10307241000000E+00 0.10000000000000E+01
 p    1 1.00
 0.80000000000000E+00 0.10000000000000E+01
 p    1 1.00
 0.95774129632000E-01 0.10000000000000E+01
 
   11 0
 s    6 1.00
 0.19730800647000E+05 0.58626402628763E-03
 0.29578958745000E+04 0.45428820586397E-02
 0.67322133595000E+03 0.23558413450084E-01
 0.19068249494000E+03 0.94709193292923E-01
 0.62295441898000E+02 0.29719784913376E+00
 0.22654161182000E+02 0.66916246895232E+00
 s    2 1.00
 0.89791477428000E+01 0.64596683630063E+00
 0.36863002370000E+01 0.38700574393705E+00
 s    1 1.00
 0.84660076805000E+00 0.10000000000000E+01
 s    1 1.00
 0.33647133771000E+00 0.10000000000000E+01
 s    1 1.00
 0.13647653675000E+00 0.10000000000000E+01
 s    1 1.00
 0.68441605847000E-01 0.10000000000000E+01
 p    4 1.00
 0.49200380510000E+02 0.11448825101764E-01
 0.11346790537000E+02 0.78422337970864E-01
 0.34273972411000E+01 0.30818094738830E+00
 0.11785525134000E+01 0.72027196368413E+00
 p    1 1.00
 0.41642204972000E+00 0.10000000000000E+01
 p    1 1.00
 0.14260826011000E+00 0.10000000000000E+01
 d    1 1.00
 0.16540000000000E+01 0.10000000000000E+01
 d    1 1.00
 0.46900000000000E+00 0.10000000000000E+01
 d    1 1.00
 0.12829642058000E+00 0.10000000000000E+01
 f    1 1.00
 0.10930000000000E+01 0.10000000000000E+01
 
   12 0
 s    6 1.00
 0.27032382631000E+05 0.57227335211155E-03
 0.40523871392000E+04 0.44353233492995E-02
 0.92232722710000E+03 0.23020107706038E-01
 0.26124070989000E+03 0.92822490667928E-01
 0.85354641351000E+02 0.29378500009671E+00
 0.31035035245000E+02 0.67401604501641E+00
 s    2 1.00
 0.12260860728000E+02 0.63839937025506E+00
 0.49987076005000E+01 0.39534587125718E+00
 s    1 1.00
 0.11703108158000E+01 0.10000000000000E+01
 s    1 1.00
 0.46474740994000E+00 0.10000000000000E+01
 s    1 1.00
 0.18504536357000E+00 0.10000000000000E+01
 s    1 1.00
 0.70288026270000E-01 0.10000000000000E+01
 p    4 1.00
 0.63274954801000E+02 0.12018332222616E-01
 0.14627049379000E+02 0.83005421790056E-01
 0.44501223456000E+01 0.31991743925964E+00
 0.15275799647000E+01 0.70715542916104E+00
 p    1 1.00
 0.52935117943000E+00 0.10000000000000E+01
 p    1 1.00
 0.17478421270000E+00 0.10000000000000E+01
 p    1 1.00
 0.51112745706000E-01 0.10000000000000E+01
 d    1 1.00
 0.23140000000000E+01 0.10000000000000E+01
 d    1 1.00
 0.64500000000000E+00 0.10000000000000E+01
 d    1 1.00
 0.14696477366000E+00 0.10000000000000E+01
 f    1 1.00
 0.14280000000000E+01 0.10000000000000E+01
 
   13 0
 s    6 1.00
 0.27032382631000E+05 0.57227335211155E-03
 0.40523871392000E+04 0.44353233492995E-02
 0.92232722710000E+03 0.23020107706038E-01
 0.26124070989000E+03 0.92822490667928E-01
 0.85354641351000E+02 0.29378500009671E+00
 0.31035035245000E+02 0.67401604501641E+00
 s    2 1.00
 0.12260860728000E+02 0.63839937025506E+00
 0.49987076005000E+01 0.39534587125718E+00
 s    1 1.00
 0.11703108158000E+01 0.10000000000000E+01
 s    1 1.00
 0.46474740994000E+00 0.10000000000000E+01
 s    1 1.00
 0.18504536357000E+00 0.10000000000000E+01
 s    1 1.00
 0.70288026270000E-01 0.10000000000000E+01
 p    4 1.00
 0.63274954801000E+02 0.12018332222616E-01
 0.14627049379000E+02 0.83005421790056E-01
 0.44501223456000E+01 0.31991743925964E+00
 0.15275799647000E+01 0.70715542916104E+00
 p    1 1.00
 0.52935117943000E+00 0.10000000000000E+01
 p    1 1.00
 0.17478421270000E+00 0.10000000000000E+01
 p    1 1.00
 0.51112745706000E-01 0.10000000000000E+01
 d    1 1.00
 0.23140000000000E+01 0.10000000000000E+01
 d    1 1.00
 0.64500000000000E+00 0.10000000000000E+01
 d    1 1.00
 0.14696477366000E+00 0.10000000000000E+01
 f    1 1.00
 0.14280000000000E+01 0.10000000000000E+01
 
   14 0
 s    6 1.00
 0.19730800647000E+05 0.58626402628763E-03
 0.29578958745000E+04 0.45428820586397E-02
 0.67322133595000E+03 0.23558413450084E-01
 0.19068249494000E+03 0.94709193292923E-01
 0.62295441898000E+02 0.29719784913376E+00
 0.22654161182000E+02 0.66916246895232E+00
 s    2 1.00
 0.89791477428000E+01 0.64596683630063E+00
 0.36863002370000E+01 0.38700574393705E+00
 s    1 1.00
 0.84660076805000E+00 0.10000000000000E+01
 s    1 1.00
 0.33647133771000E+00 0.10000000000000E+01
 s    1 1.00
 0.13647653675000E+00 0.10000000000000E+01
 s    1 1.00
 0.68441605847000E-01 0.10000000000000E+01
 p    4 1.00
 0.49200380510000E+02 0.11448825101764E-01
 0.11346790537000E+02 0.78422337970864E-01
 0.34273972411000E+01 0.30818094738830E+00
 0.11785525134000E+01 0.72027196368413E+00
 p    1 1.00
 0.41642204972000E+00 0.10000000000000E+01
 p    1 1.00
 0.14260826011000E+00 0.10000000000000E+01
 d    1 1.00
 0.16540000000000E+01 0.10000000000000E+01
 d    1 1.00
 0.46900000000000E+00 0.10000000000000E+01
 d    1 1.00
 0.12829642058000E+00 0.10000000000000E+01
 f    1 1.00
 0.10930000000000E+01 0.10000000000000E+01
 
   15 0
 s    3 1.00
 0.34061341000000E+02 0.25439307208879E-01
 0.51235746000000E+01 0.19008594890375E+00
 0.11646626000000E+01 0.85244113011042E+00
 s    1 1.00
 0.32723041000000E+00 0.10000000000000E+01
 s    1 1.00
 0.10307241000000E+00 0.10000000000000E+01
 p    1 1.00
 0.80000000000000E+00 0.10000000000000E+01
 p    1 1.00
 0.95774129632000E-01 0.10000000000000E+01
 
   16 0
 s    3 1.00
 0.34061341000000E+02 0.25439307208879E-01
 0.51235746000000E+01 0.19008594890375E+00
 0.11646626000000E+01 0.85244113011042E+00
 s    1 1.00
 0.32723041000000E+00 0.10000000000000E+01
 s    1 1.00
 0.10307241000000E+00 0.10000000000000E+01
 p    1 1.00
 0.80000000000000E+00 0.10000000000000E+01
 p    1 1.00
 0.95774129632000E-01 0.10000000000000E+01
 
[MO]
 Sym= X
 Ene= -0.853640
 Spin= Alpha
 Occup= -0.853640
         1    1.827240E-04
         2    4.251689E-04
         3   -1.247361E-03
         4    3.075273E-03
         5    2.423827E-03
         6    1.195607E-02
         7   -1.809763E-03
         8   -2.469660E-04
         9   -4.259566E-02
        10    2.629501E-03
        11   -4.842955E-04
        12   -4.054812E-02
        13    3.722394E-02
        14   -1.322422E-02
        15   -1.301950E-02
        16   -2.877029E-06
        17    1.617138E-05
        18   -1.329436E-05
        19    1.270916E-05
        20    6.223314E-03
        21   -4.273709E-03
        22    7.214927E-04
        23   -4.287051E-04
        24   -2.927876E-04
        25    7.516528E-04
        26    1.414296E-02
        27   -7.951097E-03
        28    5.170117E-03
        29   -4.864879E-03
        30   -3.052380E-04
        31   -1.207829E-03
        32   -1.559960E-03
        33    1.006350E-02
        34    2.169318E-05
        35   -7.271723E-06
        36    2.399992E-04
        37   -9.848565E-06
        38    6.937992E-06
        39    6.250916E-04
        40   -1.925589E-05
        41    2.818048E-06
        42   -9.470844E-04
        43    7.342621E-04
        44   -3.115332E-05
        45   -6.815529E-05
        46   -1.350559E-04
        47    3.005441E-03
        48    5.911493E-02
        49   -5.394012E-03
        50   -4.404733E-04
        51   -6.844126E-07
        52   -2.215331E-01
        53    4.072528E-04
        54   -1.603396E-05
        55   -2.292409E-01
        56    1.764883E-02
        57    4.464855E-04
        58   -2.061271E-01
        59   -4.519296E-05
        60    4.095162E-05
        61    4.241346E-06
        62    8.642339E-09
        63    1.218482E-04
        64   -3.825697E-07
        65   -3.989753E-04
        66    6.685506E-04
        67   -2.695753E-04
        68   -4.070925E-06
        69    2.255655E-03
        70   -5.585356E-07
        71   -1.027845E-02
        72    1.167046E-02
        73   -1.392011E-03
        74    7.708785E-05
        75   -5.545219E-03
        76    1.160041E-05
        77   -8.429310E-06
        78   -9.949050E-09
        79    1.276458E-03
        80    7.177965E-06
        81   -6.682735E-08
        82   -7.148392E-04
        83    4.131142E-06
        84    8.017541E-08
        85   -9.977091E-04
        86   -4.533889E-08
        87    1.824337E-04
        88    4.244443E-04
        89   -1.246187E-03
        90    3.081030E-03
        91    9.855789E-04
        92    1.195446E-02
        93   -1.815570E-03
        94    2.496125E-04
        95   -4.261452E-02
        96    2.589071E-03
        97    4.773806E-04
        98   -4.056773E-02
        99    3.726785E-02
       100    1.361773E-02
       101   -1.304451E-02
       102   -3.145933E-06
       103    1.635983E-05
       104   -1.321390E-05
       105   -1.294071E-05
       106    6.223081E-03
       107    4.273877E-03
       108    7.135101E-04
       109   -4.207887E-04
       110   -2.927214E-04
       111   -7.487715E-04
       112    1.414149E-02
       113    7.950515E-03
       114    5.240948E-03
       115   -4.945433E-03
       116   -2.955146E-04
       117    1.128113E-03
       118   -1.549038E-03
       119   -1.006800E-02
       120    2.171689E-05
       121    7.209486E-06
       122    2.400919E-04
       123   -9.995027E-06
       124   -6.860846E-06
       125    6.249882E-04
       126   -1.914124E-05
       127   -2.811696E-06
       128   -9.471053E-04
       129   -7.342053E-04
       130   -1.041592E-04
       131   -2.222384E-04
       132   -6.709595E-04
       133    1.079513E-02
       134   -2.666038E-02
       135   -1.359193E-02
       136    1.405817E-03
       137   -7.250599E-04
       138    1.456518E-01
       139    9.727272E-03
       140   -6.586554E-03
       141    1.484683E-01
       142    2.326572E-02
       143    7.211239E-03
       144    9.122590E-02
       145   -1.494731E-04
       146    1.788307E-04
       147   -2.935756E-05
       148   -2.885294E-06
       149    1.412890E-03
       150   -3.038112E-03
       151   -7.035791E-04
       152    8.153306E-04
       153   -1.117516E-04
       154   -1.782145E-03
       155    5.196884E-03
       156   -5.135694E-03
       157   -8.638704E-03
       158    6.663769E-03
       159    1.974935E-03
       160    1.009116E-02
       161   -3.390219E-03
       162    1.123303E-02
       163    1.721593E-05
       164   -9.825075E-06
       165   -8.023321E-04
       166    1.871116E-05
       167   -1.891073E-05
       168    1.268215E-04
       169   -4.180875E-05
       170    3.209245E-05
       171    9.496200E-04
       172   -3.796768E-04
       173    1.118643E-03
       174    2.548129E-03
       175   -2.455170E-03
       176   -2.380284E-02
       177    2.036236E-02
       178   -1.040479E-02
       179   -9.111297E-03
       180    3.327215E-06
       181    1.218797E-01
       182   -4.891008E-04
       183    1.514730E-05
       184    1.245752E-01
       185    3.129974E-02
       186   -6.326268E-04
       187    1.337131E-01
       188   -5.023173E-04
       189    2.761200E-04
       190    2.261973E-04
       191   -2.411585E-07
       192   -9.059831E-03
       193   -3.037893E-07
       194    1.881492E-03
       195   -4.290151E-03
       196    2.408660E-03
       197   -3.337143E-06
       198   -2.258819E-02
       199    2.037682E-07
       200    6.437115E-03
       201   -7.814866E-03
       202    1.377751E-03
       203    1.228024E-04
       204   -1.714333E-02
       205   -7.510692E-07
       206   -1.224338E-04
       207    7.615313E-09
       208   -3.952680E-04
       209    8.758619E-05
       210    5.251387E-08
       211   -9.118418E-04
       212    7.667598E-05
       213   -6.273088E-08
       214    1.442149E-03
       215    1.000051E-08
       216   -1.049758E-04
       217   -2.239559E-04
       218   -6.690815E-04
       219    1.080814E-02
       220   -2.834662E-02
       221   -1.357065E-02
       222    1.402073E-03
       223    7.172847E-04
       224    1.456664E-01
       225    9.745337E-03
       226    6.592253E-03
       227    1.484842E-01
       228    2.321217E-02
       229   -7.838965E-03
       230    9.123050E-02
       231   -1.492779E-04
       232    1.790789E-04
       233   -2.980098E-05
       234    2.453179E-06
       235    1.412576E-03
       236    3.038158E-03
       237   -7.095949E-04
       238    8.211043E-04
       239   -1.115094E-04
       240    1.785122E-03
       241    5.194580E-03
       242    5.135640E-03
       243   -8.595106E-03
       244    6.622992E-03
       245    1.972114E-03
       246   -1.017192E-02
       247   -3.397431E-03
       248   -1.123599E-02
       249    1.730775E-05
       250    9.905805E-06
       251   -8.025132E-04
       252    1.879009E-05
       253    1.880600E-05
       254    1.270316E-04
       255   -4.201087E-05
       256   -3.209603E-05
       257    9.496529E-04
       258    3.796289E-04
       259    4.055735E-04
       260    2.276253E-04
       261    1.782112E-02
       262    1.251599E-05
       263   -2.141171E-06
       264   -1.617623E-03
       265    5.618844E-03
       266    2.760769E-04
       267    6.114530E-03
       268    4.089467E-04
       269    2.248096E-04
       270    1.782503E-02
       271    1.206684E-05
       272    2.664697E-06
       273   -1.618360E-03
       274    5.707587E-03
       275   -2.509038E-04
       276    6.125014E-03
       277    3.863948E-04
       278    2.430694E-03
       279   -3.642525E-02
       280    1.736287E-05
       281   -1.000463E-04
       282    5.996786E-03
       283    1.200601E-03
       284    3.005077E-03
       285   -5.782829E-04
       286    3.907115E-04
       287    2.432460E-03
       288   -3.666735E-02
       289    1.689986E-05
       290    9.990384E-05
       291    5.997770E-03
       292    1.194457E-03
       293   -3.037105E-03
       294   -5.759671E-04
       295    4.453060E-05
       296    1.028089E-04
       297   -8.623469E-05
       298   -3.609576E-04
       299    7.073145E-03
       300   -1.380869E-03
       301   -4.665766E-04
       302    2.653447E-06
       303   -4.390313E-03
       304   -1.440854E-04
       305    1.010151E-06
       306   -7.402462E-03
       307    3.038360E-03
       308   -1.954269E-05
       309   -4.722443E-03
       310   -2.219519E-05
       311    5.073453E-06
       312    1.712174E-05
       313   -6.488341E-07
       314   -4.860238E-03
       315    1.206635E-08
       316   -9.163897E-06
       317   -6.591153E-05
       318    7.507543E-05
       319   -1.341073E-06
       320   -1.435392E-02
       321    8.138832E-08
       322    1.007960E-03
       323   -3.033674E-03
       324    2.025714E-03
       325   -1.589127E-05
       326   -3.382033E-03
       327   -3.925084E-06
       328   -7.514237E-06
       329   -1.542360E-07
       330   -8.679077E-05
       331    5.308462E-06
       332    1.843417E-07
       333   -7.286669E-04
       334    4.772945E-06
       335    2.258763E-08
       336    8.451089E-04
       337   -8.552202E-09
       338    1.779179E-05
       339    3.957212E-05
       340   -1.053949E-05
       341   -5.729835E-04
       342    6.313821E-03
       343    1.118123E-03
       344    2.020457E-04
       345   -1.747436E-04
       346    9.080217E-02
       347    2.994887E-04
       348   -3.044613E-04
       349    8.398695E-02
       350    1.497859E-03
       351   -5.605280E-04
       352    6.499461E-02
       353    1.881156E-04
       354   -2.516433E-04
       355    7.371387E-03
       356   -3.954962E-06
       357    5.594594E-06
       358   -1.639632E-06
       359   -1.050256E-06
       360    1.054605E-04
       361   -7.140464E-04
       362    1.266971E-05
       363    1.267737E-05
       364   -2.534708E-05
       365   -1.264431E-05
       366    9.015587E-04
       367   -2.264482E-03
       368    8.462870E-05
       369   -5.442463E-05
       370   -3.020407E-05
       371   -8.003912E-05
       372    6.321180E-04
       373   -4.802764E-04
       374   -9.100118E-07
       375   -2.030144E-06
       376   -1.060442E-04
       377    1.647427E-06
       378    4.880605E-07
       379   -9.372474E-05
       380   -4.265182E-07
       381    2.235664E-06
       382    2.359979E-04
       383   -1.944455E-04
       384    1.796181E-05
       385    4.004330E-05
       386   -1.165092E-05
       387   -5.694359E-04
       388    6.305201E-03
       389    1.095271E-03
       390    2.331507E-04
       391    1.435718E-04
       392    9.080057E-02
       393    3.272700E-04
       394    2.767534E-04
       395    8.398603E-02
       396    1.501313E-03
       397    5.354257E-04
       398    6.498669E-02
       399    1.795107E-04
       400    2.536882E-04
       401    7.371983E-03
       402   -3.676788E-06
       403    5.211545E-06
       404   -1.534757E-06
       405    1.069302E-06
       406    1.054845E-04
       407    7.140394E-04
       408    1.339012E-05
       409    1.156488E-05
       410   -2.495500E-05
       411    1.238023E-05
       412    9.014630E-04
       413    2.264433E-03
       414    8.567427E-05
       415   -5.689612E-05
       416   -2.877815E-05
       417    8.027862E-05
       418    6.321870E-04
       419    4.792378E-04
       420   -8.738597E-07
       421    1.912349E-06
       422   -1.060443E-04
       423    1.561479E-06
       424   -3.734124E-07
       425   -9.371982E-05
       426   -3.890731E-07
       427   -2.192274E-06
       428    2.359931E-04
       429    1.944446E-04
       430   -5.300660E-03
       431   -1.257298E-02
       432    1.952532E-02
       433    3.079203E-02
       434    2.204007E-02
       435    7.593023E-02
       436    1.837427E-02
       437   -8.482162E-06
       438   -2.290912E-01
       439    2.088700E-02
       440   -5.514257E-07
       441   -2.264071E-01
       442    1.945190E-02
       443    9.158526E-05
       444   -1.888827E-01
       445    1.176718E-04
       446    1.020560E-05
       447   -1.278774E-04
       448   -2.445523E-07
       449   -1.012131E-03
       450   -1.658323E-07
       451    3.145265E-04
       452    1.591348E-03
       453   -1.905874E-03
       454    3.124361E-06
       455   -4.049801E-03
       456   -5.664114E-07
       457    2.485361E-03
       458    3.186727E-03
       459   -5.672087E-03
       460    5.167921E-06
       461   -2.327460E-03
       462   -1.281341E-06
       463    1.544369E-04
       464   -3.712284E-08
       465    8.573453E-04
       466    9.111042E-05
       467   -8.513623E-10
       468   -4.100395E-04
       469   -2.983093E-04
       470    5.065687E-08
       471   -7.402100E-04
       472    3.866070E-08
       473   -1.031850E-02
       474   -1.947876E-02
       475   -3.389606E-02
       476    2.357521E-03
       477    2.009480E-03
       478   -1.164200E-02
       479   -1.632149E-03
       480    4.022017E-03
       481   -1.429532E-02
       482   -1.031286E-02
       483   -1.941292E-02
       484   -3.366518E-02
       485    2.353605E-03
       486   -2.003401E-03
       487   -1.164525E-02
       488   -1.664538E-03
       489   -3.983977E-03
       490   -1.430336E-02
 Sym= X
 Ene= 0.853640
 Spin= Alpha
 Occup= 0.853640
         1   -3.854573E-05
         2   -9.486946E-05
         3    4.809948E-04
         4   -1.442924E-03
         5   -1.078801E-01
         6    4.463978E-03
         7    3.106422E-04
         8    8.192930E-05
         9    1.383484E-01
        10   -1.667291E-04
        11   -1.341947E-04
        12    1.415793E-01
        13   -5.626061E-02
        14    4.295063E-02
        15    9.454171E-02
        16    2.132054E-05
        17   -3.132281E-06
        18   -1.818826E-05
        19    6.420090E-06
        20    1.663794E-03
        21   -1.458450E-03
        22   -3.843767E-04
        23    1.595270E-04
        24    2.248497E-04
        25   -1.225485E-05
        26   -8.390318E-04
        27   -5.653196E-03
        28   -2.194699E-02
        29    2.312172E-02
        30   -1.174735E-03
        31   -3.706654E-03
        32   -8.318641E-04
        33   -1.895990E-02
        34   -1.261867E-05
        35    4.793797E-07
        36   -1.274125E-04
        37    1.250498E-05
        38    2.508026E-06
        39    2.420036E-05
        40    4.424752E-06
        41   -3.151182E-06
        42    1.467414E-04
        43    2.094127E-04
        44   -1.689640E-05
        45   -2.846389E-05
        46   -3.327450E-04
        47    5.672906E-03
        48   -1.825611E-01
        49   -2.413013E-02
        50   -1.012605E-04
        51   -7.627102E-07
        52   -8.054084E-02
        53    4.497871E-04
        54    2.520884E-05
        55   -8.767580E-02
        56   -6.909120E-02
        57    8.808435E-06
        58   -5.698275E-02
        59    4.547588E-05
        60    1.586786E-05
        61   -6.134374E-05
        62   -1.431627E-07