[Molden Format]
[Title]
ADC(2) - opt by CAM-B3LYP gaussian                                              
[Atoms] AU
 c     1    6 -.12590385386216E+01 -.22819701624009E+01 -.30156123253150E-01
 c     2    6 -.25547233845863E+01 -.83266058000000E-06 -.28792213416740E-01
 c     3    6 -.12590428849917E+01 0.22819669475044E+01 -.30169993842970E-01
 c     4    6 0.13339759331395E+01 0.22828246941961E+01 -.32722654800530E-01
 c     5    6 0.26864234278208E+01 0.32869423900000E-05 -.32794180934660E-01
 c     6    6 0.13339778039684E+01 -.22828226745513E+01 -.32706516539360E-01
 h     7    1 -.23005849451053E+01 -.40353719055945E+01 -.27139024303910E-01
 h     8    1 -.23005903875166E+01 0.40353685773143E+01 -.27164403325880E-01
 h     9    1 0.23527432406667E+01 0.40554759247724E+01 -.35914685697900E-01
 h    10    1 0.23527525948111E+01 -.40554698422164E+01 -.35883032785170E-01
 n    11    7 -.52784595104117E+01 -.53030440000000E-06 -.22539903328000E-01
 o    12    8 -.63796877956448E+01 0.20272212823250E+01 -.19883023974210E-01
 o    13    8 -.63796922742957E+01 -.20272201130570E+01 -.19923067270970E-01
 n    14    7 0.52516126460355E+01 -.32243452000000E-06 -.88209511610250E-01
 h    15    1 0.62001707317805E+01 0.16133662892433E+01 0.23199721167530E+00
 h    16    1 0.62001633429513E+01 -.16133706190784E+01 0.23200112340840E+00
[GTO]
    1 0
 s    6 1.00
 0.13575349682000E+05 0.60645503603591E-03
 0.20352333680000E+04 0.46979088884982E-02
 0.46322562359000E+03 0.24332477647552E-01
 0.13120019598000E+03 0.97399968307759E-01
 0.42853015891000E+02 0.30195584253780E+00
 0.15584185766000E+02 0.66233609137875E+00
 s    2 1.00
 0.62067138508000E+01 0.65595308539952E+00
 0.25764896527000E+01 0.37585633285142E+00
 s    1 1.00
 0.57696339419000E+00 0.10000000000000E+01
 s    1 1.00
 0.22972831358000E+00 0.10000000000000E+01
 s    1 1.00
 0.95164440028000E-01 0.10000000000000E+01
 s    1 1.00
 0.48475401370000E-01 0.10000000000000E+01
 p    4 1.00
 0.34697232244000E+02 0.11327220003114E-01
 0.79582622826000E+01 0.76169659202087E-01
 0.23780826883000E+01 0.30192252202676E+00
 0.81433208183000E+00 0.72785027349547E+00
 p    1 1.00
 0.28887547253000E+00 0.10000000000000E+01
 p    1 1.00
 0.10056823671000E+00 0.10000000000000E+01
 d    1 1.00
 0.10970000000000E+01 0.10000000000000E+01
 d    1 1.00
 0.31800000000000E+00 0.10000000000000E+01
 d    1 1.00
 0.90985336424000E-01 0.10000000000000E+01
 f    1 1.00
 0.76100000000000E+00 0.10000000000000E+01
 
    2 0
 s    6 1.00
 0.13575349682000E+05 0.60645503603591E-03
 0.20352333680000E+04 0.46979088884982E-02
 0.46322562359000E+03 0.24332477647552E-01
 0.13120019598000E+03 0.97399968307759E-01
 0.42853015891000E+02 0.30195584253780E+00
 0.15584185766000E+02 0.66233609137875E+00
 s    2 1.00
 0.62067138508000E+01 0.65595308539952E+00
 0.25764896527000E+01 0.37585633285142E+00
 s    1 1.00
 0.57696339419000E+00 0.10000000000000E+01
 s    1 1.00
 0.22972831358000E+00 0.10000000000000E+01
 s    1 1.00
 0.95164440028000E-01 0.10000000000000E+01
 s    1 1.00
 0.48475401370000E-01 0.10000000000000E+01
 p    4 1.00
 0.34697232244000E+02 0.11327220003114E-01
 0.79582622826000E+01 0.76169659202087E-01
 0.23780826883000E+01 0.30192252202676E+00
 0.81433208183000E+00 0.72785027349547E+00
 p    1 1.00
 0.28887547253000E+00 0.10000000000000E+01
 p    1 1.00
 0.10056823671000E+00 0.10000000000000E+01
 d    1 1.00
 0.10970000000000E+01 0.10000000000000E+01
 d    1 1.00
 0.31800000000000E+00 0.10000000000000E+01
 d    1 1.00
 0.90985336424000E-01 0.10000000000000E+01
 f    1 1.00
 0.76100000000000E+00 0.10000000000000E+01
 
    3 0
 s    6 1.00
 0.13575349682000E+05 0.60645503603591E-03
 0.20352333680000E+04 0.46979088884982E-02
 0.46322562359000E+03 0.24332477647552E-01
 0.13120019598000E+03 0.97399968307759E-01
 0.42853015891000E+02 0.30195584253780E+00
 0.15584185766000E+02 0.66233609137875E+00
 s    2 1.00
 0.62067138508000E+01 0.65595308539952E+00
 0.25764896527000E+01 0.37585633285142E+00
 s    1 1.00
 0.57696339419000E+00 0.10000000000000E+01
 s    1 1.00
 0.22972831358000E+00 0.10000000000000E+01
 s    1 1.00
 0.95164440028000E-01 0.10000000000000E+01
 s    1 1.00
 0.48475401370000E-01 0.10000000000000E+01
 p    4 1.00
 0.34697232244000E+02 0.11327220003114E-01
 0.79582622826000E+01 0.76169659202087E-01
 0.23780826883000E+01 0.30192252202676E+00
 0.81433208183000E+00 0.72785027349547E+00
 p    1 1.00
 0.28887547253000E+00 0.10000000000000E+01
 p    1 1.00
 0.10056823671000E+00 0.10000000000000E+01
 d    1 1.00
 0.10970000000000E+01 0.10000000000000E+01
 d    1 1.00
 0.31800000000000E+00 0.10000000000000E+01
 d    1 1.00
 0.90985336424000E-01 0.10000000000000E+01
 f    1 1.00
 0.76100000000000E+00 0.10000000000000E+01
 
    4 0
 s    6 1.00
 0.13575349682000E+05 0.60645503603591E-03
 0.20352333680000E+04 0.46979088884982E-02
 0.46322562359000E+03 0.24332477647552E-01
 0.13120019598000E+03 0.97399968307759E-01
 0.42853015891000E+02 0.30195584253780E+00
 0.15584185766000E+02 0.66233609137875E+00
 s    2 1.00
 0.62067138508000E+01 0.65595308539952E+00
 0.25764896527000E+01 0.37585633285142E+00
 s    1 1.00
 0.57696339419000E+00 0.10000000000000E+01
 s    1 1.00
 0.22972831358000E+00 0.10000000000000E+01
 s    1 1.00
 0.95164440028000E-01 0.10000000000000E+01
 s    1 1.00
 0.48475401370000E-01 0.10000000000000E+01
 p    4 1.00
 0.34697232244000E+02 0.11327220003114E-01
 0.79582622826000E+01 0.76169659202087E-01
 0.23780826883000E+01 0.30192252202676E+00
 0.81433208183000E+00 0.72785027349547E+00
 p    1 1.00
 0.28887547253000E+00 0.10000000000000E+01
 p    1 1.00
 0.10056823671000E+00 0.10000000000000E+01
 d    1 1.00
 0.10970000000000E+01 0.10000000000000E+01
 d    1 1.00
 0.31800000000000E+00 0.10000000000000E+01
 d    1 1.00
 0.90985336424000E-01 0.10000000000000E+01
 f    1 1.00
 0.76100000000000E+00 0.10000000000000E+01
 
    5 0
 s    6 1.00
 0.13575349682000E+05 0.60645503603591E-03
 0.20352333680000E+04 0.46979088884982E-02
 0.46322562359000E+03 0.24332477647552E-01
 0.13120019598000E+03 0.97399968307759E-01
 0.42853015891000E+02 0.30195584253780E+00
 0.15584185766000E+02 0.66233609137875E+00
 s    2 1.00
 0.62067138508000E+01 0.65595308539952E+00
 0.25764896527000E+01 0.37585633285142E+00
 s    1 1.00
 0.57696339419000E+00 0.10000000000000E+01
 s    1 1.00
 0.22972831358000E+00 0.10000000000000E+01
 s    1 1.00
 0.95164440028000E-01 0.10000000000000E+01
 s    1 1.00
 0.48475401370000E-01 0.10000000000000E+01
 p    4 1.00
 0.34697232244000E+02 0.11327220003114E-01
 0.79582622826000E+01 0.76169659202087E-01
 0.23780826883000E+01 0.30192252202676E+00
 0.81433208183000E+00 0.72785027349547E+00
 p    1 1.00
 0.28887547253000E+00 0.10000000000000E+01
 p    1 1.00
 0.10056823671000E+00 0.10000000000000E+01
 d    1 1.00
 0.10970000000000E+01 0.10000000000000E+01
 d    1 1.00
 0.31800000000000E+00 0.10000000000000E+01
 d    1 1.00
 0.90985336424000E-01 0.10000000000000E+01
 f    1 1.00
 0.76100000000000E+00 0.10000000000000E+01
 
    6 0
 s    6 1.00
 0.13575349682000E+05 0.60645503603591E-03
 0.20352333680000E+04 0.46979088884982E-02
 0.46322562359000E+03 0.24332477647552E-01
 0.13120019598000E+03 0.97399968307759E-01
 0.42853015891000E+02 0.30195584253780E+00
 0.15584185766000E+02 0.66233609137875E+00
 s    2 1.00
 0.62067138508000E+01 0.65595308539952E+00
 0.25764896527000E+01 0.37585633285142E+00
 s    1 1.00
 0.57696339419000E+00 0.10000000000000E+01
 s    1 1.00
 0.22972831358000E+00 0.10000000000000E+01
 s    1 1.00
 0.95164440028000E-01 0.10000000000000E+01
 s    1 1.00
 0.48475401370000E-01 0.10000000000000E+01
 p    4 1.00
 0.34697232244000E+02 0.11327220003114E-01
 0.79582622826000E+01 0.76169659202087E-01
 0.23780826883000E+01 0.30192252202676E+00
 0.81433208183000E+00 0.72785027349547E+00
 p    1 1.00
 0.28887547253000E+00 0.10000000000000E+01
 p    1 1.00
 0.10056823671000E+00 0.10000000000000E+01
 d    1 1.00
 0.10970000000000E+01 0.10000000000000E+01
 d    1 1.00
 0.31800000000000E+00 0.10000000000000E+01
 d    1 1.00
 0.90985336424000E-01 0.10000000000000E+01
 f    1 1.00
 0.76100000000000E+00 0.10000000000000E+01
 
    7 0
 s    3 1.00
 0.34061341000000E+02 0.25439307208879E-01
 0.51235746000000E+01 0.19008594890375E+00
 0.11646626000000E+01 0.85244113011042E+00
 s    1 1.00
 0.32723041000000E+00 0.10000000000000E+01
 s    1 1.00
 0.10307241000000E+00 0.10000000000000E+01
 p    1 1.00
 0.80000000000000E+00 0.10000000000000E+01
 p    1 1.00
 0.95774129632000E-01 0.10000000000000E+01
 
    8 0
 s    3 1.00
 0.34061341000000E+02 0.25439307208879E-01
 0.51235746000000E+01 0.19008594890375E+00
 0.11646626000000E+01 0.85244113011042E+00
 s    1 1.00
 0.32723041000000E+00 0.10000000000000E+01
 s    1 1.00
 0.10307241000000E+00 0.10000000000000E+01
 p    1 1.00
 0.80000000000000E+00 0.10000000000000E+01
 p    1 1.00
 0.95774129632000E-01 0.10000000000000E+01
 
    9 0
 s    3 1.00
 0.34061341000000E+02 0.25439307208879E-01
 0.51235746000000E+01 0.19008594890375E+00
 0.11646626000000E+01 0.85244113011042E+00
 s    1 1.00
 0.32723041000000E+00 0.10000000000000E+01
 s    1 1.00
 0.10307241000000E+00 0.10000000000000E+01
 p    1 1.00
 0.80000000000000E+00 0.10000000000000E+01
 p    1 1.00
 0.95774129632000E-01 0.10000000000000E+01
 
   10 0
 s    3 1.00
 0.34061341000000E+02 0.25439307208879E-01
 0.51235746000000E+01 0.19008594890375E+00
 0.11646626000000E+01 0.85244113011042E+00
 s    1 1.00
 0.32723041000000E+00 0.10000000000000E+01
 s    1 1.00
 0.10307241000000E+00 0.10000000000000E+01
 p    1 1.00
 0.80000000000000E+00 0.10000000000000E+01
 p    1 1.00
 0.95774129632000E-01 0.10000000000000E+01
 
   11 0
 s    6 1.00
 0.19730800647000E+05 0.58626402628763E-03
 0.29578958745000E+04 0.45428820586397E-02
 0.67322133595000E+03 0.23558413450084E-01
 0.19068249494000E+03 0.94709193292923E-01
 0.62295441898000E+02 0.29719784913376E+00
 0.22654161182000E+02 0.66916246895232E+00
 s    2 1.00
 0.89791477428000E+01 0.64596683630063E+00
 0.36863002370000E+01 0.38700574393705E+00
 s    1 1.00
 0.84660076805000E+00 0.10000000000000E+01
 s    1 1.00
 0.33647133771000E+00 0.10000000000000E+01
 s    1 1.00
 0.13647653675000E+00 0.10000000000000E+01
 s    1 1.00
 0.68441605847000E-01 0.10000000000000E+01
 p    4 1.00
 0.49200380510000E+02 0.11448825101764E-01
 0.11346790537000E+02 0.78422337970864E-01
 0.34273972411000E+01 0.30818094738830E+00
 0.11785525134000E+01 0.72027196368413E+00
 p    1 1.00
 0.41642204972000E+00 0.10000000000000E+01
 p    1 1.00
 0.14260826011000E+00 0.10000000000000E+01
 d    1 1.00
 0.16540000000000E+01 0.10000000000000E+01
 d    1 1.00
 0.46900000000000E+00 0.10000000000000E+01
 d    1 1.00
 0.12829642058000E+00 0.10000000000000E+01
 f    1 1.00
 0.10930000000000E+01 0.10000000000000E+01
 
   12 0
 s    6 1.00
 0.27032382631000E+05 0.57227335211155E-03
 0.40523871392000E+04 0.44353233492995E-02
 0.92232722710000E+03 0.23020107706038E-01
 0.26124070989000E+03 0.92822490667928E-01
 0.85354641351000E+02 0.29378500009671E+00
 0.31035035245000E+02 0.67401604501641E+00
 s    2 1.00
 0.12260860728000E+02 0.63839937025506E+00
 0.49987076005000E+01 0.39534587125718E+00
 s    1 1.00
 0.11703108158000E+01 0.10000000000000E+01
 s    1 1.00
 0.46474740994000E+00 0.10000000000000E+01
 s    1 1.00
 0.18504536357000E+00 0.10000000000000E+01
 s    1 1.00
 0.70288026270000E-01 0.10000000000000E+01
 p    4 1.00
 0.63274954801000E+02 0.12018332222616E-01
 0.14627049379000E+02 0.83005421790056E-01
 0.44501223456000E+01 0.31991743925964E+00
 0.15275799647000E+01 0.70715542916104E+00
 p    1 1.00
 0.52935117943000E+00 0.10000000000000E+01
 p    1 1.00
 0.17478421270000E+00 0.10000000000000E+01
 p    1 1.00
 0.51112745706000E-01 0.10000000000000E+01
 d    1 1.00
 0.23140000000000E+01 0.10000000000000E+01
 d    1 1.00
 0.64500000000000E+00 0.10000000000000E+01
 d    1 1.00
 0.14696477366000E+00 0.10000000000000E+01
 f    1 1.00
 0.14280000000000E+01 0.10000000000000E+01
 
   13 0
 s    6 1.00
 0.27032382631000E+05 0.57227335211155E-03
 0.40523871392000E+04 0.44353233492995E-02
 0.92232722710000E+03 0.23020107706038E-01
 0.26124070989000E+03 0.92822490667928E-01
 0.85354641351000E+02 0.29378500009671E+00
 0.31035035245000E+02 0.67401604501641E+00
 s    2 1.00
 0.12260860728000E+02 0.63839937025506E+00
 0.49987076005000E+01 0.39534587125718E+00
 s    1 1.00
 0.11703108158000E+01 0.10000000000000E+01
 s    1 1.00
 0.46474740994000E+00 0.10000000000000E+01
 s    1 1.00
 0.18504536357000E+00 0.10000000000000E+01
 s    1 1.00
 0.70288026270000E-01 0.10000000000000E+01
 p    4 1.00
 0.63274954801000E+02 0.12018332222616E-01
 0.14627049379000E+02 0.83005421790056E-01
 0.44501223456000E+01 0.31991743925964E+00
 0.15275799647000E+01 0.70715542916104E+00
 p    1 1.00
 0.52935117943000E+00 0.10000000000000E+01
 p    1 1.00
 0.17478421270000E+00 0.10000000000000E+01
 p    1 1.00
 0.51112745706000E-01 0.10000000000000E+01
 d    1 1.00
 0.23140000000000E+01 0.10000000000000E+01
 d    1 1.00
 0.64500000000000E+00 0.10000000000000E+01
 d    1 1.00
 0.14696477366000E+00 0.10000000000000E+01
 f    1 1.00
 0.14280000000000E+01 0.10000000000000E+01
 
   14 0
 s    6 1.00
 0.19730800647000E+05 0.58626402628763E-03
 0.29578958745000E+04 0.45428820586397E-02
 0.67322133595000E+03 0.23558413450084E-01
 0.19068249494000E+03 0.94709193292923E-01
 0.62295441898000E+02 0.29719784913376E+00
 0.22654161182000E+02 0.66916246895232E+00
 s    2 1.00
 0.89791477428000E+01 0.64596683630063E+00
 0.36863002370000E+01 0.38700574393705E+00
 s    1 1.00
 0.84660076805000E+00 0.10000000000000E+01
 s    1 1.00
 0.33647133771000E+00 0.10000000000000E+01
 s    1 1.00
 0.13647653675000E+00 0.10000000000000E+01
 s    1 1.00
 0.68441605847000E-01 0.10000000000000E+01
 p    4 1.00
 0.49200380510000E+02 0.11448825101764E-01
 0.11346790537000E+02 0.78422337970864E-01
 0.34273972411000E+01 0.30818094738830E+00
 0.11785525134000E+01 0.72027196368413E+00
 p    1 1.00
 0.41642204972000E+00 0.10000000000000E+01
 p    1 1.00
 0.14260826011000E+00 0.10000000000000E+01
 d    1 1.00
 0.16540000000000E+01 0.10000000000000E+01
 d    1 1.00
 0.46900000000000E+00 0.10000000000000E+01
 d    1 1.00
 0.12829642058000E+00 0.10000000000000E+01
 f    1 1.00
 0.10930000000000E+01 0.10000000000000E+01
 
   15 0
 s    3 1.00
 0.34061341000000E+02 0.25439307208879E-01
 0.51235746000000E+01 0.19008594890375E+00
 0.11646626000000E+01 0.85244113011042E+00
 s    1 1.00
 0.32723041000000E+00 0.10000000000000E+01
 s    1 1.00
 0.10307241000000E+00 0.10000000000000E+01
 p    1 1.00
 0.80000000000000E+00 0.10000000000000E+01
 p    1 1.00
 0.95774129632000E-01 0.10000000000000E+01
 
   16 0
 s    3 1.00
 0.34061341000000E+02 0.25439307208879E-01
 0.51235746000000E+01 0.19008594890375E+00
 0.11646626000000E+01 0.85244113011042E+00
 s    1 1.00
 0.32723041000000E+00 0.10000000000000E+01
 s    1 1.00
 0.10307241000000E+00 0.10000000000000E+01
 p    1 1.00
 0.80000000000000E+00 0.10000000000000E+01
 p    1 1.00
 0.95774129632000E-01 0.10000000000000E+01
 
[MO]
 Sym= X
 Ene= -0.908834
 Spin= Alpha
 Occup= -0.908834
         1   -2.386341E-04
         2   -5.546873E-04
         3    1.542109E-03
         4   -3.337269E-03
         5    1.034003E-03
         6   -1.435037E-02
         7    2.067033E-03
         8    2.187236E-04
         9    2.131922E-02
        10   -3.163654E-03
        11    5.416662E-04
        12    1.951288E-02
        13   -4.178418E-02
        14    1.368299E-02
        15    5.063226E-03
        16    4.516446E-06
        17   -1.704946E-05
        18    1.253302E-05
        19   -1.626351E-05
        20   -6.061631E-03
        21    3.574605E-03
        22   -8.255872E-04
        23    4.997414E-04
        24    3.258458E-04
        25   -9.188242E-04
        26   -1.371685E-02
        27    6.786924E-03
        28   -5.549694E-03
        29    5.215039E-03
        30    3.346557E-04
        31    1.682559E-03
        32    2.786509E-03
        33   -1.094828E-02
        34   -2.485835E-05
        35    8.483249E-06
        36   -6.751784E-05
        37    9.686505E-06
        38   -8.102183E-06
        39   -7.053664E-04
        40    2.366447E-05
        41   -3.279290E-06
        42    7.959511E-04
        43   -6.505614E-04
        44    3.303108E-05
        45    7.164562E-05
        46    2.015797E-04
        47   -3.847363E-03
        48   -6.260443E-02
        49    7.462722E-03
        50    4.320285E-04
        51    2.028558E-06
        52    1.886640E-01
        53   -6.566680E-04
        54    1.488026E-05
        55    1.957925E-01
        56   -1.971598E-02
        57   -5.326041E-04
        58    1.939308E-01
        59    4.725400E-05
        60   -4.422792E-05
        61   -3.026084E-06
        62    1.187257E-07
        63   -6.777879E-04
        64    2.106945E-07
        65    4.940331E-04
        66   -8.152434E-04
        67    3.212103E-04
        68    3.163991E-06
        69   -3.134485E-03
        70    9.252206E-08
        71    1.292689E-02
        72   -1.444183E-02
        73    1.514933E-03
        74   -8.455303E-05
        75    4.271854E-03
        76   -1.290221E-05
        77    9.403658E-06
        78    2.620119E-08
        79   -1.040924E-03
        80   -9.852707E-06
        81    3.421752E-08
        82    6.172377E-04
        83   -2.763623E-06
        84   -6.937011E-08
        85    7.793079E-04
        86    1.421718E-08
        87   -2.390035E-04
        88   -5.554788E-04
        89    1.543926E-03
        90   -3.345252E-03
        91    2.821475E-03
        92   -1.435542E-02
        93    2.067631E-03
        94   -2.203681E-04
        95    2.132882E-02
        96   -3.131647E-03
        97   -5.374135E-04
        98    1.952308E-02
        99   -4.177777E-02
       100   -1.418278E-02
       101    5.089125E-03
       102    4.535255E-06
       103   -1.699151E-05
       104    1.245625E-05
       105    1.649500E-05
       106   -6.061652E-03
       107   -3.574714E-03
       108   -8.188229E-04
       109    4.928429E-04
       110    3.259800E-04
       111    9.166284E-04
       112   -1.371596E-02
       113   -6.786649E-03
       114   -5.612420E-03
       115    5.290771E-03
       116    3.216498E-04
       117   -1.598709E-03
       118    2.774399E-03
       119    1.094720E-02
       120   -2.488137E-05
       121   -8.446642E-06
       122   -6.754992E-05
       123    9.810960E-06
       124    8.035036E-06
       125   -7.053400E-04
       126    2.357090E-05
       127    3.297323E-06
       128    7.959677E-04
       129    6.505187E-04
       130    1.809311E-04
       131    3.937886E-04
       132    6.157594E-04
       133   -1.325260E-02
       134    2.530863E-02
       135    1.645899E-02
       136   -1.725016E-03
       137    8.434199E-04
       138   -1.504441E-01
       139   -1.164357E-02
       140    7.854757E-03
       141   -1.532694E-01
       142   -2.481255E-02
       143   -9.572648E-03
       144   -9.218562E-02
       145    1.861863E-04
       146   -2.273325E-04
       147    4.114618E-05
       148   -5.451278E-06
       149   -7.385447E-04
       150    2.872054E-03
       151    7.951887E-04
       152   -9.588379E-04
       153    1.636492E-04
       154    2.133579E-03
       155   -4.020448E-03
       156    4.739138E-03
       157    1.009563E-02
       158   -7.858945E-03
       159   -2.236689E-03
       160   -1.202091E-02
       161    4.091021E-03
       162   -1.332537E-02
       163   -1.907259E-05
       164    1.254823E-05
       165    8.396238E-04
       166   -2.450318E-05
       167    2.131389E-05
       168   -2.060330E-04
       169    5.009174E-05
       170   -3.814911E-05
       171   -9.204405E-04
       172    3.125933E-04
       173   -1.448083E-03
       174   -3.297498E-03
       175    3.385179E-03
       176    2.769476E-02
       177   -3.276909E-02
       178    1.039732E-02
       179    1.151771E-02
       180   -1.648191E-06
       181   -1.048232E-01
       182    6.587776E-04
       183   -1.579406E-05
       184   -1.081566E-01
       185   -3.973489E-02
       186    6.270570E-04
       187   -1.368654E-01
       188    6.160970E-04
       189   -3.426530E-04
       190   -2.734440E-04
       191    2.400334E-07
       192    1.023667E-02
       193    8.527986E-08
       194   -2.317224E-03
       195    5.153202E-03
       196   -2.835978E-03
       197    4.060689E-06
       198    2.499520E-02
       199   -2.030258E-07
       200   -8.156085E-03
       201    9.585634E-03
       202   -1.429549E-03
       203   -1.343943E-04
       204    1.782951E-02
       205    4.977055E-06
       206    1.501946E-04
       207   -9.178817E-09
       208    2.228406E-04
       209   -1.063311E-04
       210   -6.454529E-08
       211    1.168896E-03
       212   -9.517613E-05
       213    7.685997E-08
       214   -1.467868E-03
       215    5.511878E-09
       216    1.813480E-04
       217    3.945911E-04
       218    6.165017E-04
       219   -1.327465E-02
       220    2.721631E-02
       221    1.642239E-02
       222   -1.725039E-03
       223   -8.365041E-04
       224   -1.504484E-01
       225   -1.166334E-02
       226   -7.863701E-03
       227   -1.532745E-01
       228   -2.486831E-02
       229    1.024151E-02
       230   -9.217066E-02
       231    1.861180E-04
       232   -2.276908E-04
       233    4.157287E-05
       234    5.829848E-06
       235   -7.384467E-04
       236   -2.872096E-03
       237    8.006347E-04
       238   -9.649162E-04
       239    1.642815E-04
       240   -2.137208E-03
       241   -4.018476E-03
       242   -4.738694E-03
       243    1.004949E-02
       244   -7.815844E-03
       245   -2.233648E-03
       246    1.208826E-02
       247    4.101026E-03
       248    1.333318E-02
       249   -1.912852E-05
       250   -1.263568E-05
       251    8.397181E-04
       252   -2.464319E-05
       253   -2.120433E-05
       254   -2.061583E-04
       255    5.030680E-05
       256    3.815687E-05
       257   -9.204418E-04
       258   -3.125257E-04
       259   -4.262443E-04
       260   -2.062901E-04
       261   -2.179480E-02
       262   -1.381470E-05
       263    8.719679E-06
       264    8.536941E-04
       265   -6.564449E-03
       266   -5.927427E-04
       267   -6.484020E-03
       268   -4.275305E-04
       269   -1.988164E-04
       270   -2.175888E-02
       271   -1.301693E-05
       272   -9.788701E-06
       273    8.540937E-04
       274   -6.648376E-03
       275    5.652188E-04
       276   -6.491111E-03
       277   -5.909482E-04
       278   -3.086594E-03
       279    4.402911E-02
       280   -1.146076E-05
       281    1.341382E-04
       282   -6.093598E-03
       283   -2.202202E-03
       284   -3.541146E-03
       285    2.240233E-03
       286   -5.954568E-04
       287   -3.085873E-03
       288    4.427394E-02
       289   -1.097484E-05
       290   -1.337512E-04
       291   -6.094116E-03
       292   -2.197862E-03
       293    3.574776E-03
       294    2.240659E-03
       295   -5.216633E-05
       296   -1.207363E-04
       297    1.010310E-04
       298    4.302728E-04
       299   -9.444133E-03
       300    3.690539E-04
       301    4.840834E-04
       302   -4.239791E-07
       303    1.731021E-02
       304    8.608560E-05
       305    5.104137E-08
       306    1.965163E-02
       307   -4.001282E-03
       308    2.349039E-05
       309    5.866213E-03
       310    1.789214E-05
       311   -3.740162E-06
       312   -1.415198E-05
       313    5.082266E-09
       314    4.059336E-03
       315    1.703413E-08
       316   -2.047727E-05
       317    8.965879E-05
       318   -6.918152E-05
       319   -3.790836E-07
       320    1.221939E-02
       321   -2.957873E-09
       322   -1.023517E-03
       323    3.507838E-03
       324   -2.484321E-03
       325    1.925892E-05
       326    2.682277E-03
       327    3.365024E-06
       328    7.832010E-06
       329    2.455155E-09
       330    4.587112E-07
       331   -5.868966E-06
       332    1.938287E-08
       333    6.496217E-04
       334   -4.638778E-06
       335   -2.267680E-08
       336   -6.502372E-04
       337   -1.787182E-10
       338   -1.589415E-05
       339   -3.415255E-05
       340   -7.354352E-06
       341    6.466851E-04
       342   -7.565820E-03
       343   -1.340025E-03
       344   -1.402490E-04
       345    1.454258E-04
       346   -7.151621E-02
       347   -2.760702E-04
       348    3.115062E-04
       349   -6.634900E-02
       350   -1.596040E-03
       351    7.137373E-04
       352   -5.355704E-02
       353   -2.518464E-04
       354    2.658739E-04
       355   -6.488923E-03
       356    4.284278E-06
       357   -5.083182E-06
       358    7.989039E-07
       359   -2.798245E-07
       360    6.864482E-06
       361    4.421812E-04
       362   -1.351624E-05
       363   -1.304316E-05
       364    2.655939E-05
       365    1.198669E-05
       366   -4.852004E-04
       367    1.456796E-03
       368   -8.513450E-05
       369    4.073264E-05
       370    4.440187E-05
       371    6.054178E-05
       372   -2.411491E-04
       373    2.572624E-04
       374    7.792309E-07
       375    2.072327E-06
       376    5.846694E-05
       377   -1.415879E-06
       378   -7.206981E-07
       379    7.936800E-05
       380    3.704309E-07
       381   -2.059620E-06
       382   -1.578096E-04
       383    1.240955E-04
       384   -1.592106E-05
       385   -3.424627E-05
       386   -6.855262E-06
       387    6.439731E-04
       388   -7.562257E-03
       389   -1.316785E-03
       390   -1.361091E-04
       391   -1.453921E-04
       392   -7.151656E-02
       393   -2.719754E-04
       394   -3.114240E-04
       395   -6.634976E-02
       396   -1.574165E-03
       397   -7.090487E-04
       398   -5.355185E-02
       399   -2.402753E-04
       400   -2.692692E-04
       401   -6.489869E-03
       402    4.288316E-06
       403   -5.072736E-06
       404    7.844199E-07
       405    2.580267E-07
       406    6.840181E-06
       407   -4.421886E-04
       408   -1.332057E-05
       409   -1.301406E-05
       410    2.633463E-05
       411   -1.162054E-05
       412   -4.851506E-04
       413   -1.456800E-03
       414   -8.568547E-05
       415    4.279015E-05
       416    4.289533E-05
       417   -6.010191E-05
       418   -2.412292E-04
       419   -2.564925E-04
       420    7.752469E-07
       421   -2.066423E-06
       422    5.846899E-05
       423   -1.398964E-06
       424    7.272176E-07
       425    7.936530E-05
       426    3.588613E-07
       427    2.045179E-06
       428   -1.578097E-04
       429   -1.240993E-04
       430    6.375526E-03
       431    1.511626E-02
       432   -2.342683E-02
       433   -3.710214E-02
       434   -2.317638E-02
       435   -8.259866E-02
       436   -2.221693E-02
       437    1.046926E-05
       438    2.741802E-01
       439   -2.531490E-02
       440    1.259521E-06
       441    2.701422E-01
       442   -2.581047E-02
       443   -1.038236E-04
       444    2.188526E-01
       445   -1.520574E-04
       446   -3.695931E-05
       447    1.890167E-04
       448    2.741780E-07
       449    6.669270E-04
       450    1.991399E-07
       451   -3.253761E-04
       452   -2.035972E-03
       453    2.361348E-03
       454   -3.777368E-06
       455    3.317265E-03
       456    6.265399E-07
       457   -2.203673E-03
       458   -4.481260E-03
       459    6.684933E-03
       460   -6.681504E-06
       461    2.252348E-03
       462    1.396263E-06
       463   -1.717654E-04
       464    4.425615E-08
       465   -1.094259E-03
       466   -1.169565E-04
       467    9.980531E-09
       468    6.125881E-04
       469    3.474040E-04
       470   -6.935639E-08
       471    8.555140E-04
       472   -4.130836E-08
       473    1.173371E-02
       474    2.271423E-02
       475    3.949275E-02
       476   -2.875577E-03
       477   -2.409439E-03
       478    1.369460E-02
       479    9.683812E-04
       480   -4.516592E-03
       481    1.518244E-02
       482    1.172683E-02
       483    2.263660E-02
       484    3.922554E-02
       485   -2.870850E-03
       486    2.402280E-03
       487    1.369840E-02
       488    1.005611E-03
       489    4.472331E-03
       490    1.519350E-02
 Sym= X
 Ene= 0.908834
 Spin= Alpha
 Occup= 0.908834
         1   -5.307364E-03
         2   -1.176367E-02
         3    1.795209E-02
         4    8.273155E-02
         5   -2.694966E+00
         6    3.735376E-01
         7   -1.955724E-02
         8   -7.900216E-03
         9   -4.785898E-04
        10   -1.266207E-01
        11   -1.363789E-02
        12    1.626914E-03
        13   -9.875176E-01
        14   -6.865760E-01
        15    3.265411E-02
        16    1.442226E-03
        17    2.003478E-04
        18   -1.642574E-03
        19   -1.658325E-03
        20   -1.325808E-04
        21    5.724751E-05
        22   -1.568530E-02
        23    1.908195E-02
        24   -3.396652E-03
        25   -2.640895E-03
        26    7.252618E-04
        27    5.955784E-05
        28   -5.377275E-01
        29    3.491745E-01
        30    1.885531E-01
        31   -5.148502E-01
        32   -1.218743E-02
        33    2.207650E-02
        34   -1.931944E-04
        35   -1.133352E-04
        36    1.873139E-05
        37   -4.750046E-04
        38   -6.523615E-05
        39    2.457111E-07
        40    7.342021E-04
        41    2.172913E-04
        42   -2.537651E-05
        43    2.163753E-05
        44   -7.033217E-03
        45   -1.549702E-02
        46    1.095598E-02
        47    1.908591E-01
        48   -5.321388E-01
        49   -1.220308E+00
        50   -5.561514E-03
        51   -2.663438E-07
        52    1.119196E-03
        53   -7.600084E-02
        54   -4.834163E-05
        55    4.670100E-03
        56   -8.775683E-01
        57   -1.665789E-03
        58   -8.911771E-02
        59   -1.745307E-03
        60    3.499800E-03
        61   -1.754493E-03
        62   -6.317857E-08