[Molden Format]
[Title]
ADC(2) - opt by CAM-B3LYP gaussian                                              
[Atoms] AU
 c     1    6 -.12590385386216E+01 -.22819701624009E+01 -.30156123253150E-01
 c     2    6 -.25547233845863E+01 -.83266058000000E-06 -.28792213416740E-01
 c     3    6 -.12590428849917E+01 0.22819669475044E+01 -.30169993842970E-01
 c     4    6 0.13339759331395E+01 0.22828246941961E+01 -.32722654800530E-01
 c     5    6 0.26864234278208E+01 0.32869423900000E-05 -.32794180934660E-01
 c     6    6 0.13339778039684E+01 -.22828226745513E+01 -.32706516539360E-01
 h     7    1 -.23005849451053E+01 -.40353719055945E+01 -.27139024303910E-01
 h     8    1 -.23005903875166E+01 0.40353685773143E+01 -.27164403325880E-01
 h     9    1 0.23527432406667E+01 0.40554759247724E+01 -.35914685697900E-01
 h    10    1 0.23527525948111E+01 -.40554698422164E+01 -.35883032785170E-01
 n    11    7 -.52784595104117E+01 -.53030440000000E-06 -.22539903328000E-01
 o    12    8 -.63796877956448E+01 0.20272212823250E+01 -.19883023974210E-01
 o    13    8 -.63796922742957E+01 -.20272201130570E+01 -.19923067270970E-01
 n    14    7 0.52516126460355E+01 -.32243452000000E-06 -.88209511610250E-01
 h    15    1 0.62001707317805E+01 0.16133662892433E+01 0.23199721167530E+00
 h    16    1 0.62001633429513E+01 -.16133706190784E+01 0.23200112340840E+00
[GTO]
    1 0
 s    6 1.00
 0.13575349682000E+05 0.60645503603591E-03
 0.20352333680000E+04 0.46979088884982E-02
 0.46322562359000E+03 0.24332477647552E-01
 0.13120019598000E+03 0.97399968307759E-01
 0.42853015891000E+02 0.30195584253780E+00
 0.15584185766000E+02 0.66233609137875E+00
 s    2 1.00
 0.62067138508000E+01 0.65595308539952E+00
 0.25764896527000E+01 0.37585633285142E+00
 s    1 1.00
 0.57696339419000E+00 0.10000000000000E+01
 s    1 1.00
 0.22972831358000E+00 0.10000000000000E+01
 s    1 1.00
 0.95164440028000E-01 0.10000000000000E+01
 s    1 1.00
 0.48475401370000E-01 0.10000000000000E+01
 p    4 1.00
 0.34697232244000E+02 0.11327220003114E-01
 0.79582622826000E+01 0.76169659202087E-01
 0.23780826883000E+01 0.30192252202676E+00
 0.81433208183000E+00 0.72785027349547E+00
 p    1 1.00
 0.28887547253000E+00 0.10000000000000E+01
 p    1 1.00
 0.10056823671000E+00 0.10000000000000E+01
 d    1 1.00
 0.10970000000000E+01 0.10000000000000E+01
 d    1 1.00
 0.31800000000000E+00 0.10000000000000E+01
 d    1 1.00
 0.90985336424000E-01 0.10000000000000E+01
 f    1 1.00
 0.76100000000000E+00 0.10000000000000E+01
 
    2 0
 s    6 1.00
 0.13575349682000E+05 0.60645503603591E-03
 0.20352333680000E+04 0.46979088884982E-02
 0.46322562359000E+03 0.24332477647552E-01
 0.13120019598000E+03 0.97399968307759E-01
 0.42853015891000E+02 0.30195584253780E+00
 0.15584185766000E+02 0.66233609137875E+00
 s    2 1.00
 0.62067138508000E+01 0.65595308539952E+00
 0.25764896527000E+01 0.37585633285142E+00
 s    1 1.00
 0.57696339419000E+00 0.10000000000000E+01
 s    1 1.00
 0.22972831358000E+00 0.10000000000000E+01
 s    1 1.00
 0.95164440028000E-01 0.10000000000000E+01
 s    1 1.00
 0.48475401370000E-01 0.10000000000000E+01
 p    4 1.00
 0.34697232244000E+02 0.11327220003114E-01
 0.79582622826000E+01 0.76169659202087E-01
 0.23780826883000E+01 0.30192252202676E+00
 0.81433208183000E+00 0.72785027349547E+00
 p    1 1.00
 0.28887547253000E+00 0.10000000000000E+01
 p    1 1.00
 0.10056823671000E+00 0.10000000000000E+01
 d    1 1.00
 0.10970000000000E+01 0.10000000000000E+01
 d    1 1.00
 0.31800000000000E+00 0.10000000000000E+01
 d    1 1.00
 0.90985336424000E-01 0.10000000000000E+01
 f    1 1.00
 0.76100000000000E+00 0.10000000000000E+01
 
    3 0
 s    6 1.00
 0.13575349682000E+05 0.60645503603591E-03
 0.20352333680000E+04 0.46979088884982E-02
 0.46322562359000E+03 0.24332477647552E-01
 0.13120019598000E+03 0.97399968307759E-01
 0.42853015891000E+02 0.30195584253780E+00
 0.15584185766000E+02 0.66233609137875E+00
 s    2 1.00
 0.62067138508000E+01 0.65595308539952E+00
 0.25764896527000E+01 0.37585633285142E+00
 s    1 1.00
 0.57696339419000E+00 0.10000000000000E+01
 s    1 1.00
 0.22972831358000E+00 0.10000000000000E+01
 s    1 1.00
 0.95164440028000E-01 0.10000000000000E+01
 s    1 1.00
 0.48475401370000E-01 0.10000000000000E+01
 p    4 1.00
 0.34697232244000E+02 0.11327220003114E-01
 0.79582622826000E+01 0.76169659202087E-01
 0.23780826883000E+01 0.30192252202676E+00
 0.81433208183000E+00 0.72785027349547E+00
 p    1 1.00
 0.28887547253000E+00 0.10000000000000E+01
 p    1 1.00
 0.10056823671000E+00 0.10000000000000E+01
 d    1 1.00
 0.10970000000000E+01 0.10000000000000E+01
 d    1 1.00
 0.31800000000000E+00 0.10000000000000E+01
 d    1 1.00
 0.90985336424000E-01 0.10000000000000E+01
 f    1 1.00
 0.76100000000000E+00 0.10000000000000E+01
 
    4 0
 s    6 1.00
 0.13575349682000E+05 0.60645503603591E-03
 0.20352333680000E+04 0.46979088884982E-02
 0.46322562359000E+03 0.24332477647552E-01
 0.13120019598000E+03 0.97399968307759E-01
 0.42853015891000E+02 0.30195584253780E+00
 0.15584185766000E+02 0.66233609137875E+00
 s    2 1.00
 0.62067138508000E+01 0.65595308539952E+00
 0.25764896527000E+01 0.37585633285142E+00
 s    1 1.00
 0.57696339419000E+00 0.10000000000000E+01
 s    1 1.00
 0.22972831358000E+00 0.10000000000000E+01
 s    1 1.00
 0.95164440028000E-01 0.10000000000000E+01
 s    1 1.00
 0.48475401370000E-01 0.10000000000000E+01
 p    4 1.00
 0.34697232244000E+02 0.11327220003114E-01
 0.79582622826000E+01 0.76169659202087E-01
 0.23780826883000E+01 0.30192252202676E+00
 0.81433208183000E+00 0.72785027349547E+00
 p    1 1.00
 0.28887547253000E+00 0.10000000000000E+01
 p    1 1.00
 0.10056823671000E+00 0.10000000000000E+01
 d    1 1.00
 0.10970000000000E+01 0.10000000000000E+01
 d    1 1.00
 0.31800000000000E+00 0.10000000000000E+01
 d    1 1.00
 0.90985336424000E-01 0.10000000000000E+01
 f    1 1.00
 0.76100000000000E+00 0.10000000000000E+01
 
    5 0
 s    6 1.00
 0.13575349682000E+05 0.60645503603591E-03
 0.20352333680000E+04 0.46979088884982E-02
 0.46322562359000E+03 0.24332477647552E-01
 0.13120019598000E+03 0.97399968307759E-01
 0.42853015891000E+02 0.30195584253780E+00
 0.15584185766000E+02 0.66233609137875E+00
 s    2 1.00
 0.62067138508000E+01 0.65595308539952E+00
 0.25764896527000E+01 0.37585633285142E+00
 s    1 1.00
 0.57696339419000E+00 0.10000000000000E+01
 s    1 1.00
 0.22972831358000E+00 0.10000000000000E+01
 s    1 1.00
 0.95164440028000E-01 0.10000000000000E+01
 s    1 1.00
 0.48475401370000E-01 0.10000000000000E+01
 p    4 1.00
 0.34697232244000E+02 0.11327220003114E-01
 0.79582622826000E+01 0.76169659202087E-01
 0.23780826883000E+01 0.30192252202676E+00
 0.81433208183000E+00 0.72785027349547E+00
 p    1 1.00
 0.28887547253000E+00 0.10000000000000E+01
 p    1 1.00
 0.10056823671000E+00 0.10000000000000E+01
 d    1 1.00
 0.10970000000000E+01 0.10000000000000E+01
 d    1 1.00
 0.31800000000000E+00 0.10000000000000E+01
 d    1 1.00
 0.90985336424000E-01 0.10000000000000E+01
 f    1 1.00
 0.76100000000000E+00 0.10000000000000E+01
 
    6 0
 s    6 1.00
 0.13575349682000E+05 0.60645503603591E-03
 0.20352333680000E+04 0.46979088884982E-02
 0.46322562359000E+03 0.24332477647552E-01
 0.13120019598000E+03 0.97399968307759E-01
 0.42853015891000E+02 0.30195584253780E+00
 0.15584185766000E+02 0.66233609137875E+00
 s    2 1.00
 0.62067138508000E+01 0.65595308539952E+00
 0.25764896527000E+01 0.37585633285142E+00
 s    1 1.00
 0.57696339419000E+00 0.10000000000000E+01
 s    1 1.00
 0.22972831358000E+00 0.10000000000000E+01
 s    1 1.00
 0.95164440028000E-01 0.10000000000000E+01
 s    1 1.00
 0.48475401370000E-01 0.10000000000000E+01
 p    4 1.00
 0.34697232244000E+02 0.11327220003114E-01
 0.79582622826000E+01 0.76169659202087E-01
 0.23780826883000E+01 0.30192252202676E+00
 0.81433208183000E+00 0.72785027349547E+00
 p    1 1.00
 0.28887547253000E+00 0.10000000000000E+01
 p    1 1.00
 0.10056823671000E+00 0.10000000000000E+01
 d    1 1.00
 0.10970000000000E+01 0.10000000000000E+01
 d    1 1.00
 0.31800000000000E+00 0.10000000000000E+01
 d    1 1.00
 0.90985336424000E-01 0.10000000000000E+01
 f    1 1.00
 0.76100000000000E+00 0.10000000000000E+01
 
    7 0
 s    3 1.00
 0.34061341000000E+02 0.25439307208879E-01
 0.51235746000000E+01 0.19008594890375E+00
 0.11646626000000E+01 0.85244113011042E+00
 s    1 1.00
 0.32723041000000E+00 0.10000000000000E+01
 s    1 1.00
 0.10307241000000E+00 0.10000000000000E+01
 p    1 1.00
 0.80000000000000E+00 0.10000000000000E+01
 p    1 1.00
 0.95774129632000E-01 0.10000000000000E+01
 
    8 0
 s    3 1.00
 0.34061341000000E+02 0.25439307208879E-01
 0.51235746000000E+01 0.19008594890375E+00
 0.11646626000000E+01 0.85244113011042E+00
 s    1 1.00
 0.32723041000000E+00 0.10000000000000E+01
 s    1 1.00
 0.10307241000000E+00 0.10000000000000E+01
 p    1 1.00
 0.80000000000000E+00 0.10000000000000E+01
 p    1 1.00
 0.95774129632000E-01 0.10000000000000E+01
 
    9 0
 s    3 1.00
 0.34061341000000E+02 0.25439307208879E-01
 0.51235746000000E+01 0.19008594890375E+00
 0.11646626000000E+01 0.85244113011042E+00
 s    1 1.00
 0.32723041000000E+00 0.10000000000000E+01
 s    1 1.00
 0.10307241000000E+00 0.10000000000000E+01
 p    1 1.00
 0.80000000000000E+00 0.10000000000000E+01
 p    1 1.00
 0.95774129632000E-01 0.10000000000000E+01
 
   10 0
 s    3 1.00
 0.34061341000000E+02 0.25439307208879E-01
 0.51235746000000E+01 0.19008594890375E+00
 0.11646626000000E+01 0.85244113011042E+00
 s    1 1.00
 0.32723041000000E+00 0.10000000000000E+01
 s    1 1.00
 0.10307241000000E+00 0.10000000000000E+01
 p    1 1.00
 0.80000000000000E+00 0.10000000000000E+01
 p    1 1.00
 0.95774129632000E-01 0.10000000000000E+01
 
   11 0
 s    6 1.00
 0.19730800647000E+05 0.58626402628763E-03
 0.29578958745000E+04 0.45428820586397E-02
 0.67322133595000E+03 0.23558413450084E-01
 0.19068249494000E+03 0.94709193292923E-01
 0.62295441898000E+02 0.29719784913376E+00
 0.22654161182000E+02 0.66916246895232E+00
 s    2 1.00
 0.89791477428000E+01 0.64596683630063E+00
 0.36863002370000E+01 0.38700574393705E+00
 s    1 1.00
 0.84660076805000E+00 0.10000000000000E+01
 s    1 1.00
 0.33647133771000E+00 0.10000000000000E+01
 s    1 1.00
 0.13647653675000E+00 0.10000000000000E+01
 s    1 1.00
 0.68441605847000E-01 0.10000000000000E+01
 p    4 1.00
 0.49200380510000E+02 0.11448825101764E-01
 0.11346790537000E+02 0.78422337970864E-01
 0.34273972411000E+01 0.30818094738830E+00
 0.11785525134000E+01 0.72027196368413E+00
 p    1 1.00
 0.41642204972000E+00 0.10000000000000E+01
 p    1 1.00
 0.14260826011000E+00 0.10000000000000E+01
 d    1 1.00
 0.16540000000000E+01 0.10000000000000E+01
 d    1 1.00
 0.46900000000000E+00 0.10000000000000E+01
 d    1 1.00
 0.12829642058000E+00 0.10000000000000E+01
 f    1 1.00
 0.10930000000000E+01 0.10000000000000E+01
 
   12 0
 s    6 1.00
 0.27032382631000E+05 0.57227335211155E-03
 0.40523871392000E+04 0.44353233492995E-02
 0.92232722710000E+03 0.23020107706038E-01
 0.26124070989000E+03 0.92822490667928E-01
 0.85354641351000E+02 0.29378500009671E+00
 0.31035035245000E+02 0.67401604501641E+00
 s    2 1.00
 0.12260860728000E+02 0.63839937025506E+00
 0.49987076005000E+01 0.39534587125718E+00
 s    1 1.00
 0.11703108158000E+01 0.10000000000000E+01
 s    1 1.00
 0.46474740994000E+00 0.10000000000000E+01
 s    1 1.00
 0.18504536357000E+00 0.10000000000000E+01
 s    1 1.00
 0.70288026270000E-01 0.10000000000000E+01
 p    4 1.00
 0.63274954801000E+02 0.12018332222616E-01
 0.14627049379000E+02 0.83005421790056E-01
 0.44501223456000E+01 0.31991743925964E+00
 0.15275799647000E+01 0.70715542916104E+00
 p    1 1.00
 0.52935117943000E+00 0.10000000000000E+01
 p    1 1.00
 0.17478421270000E+00 0.10000000000000E+01
 p    1 1.00
 0.51112745706000E-01 0.10000000000000E+01
 d    1 1.00
 0.23140000000000E+01 0.10000000000000E+01
 d    1 1.00
 0.64500000000000E+00 0.10000000000000E+01
 d    1 1.00
 0.14696477366000E+00 0.10000000000000E+01
 f    1 1.00
 0.14280000000000E+01 0.10000000000000E+01
 
   13 0
 s    6 1.00
 0.27032382631000E+05 0.57227335211155E-03
 0.40523871392000E+04 0.44353233492995E-02
 0.92232722710000E+03 0.23020107706038E-01
 0.26124070989000E+03 0.92822490667928E-01
 0.85354641351000E+02 0.29378500009671E+00
 0.31035035245000E+02 0.67401604501641E+00
 s    2 1.00
 0.12260860728000E+02 0.63839937025506E+00
 0.49987076005000E+01 0.39534587125718E+00
 s    1 1.00
 0.11703108158000E+01 0.10000000000000E+01
 s    1 1.00
 0.46474740994000E+00 0.10000000000000E+01
 s    1 1.00
 0.18504536357000E+00 0.10000000000000E+01
 s    1 1.00
 0.70288026270000E-01 0.10000000000000E+01
 p    4 1.00
 0.63274954801000E+02 0.12018332222616E-01
 0.14627049379000E+02 0.83005421790056E-01
 0.44501223456000E+01 0.31991743925964E+00
 0.15275799647000E+01 0.70715542916104E+00
 p    1 1.00
 0.52935117943000E+00 0.10000000000000E+01
 p    1 1.00
 0.17478421270000E+00 0.10000000000000E+01
 p    1 1.00
 0.51112745706000E-01 0.10000000000000E+01
 d    1 1.00
 0.23140000000000E+01 0.10000000000000E+01
 d    1 1.00
 0.64500000000000E+00 0.10000000000000E+01
 d    1 1.00
 0.14696477366000E+00 0.10000000000000E+01
 f    1 1.00
 0.14280000000000E+01 0.10000000000000E+01
 
   14 0
 s    6 1.00
 0.19730800647000E+05 0.58626402628763E-03
 0.29578958745000E+04 0.45428820586397E-02
 0.67322133595000E+03 0.23558413450084E-01
 0.19068249494000E+03 0.94709193292923E-01
 0.62295441898000E+02 0.29719784913376E+00
 0.22654161182000E+02 0.66916246895232E+00
 s    2 1.00
 0.89791477428000E+01 0.64596683630063E+00
 0.36863002370000E+01 0.38700574393705E+00
 s    1 1.00
 0.84660076805000E+00 0.10000000000000E+01
 s    1 1.00
 0.33647133771000E+00 0.10000000000000E+01
 s    1 1.00
 0.13647653675000E+00 0.10000000000000E+01
 s    1 1.00
 0.68441605847000E-01 0.10000000000000E+01
 p    4 1.00
 0.49200380510000E+02 0.11448825101764E-01
 0.11346790537000E+02 0.78422337970864E-01
 0.34273972411000E+01 0.30818094738830E+00
 0.11785525134000E+01 0.72027196368413E+00
 p    1 1.00
 0.41642204972000E+00 0.10000000000000E+01
 p    1 1.00
 0.14260826011000E+00 0.10000000000000E+01
 d    1 1.00
 0.16540000000000E+01 0.10000000000000E+01
 d    1 1.00
 0.46900000000000E+00 0.10000000000000E+01
 d    1 1.00
 0.12829642058000E+00 0.10000000000000E+01
 f    1 1.00
 0.10930000000000E+01 0.10000000000000E+01
 
   15 0
 s    3 1.00
 0.34061341000000E+02 0.25439307208879E-01
 0.51235746000000E+01 0.19008594890375E+00
 0.11646626000000E+01 0.85244113011042E+00
 s    1 1.00
 0.32723041000000E+00 0.10000000000000E+01
 s    1 1.00
 0.10307241000000E+00 0.10000000000000E+01
 p    1 1.00
 0.80000000000000E+00 0.10000000000000E+01
 p    1 1.00
 0.95774129632000E-01 0.10000000000000E+01
 
   16 0
 s    3 1.00
 0.34061341000000E+02 0.25439307208879E-01
 0.51235746000000E+01 0.19008594890375E+00
 0.11646626000000E+01 0.85244113011042E+00
 s    1 1.00
 0.32723041000000E+00 0.10000000000000E+01
 s    1 1.00
 0.10307241000000E+00 0.10000000000000E+01
 p    1 1.00
 0.80000000000000E+00 0.10000000000000E+01
 p    1 1.00
 0.95774129632000E-01 0.10000000000000E+01
 
[MO]
 Sym= X
 Ene= -0.311672
 Spin= Alpha
 Occup= -0.311672
         1   -5.638824E-04
         2   -1.290296E-03
         3    2.595219E-03
         4   -1.230854E-03
         5    7.811078E-03
         6   -1.487762E-02
         7    1.144222E-02
         8    1.474484E-03
         9   -1.204478E-01
        10    4.047889E-03
        11    1.874659E-03
        12   -1.190992E-01
        13   -3.388607E-02
        14    4.755308E-03
        15   -4.672072E-02
        16    3.163848E-04
        17   -2.971722E-04
        18   -1.921258E-05
        19   -1.199744E-04
        20    1.236461E-04
        21   -3.598754E-03
        22   -3.904081E-04
        23    2.102174E-04
        24    1.801907E-04
        25   -1.163455E-03
        26    6.163990E-04
        27   -5.906629E-03
        28   -3.156975E-03
        29    2.639857E-03
        30    5.171185E-04
        31    2.485754E-03
        32    6.995308E-03
        33   -7.277956E-03
        34    4.388554E-06
        35    2.144303E-05
        36    1.005580E-03
        37    1.800112E-06
        38   -1.879960E-05
        39   -5.839217E-04
        40   -7.687974E-06
        41   -9.969239E-06
        42   -7.652051E-04
        43    4.067033E-04
        44    4.122840E-04
        45    9.213645E-04
        46   -8.026068E-04
        47   -7.698145E-03
        48   -2.766963E-02
        49    1.231360E-02
        50   -2.638950E-03
        51   -1.393812E-05
        52   -1.696985E-01
        53   -3.279627E-03
        54   -3.007177E-05
        55   -1.712654E-01
        56   -1.199866E-02
        57   -4.889331E-04
        58   -3.836791E-02
        59    4.046171E-04
        60   -4.046885E-04
        61    7.149119E-08
        62   -4.898345E-07
        63   -2.673910E-03
        64   -2.945346E-06
        65    1.011326E-03
        66   -1.433743E-03
        67    4.224175E-04
        68   -4.257345E-06
        69   -4.370712E-03
        70   -7.197256E-06
        71    1.692710E-02
        72   -1.767757E-02
        73    7.504708E-04
        74   -4.164132E-05
        75   -6.697380E-03
        76   -9.120882E-06
        77   -7.330928E-06
        78   -1.922959E-07
        79    1.354260E-03
        80   -1.202697E-05
        81    7.160648E-08
        82   -6.669743E-04
        83    2.186244E-05
        84    1.863855E-07
        85   -1.149956E-03
        86   -4.614142E-07
        87   -5.634915E-04
        88   -1.289353E-03
        89    2.591091E-03
        90   -1.230598E-03
        91    9.943639E-03
        92   -1.494535E-02
        93    1.145312E-02
        94   -1.456274E-03
        95   -1.206058E-01
        96    4.051775E-03
        97   -1.882567E-03
        98   -1.192583E-01
        99   -3.352895E-02
       100   -5.371739E-03
       101   -4.677472E-02
       102    3.162619E-04
       103   -2.972039E-04
       104   -1.905809E-05
       105    1.189599E-04
       106    1.193853E-04
       107    3.599388E-03
       108   -3.873343E-04
       109    2.090592E-04
       110    1.782751E-04
       111    1.167418E-03
       112    6.077317E-04
       113    5.904682E-03
       114   -3.123361E-03
       115    2.624479E-03
       116    4.988818E-04
       117   -2.465933E-03
       118    6.986856E-03
       119    7.245850E-03
       120    4.456484E-06
       121   -2.142212E-05
       122    1.006586E-03
       123    1.732112E-06
       124    1.865483E-05
       125   -5.851623E-04
       126   -7.711114E-06
       127    1.008596E-05
       128   -7.653144E-04
       129   -4.066257E-04
       130    2.263327E-04
       131    5.007155E-04
       132    6.545732E-04
       133   -1.524750E-02
       134   -3.410490E-03
       135    1.645871E-02
       136   -1.101921E-02
       137    3.463629E-03
       138   -5.025867E-02
       139   -1.910894E-02
       140    1.026680E-02
       141   -5.072840E-02
       142   -2.126547E-02
       143   -1.044630E-02
       144   -1.741278E-02
       145    6.142961E-04
       146   -6.715490E-04
       147    5.725284E-05
       148    6.107226E-05
       149    3.742415E-03
       150   -4.848273E-04
       151    1.087042E-03
       152   -1.401697E-03
       153    3.146542E-04
       154    2.459343E-03
       155    6.144686E-03
       156   -1.497403E-03
       157    1.020705E-02
       158   -8.297880E-03
       159   -1.909170E-03
       160   -1.183179E-02
       161    4.240686E-03
       162   -1.430019E-02
       163   -3.358529E-05
       164    4.231631E-05
       165    3.504206E-04
       166   -4.441294E-05
       167   -5.977060E-06
       168   -4.946447E-04
       169    8.947233E-05
       170   -5.079622E-05
       171    2.450614E-05
       172   -3.351435E-04
       173   -1.344554E-03
       174   -3.051444E-03
       175    3.125768E-03
       176    2.274021E-02
       177   -5.483054E-02
       178    5.299339E-03
       179    2.522133E-02
       180    1.109139E-05
       181    7.911961E-02
       182    8.393641E-03
       183   -7.115207E-06
       184    7.516471E-02
       185   -5.634541E-02
       186    4.817531E-05
       187   -3.943588E-02
       188    1.301824E-03
       189   -9.844214E-04
       190   -3.174029E-04
       191   -3.431542E-07
       192    8.061631E-03
       193   -3.358981E-06
       194   -2.143901E-03
       195    4.928892E-03
       196   -2.784990E-03
       197    5.277375E-06
       198    1.709294E-02
       199   -4.520446E-06
       200   -1.235371E-02
       201    1.304034E-02
       202   -6.866286E-04
       203   -8.204784E-05
       204    6.663062E-03
       205    2.520708E-05
       206    2.125587E-04
       207   -6.960897E-08
       208   -9.142255E-04
       209   -1.179851E-04
       210    5.276808E-09
       211    1.591076E-03
       212   -1.671923E-04
       213    8.811342E-08
       214   -3.645140E-04
       215    4.230083E-07
       216    2.276463E-04
       217    5.036075E-04
       218    6.546407E-04
       219   -1.529165E-02
       220   -1.885225E-03
       221    1.636055E-02
       222   -1.101439E-02
       223   -3.480315E-03
       224   -5.008736E-02
       225   -1.912292E-02
       226   -1.030118E-02
       227   -5.055253E-02
       228   -2.192755E-02
       229    1.077607E-02
       230   -1.722459E-02
       231    6.141561E-04
       232   -6.715702E-04
       233    5.741411E-05
       234   -6.194828E-05
       235    3.738585E-03
       236    4.851255E-04
       237    1.088907E-03
       238   -1.406979E-03
       239    3.180718E-04
       240   -2.464350E-03
       241    6.138416E-03
       242    1.500016E-03
       243    1.019552E-02
       244   -8.287249E-03
       245   -1.908270E-03
       246    1.176352E-02
       247    4.257554E-03
       248    1.433004E-02
       249   -3.336860E-05
       250   -4.243273E-05
       251    3.491994E-04
       252   -4.478336E-05
       253    6.051801E-06
       254   -4.933542E-04
       255    8.955204E-05
       256    5.087768E-05
       257    2.485406E-05
       258    3.352886E-04
       259   -3.320282E-03
       260   -4.657148E-03
       261   -2.606533E-02
       262   -5.611941E-05
       263   -4.458994E-04
       264   -4.328905E-03
       265   -6.080380E-03
       266   -2.072118E-03
       267   -3.700054E-03
       268   -3.313687E-03
       269   -4.635107E-03
       270   -2.586201E-02
       271   -5.476806E-05
       272    4.440937E-04
       273   -4.335065E-03
       274   -6.069958E-03
       275    2.053484E-03
       276   -3.684056E-03
       277   -2.294700E-03
       278   -5.833750E-03
       279    4.591521E-02
       280   -1.179808E-04
       281    4.393157E-04
       282   -1.473291E-03
       283   -5.973113E-03
       284   -2.859603E-03
       285    1.019898E-02
       286   -2.286738E-03
       287   -5.803547E-03
       288    4.599441E-02
       289   -1.180028E-04
       290   -4.367432E-04
       291   -1.465765E-03
       292   -5.984761E-03
       293    2.875901E-03
       294    1.022022E-02
       295   -3.741688E-04
       296   -8.823860E-04
       297    1.201314E-03
       298    2.837305E-03
       299   -1.208793E-02
       300   -7.434799E-03
       301    5.257484E-03
       302    1.798651E-06
       303    2.861659E-02
       304    4.491785E-03
       305   -1.844648E-06
       306    2.781486E-02
       307   -4.009176E-03
       308    3.212920E-05
       309   -3.566313E-03
       310    2.283744E-05
       311   -6.066830E-05
       312    3.783085E-05
       313    4.248457E-07
       314   -3.353727E-03
       315    4.262402E-07
       316    5.288933E-05
       317   -8.449042E-05
       318    3.160109E-05
       319    1.559737E-06
       320   -9.359898E-03
       321    1.140639E-06
       322   -5.263073E-04
       323    3.215270E-03
       324   -2.688963E-03
       325    1.651843E-05
       326   -4.868009E-03
       327   -1.747428E-06
       328    1.075424E-05
       329    1.798775E-07
       330   -1.636421E-04
       331    2.710882E-06
       332   -2.672044E-07
       333   -4.472933E-04
       334   -1.713921E-05
       335    2.587344E-08
       336    6.668422E-04
       337   -1.405596E-07
       338   -2.184702E-04
       339   -5.292619E-04
       340    7.510045E-04
       341    1.945469E-03
       342   -6.858318E-03
       343   -4.099402E-04
       344   -8.722691E-05
       345    2.078151E-03
       346    6.580071E-02
       347   -2.128096E-04
       348    1.907921E-03
       349    6.040706E-02
       350   -1.417616E-03
       351    1.732933E-03
       352    4.090251E-02
       353   -3.720329E-04
       354    2.477643E-05
       355    3.140208E-03
       356    3.564162E-05
       357   -5.487490E-05
       358    1.923327E-05
       359    2.195832E-07
       360    2.840366E-04
       361   -8.220396E-04
       362    5.656600E-05
       363   -1.344883E-04
       364    7.792230E-05
       365   -2.148954E-05
       366    1.170717E-03
       367   -2.485394E-03
       368   -3.244361E-05
       369   -5.058929E-05
       370    8.303290E-05
       371   -1.162030E-05
       372    1.706643E-03
       373   -4.659295E-04
       374    3.416229E-06
       375    1.774271E-05
       376   -1.320042E-04
       377   -6.545721E-06
       378   -1.625947E-05
       379   -6.071174E-05
       380    1.962369E-06
       381   -7.544869E-06
       382    2.378140E-04
       383   -2.105459E-04
       384   -2.193416E-04
       385   -5.313896E-04
       386    7.541565E-04
       387    1.951227E-03
       388   -6.864193E-03
       389   -4.136072E-04
       390   -1.280153E-04
       391   -2.056357E-03
       392    6.577166E-02
       393   -2.499070E-04
       394   -1.890180E-03
       395    6.038057E-02
       396   -1.435536E-03
       397   -1.717335E-03
       398    4.087677E-02
       399   -3.801576E-04
       400   -1.835902E-05
       401    3.137901E-03
       402    3.536023E-05
       403   -5.462036E-05
       404    1.926012E-05
       405   -3.776042E-07
       406    2.839768E-04
       407    8.218086E-04
       408    5.590975E-05
       409   -1.342999E-04
       410    7.839012E-05
       411    2.070647E-05
       412    1.170284E-03
       413    2.484542E-03
       414   -3.677455E-05
       415   -4.639854E-05
       416    8.317309E-05
       417    1.364791E-05
       418    1.706755E-03
       419    4.646394E-04
       420    3.413577E-06
       421   -1.766865E-05
       422   -1.319744E-04
       423   -6.578683E-06
       424    1.613596E-05
       425   -6.068387E-05
       426    1.998889E-06
       427    7.569023E-06
       428    2.377461E-04
       429    2.104720E-04
       430    6.414941E-03
       431    1.517634E-02
       432   -2.344884E-02
       433   -3.763134E-02
       434   -7.626696E-03
       435   -5.250445E-02
       436   -3.426340E-02
       437    1.302461E-05
       438    2.906698E-01
       439   -3.693968E-02
       440    4.467913E-06
       441    2.826717E-01
       442   -4.277911E-02
       443   -8.393213E-05
       444    1.988253E-01
       445   -1.673905E-05
       446   -3.322803E-04
       447    3.490193E-04
       448    2.130733E-07
       449   -1.868819E-03
       450    1.363147E-07
       451    2.204894E-04
       452   -3.035110E-03
       453    2.814620E-03
       454   -3.939905E-06
       455   -3.696534E-03
       456    2.101380E-07
       457    8.166569E-04
       458   -7.817788E-03
       459    7.001131E-03
       460   -9.537227E-06
       461   -2.025958E-04
       462    1.161876E-06
       463   -1.566704E-04
       464    5.564313E-08
       465   -1.471855E-03
       466   -1.581286E-04
       467    4.118189E-08
       468    1.210694E-03
       469    3.683240E-04
       470   -1.158350E-07
       471    7.640059E-04
       472    2.281797E-08
       473    7.588736E-03
       474    1.855299E-02
       475    3.773721E-02
       476   -3.382187E-03
       477   -2.227156E-03
       478    1.349738E-02
       479   -3.446126E-03
       480   -3.854851E-03
       481    7.071588E-03
       482    7.580784E-03
       483    1.847587E-02
       484    3.749102E-02
       485   -3.377110E-03
       486    2.220159E-03
       487    1.350109E-02
       488   -3.412053E-03
       489    3.813918E-03
       490    7.091367E-03
 Sym= X
 Ene= -0.568312
 Spin= Alpha
 Occup= -0.568312
         1    1.036309E-03
         2    2.370471E-03
         3   -4.803656E-03
         4    1.013891E-03
         5   -5.407851E-02
         6   -7.111869E-03
         7    1.093636E-02
         8    1.224111E-03
         9   -1.829398E-01
        10    1.144094E-02
        11    1.441769E-03
        12   -1.835296E-01
        13    1.992026E-02
        14   -2.550757E-02
        15   -1.063034E-01
        16    3.486357E-04
        17   -3.991364E-04
        18    5.050064E-05
        19    2.967074E-05
        20   -4.838395E-03
        21   -5.316467E-04
        22    1.829946E-03
        23   -1.310784E-03
        24   -5.191624E-04
        25   -1.901802E-04
        26   -9.437970E-03
        27    4.333585E-04
        28    8.162022E-04
        29   -1.742095E-03
        30    9.258925E-04
        31    3.639316E-03
        32   -3.563990E-03
        33    4.640839E-04
        34    1.066290E-05
        35   -2.676334E-05
        36    1.130998E-03
        37    1.608048E-05
        38    4.156704E-05
        39   -1.368036E-03
        40   -3.038627E-05
        41   -5.660254E-06
        42   -1.493574E-04
        43   -7.121489E-06
        44    1.707277E-07
        45    4.776175E-07
        46   -7.674804E-06
        47    2.652786E-05
        48    2.508256E-03
        49    1.783458E-04
        50   -4.099523E-06
        51    7.197398E-03
        52   -5.995214E-05
        53    1.578420E-05
        54    8.653897E-03
        55   -5.512630E-05
        56    1.129009E-03
        57   -5.514954E-02
        58    6.052525E-06
        59    2.371187E-07
        60   -1.275541E-07
        61   -1.095646E-07
        62    3.834786E-04