[Molden Format]
[Title]
ADC(2) - opt by CAM-B3LYP gaussian                                              
[Atoms] AU
 c     1    6 -.12590385386216E+01 -.22819701624009E+01 -.30156123253150E-01
 c     2    6 -.25547233845863E+01 -.83266058000000E-06 -.28792213416740E-01
 c     3    6 -.12590428849917E+01 0.22819669475044E+01 -.30169993842970E-01
 c     4    6 0.13339759331395E+01 0.22828246941961E+01 -.32722654800530E-01
 c     5    6 0.26864234278208E+01 0.32869423900000E-05 -.32794180934660E-01
 c     6    6 0.13339778039684E+01 -.22828226745513E+01 -.32706516539360E-01
 h     7    1 -.23005849451053E+01 -.40353719055945E+01 -.27139024303910E-01
 h     8    1 -.23005903875166E+01 0.40353685773143E+01 -.27164403325880E-01
 h     9    1 0.23527432406667E+01 0.40554759247724E+01 -.35914685697900E-01
 h    10    1 0.23527525948111E+01 -.40554698422164E+01 -.35883032785170E-01
 n    11    7 -.52784595104117E+01 -.53030440000000E-06 -.22539903328000E-01
 o    12    8 -.63796877956448E+01 0.20272212823250E+01 -.19883023974210E-01
 o    13    8 -.63796922742957E+01 -.20272201130570E+01 -.19923067270970E-01
 n    14    7 0.52516126460355E+01 -.32243452000000E-06 -.88209511610250E-01
 h    15    1 0.62001707317805E+01 0.16133662892433E+01 0.23199721167530E+00
 h    16    1 0.62001633429513E+01 -.16133706190784E+01 0.23200112340840E+00
[GTO]
    1 0
 s    6 1.00
 0.13575349682000E+05 0.60645503603591E-03
 0.20352333680000E+04 0.46979088884982E-02
 0.46322562359000E+03 0.24332477647552E-01
 0.13120019598000E+03 0.97399968307759E-01
 0.42853015891000E+02 0.30195584253780E+00
 0.15584185766000E+02 0.66233609137875E+00
 s    2 1.00
 0.62067138508000E+01 0.65595308539952E+00
 0.25764896527000E+01 0.37585633285142E+00
 s    1 1.00
 0.57696339419000E+00 0.10000000000000E+01
 s    1 1.00
 0.22972831358000E+00 0.10000000000000E+01
 s    1 1.00
 0.95164440028000E-01 0.10000000000000E+01
 s    1 1.00
 0.48475401370000E-01 0.10000000000000E+01
 p    4 1.00
 0.34697232244000E+02 0.11327220003114E-01
 0.79582622826000E+01 0.76169659202087E-01
 0.23780826883000E+01 0.30192252202676E+00
 0.81433208183000E+00 0.72785027349547E+00
 p    1 1.00
 0.28887547253000E+00 0.10000000000000E+01
 p    1 1.00
 0.10056823671000E+00 0.10000000000000E+01
 d    1 1.00
 0.10970000000000E+01 0.10000000000000E+01
 d    1 1.00
 0.31800000000000E+00 0.10000000000000E+01
 d    1 1.00
 0.90985336424000E-01 0.10000000000000E+01
 f    1 1.00
 0.76100000000000E+00 0.10000000000000E+01
 
    2 0
 s    6 1.00
 0.13575349682000E+05 0.60645503603591E-03
 0.20352333680000E+04 0.46979088884982E-02
 0.46322562359000E+03 0.24332477647552E-01
 0.13120019598000E+03 0.97399968307759E-01
 0.42853015891000E+02 0.30195584253780E+00
 0.15584185766000E+02 0.66233609137875E+00
 s    2 1.00
 0.62067138508000E+01 0.65595308539952E+00
 0.25764896527000E+01 0.37585633285142E+00
 s    1 1.00
 0.57696339419000E+00 0.10000000000000E+01
 s    1 1.00
 0.22972831358000E+00 0.10000000000000E+01
 s    1 1.00
 0.95164440028000E-01 0.10000000000000E+01
 s    1 1.00
 0.48475401370000E-01 0.10000000000000E+01
 p    4 1.00
 0.34697232244000E+02 0.11327220003114E-01
 0.79582622826000E+01 0.76169659202087E-01
 0.23780826883000E+01 0.30192252202676E+00
 0.81433208183000E+00 0.72785027349547E+00
 p    1 1.00
 0.28887547253000E+00 0.10000000000000E+01
 p    1 1.00
 0.10056823671000E+00 0.10000000000000E+01
 d    1 1.00
 0.10970000000000E+01 0.10000000000000E+01
 d    1 1.00
 0.31800000000000E+00 0.10000000000000E+01
 d    1 1.00
 0.90985336424000E-01 0.10000000000000E+01
 f    1 1.00
 0.76100000000000E+00 0.10000000000000E+01
 
    3 0
 s    6 1.00
 0.13575349682000E+05 0.60645503603591E-03
 0.20352333680000E+04 0.46979088884982E-02
 0.46322562359000E+03 0.24332477647552E-01
 0.13120019598000E+03 0.97399968307759E-01
 0.42853015891000E+02 0.30195584253780E+00
 0.15584185766000E+02 0.66233609137875E+00
 s    2 1.00
 0.62067138508000E+01 0.65595308539952E+00
 0.25764896527000E+01 0.37585633285142E+00
 s    1 1.00
 0.57696339419000E+00 0.10000000000000E+01
 s    1 1.00
 0.22972831358000E+00 0.10000000000000E+01
 s    1 1.00
 0.95164440028000E-01 0.10000000000000E+01
 s    1 1.00
 0.48475401370000E-01 0.10000000000000E+01
 p    4 1.00
 0.34697232244000E+02 0.11327220003114E-01
 0.79582622826000E+01 0.76169659202087E-01
 0.23780826883000E+01 0.30192252202676E+00
 0.81433208183000E+00 0.72785027349547E+00
 p    1 1.00
 0.28887547253000E+00 0.10000000000000E+01
 p    1 1.00
 0.10056823671000E+00 0.10000000000000E+01
 d    1 1.00
 0.10970000000000E+01 0.10000000000000E+01
 d    1 1.00
 0.31800000000000E+00 0.10000000000000E+01
 d    1 1.00
 0.90985336424000E-01 0.10000000000000E+01
 f    1 1.00
 0.76100000000000E+00 0.10000000000000E+01
 
    4 0
 s    6 1.00
 0.13575349682000E+05 0.60645503603591E-03
 0.20352333680000E+04 0.46979088884982E-02
 0.46322562359000E+03 0.24332477647552E-01
 0.13120019598000E+03 0.97399968307759E-01
 0.42853015891000E+02 0.30195584253780E+00
 0.15584185766000E+02 0.66233609137875E+00
 s    2 1.00
 0.62067138508000E+01 0.65595308539952E+00
 0.25764896527000E+01 0.37585633285142E+00
 s    1 1.00
 0.57696339419000E+00 0.10000000000000E+01
 s    1 1.00
 0.22972831358000E+00 0.10000000000000E+01
 s    1 1.00
 0.95164440028000E-01 0.10000000000000E+01
 s    1 1.00
 0.48475401370000E-01 0.10000000000000E+01
 p    4 1.00
 0.34697232244000E+02 0.11327220003114E-01
 0.79582622826000E+01 0.76169659202087E-01
 0.23780826883000E+01 0.30192252202676E+00
 0.81433208183000E+00 0.72785027349547E+00
 p    1 1.00
 0.28887547253000E+00 0.10000000000000E+01
 p    1 1.00
 0.10056823671000E+00 0.10000000000000E+01
 d    1 1.00
 0.10970000000000E+01 0.10000000000000E+01
 d    1 1.00
 0.31800000000000E+00 0.10000000000000E+01
 d    1 1.00
 0.90985336424000E-01 0.10000000000000E+01
 f    1 1.00
 0.76100000000000E+00 0.10000000000000E+01
 
    5 0
 s    6 1.00
 0.13575349682000E+05 0.60645503603591E-03
 0.20352333680000E+04 0.46979088884982E-02
 0.46322562359000E+03 0.24332477647552E-01
 0.13120019598000E+03 0.97399968307759E-01
 0.42853015891000E+02 0.30195584253780E+00
 0.15584185766000E+02 0.66233609137875E+00
 s    2 1.00
 0.62067138508000E+01 0.65595308539952E+00
 0.25764896527000E+01 0.37585633285142E+00
 s    1 1.00
 0.57696339419000E+00 0.10000000000000E+01
 s    1 1.00
 0.22972831358000E+00 0.10000000000000E+01
 s    1 1.00
 0.95164440028000E-01 0.10000000000000E+01
 s    1 1.00
 0.48475401370000E-01 0.10000000000000E+01
 p    4 1.00
 0.34697232244000E+02 0.11327220003114E-01
 0.79582622826000E+01 0.76169659202087E-01
 0.23780826883000E+01 0.30192252202676E+00
 0.81433208183000E+00 0.72785027349547E+00
 p    1 1.00
 0.28887547253000E+00 0.10000000000000E+01
 p    1 1.00
 0.10056823671000E+00 0.10000000000000E+01
 d    1 1.00
 0.10970000000000E+01 0.10000000000000E+01
 d    1 1.00
 0.31800000000000E+00 0.10000000000000E+01
 d    1 1.00
 0.90985336424000E-01 0.10000000000000E+01
 f    1 1.00
 0.76100000000000E+00 0.10000000000000E+01
 
    6 0
 s    6 1.00
 0.13575349682000E+05 0.60645503603591E-03
 0.20352333680000E+04 0.46979088884982E-02
 0.46322562359000E+03 0.24332477647552E-01
 0.13120019598000E+03 0.97399968307759E-01
 0.42853015891000E+02 0.30195584253780E+00
 0.15584185766000E+02 0.66233609137875E+00
 s    2 1.00
 0.62067138508000E+01 0.65595308539952E+00
 0.25764896527000E+01 0.37585633285142E+00
 s    1 1.00
 0.57696339419000E+00 0.10000000000000E+01
 s    1 1.00
 0.22972831358000E+00 0.10000000000000E+01
 s    1 1.00
 0.95164440028000E-01 0.10000000000000E+01
 s    1 1.00
 0.48475401370000E-01 0.10000000000000E+01
 p    4 1.00
 0.34697232244000E+02 0.11327220003114E-01
 0.79582622826000E+01 0.76169659202087E-01
 0.23780826883000E+01 0.30192252202676E+00
 0.81433208183000E+00 0.72785027349547E+00
 p    1 1.00
 0.28887547253000E+00 0.10000000000000E+01
 p    1 1.00
 0.10056823671000E+00 0.10000000000000E+01
 d    1 1.00
 0.10970000000000E+01 0.10000000000000E+01
 d    1 1.00
 0.31800000000000E+00 0.10000000000000E+01
 d    1 1.00
 0.90985336424000E-01 0.10000000000000E+01
 f    1 1.00
 0.76100000000000E+00 0.10000000000000E+01
 
    7 0
 s    3 1.00
 0.34061341000000E+02 0.25439307208879E-01
 0.51235746000000E+01 0.19008594890375E+00
 0.11646626000000E+01 0.85244113011042E+00
 s    1 1.00
 0.32723041000000E+00 0.10000000000000E+01
 s    1 1.00
 0.10307241000000E+00 0.10000000000000E+01
 p    1 1.00
 0.80000000000000E+00 0.10000000000000E+01
 p    1 1.00
 0.95774129632000E-01 0.10000000000000E+01
 
    8 0
 s    3 1.00
 0.34061341000000E+02 0.25439307208879E-01
 0.51235746000000E+01 0.19008594890375E+00
 0.11646626000000E+01 0.85244113011042E+00
 s    1 1.00
 0.32723041000000E+00 0.10000000000000E+01
 s    1 1.00
 0.10307241000000E+00 0.10000000000000E+01
 p    1 1.00
 0.80000000000000E+00 0.10000000000000E+01
 p    1 1.00
 0.95774129632000E-01 0.10000000000000E+01
 
    9 0
 s    3 1.00
 0.34061341000000E+02 0.25439307208879E-01
 0.51235746000000E+01 0.19008594890375E+00
 0.11646626000000E+01 0.85244113011042E+00
 s    1 1.00
 0.32723041000000E+00 0.10000000000000E+01
 s    1 1.00
 0.10307241000000E+00 0.10000000000000E+01
 p    1 1.00
 0.80000000000000E+00 0.10000000000000E+01
 p    1 1.00
 0.95774129632000E-01 0.10000000000000E+01
 
   10 0
 s    3 1.00
 0.34061341000000E+02 0.25439307208879E-01
 0.51235746000000E+01 0.19008594890375E+00
 0.11646626000000E+01 0.85244113011042E+00
 s    1 1.00
 0.32723041000000E+00 0.10000000000000E+01
 s    1 1.00
 0.10307241000000E+00 0.10000000000000E+01
 p    1 1.00
 0.80000000000000E+00 0.10000000000000E+01
 p    1 1.00
 0.95774129632000E-01 0.10000000000000E+01
 
   11 0
 s    6 1.00
 0.19730800647000E+05 0.58626402628763E-03
 0.29578958745000E+04 0.45428820586397E-02
 0.67322133595000E+03 0.23558413450084E-01
 0.19068249494000E+03 0.94709193292923E-01
 0.62295441898000E+02 0.29719784913376E+00
 0.22654161182000E+02 0.66916246895232E+00
 s    2 1.00
 0.89791477428000E+01 0.64596683630063E+00
 0.36863002370000E+01 0.38700574393705E+00
 s    1 1.00
 0.84660076805000E+00 0.10000000000000E+01
 s    1 1.00
 0.33647133771000E+00 0.10000000000000E+01
 s    1 1.00
 0.13647653675000E+00 0.10000000000000E+01
 s    1 1.00
 0.68441605847000E-01 0.10000000000000E+01
 p    4 1.00
 0.49200380510000E+02 0.11448825101764E-01
 0.11346790537000E+02 0.78422337970864E-01
 0.34273972411000E+01 0.30818094738830E+00
 0.11785525134000E+01 0.72027196368413E+00
 p    1 1.00
 0.41642204972000E+00 0.10000000000000E+01
 p    1 1.00
 0.14260826011000E+00 0.10000000000000E+01
 d    1 1.00
 0.16540000000000E+01 0.10000000000000E+01
 d    1 1.00
 0.46900000000000E+00 0.10000000000000E+01
 d    1 1.00
 0.12829642058000E+00 0.10000000000000E+01
 f    1 1.00
 0.10930000000000E+01 0.10000000000000E+01
 
   12 0
 s    6 1.00
 0.27032382631000E+05 0.57227335211155E-03
 0.40523871392000E+04 0.44353233492995E-02
 0.92232722710000E+03 0.23020107706038E-01
 0.26124070989000E+03 0.92822490667928E-01
 0.85354641351000E+02 0.29378500009671E+00
 0.31035035245000E+02 0.67401604501641E+00
 s    2 1.00
 0.12260860728000E+02 0.63839937025506E+00
 0.49987076005000E+01 0.39534587125718E+00
 s    1 1.00
 0.11703108158000E+01 0.10000000000000E+01
 s    1 1.00
 0.46474740994000E+00 0.10000000000000E+01
 s    1 1.00
 0.18504536357000E+00 0.10000000000000E+01
 s    1 1.00
 0.70288026270000E-01 0.10000000000000E+01
 p    4 1.00
 0.63274954801000E+02 0.12018332222616E-01
 0.14627049379000E+02 0.83005421790056E-01
 0.44501223456000E+01 0.31991743925964E+00
 0.15275799647000E+01 0.70715542916104E+00
 p    1 1.00
 0.52935117943000E+00 0.10000000000000E+01
 p    1 1.00
 0.17478421270000E+00 0.10000000000000E+01
 p    1 1.00
 0.51112745706000E-01 0.10000000000000E+01
 d    1 1.00
 0.23140000000000E+01 0.10000000000000E+01
 d    1 1.00
 0.64500000000000E+00 0.10000000000000E+01
 d    1 1.00
 0.14696477366000E+00 0.10000000000000E+01
 f    1 1.00
 0.14280000000000E+01 0.10000000000000E+01
 
   13 0
 s    6 1.00
 0.27032382631000E+05 0.57227335211155E-03
 0.40523871392000E+04 0.44353233492995E-02
 0.92232722710000E+03 0.23020107706038E-01
 0.26124070989000E+03 0.92822490667928E-01
 0.85354641351000E+02 0.29378500009671E+00
 0.31035035245000E+02 0.67401604501641E+00
 s    2 1.00
 0.12260860728000E+02 0.63839937025506E+00
 0.49987076005000E+01 0.39534587125718E+00
 s    1 1.00
 0.11703108158000E+01 0.10000000000000E+01
 s    1 1.00
 0.46474740994000E+00 0.10000000000000E+01
 s    1 1.00
 0.18504536357000E+00 0.10000000000000E+01
 s    1 1.00
 0.70288026270000E-01 0.10000000000000E+01
 p    4 1.00
 0.63274954801000E+02 0.12018332222616E-01
 0.14627049379000E+02 0.83005421790056E-01
 0.44501223456000E+01 0.31991743925964E+00
 0.15275799647000E+01 0.70715542916104E+00
 p    1 1.00
 0.52935117943000E+00 0.10000000000000E+01
 p    1 1.00
 0.17478421270000E+00 0.10000000000000E+01
 p    1 1.00
 0.51112745706000E-01 0.10000000000000E+01
 d    1 1.00
 0.23140000000000E+01 0.10000000000000E+01
 d    1 1.00
 0.64500000000000E+00 0.10000000000000E+01
 d    1 1.00
 0.14696477366000E+00 0.10000000000000E+01
 f    1 1.00
 0.14280000000000E+01 0.10000000000000E+01
 
   14 0
 s    6 1.00
 0.19730800647000E+05 0.58626402628763E-03
 0.29578958745000E+04 0.45428820586397E-02
 0.67322133595000E+03 0.23558413450084E-01
 0.19068249494000E+03 0.94709193292923E-01
 0.62295441898000E+02 0.29719784913376E+00
 0.22654161182000E+02 0.66916246895232E+00
 s    2 1.00
 0.89791477428000E+01 0.64596683630063E+00
 0.36863002370000E+01 0.38700574393705E+00
 s    1 1.00
 0.84660076805000E+00 0.10000000000000E+01
 s    1 1.00
 0.33647133771000E+00 0.10000000000000E+01
 s    1 1.00
 0.13647653675000E+00 0.10000000000000E+01
 s    1 1.00
 0.68441605847000E-01 0.10000000000000E+01
 p    4 1.00
 0.49200380510000E+02 0.11448825101764E-01
 0.11346790537000E+02 0.78422337970864E-01
 0.34273972411000E+01 0.30818094738830E+00
 0.11785525134000E+01 0.72027196368413E+00
 p    1 1.00
 0.41642204972000E+00 0.10000000000000E+01
 p    1 1.00
 0.14260826011000E+00 0.10000000000000E+01
 d    1 1.00
 0.16540000000000E+01 0.10000000000000E+01
 d    1 1.00
 0.46900000000000E+00 0.10000000000000E+01
 d    1 1.00
 0.12829642058000E+00 0.10000000000000E+01
 f    1 1.00
 0.10930000000000E+01 0.10000000000000E+01
 
   15 0
 s    3 1.00
 0.34061341000000E+02 0.25439307208879E-01
 0.51235746000000E+01 0.19008594890375E+00
 0.11646626000000E+01 0.85244113011042E+00
 s    1 1.00
 0.32723041000000E+00 0.10000000000000E+01
 s    1 1.00
 0.10307241000000E+00 0.10000000000000E+01
 p    1 1.00
 0.80000000000000E+00 0.10000000000000E+01
 p    1 1.00
 0.95774129632000E-01 0.10000000000000E+01
 
   16 0
 s    3 1.00
 0.34061341000000E+02 0.25439307208879E-01
 0.51235746000000E+01 0.19008594890375E+00
 0.11646626000000E+01 0.85244113011042E+00
 s    1 1.00
 0.32723041000000E+00 0.10000000000000E+01
 s    1 1.00
 0.10307241000000E+00 0.10000000000000E+01
 p    1 1.00
 0.80000000000000E+00 0.10000000000000E+01
 p    1 1.00
 0.95774129632000E-01 0.10000000000000E+01
 
[MO]
 Sym= X
 Ene= -0.052595
 Spin= Alpha
 Occup= -0.052595
         1    2.894797E-03
         2    6.596237E-03
         3   -1.336528E-02
         4    4.893605E-03
         5   -1.375623E-01
         6   -1.841533E-02
         7    3.422437E-02
         8   -1.709916E-03
         9   -1.609301E-01
        10    3.598224E-02
        11   -1.097901E-04
        12   -1.614377E-01
        13    5.359804E-02
        14   -6.480284E-02
        15   -9.461340E-02
        16    1.028916E-03
        17   -1.175678E-03
        18    1.467618E-04
        19    4.881851E-04
        20   -4.231674E-03
        21   -4.710077E-04
        22    5.250322E-03
        23   -3.764383E-03
        24   -1.485940E-03
        25   -1.841029E-05
        26   -8.145097E-03
        27    3.468576E-04
        28    9.759580E-04
        29   -3.314915E-03
        30    2.338957E-03
        31    1.103116E-02
        32   -2.960593E-03
        33    1.875541E-04
        34    4.715545E-05
        35   -9.120419E-05
        36    1.001531E-03
        37    4.730391E-05
        38    1.228618E-04
        39   -1.209546E-03
        40   -1.105696E-04
        41   -4.985421E-07
        42   -1.341493E-04
        43   -9.459980E-07
        44    5.644002E-07
        45    1.371732E-06
        46   -8.707785E-06
        47    2.466344E-05
        48    2.231960E-03
        49    1.552100E-04
        50    1.202613E-06
        51    2.863308E-02
        52   -1.508624E-05
        53    1.850441E-05
        54    3.060529E-02
        55   -1.104348E-05
        56    9.982075E-04
        57   -1.433817E-01
        58   -3.151744E-06
        59   -2.316886E-07
        60    2.845305E-07
        61   -5.284185E-08
        62    1.248421E-03
        63   -4.636136E-07
        64    6.057982E-03
        65   -1.883570E-06
        66    6.827891E-06
        67   -4.944320E-06
        68   -1.156423E-03
        69    5.288066E-07
        70    1.370376E-02
        71    5.388993E-05
        72   -7.216947E-06
        73   -4.667299E-05
        74   -2.411751E-02
        75    2.345474E-06
        76    2.014436E-03
        77   -2.389295E-08
        78    3.958688E-04
        79    7.802285E-08
        80    1.428876E-07
        81   -3.553981E-04
        82   -2.643847E-08
        83   -1.108318E-07
        84   -1.757156E-04
        85   -7.824016E-08
        86    8.677791E-04
        87   -2.896534E-03
        88   -6.600263E-03
        89    1.338726E-02
        90   -4.958563E-03
        91    1.332991E-01
        92    1.818318E-02
        93   -3.422539E-02
        94   -1.705254E-03
        95    1.609027E-01
        96   -3.604131E-02
        97   -7.192750E-05
        98    1.614096E-01
        99   -5.479382E-02
       100   -6.292417E-02
       101    9.453687E-02
       102   -1.028968E-03
       103    1.175930E-03
       104   -1.469618E-04
       105    4.878139E-04
       106    4.231703E-03
       107   -4.704361E-04
       108   -5.267247E-03
       109    3.769751E-03
       110    1.497496E-03
       111   -2.807852E-05
       112    8.145328E-03
       113    3.494952E-04
       114   -9.416810E-04
       115    3.199232E-03
       116   -2.257551E-03
       117    1.114376E-02
       118    2.945385E-03
       119    1.939922E-04
       120   -4.767960E-05
       121   -9.103598E-05
       122   -1.001360E-03
       123   -4.696716E-05
       124    1.230124E-04
       125    1.209510E-03
       126    1.109360E-04
       127   -8.747918E-07
       128    1.339550E-04
       129   -1.081018E-06
       130    7.124462E-04
       131    1.626572E-03
       132   -4.108820E-03
       133    1.086874E-02
       134   -2.724251E-02
       135   -6.067143E-03
       136    2.781308E-02
       137    9.358166E-03
       138    1.709012E-01
       139    9.079945E-03
       140    1.078260E-02
       141    1.732465E-01
       142   -2.167916E-02
       143    1.898903E-02
       144    1.112850E-01
       145   -7.989741E-04
       146    7.933391E-04
       147    5.635034E-06
       148    2.652228E-04
       149   -3.958751E-03
       150   -4.157753E-04
       151    2.179316E-03
       152   -1.231077E-03
       153   -9.482387E-04
       154    3.498002E-04
       155   -7.036631E-03
       156   -5.263809E-04
       157    6.847296E-03
       158   -7.199518E-03
       159    3.522215E-04
       160    2.336930E-03
       161    1.197104E-03
       162   -2.568649E-03
       163    2.871516E-05
       164    3.007916E-05
       165   -1.120886E-03
       166    3.276213E-05
       167    3.154649E-07
       168    1.248151E-03
       169   -7.128756E-05
       170   -4.067089E-05
       171    2.556749E-04
       172   -3.883021E-05
       173    1.778191E-07
       174    2.611385E-07
       175    7.396418E-06
       176   -1.865648E-05
       177   -2.735748E-03
       178   -1.970975E-04
       179    2.243616E-06
       180    7.983320E-03
       181   -2.921896E-06
       182    2.156172E-05
       183    9.843055E-03
       184   -5.631837E-06
       185    1.030385E-03
       186    3.950484E-02
       187   -8.200424E-06
       188    4.877728E-07
       189   -2.880152E-07
       190   -1.997576E-07
       191    1.693224E-04
       192    1.673964E-08
       193    6.423656E-03
       194    1.032010E-07
       195   -7.834992E-06
       196    7.731791E-06
       197   -1.463962E-03
       198    1.124312E-06
       199    1.346898E-02
       200   -5.185584E-05
       201   -1.350064E-05
       202    6.535648E-05
       203   -7.289450E-03
       204    2.175739E-06
       205   -4.305276E-03
       206   -5.963920E-08
       207    1.917287E-04
       208    6.811311E-08
       209    2.697093E-07
       210   -2.037685E-04
       211   -5.419417E-08
       212   -1.896949E-07
       213   -5.346258E-05
       214   -3.718916E-08
       215   -1.008880E-03
       216   -7.110322E-04
       217   -1.623279E-03
       218    4.086087E-03
       219   -1.079376E-02
       220    3.192846E-02
       221    6.319986E-03
       222   -2.781947E-02
       223    9.359980E-03
       224   -1.709130E-01
       225   -9.138806E-03
       226    1.082226E-02
       227   -1.732583E-01
       228    2.067087E-02
       229    2.100557E-02
       230   -1.112119E-01
       231    7.991916E-04
       232   -7.939208E-04
       233   -5.270786E-06
       234    2.656775E-04
       235    3.959548E-03
       236   -4.160486E-04
       237   -2.162405E-03
       238    1.228142E-03
       239    9.342629E-04
       240    3.591340E-04
       241    7.037714E-03
       242   -5.253688E-04
       243   -6.868125E-03
       244    7.307761E-03
       245   -4.396358E-04
       246    2.238043E-03
       247   -1.209249E-03
       248   -2.563803E-03
       249   -2.927529E-05
       250    3.031021E-05
       251    1.121023E-03
       252   -3.230681E-05
       253    4.018149E-07
       254   -1.248344E-03
       255    7.158374E-05
       256   -4.106723E-05
       257   -2.556652E-04
       258   -3.877168E-05
       259   -8.625704E-03
       260   -1.158555E-02
       261   -2.164258E-02
       262   -7.469567E-04
       263   -1.643612E-03
       264   -6.594081E-03
       265   -1.823907E-03
       266   -9.347750E-04
       267   -6.148917E-03
       268    8.630350E-03
       269    1.157175E-02
       270    2.108206E-02
       271    7.465308E-04
       272   -1.642056E-03
       273    6.592879E-03
       274    1.778874E-03
       275   -7.702396E-04
       276    6.144324E-03
       277    1.070859E-02
       278    1.643947E-02
       279    1.181567E-02
       280   -3.068255E-04
       281   -1.452105E-03
       282    7.382962E-03
       283   -9.894274E-04
       284    3.384573E-04
       285    8.275163E-03
       286   -1.071429E-02
       287   -1.643592E-02
       288   -1.123723E-02
       289    3.063823E-04
       290   -1.451144E-03
       291   -7.382937E-03
       292    9.205730E-04
       293    5.052674E-04
       294   -8.273882E-03
       295    2.449312E-07
       296    6.062514E-07
       297   -1.317747E-06
       298    3.588635E-06
       299    5.649107E-05
       300   -9.887530E-05
       301   -4.178447E-06
       302    1.474754E-02
       303    8.913081E-06
       304   -1.190278E-06
       305    1.128789E-02
       306    7.668850E-06
       307    1.841326E-05
       308   -2.842127E-03
       309    1.044699E-06
       310   -1.306204E-07
       311    1.579071E-07
       312   -2.728672E-08
       313   -4.609468E-03
       314   -4.473628E-07
       315   -5.610307E-04
       316   -9.895070E-08
       317   -4.350197E-08
       318    1.424527E-07
       319   -1.284532E-02
       320   -8.764443E-07
       321   -1.309116E-03
       322   -3.597135E-06
       323   -7.042981E-06
       324    1.064012E-05
       325    4.369393E-03
       326    3.441995E-06
       327   -1.763745E-03
       328    6.055437E-10
       329   -1.181212E-03
       330   -5.333109E-08
       331   -1.794781E-08
       332    1.645488E-03
       333   -9.777751E-09
       334    1.713538E-08
       335   -6.072540E-05
       336    8.132892E-08
       337    2.360762E-04
       338   -2.615598E-04
       339   -7.158584E-04
       340    1.114451E-03
       341   -2.576629E-03
       342    5.390400E-03
       343   -9.427391E-03
       344   -1.360318E-01
       345   -1.142875E-01
       346   -2.081791E-02
       347   -1.235071E-01
       348   -1.002631E-01
       349   -1.957407E-02
       350   -9.260562E-02
       351   -7.393809E-02
       352   -1.366375E-02
       353   -1.544878E-02
       354   -7.744308E-03
       355   -1.246918E-05
       356   -1.067953E-03
       357    1.351910E-03
       358   -2.839568E-04
       359    4.927433E-05
       360   -4.186495E-05
       361    1.593350E-04
       362   -3.293315E-03
       363    3.568983E-03
       364   -2.756673E-04
       365    7.718904E-04
       366   -1.739338E-04
       367    6.753902E-04
       368   -3.816580E-03
       369    3.429671E-03
       370    3.869097E-04
       371    5.483684E-04
       372    2.661588E-04
       373   -2.370764E-04
       374   -1.097439E-04
       375   -3.969597E-04
       376    1.845400E-05
       377    2.059016E-04
       378    4.570181E-04
       379    2.343368E-05
       380   -5.866471E-05
       381    7.555928E-05
       382   -4.819232E-05
       383    5.374418E-05
       384    2.618740E-04
       385    7.166088E-04
       386   -1.115424E-03
       387    2.572863E-03
       388   -5.349462E-03
       389    9.474930E-03
       390    1.360357E-01
       391   -1.142863E-01
       392    2.083554E-02
       393    1.235118E-01
       394   -1.002617E-01
       395    1.958974E-02
       396    9.261105E-02
       397   -7.392703E-02
       398    1.367948E-02
       399    1.545364E-02
       400   -7.739459E-03
       401    1.296588E-05
       402    1.067949E-03
       403   -1.351853E-03
       404    2.839041E-04
       405    4.928222E-05
       406    4.197432E-05
       407    1.596091E-04
       408    3.293160E-03
       409   -3.568815E-03
       410    2.756551E-04
       411    7.721997E-04
       412    1.742143E-04
       413    6.764694E-04
       414    3.816325E-03
       415   -3.428282E-03
       416   -3.880436E-04
       417    5.476692E-04
       418   -2.686481E-04
       419   -2.341998E-04
       420    1.097281E-04
       421   -3.969417E-04
       422   -1.853822E-05
       423   -2.058922E-04
       424    4.570145E-04
       425   -2.341259E-05
       426    5.867655E-05
       427    7.553863E-05
       428    4.828422E-05
       429    5.379650E-05
       430   -5.034028E-07
       431   -1.251898E-06
       432    2.642319E-06
       433   -6.033587E-06
       434   -1.087767E-05
       435    6.319845E-05
       436   -3.358664E-06
       437   -6.705030E-03
       438   -2.096938E-06
       439   -2.525295E-07
       440   -5.961692E-03
       441   -2.071079E-06
       442   -3.966849E-05
       443   -4.229852E-03
       444   -2.791562E-06
       445    7.951163E-08
       446   -9.186814E-08
       447    1.235651E-08
       448   -2.423734E-04
       449   -1.398063E-09
       450    1.946029E-04
       451    1.212636E-07
       452    4.831145E-07
       453   -6.043780E-07
       454   -9.030365E-04
       455    2.345680E-07
       456    4.362401E-04
       457    1.180757E-05
       458   -3.927914E-06
       459   -7.879651E-06
       460   -2.328935E-04
       461   -3.026888E-07
       462   -6.654111E-04
       463   -5.301703E-09
       464   -5.156771E-05
       465    4.182815E-09
       466   -1.262966E-08
       467    3.687326E-05
       468   -2.281298E-08
       469    1.974264E-08
       470    3.231209E-05
       471    1.720115E-08
       472   -1.280141E-04
       473   -2.761215E-03
       474   -3.365785E-03
       475   -4.528690E-04
       476    1.119722E-04
       477    1.993590E-04
       478    3.805383E-04
       479    5.374866E-04
       480   -5.456233E-04
       481    1.591171E-03
       482    2.759909E-03
       483    3.361347E-03
       484    4.735075E-04
       485   -1.114041E-04
       486    1.988646E-04
       487   -3.804331E-04
       488   -5.523863E-04
       489   -5.497414E-04
       490   -1.589501E-03
 Sym= X
 Ene= -0.088797
 Spin= Alpha
 Occup= -0.088797
         1    5.960151E-04
         2    1.360363E-03
         3   -2.653414E-03
         4    1.202374E-04
         5   -1.718401E-02
         6    1.190388E-02
         7    1.332090E-03
         8    1.489441E-03
         9    1.466145E-01
        10    4.769446E-03
        11    9.986505E-04
        12    1.444123E-01
        13    2.203032E-02
        14   -1.118190E-03
        15    5.260126E-02
        16    7.392679E-05
        17   -9.793800E-05
        18    2.401120E-05
        19   -5.220275E-05
        20   -4.062012E-04
        21    4.588316E-03
        22    6.622506E-04
        23   -4.727267E-04
        24   -1.895239E-04
        25    7.315440E-04
        26   -1.503824E-03
        27    7.624496E-03
        28    1.431995E-03
        29   -1.378351E-03
        30   -5.364461E-05
        31   -2.292327E-03
        32   -6.672402E-03
        33    3.220498E-03
        34    1.403996E-05
        35   -4.114711E-06
        36   -1.230439E-03
        37    1.186586E-05
        38    1.179708E-05
        39    6.718633E-04
        40   -3.070244E-05
        41   -6.276615E-06
        42    9.789443E-04
        43   -5.052403E-04
        44   -4.319195E-04
        45   -9.685094E-04
        46    1.208097E-03
        47    5.189203E-03
        48    1.611608E-02
        49   -9.870365E-03
        50   -2.390496E-03
        51   -2.411783E-05
        52    2.160896E-01
        53   -4.010106E-04
        54    1.579171E-06
        55    2.181089E-01
        56    6.426946E-03
        57    5.992716E-04
        58    7.910000E-02
        59    2.496808E-04
        60   -1.675794E-04
        61   -8.210147E-05
        62   -9.482988E-07