[Molden Format]
[Title]
ADC(2) - opt by CAM-B3LYP gaussian                                              
[Atoms] AU
 c     1    6 -.12590385386216E+01 -.22819701624009E+01 -.30156123253150E-01
 c     2    6 -.25547233845863E+01 -.83266058000000E-06 -.28792213416740E-01
 c     3    6 -.12590428849917E+01 0.22819669475044E+01 -.30169993842970E-01
 c     4    6 0.13339759331395E+01 0.22828246941961E+01 -.32722654800530E-01
 c     5    6 0.26864234278208E+01 0.32869423900000E-05 -.32794180934660E-01
 c     6    6 0.13339778039684E+01 -.22828226745513E+01 -.32706516539360E-01
 h     7    1 -.23005849451053E+01 -.40353719055945E+01 -.27139024303910E-01
 h     8    1 -.23005903875166E+01 0.40353685773143E+01 -.27164403325880E-01
 h     9    1 0.23527432406667E+01 0.40554759247724E+01 -.35914685697900E-01
 h    10    1 0.23527525948111E+01 -.40554698422164E+01 -.35883032785170E-01
 n    11    7 -.52784595104117E+01 -.53030440000000E-06 -.22539903328000E-01
 o    12    8 -.63796877956448E+01 0.20272212823250E+01 -.19883023974210E-01
 o    13    8 -.63796922742957E+01 -.20272201130570E+01 -.19923067270970E-01
 n    14    7 0.52516126460355E+01 -.32243452000000E-06 -.88209511610250E-01
 h    15    1 0.62001707317805E+01 0.16133662892433E+01 0.23199721167530E+00
 h    16    1 0.62001633429513E+01 -.16133706190784E+01 0.23200112340840E+00
[GTO]
    1 0
 s    6 1.00
 0.13575349682000E+05 0.60645503603591E-03
 0.20352333680000E+04 0.46979088884982E-02
 0.46322562359000E+03 0.24332477647552E-01
 0.13120019598000E+03 0.97399968307759E-01
 0.42853015891000E+02 0.30195584253780E+00
 0.15584185766000E+02 0.66233609137875E+00
 s    2 1.00
 0.62067138508000E+01 0.65595308539952E+00
 0.25764896527000E+01 0.37585633285142E+00
 s    1 1.00
 0.57696339419000E+00 0.10000000000000E+01
 s    1 1.00
 0.22972831358000E+00 0.10000000000000E+01
 s    1 1.00
 0.95164440028000E-01 0.10000000000000E+01
 s    1 1.00
 0.48475401370000E-01 0.10000000000000E+01
 p    4 1.00
 0.34697232244000E+02 0.11327220003114E-01
 0.79582622826000E+01 0.76169659202087E-01
 0.23780826883000E+01 0.30192252202676E+00
 0.81433208183000E+00 0.72785027349547E+00
 p    1 1.00
 0.28887547253000E+00 0.10000000000000E+01
 p    1 1.00
 0.10056823671000E+00 0.10000000000000E+01
 d    1 1.00
 0.10970000000000E+01 0.10000000000000E+01
 d    1 1.00
 0.31800000000000E+00 0.10000000000000E+01
 d    1 1.00
 0.90985336424000E-01 0.10000000000000E+01
 f    1 1.00
 0.76100000000000E+00 0.10000000000000E+01
 
    2 0
 s    6 1.00
 0.13575349682000E+05 0.60645503603591E-03
 0.20352333680000E+04 0.46979088884982E-02
 0.46322562359000E+03 0.24332477647552E-01
 0.13120019598000E+03 0.97399968307759E-01
 0.42853015891000E+02 0.30195584253780E+00
 0.15584185766000E+02 0.66233609137875E+00
 s    2 1.00
 0.62067138508000E+01 0.65595308539952E+00
 0.25764896527000E+01 0.37585633285142E+00
 s    1 1.00
 0.57696339419000E+00 0.10000000000000E+01
 s    1 1.00
 0.22972831358000E+00 0.10000000000000E+01
 s    1 1.00
 0.95164440028000E-01 0.10000000000000E+01
 s    1 1.00
 0.48475401370000E-01 0.10000000000000E+01
 p    4 1.00
 0.34697232244000E+02 0.11327220003114E-01
 0.79582622826000E+01 0.76169659202087E-01
 0.23780826883000E+01 0.30192252202676E+00
 0.81433208183000E+00 0.72785027349547E+00
 p    1 1.00
 0.28887547253000E+00 0.10000000000000E+01
 p    1 1.00
 0.10056823671000E+00 0.10000000000000E+01
 d    1 1.00
 0.10970000000000E+01 0.10000000000000E+01
 d    1 1.00
 0.31800000000000E+00 0.10000000000000E+01
 d    1 1.00
 0.90985336424000E-01 0.10000000000000E+01
 f    1 1.00
 0.76100000000000E+00 0.10000000000000E+01
 
    3 0
 s    6 1.00
 0.13575349682000E+05 0.60645503603591E-03
 0.20352333680000E+04 0.46979088884982E-02
 0.46322562359000E+03 0.24332477647552E-01
 0.13120019598000E+03 0.97399968307759E-01
 0.42853015891000E+02 0.30195584253780E+00
 0.15584185766000E+02 0.66233609137875E+00
 s    2 1.00
 0.62067138508000E+01 0.65595308539952E+00
 0.25764896527000E+01 0.37585633285142E+00
 s    1 1.00
 0.57696339419000E+00 0.10000000000000E+01
 s    1 1.00
 0.22972831358000E+00 0.10000000000000E+01
 s    1 1.00
 0.95164440028000E-01 0.10000000000000E+01
 s    1 1.00
 0.48475401370000E-01 0.10000000000000E+01
 p    4 1.00
 0.34697232244000E+02 0.11327220003114E-01
 0.79582622826000E+01 0.76169659202087E-01
 0.23780826883000E+01 0.30192252202676E+00
 0.81433208183000E+00 0.72785027349547E+00
 p    1 1.00
 0.28887547253000E+00 0.10000000000000E+01
 p    1 1.00
 0.10056823671000E+00 0.10000000000000E+01
 d    1 1.00
 0.10970000000000E+01 0.10000000000000E+01
 d    1 1.00
 0.31800000000000E+00 0.10000000000000E+01
 d    1 1.00
 0.90985336424000E-01 0.10000000000000E+01
 f    1 1.00
 0.76100000000000E+00 0.10000000000000E+01
 
    4 0
 s    6 1.00
 0.13575349682000E+05 0.60645503603591E-03
 0.20352333680000E+04 0.46979088884982E-02
 0.46322562359000E+03 0.24332477647552E-01
 0.13120019598000E+03 0.97399968307759E-01
 0.42853015891000E+02 0.30195584253780E+00
 0.15584185766000E+02 0.66233609137875E+00
 s    2 1.00
 0.62067138508000E+01 0.65595308539952E+00
 0.25764896527000E+01 0.37585633285142E+00
 s    1 1.00
 0.57696339419000E+00 0.10000000000000E+01
 s    1 1.00
 0.22972831358000E+00 0.10000000000000E+01
 s    1 1.00
 0.95164440028000E-01 0.10000000000000E+01
 s    1 1.00
 0.48475401370000E-01 0.10000000000000E+01
 p    4 1.00
 0.34697232244000E+02 0.11327220003114E-01
 0.79582622826000E+01 0.76169659202087E-01
 0.23780826883000E+01 0.30192252202676E+00
 0.81433208183000E+00 0.72785027349547E+00
 p    1 1.00
 0.28887547253000E+00 0.10000000000000E+01
 p    1 1.00
 0.10056823671000E+00 0.10000000000000E+01
 d    1 1.00
 0.10970000000000E+01 0.10000000000000E+01
 d    1 1.00
 0.31800000000000E+00 0.10000000000000E+01
 d    1 1.00
 0.90985336424000E-01 0.10000000000000E+01
 f    1 1.00
 0.76100000000000E+00 0.10000000000000E+01
 
    5 0
 s    6 1.00
 0.13575349682000E+05 0.60645503603591E-03
 0.20352333680000E+04 0.46979088884982E-02
 0.46322562359000E+03 0.24332477647552E-01
 0.13120019598000E+03 0.97399968307759E-01
 0.42853015891000E+02 0.30195584253780E+00
 0.15584185766000E+02 0.66233609137875E+00
 s    2 1.00
 0.62067138508000E+01 0.65595308539952E+00
 0.25764896527000E+01 0.37585633285142E+00
 s    1 1.00
 0.57696339419000E+00 0.10000000000000E+01
 s    1 1.00
 0.22972831358000E+00 0.10000000000000E+01
 s    1 1.00
 0.95164440028000E-01 0.10000000000000E+01
 s    1 1.00
 0.48475401370000E-01 0.10000000000000E+01
 p    4 1.00
 0.34697232244000E+02 0.11327220003114E-01
 0.79582622826000E+01 0.76169659202087E-01
 0.23780826883000E+01 0.30192252202676E+00
 0.81433208183000E+00 0.72785027349547E+00
 p    1 1.00
 0.28887547253000E+00 0.10000000000000E+01
 p    1 1.00
 0.10056823671000E+00 0.10000000000000E+01
 d    1 1.00
 0.10970000000000E+01 0.10000000000000E+01
 d    1 1.00
 0.31800000000000E+00 0.10000000000000E+01
 d    1 1.00
 0.90985336424000E-01 0.10000000000000E+01
 f    1 1.00
 0.76100000000000E+00 0.10000000000000E+01
 
    6 0
 s    6 1.00
 0.13575349682000E+05 0.60645503603591E-03
 0.20352333680000E+04 0.46979088884982E-02
 0.46322562359000E+03 0.24332477647552E-01
 0.13120019598000E+03 0.97399968307759E-01
 0.42853015891000E+02 0.30195584253780E+00
 0.15584185766000E+02 0.66233609137875E+00
 s    2 1.00
 0.62067138508000E+01 0.65595308539952E+00
 0.25764896527000E+01 0.37585633285142E+00
 s    1 1.00
 0.57696339419000E+00 0.10000000000000E+01
 s    1 1.00
 0.22972831358000E+00 0.10000000000000E+01
 s    1 1.00
 0.95164440028000E-01 0.10000000000000E+01
 s    1 1.00
 0.48475401370000E-01 0.10000000000000E+01
 p    4 1.00
 0.34697232244000E+02 0.11327220003114E-01
 0.79582622826000E+01 0.76169659202087E-01
 0.23780826883000E+01 0.30192252202676E+00
 0.81433208183000E+00 0.72785027349547E+00
 p    1 1.00
 0.28887547253000E+00 0.10000000000000E+01
 p    1 1.00
 0.10056823671000E+00 0.10000000000000E+01
 d    1 1.00
 0.10970000000000E+01 0.10000000000000E+01
 d    1 1.00
 0.31800000000000E+00 0.10000000000000E+01
 d    1 1.00
 0.90985336424000E-01 0.10000000000000E+01
 f    1 1.00
 0.76100000000000E+00 0.10000000000000E+01
 
    7 0
 s    3 1.00
 0.34061341000000E+02 0.25439307208879E-01
 0.51235746000000E+01 0.19008594890375E+00
 0.11646626000000E+01 0.85244113011042E+00
 s    1 1.00
 0.32723041000000E+00 0.10000000000000E+01
 s    1 1.00
 0.10307241000000E+00 0.10000000000000E+01
 p    1 1.00
 0.80000000000000E+00 0.10000000000000E+01
 p    1 1.00
 0.95774129632000E-01 0.10000000000000E+01
 
    8 0
 s    3 1.00
 0.34061341000000E+02 0.25439307208879E-01
 0.51235746000000E+01 0.19008594890375E+00
 0.11646626000000E+01 0.85244113011042E+00
 s    1 1.00
 0.32723041000000E+00 0.10000000000000E+01
 s    1 1.00
 0.10307241000000E+00 0.10000000000000E+01
 p    1 1.00
 0.80000000000000E+00 0.10000000000000E+01
 p    1 1.00
 0.95774129632000E-01 0.10000000000000E+01
 
    9 0
 s    3 1.00
 0.34061341000000E+02 0.25439307208879E-01
 0.51235746000000E+01 0.19008594890375E+00
 0.11646626000000E+01 0.85244113011042E+00
 s    1 1.00
 0.32723041000000E+00 0.10000000000000E+01
 s    1 1.00
 0.10307241000000E+00 0.10000000000000E+01
 p    1 1.00
 0.80000000000000E+00 0.10000000000000E+01
 p    1 1.00
 0.95774129632000E-01 0.10000000000000E+01
 
   10 0
 s    3 1.00
 0.34061341000000E+02 0.25439307208879E-01
 0.51235746000000E+01 0.19008594890375E+00
 0.11646626000000E+01 0.85244113011042E+00
 s    1 1.00
 0.32723041000000E+00 0.10000000000000E+01
 s    1 1.00
 0.10307241000000E+00 0.10000000000000E+01
 p    1 1.00
 0.80000000000000E+00 0.10000000000000E+01
 p    1 1.00
 0.95774129632000E-01 0.10000000000000E+01
 
   11 0
 s    6 1.00
 0.19730800647000E+05 0.58626402628763E-03
 0.29578958745000E+04 0.45428820586397E-02
 0.67322133595000E+03 0.23558413450084E-01
 0.19068249494000E+03 0.94709193292923E-01
 0.62295441898000E+02 0.29719784913376E+00
 0.22654161182000E+02 0.66916246895232E+00
 s    2 1.00
 0.89791477428000E+01 0.64596683630063E+00
 0.36863002370000E+01 0.38700574393705E+00
 s    1 1.00
 0.84660076805000E+00 0.10000000000000E+01
 s    1 1.00
 0.33647133771000E+00 0.10000000000000E+01
 s    1 1.00
 0.13647653675000E+00 0.10000000000000E+01
 s    1 1.00
 0.68441605847000E-01 0.10000000000000E+01
 p    4 1.00
 0.49200380510000E+02 0.11448825101764E-01
 0.11346790537000E+02 0.78422337970864E-01
 0.34273972411000E+01 0.30818094738830E+00
 0.11785525134000E+01 0.72027196368413E+00
 p    1 1.00
 0.41642204972000E+00 0.10000000000000E+01
 p    1 1.00
 0.14260826011000E+00 0.10000000000000E+01
 d    1 1.00
 0.16540000000000E+01 0.10000000000000E+01
 d    1 1.00
 0.46900000000000E+00 0.10000000000000E+01
 d    1 1.00
 0.12829642058000E+00 0.10000000000000E+01
 f    1 1.00
 0.10930000000000E+01 0.10000000000000E+01
 
   12 0
 s    6 1.00
 0.27032382631000E+05 0.57227335211155E-03
 0.40523871392000E+04 0.44353233492995E-02
 0.92232722710000E+03 0.23020107706038E-01
 0.26124070989000E+03 0.92822490667928E-01
 0.85354641351000E+02 0.29378500009671E+00
 0.31035035245000E+02 0.67401604501641E+00
 s    2 1.00
 0.12260860728000E+02 0.63839937025506E+00
 0.49987076005000E+01 0.39534587125718E+00
 s    1 1.00
 0.11703108158000E+01 0.10000000000000E+01
 s    1 1.00
 0.46474740994000E+00 0.10000000000000E+01
 s    1 1.00
 0.18504536357000E+00 0.10000000000000E+01
 s    1 1.00
 0.70288026270000E-01 0.10000000000000E+01
 p    4 1.00
 0.63274954801000E+02 0.12018332222616E-01
 0.14627049379000E+02 0.83005421790056E-01
 0.44501223456000E+01 0.31991743925964E+00
 0.15275799647000E+01 0.70715542916104E+00
 p    1 1.00
 0.52935117943000E+00 0.10000000000000E+01
 p    1 1.00
 0.17478421270000E+00 0.10000000000000E+01
 p    1 1.00
 0.51112745706000E-01 0.10000000000000E+01
 d    1 1.00
 0.23140000000000E+01 0.10000000000000E+01
 d    1 1.00
 0.64500000000000E+00 0.10000000000000E+01
 d    1 1.00
 0.14696477366000E+00 0.10000000000000E+01
 f    1 1.00
 0.14280000000000E+01 0.10000000000000E+01
 
   13 0
 s    6 1.00
 0.27032382631000E+05 0.57227335211155E-03
 0.40523871392000E+04 0.44353233492995E-02
 0.92232722710000E+03 0.23020107706038E-01
 0.26124070989000E+03 0.92822490667928E-01
 0.85354641351000E+02 0.29378500009671E+00
 0.31035035245000E+02 0.67401604501641E+00
 s    2 1.00
 0.12260860728000E+02 0.63839937025506E+00
 0.49987076005000E+01 0.39534587125718E+00
 s    1 1.00
 0.11703108158000E+01 0.10000000000000E+01
 s    1 1.00
 0.46474740994000E+00 0.10000000000000E+01
 s    1 1.00
 0.18504536357000E+00 0.10000000000000E+01
 s    1 1.00
 0.70288026270000E-01 0.10000000000000E+01
 p    4 1.00
 0.63274954801000E+02 0.12018332222616E-01
 0.14627049379000E+02 0.83005421790056E-01
 0.44501223456000E+01 0.31991743925964E+00
 0.15275799647000E+01 0.70715542916104E+00
 p    1 1.00
 0.52935117943000E+00 0.10000000000000E+01
 p    1 1.00
 0.17478421270000E+00 0.10000000000000E+01
 p    1 1.00
 0.51112745706000E-01 0.10000000000000E+01
 d    1 1.00
 0.23140000000000E+01 0.10000000000000E+01
 d    1 1.00
 0.64500000000000E+00 0.10000000000000E+01
 d    1 1.00
 0.14696477366000E+00 0.10000000000000E+01
 f    1 1.00
 0.14280000000000E+01 0.10000000000000E+01
 
   14 0
 s    6 1.00
 0.19730800647000E+05 0.58626402628763E-03
 0.29578958745000E+04 0.45428820586397E-02
 0.67322133595000E+03 0.23558413450084E-01
 0.19068249494000E+03 0.94709193292923E-01
 0.62295441898000E+02 0.29719784913376E+00
 0.22654161182000E+02 0.66916246895232E+00
 s    2 1.00
 0.89791477428000E+01 0.64596683630063E+00
 0.36863002370000E+01 0.38700574393705E+00
 s    1 1.00
 0.84660076805000E+00 0.10000000000000E+01
 s    1 1.00
 0.33647133771000E+00 0.10000000000000E+01
 s    1 1.00
 0.13647653675000E+00 0.10000000000000E+01
 s    1 1.00
 0.68441605847000E-01 0.10000000000000E+01
 p    4 1.00
 0.49200380510000E+02 0.11448825101764E-01
 0.11346790537000E+02 0.78422337970864E-01
 0.34273972411000E+01 0.30818094738830E+00
 0.11785525134000E+01 0.72027196368413E+00
 p    1 1.00
 0.41642204972000E+00 0.10000000000000E+01
 p    1 1.00
 0.14260826011000E+00 0.10000000000000E+01
 d    1 1.00
 0.16540000000000E+01 0.10000000000000E+01
 d    1 1.00
 0.46900000000000E+00 0.10000000000000E+01
 d    1 1.00
 0.12829642058000E+00 0.10000000000000E+01
 f    1 1.00
 0.10930000000000E+01 0.10000000000000E+01
 
   15 0
 s    3 1.00
 0.34061341000000E+02 0.25439307208879E-01
 0.51235746000000E+01 0.19008594890375E+00
 0.11646626000000E+01 0.85244113011042E+00
 s    1 1.00
 0.32723041000000E+00 0.10000000000000E+01
 s    1 1.00
 0.10307241000000E+00 0.10000000000000E+01
 p    1 1.00
 0.80000000000000E+00 0.10000000000000E+01
 p    1 1.00
 0.95774129632000E-01 0.10000000000000E+01
 
   16 0
 s    3 1.00
 0.34061341000000E+02 0.25439307208879E-01
 0.51235746000000E+01 0.19008594890375E+00
 0.11646626000000E+01 0.85244113011042E+00
 s    1 1.00
 0.32723041000000E+00 0.10000000000000E+01
 s    1 1.00
 0.10307241000000E+00 0.10000000000000E+01
 p    1 1.00
 0.80000000000000E+00 0.10000000000000E+01
 p    1 1.00
 0.95774129632000E-01 0.10000000000000E+01
 
[MO]
 Sym= X
 Ene= -0.061205
 Spin= Alpha
 Occup= -0.061205
         1    3.358465E-04
         2    7.750380E-04
         3   -1.968469E-03
         4    3.447521E-03
         5   -3.839695E-03
         6    1.668201E-02
         7   -3.435989E-03
         8   -3.738221E-04
         9    1.946243E-02
        10    2.827895E-03
        11   -7.602890E-04
        12    2.056532E-02
        13    4.517478E-02
        14   -1.331021E-02
        15    9.561784E-03
        16   -4.324679E-05
        17    5.121533E-05
        18   -7.968540E-06
        19    3.408220E-05
        20    5.552794E-03
        21   -2.107225E-03
        22    8.855307E-04
        23   -5.373465E-04
        24   -3.481842E-04
        25    1.097589E-03
        26    1.241455E-02
        27   -4.293122E-03
        28    5.725801E-03
        29   -5.362628E-03
        30   -3.631732E-04
        31   -2.104257E-03
        32   -4.436660E-03
        33    1.128646E-02
        34    2.454606E-05
        35   -1.139390E-05
        36   -2.678195E-04
        37   -8.883327E-06
        38    1.082448E-05
        39    8.404082E-04
        40   -2.404867E-05
        41    4.462050E-06
        42   -4.810906E-04
        43    4.711410E-04
        44   -7.129159E-05
        45   -1.568794E-04
        46   -1.597342E-04
        47    4.942079E-03
        48    6.278995E-02
        49   -9.880478E-03
        50   -1.043359E-04
        51   -6.007082E-06
        52   -1.180568E-01
        53    1.154451E-03
        54   -1.167299E-05
        55   -1.241990E-01
        56    2.075509E-02
        57    6.605843E-04
        58   -1.609404E-01
        59   -8.972063E-05
        60    8.846758E-05
        61    1.253047E-06
        62   -2.066214E-07
        63    1.481921E-03
        64    2.983062E-06
        65   -6.390199E-04
        66    1.014354E-03
        67   -3.753337E-04
        68   -1.880226E-06
        69    4.259360E-03
        70    7.604342E-06
        71   -1.551943E-02
        72    1.707923E-02
        73   -1.559801E-03
        74    9.328980E-05
        75   -1.781228E-03
        76    1.494871E-05
        77   -8.194069E-06
        78    6.371479E-09
        79    5.140090E-04
        80    1.200641E-05
        81   -5.013121E-08
        82   -3.484407E-04
        83   -1.012914E-06
        84    4.158298E-08
        85   -3.411747E-04
        86    5.058645E-07
        87    3.346624E-04
        88    7.723359E-04
        89   -1.963699E-03
        90    3.458900E-03
        91   -6.156921E-03
        92    1.670112E-02
        93   -3.432772E-03
        94    3.840436E-04
        95    1.963053E-02
        96    2.800041E-03
        97    7.697358E-04
        98    2.073365E-02
        99    4.508935E-02
       100    1.398642E-02
       101    9.625006E-03
       102   -4.306431E-05
       103    5.109705E-05
       104   -8.032734E-06
       105   -3.483103E-05
       106    5.557600E-03
       107    2.106773E-03
       108    8.781904E-04
       109   -5.305823E-04
       110   -3.476081E-04
       111   -1.097859E-03
       112    1.242351E-02
       113    4.293897E-03
       114    5.775529E-03
       115   -5.430295E-03
       116   -3.452340E-04
       117    2.018846E-03
       118   -4.422312E-03
       119   -1.127476E-02
       120    2.455825E-05
       121    1.139593E-05
       122   -2.688695E-04
       123   -8.983069E-06
       124   -1.072739E-05
       125    8.417023E-04
       126   -2.396528E-05
       127   -4.561854E-06
       128   -4.809760E-04
       129   -4.711508E-04
       130   -2.157525E-04
       131   -4.713209E-04
       132   -6.930863E-04
       133    1.543822E-02
       134   -2.215709E-02
       135   -1.932120E-02
       136    3.079898E-03
       137   -1.336837E-03
       138    1.568937E-01
       139    1.427645E-02
       140   -9.347464E-03
       141    1.593668E-01
       142    2.573150E-02
       143    1.185549E-02
       144    9.174576E-02
       145   -2.698912E-04
       146    3.188424E-04
       147   -4.895116E-05
       148    6.599630E-07
       149   -4.051862E-04
       150   -2.656566E-03
       151   -9.349046E-04
       152    1.145108E-03
       153   -2.102037E-04
       154   -2.494893E-03
       155    1.861420E-03
       156   -4.207967E-03
       157   -1.159324E-02
       158    9.150330E-03
       159    2.442907E-03
       160    1.380936E-02
       161   -4.638388E-03
       162    1.531187E-02
       163    2.356111E-05
       164   -1.856993E-05
       165   -9.238209E-04
       166    3.070217E-05
       167   -2.034710E-05
       168    3.736956E-04
       169   -6.231271E-05
       170    4.526128E-05
       171    8.657403E-04
       172   -2.092694E-04
       173    1.725414E-03
       174    3.922411E-03
       175   -4.161887E-03
       176   -3.073548E-02
       177    4.674492E-02
       178   -9.452712E-03
       179   -1.521593E-02
       180    1.924340E-06
       181    8.334353E-02
       182   -1.637876E-03
       183    1.803676E-05
       184    8.703688E-02
       185    4.955907E-02
       186   -6.318437E-04
       187    1.335923E-01
       188   -7.984769E-04
       189    4.762902E-04
       190    3.221868E-04
       191   -2.566999E-07
       192   -1.137195E-02
       193    3.549672E-06
       194    2.705008E-03
       195   -5.922215E-03
       196    3.217208E-03
       197   -4.890466E-06
       198   -2.724290E-02
       199    7.136780E-06
       200    9.847066E-03
       201   -1.120124E-02
       202    1.354178E-03
       203    1.471851E-04
       204   -1.806346E-02
       205   -1.158622E-05
       206   -1.809232E-04
       207   -2.462567E-08
       208   -5.922184E-05
       209    1.239060E-04
       210    1.246934E-07
       211   -1.395519E-03
       212    1.188279E-04
       213   -9.165460E-08
       214    1.474974E-03
       215   -5.470745E-07
       216   -2.175635E-04
       217   -4.752290E-04
       218   -6.895196E-04
       219    1.547273E-02
       220   -2.441320E-02
       221   -1.926575E-02
       222    3.088903E-03
       223    1.321178E-03
       224    1.567069E-01
       225    1.430828E-02
       226    9.352436E-03
       227    1.591779E-01
       228    2.594101E-02
       229   -1.260948E-02
       230    9.158573E-02
       231   -2.701439E-04
       232    3.196152E-04
       233   -4.947127E-05
       234   -1.513542E-06
       235   -4.009326E-04
       236    2.656180E-03
       237   -9.413392E-04
       238    1.152583E-03
       239   -2.112440E-04
       240    2.498451E-03
       241    1.867149E-03
       242    4.206380E-03
       243   -1.154804E-02
       244    9.106749E-03
       245    2.441291E-03
       246   -1.385711E-02
       247   -4.650198E-03
       248   -1.533044E-02
       249    2.360162E-05
       250    1.864393E-05
       251   -9.226371E-04
       252    3.091577E-05
       253    2.022150E-05
       254    3.724171E-04
       255   -6.258066E-05
       256   -4.523496E-05
       257    8.654305E-04
       258    2.091354E-04
       259    8.085987E-04
       260    7.450722E-04
       261    2.576731E-02
       262    2.064400E-05
       263    4.156268E-05
       264    6.017191E-04
       265    7.449971E-03
       266    9.788395E-04
       267    6.489496E-03
       268    8.148898E-04
       269    7.420082E-04
       270    2.567257E-02
       271    2.025661E-05
       272   -4.069319E-05
       273    6.083841E-04
       274    7.522724E-03
       275   -9.479931E-04
       276    6.494916E-03
       277    8.768938E-04
       278    3.880892E-03
       279   -5.148638E-02
       280    2.668029E-05
       281   -1.892123E-04
       282    6.170028E-03
       283    3.513864E-03
       284    3.966482E-03
       285   -4.324904E-03
       286    8.899207E-04
       287    3.889143E-03
       288   -5.173991E-02
       289    2.559879E-05
       290    1.895529E-04
       291    6.162217E-03
       292    3.514841E-03
       293   -4.002560E-03
       294   -4.340280E-03
       295    1.029764E-04
       296    2.415518E-04
       297   -2.750591E-04
       298   -7.985453E-04
       299    1.144014E-02
       300    1.130593E-03
       301   -9.389721E-04
       302   -1.691108E-06
       303   -2.496861E-02
       304   -4.448757E-04
       305   -5.800779E-07
       306   -2.679014E-02
       307    4.823938E-03
       308   -3.216109E-05
       309   -4.785742E-03
       310   -2.007849E-05
       311    1.403590E-05
       312    6.042591E-06
       313    1.137387E-08
       314   -2.633822E-03
       315   -2.717494E-06
       316    2.608742E-05
       317   -7.785682E-05
       318    5.176940E-05
       319    1.435273E-07
       320   -8.163215E-03
       321   -7.711570E-06
       322    1.026247E-03
       323   -3.923466E-03
       324    2.897219E-03
       325   -2.273878E-05
       326   -1.012854E-03
       327   -3.402695E-06
       328   -8.291129E-06
       329   -1.932829E-10
       330    5.281102E-05
       331    5.894803E-06
       332   -1.745623E-08
       333   -4.507377E-04
       334    5.228914E-06
       335    1.771555E-08
       336    3.798843E-04
       337    5.468455E-07
       338    1.970852E-05
       339    4.276541E-05
       340    1.418177E-06
       341   -7.716274E-04
       342    8.701136E-03
       343    1.470924E-03
       344    2.290790E-04
       345   -2.170191E-04
       346    4.409867E-02
       347    3.821194E-04
       348   -3.946197E-04
       349    4.110673E-02
       350    1.787228E-03
       351   -9.182897E-04
       352    3.577949E-02
       353    3.266226E-04
       354   -2.579082E-04
       355    4.907998E-03
       356   -6.245278E-06
       357    7.981382E-06
       358   -1.736104E-06
       359    9.041822E-07
       360   -9.733903E-05
       361   -1.394186E-04
       362    1.257699E-05
       363    2.046088E-05
       364   -3.303787E-05
       365   -9.422672E-06
       366    6.506018E-05
       367   -5.347265E-04
       368    8.188708E-05
       369   -2.031792E-05
       370   -6.156916E-05
       371   -4.255307E-05
       372   -2.821317E-04
       373   -8.394647E-05
       374   -8.469219E-07
       375   -3.077138E-06
       376   -1.092895E-05
       377    1.754680E-06
       378    1.714406E-06
       379   -5.297306E-05
       380   -6.184155E-07
       381    2.414008E-06
       382    6.763578E-05
       383   -4.555358E-05
       384    1.945360E-05
       385    4.217967E-05
       386    1.856417E-06
       387   -7.684906E-04
       388    8.699858E-03
       389    1.449534E-03
       390    2.270132E-04
       391    2.192952E-04
       392    4.425229E-02
       393    3.799338E-04
       394    3.971424E-04
       395    4.124842E-02
       396    1.765040E-03
       397    9.146951E-04
       398    3.588025E-02
       399    3.169495E-04
       400    2.598422E-04
       401    4.921686E-03
       402   -6.234947E-06
       403    8.003775E-06
       404   -1.768828E-06
       405   -8.142398E-07
       406   -9.657924E-05
       407    1.406764E-04
       408    1.233432E-05
       409    2.070039E-05
       410   -3.303471E-05
       411    9.355317E-06
       412    6.751497E-05
       413    5.390967E-04
       414    8.340653E-05
       415   -2.311212E-05
       416   -6.029441E-05
       417    4.148171E-05
       418   -2.801614E-04
       419    8.623381E-05
       420   -8.544351E-07
       421    3.079213E-06
       422   -1.114532E-05
       423    1.773254E-06
       424   -1.711364E-06
       425   -5.302940E-05
       426   -6.269094E-07
       427   -2.419834E-06
       428    6.798242E-05
       429    4.596968E-05
       430   -7.330281E-03
       431   -1.737453E-02
       432    2.690534E-02
       433    4.271265E-02
       434    2.261548E-02
       435    8.662025E-02
       436    2.718768E-02
       437   -7.769526E-06
       438   -3.161562E-01
       439    3.077142E-02
       440    1.815281E-06
       441   -3.107523E-01
       442    3.328739E-02
       443    1.182214E-04
       444   -2.450389E-01
       445    1.586558E-04
       446    9.163849E-05
       447   -2.502943E-04
       448   -2.045035E-07
       449   -2.439253E-04
       450   -5.176734E-08
       451    2.569626E-04
       452    2.528852E-03
       453   -2.785814E-03
       454    4.419742E-06
       455   -2.356357E-03
       456   -2.821869E-07
       457    1.706335E-03
       458    5.921110E-03
       459   -7.627444E-03
       460    7.297834E-06
       461   -2.153093E-03
       462   -1.814858E-06
       463    1.909248E-04
       464   -4.232740E-08
       465    1.325364E-03
       466    1.422579E-04
       467   -1.899419E-08
       468   -8.215935E-04
       469   -3.984105E-04
       470    7.578236E-08
       471   -9.565687E-04
       472   -1.182536E-08
       473   -1.263614E-02
       474   -2.526479E-02
       475   -4.461515E-02
       476    3.384000E-03
       477    2.732240E-03
       478   -1.557591E-02
       479   -1.591850E-06
       480    4.890558E-03
       481   -1.552436E-02
       482   -1.263223E-02
       483   -2.518183E-02
       484   -4.431626E-02
       485    3.379002E-03
       486   -2.724663E-03
       487   -1.558037E-02
       488   -4.432278E-05
       489   -4.841802E-03
       490   -1.554055E-02
 Sym= X
 Ene= -0.792174
 Spin= Alpha
 Occup= -0.792174
         1   -1.743195E-05
         2   -3.985961E-05
         3    9.543926E-05
         4   -9.968743E-05
         5   -2.842656E-03
         6   -4.202424E-04
         7   -7.170252E-05
         8   -1.494414E-04
         9   -8.514786E-02
        10   -2.841942E-04
        11   -7.154579E-05
        12   -8.533059E-02
        13    7.779635E-04
        14   -1.867746E-03
        15   -5.922367E-02
        16   -4.018261E-06
        17    2.208612E-06
        18    1.809649E-06
        19    3.028712E-06
        20   -2.007680E-03
        21   -2.910948E-04
        22   -4.786011E-05
        23    3.324384E-05
        24    1.461627E-05
        25    1.152806E-05
        26   -2.745163E-03
        27   -1.379800E-04
        28   -2.861741E-05
        29    2.370065E-05
        30    4.916757E-06
        31    8.293871E-05
        32    1.494457E-03
        33   -2.838338E-03
        34   -2.597369E-06
        35   -3.091368E-07
        36    5.929105E-04
        37    5.443851E-07
        38   -2.465785E-07
        39   -6.978402E-04
        40    2.940351E-06
        41    6.613290E-07
        42   -9.763265E-05
        43    5.312377E-05
        44    9.981200E-08
        45    2.914122E-07
        46   -4.924374E-06
        47    1.581367E-05
        48    1.189453E-03
        49    1.123693E-04
        50    2.006861E-07
        51    9.738398E-05
        52    4.572895E-06
        53    8.732803E-06
        54    1.412792E-04
        55    7.560710E-06
        56    4.922087E-04
        57   -2.530391E-03
        58    2.057753E-05
        59   -1.032236E-07
        60    1.184839E-07
        61   -1.526030E-08
        62    7.966465E-06