[Molden Format]
[Title]
ADC(2) - opt by CAM-B3LYP gaussian                                              
[Atoms] AU
 c     1    6 -.12590385386216E+01 -.22819701624009E+01 -.30156123253150E-01
 c     2    6 -.25547233845863E+01 -.83266058000000E-06 -.28792213416740E-01
 c     3    6 -.12590428849917E+01 0.22819669475044E+01 -.30169993842970E-01
 c     4    6 0.13339759331395E+01 0.22828246941961E+01 -.32722654800530E-01
 c     5    6 0.26864234278208E+01 0.32869423900000E-05 -.32794180934660E-01
 c     6    6 0.13339778039684E+01 -.22828226745513E+01 -.32706516539360E-01
 h     7    1 -.23005849451053E+01 -.40353719055945E+01 -.27139024303910E-01
 h     8    1 -.23005903875166E+01 0.40353685773143E+01 -.27164403325880E-01
 h     9    1 0.23527432406667E+01 0.40554759247724E+01 -.35914685697900E-01
 h    10    1 0.23527525948111E+01 -.40554698422164E+01 -.35883032785170E-01
 n    11    7 -.52784595104117E+01 -.53030440000000E-06 -.22539903328000E-01
 o    12    8 -.63796877956448E+01 0.20272212823250E+01 -.19883023974210E-01
 o    13    8 -.63796922742957E+01 -.20272201130570E+01 -.19923067270970E-01
 n    14    7 0.52516126460355E+01 -.32243452000000E-06 -.88209511610250E-01
 h    15    1 0.62001707317805E+01 0.16133662892433E+01 0.23199721167530E+00
 h    16    1 0.62001633429513E+01 -.16133706190784E+01 0.23200112340840E+00
[GTO]
    1 0
 s    6 1.00
 0.13575349682000E+05 0.60645503603591E-03
 0.20352333680000E+04 0.46979088884982E-02
 0.46322562359000E+03 0.24332477647552E-01
 0.13120019598000E+03 0.97399968307759E-01
 0.42853015891000E+02 0.30195584253780E+00
 0.15584185766000E+02 0.66233609137875E+00
 s    2 1.00
 0.62067138508000E+01 0.65595308539952E+00
 0.25764896527000E+01 0.37585633285142E+00
 s    1 1.00
 0.57696339419000E+00 0.10000000000000E+01
 s    1 1.00
 0.22972831358000E+00 0.10000000000000E+01
 s    1 1.00
 0.95164440028000E-01 0.10000000000000E+01
 s    1 1.00
 0.48475401370000E-01 0.10000000000000E+01
 p    4 1.00
 0.34697232244000E+02 0.11327220003114E-01
 0.79582622826000E+01 0.76169659202087E-01
 0.23780826883000E+01 0.30192252202676E+00
 0.81433208183000E+00 0.72785027349547E+00
 p    1 1.00
 0.28887547253000E+00 0.10000000000000E+01
 p    1 1.00
 0.10056823671000E+00 0.10000000000000E+01
 d    1 1.00
 0.10970000000000E+01 0.10000000000000E+01
 d    1 1.00
 0.31800000000000E+00 0.10000000000000E+01
 d    1 1.00
 0.90985336424000E-01 0.10000000000000E+01
 f    1 1.00
 0.76100000000000E+00 0.10000000000000E+01
 
    2 0
 s    6 1.00
 0.13575349682000E+05 0.60645503603591E-03
 0.20352333680000E+04 0.46979088884982E-02
 0.46322562359000E+03 0.24332477647552E-01
 0.13120019598000E+03 0.97399968307759E-01
 0.42853015891000E+02 0.30195584253780E+00
 0.15584185766000E+02 0.66233609137875E+00
 s    2 1.00
 0.62067138508000E+01 0.65595308539952E+00
 0.25764896527000E+01 0.37585633285142E+00
 s    1 1.00
 0.57696339419000E+00 0.10000000000000E+01
 s    1 1.00
 0.22972831358000E+00 0.10000000000000E+01
 s    1 1.00
 0.95164440028000E-01 0.10000000000000E+01
 s    1 1.00
 0.48475401370000E-01 0.10000000000000E+01
 p    4 1.00
 0.34697232244000E+02 0.11327220003114E-01
 0.79582622826000E+01 0.76169659202087E-01
 0.23780826883000E+01 0.30192252202676E+00
 0.81433208183000E+00 0.72785027349547E+00
 p    1 1.00
 0.28887547253000E+00 0.10000000000000E+01
 p    1 1.00
 0.10056823671000E+00 0.10000000000000E+01
 d    1 1.00
 0.10970000000000E+01 0.10000000000000E+01
 d    1 1.00
 0.31800000000000E+00 0.10000000000000E+01
 d    1 1.00
 0.90985336424000E-01 0.10000000000000E+01
 f    1 1.00
 0.76100000000000E+00 0.10000000000000E+01
 
    3 0
 s    6 1.00
 0.13575349682000E+05 0.60645503603591E-03
 0.20352333680000E+04 0.46979088884982E-02
 0.46322562359000E+03 0.24332477647552E-01
 0.13120019598000E+03 0.97399968307759E-01
 0.42853015891000E+02 0.30195584253780E+00
 0.15584185766000E+02 0.66233609137875E+00
 s    2 1.00
 0.62067138508000E+01 0.65595308539952E+00
 0.25764896527000E+01 0.37585633285142E+00
 s    1 1.00
 0.57696339419000E+00 0.10000000000000E+01
 s    1 1.00
 0.22972831358000E+00 0.10000000000000E+01
 s    1 1.00
 0.95164440028000E-01 0.10000000000000E+01
 s    1 1.00
 0.48475401370000E-01 0.10000000000000E+01
 p    4 1.00
 0.34697232244000E+02 0.11327220003114E-01
 0.79582622826000E+01 0.76169659202087E-01
 0.23780826883000E+01 0.30192252202676E+00
 0.81433208183000E+00 0.72785027349547E+00
 p    1 1.00
 0.28887547253000E+00 0.10000000000000E+01
 p    1 1.00
 0.10056823671000E+00 0.10000000000000E+01
 d    1 1.00
 0.10970000000000E+01 0.10000000000000E+01
 d    1 1.00
 0.31800000000000E+00 0.10000000000000E+01
 d    1 1.00
 0.90985336424000E-01 0.10000000000000E+01
 f    1 1.00
 0.76100000000000E+00 0.10000000000000E+01
 
    4 0
 s    6 1.00
 0.13575349682000E+05 0.60645503603591E-03
 0.20352333680000E+04 0.46979088884982E-02
 0.46322562359000E+03 0.24332477647552E-01
 0.13120019598000E+03 0.97399968307759E-01
 0.42853015891000E+02 0.30195584253780E+00
 0.15584185766000E+02 0.66233609137875E+00
 s    2 1.00
 0.62067138508000E+01 0.65595308539952E+00
 0.25764896527000E+01 0.37585633285142E+00
 s    1 1.00
 0.57696339419000E+00 0.10000000000000E+01
 s    1 1.00
 0.22972831358000E+00 0.10000000000000E+01
 s    1 1.00
 0.95164440028000E-01 0.10000000000000E+01
 s    1 1.00
 0.48475401370000E-01 0.10000000000000E+01
 p    4 1.00
 0.34697232244000E+02 0.11327220003114E-01
 0.79582622826000E+01 0.76169659202087E-01
 0.23780826883000E+01 0.30192252202676E+00
 0.81433208183000E+00 0.72785027349547E+00
 p    1 1.00
 0.28887547253000E+00 0.10000000000000E+01
 p    1 1.00
 0.10056823671000E+00 0.10000000000000E+01
 d    1 1.00
 0.10970000000000E+01 0.10000000000000E+01
 d    1 1.00
 0.31800000000000E+00 0.10000000000000E+01
 d    1 1.00
 0.90985336424000E-01 0.10000000000000E+01
 f    1 1.00
 0.76100000000000E+00 0.10000000000000E+01
 
    5 0
 s    6 1.00
 0.13575349682000E+05 0.60645503603591E-03
 0.20352333680000E+04 0.46979088884982E-02
 0.46322562359000E+03 0.24332477647552E-01
 0.13120019598000E+03 0.97399968307759E-01
 0.42853015891000E+02 0.30195584253780E+00
 0.15584185766000E+02 0.66233609137875E+00
 s    2 1.00
 0.62067138508000E+01 0.65595308539952E+00
 0.25764896527000E+01 0.37585633285142E+00
 s    1 1.00
 0.57696339419000E+00 0.10000000000000E+01
 s    1 1.00
 0.22972831358000E+00 0.10000000000000E+01
 s    1 1.00
 0.95164440028000E-01 0.10000000000000E+01
 s    1 1.00
 0.48475401370000E-01 0.10000000000000E+01
 p    4 1.00
 0.34697232244000E+02 0.11327220003114E-01
 0.79582622826000E+01 0.76169659202087E-01
 0.23780826883000E+01 0.30192252202676E+00
 0.81433208183000E+00 0.72785027349547E+00
 p    1 1.00
 0.28887547253000E+00 0.10000000000000E+01
 p    1 1.00
 0.10056823671000E+00 0.10000000000000E+01
 d    1 1.00
 0.10970000000000E+01 0.10000000000000E+01
 d    1 1.00
 0.31800000000000E+00 0.10000000000000E+01
 d    1 1.00
 0.90985336424000E-01 0.10000000000000E+01
 f    1 1.00
 0.76100000000000E+00 0.10000000000000E+01
 
    6 0
 s    6 1.00
 0.13575349682000E+05 0.60645503603591E-03
 0.20352333680000E+04 0.46979088884982E-02
 0.46322562359000E+03 0.24332477647552E-01
 0.13120019598000E+03 0.97399968307759E-01
 0.42853015891000E+02 0.30195584253780E+00
 0.15584185766000E+02 0.66233609137875E+00
 s    2 1.00
 0.62067138508000E+01 0.65595308539952E+00
 0.25764896527000E+01 0.37585633285142E+00
 s    1 1.00
 0.57696339419000E+00 0.10000000000000E+01
 s    1 1.00
 0.22972831358000E+00 0.10000000000000E+01
 s    1 1.00
 0.95164440028000E-01 0.10000000000000E+01
 s    1 1.00
 0.48475401370000E-01 0.10000000000000E+01
 p    4 1.00
 0.34697232244000E+02 0.11327220003114E-01
 0.79582622826000E+01 0.76169659202087E-01
 0.23780826883000E+01 0.30192252202676E+00
 0.81433208183000E+00 0.72785027349547E+00
 p    1 1.00
 0.28887547253000E+00 0.10000000000000E+01
 p    1 1.00
 0.10056823671000E+00 0.10000000000000E+01
 d    1 1.00
 0.10970000000000E+01 0.10000000000000E+01
 d    1 1.00
 0.31800000000000E+00 0.10000000000000E+01
 d    1 1.00
 0.90985336424000E-01 0.10000000000000E+01
 f    1 1.00
 0.76100000000000E+00 0.10000000000000E+01
 
    7 0
 s    3 1.00
 0.34061341000000E+02 0.25439307208879E-01
 0.51235746000000E+01 0.19008594890375E+00
 0.11646626000000E+01 0.85244113011042E+00
 s    1 1.00
 0.32723041000000E+00 0.10000000000000E+01
 s    1 1.00
 0.10307241000000E+00 0.10000000000000E+01
 p    1 1.00
 0.80000000000000E+00 0.10000000000000E+01
 p    1 1.00
 0.95774129632000E-01 0.10000000000000E+01
 
    8 0
 s    3 1.00
 0.34061341000000E+02 0.25439307208879E-01
 0.51235746000000E+01 0.19008594890375E+00
 0.11646626000000E+01 0.85244113011042E+00
 s    1 1.00
 0.32723041000000E+00 0.10000000000000E+01
 s    1 1.00
 0.10307241000000E+00 0.10000000000000E+01
 p    1 1.00
 0.80000000000000E+00 0.10000000000000E+01
 p    1 1.00
 0.95774129632000E-01 0.10000000000000E+01
 
    9 0
 s    3 1.00
 0.34061341000000E+02 0.25439307208879E-01
 0.51235746000000E+01 0.19008594890375E+00
 0.11646626000000E+01 0.85244113011042E+00
 s    1 1.00
 0.32723041000000E+00 0.10000000000000E+01
 s    1 1.00
 0.10307241000000E+00 0.10000000000000E+01
 p    1 1.00
 0.80000000000000E+00 0.10000000000000E+01
 p    1 1.00
 0.95774129632000E-01 0.10000000000000E+01
 
   10 0
 s    3 1.00
 0.34061341000000E+02 0.25439307208879E-01
 0.51235746000000E+01 0.19008594890375E+00
 0.11646626000000E+01 0.85244113011042E+00
 s    1 1.00
 0.32723041000000E+00 0.10000000000000E+01
 s    1 1.00
 0.10307241000000E+00 0.10000000000000E+01
 p    1 1.00
 0.80000000000000E+00 0.10000000000000E+01
 p    1 1.00
 0.95774129632000E-01 0.10000000000000E+01
 
   11 0
 s    6 1.00
 0.19730800647000E+05 0.58626402628763E-03
 0.29578958745000E+04 0.45428820586397E-02
 0.67322133595000E+03 0.23558413450084E-01
 0.19068249494000E+03 0.94709193292923E-01
 0.62295441898000E+02 0.29719784913376E+00
 0.22654161182000E+02 0.66916246895232E+00
 s    2 1.00
 0.89791477428000E+01 0.64596683630063E+00
 0.36863002370000E+01 0.38700574393705E+00
 s    1 1.00
 0.84660076805000E+00 0.10000000000000E+01
 s    1 1.00
 0.33647133771000E+00 0.10000000000000E+01
 s    1 1.00
 0.13647653675000E+00 0.10000000000000E+01
 s    1 1.00
 0.68441605847000E-01 0.10000000000000E+01
 p    4 1.00
 0.49200380510000E+02 0.11448825101764E-01
 0.11346790537000E+02 0.78422337970864E-01
 0.34273972411000E+01 0.30818094738830E+00
 0.11785525134000E+01 0.72027196368413E+00
 p    1 1.00
 0.41642204972000E+00 0.10000000000000E+01
 p    1 1.00
 0.14260826011000E+00 0.10000000000000E+01
 d    1 1.00
 0.16540000000000E+01 0.10000000000000E+01
 d    1 1.00
 0.46900000000000E+00 0.10000000000000E+01
 d    1 1.00
 0.12829642058000E+00 0.10000000000000E+01
 f    1 1.00
 0.10930000000000E+01 0.10000000000000E+01
 
   12 0
 s    6 1.00
 0.27032382631000E+05 0.57227335211155E-03
 0.40523871392000E+04 0.44353233492995E-02
 0.92232722710000E+03 0.23020107706038E-01
 0.26124070989000E+03 0.92822490667928E-01
 0.85354641351000E+02 0.29378500009671E+00
 0.31035035245000E+02 0.67401604501641E+00
 s    2 1.00
 0.12260860728000E+02 0.63839937025506E+00
 0.49987076005000E+01 0.39534587125718E+00
 s    1 1.00
 0.11703108158000E+01 0.10000000000000E+01
 s    1 1.00
 0.46474740994000E+00 0.10000000000000E+01
 s    1 1.00
 0.18504536357000E+00 0.10000000000000E+01
 s    1 1.00
 0.70288026270000E-01 0.10000000000000E+01
 p    4 1.00
 0.63274954801000E+02 0.12018332222616E-01
 0.14627049379000E+02 0.83005421790056E-01
 0.44501223456000E+01 0.31991743925964E+00
 0.15275799647000E+01 0.70715542916104E+00
 p    1 1.00
 0.52935117943000E+00 0.10000000000000E+01
 p    1 1.00
 0.17478421270000E+00 0.10000000000000E+01
 p    1 1.00
 0.51112745706000E-01 0.10000000000000E+01
 d    1 1.00
 0.23140000000000E+01 0.10000000000000E+01
 d    1 1.00
 0.64500000000000E+00 0.10000000000000E+01
 d    1 1.00
 0.14696477366000E+00 0.10000000000000E+01
 f    1 1.00
 0.14280000000000E+01 0.10000000000000E+01
 
   13 0
 s    6 1.00
 0.27032382631000E+05 0.57227335211155E-03
 0.40523871392000E+04 0.44353233492995E-02
 0.92232722710000E+03 0.23020107706038E-01
 0.26124070989000E+03 0.92822490667928E-01
 0.85354641351000E+02 0.29378500009671E+00
 0.31035035245000E+02 0.67401604501641E+00
 s    2 1.00
 0.12260860728000E+02 0.63839937025506E+00
 0.49987076005000E+01 0.39534587125718E+00
 s    1 1.00
 0.11703108158000E+01 0.10000000000000E+01
 s    1 1.00
 0.46474740994000E+00 0.10000000000000E+01
 s    1 1.00
 0.18504536357000E+00 0.10000000000000E+01
 s    1 1.00
 0.70288026270000E-01 0.10000000000000E+01
 p    4 1.00
 0.63274954801000E+02 0.12018332222616E-01
 0.14627049379000E+02 0.83005421790056E-01
 0.44501223456000E+01 0.31991743925964E+00
 0.15275799647000E+01 0.70715542916104E+00
 p    1 1.00
 0.52935117943000E+00 0.10000000000000E+01
 p    1 1.00
 0.17478421270000E+00 0.10000000000000E+01
 p    1 1.00
 0.51112745706000E-01 0.10000000000000E+01
 d    1 1.00
 0.23140000000000E+01 0.10000000000000E+01
 d    1 1.00
 0.64500000000000E+00 0.10000000000000E+01
 d    1 1.00
 0.14696477366000E+00 0.10000000000000E+01
 f    1 1.00
 0.14280000000000E+01 0.10000000000000E+01
 
   14 0
 s    6 1.00
 0.19730800647000E+05 0.58626402628763E-03
 0.29578958745000E+04 0.45428820586397E-02
 0.67322133595000E+03 0.23558413450084E-01
 0.19068249494000E+03 0.94709193292923E-01
 0.62295441898000E+02 0.29719784913376E+00
 0.22654161182000E+02 0.66916246895232E+00
 s    2 1.00
 0.89791477428000E+01 0.64596683630063E+00
 0.36863002370000E+01 0.38700574393705E+00
 s    1 1.00
 0.84660076805000E+00 0.10000000000000E+01
 s    1 1.00
 0.33647133771000E+00 0.10000000000000E+01
 s    1 1.00
 0.13647653675000E+00 0.10000000000000E+01
 s    1 1.00
 0.68441605847000E-01 0.10000000000000E+01
 p    4 1.00
 0.49200380510000E+02 0.11448825101764E-01
 0.11346790537000E+02 0.78422337970864E-01
 0.34273972411000E+01 0.30818094738830E+00
 0.11785525134000E+01 0.72027196368413E+00
 p    1 1.00
 0.41642204972000E+00 0.10000000000000E+01
 p    1 1.00
 0.14260826011000E+00 0.10000000000000E+01
 d    1 1.00
 0.16540000000000E+01 0.10000000000000E+01
 d    1 1.00
 0.46900000000000E+00 0.10000000000000E+01
 d    1 1.00
 0.12829642058000E+00 0.10000000000000E+01
 f    1 1.00
 0.10930000000000E+01 0.10000000000000E+01
 
   15 0
 s    3 1.00
 0.34061341000000E+02 0.25439307208879E-01
 0.51235746000000E+01 0.19008594890375E+00
 0.11646626000000E+01 0.85244113011042E+00
 s    1 1.00
 0.32723041000000E+00 0.10000000000000E+01
 s    1 1.00
 0.10307241000000E+00 0.10000000000000E+01
 p    1 1.00
 0.80000000000000E+00 0.10000000000000E+01
 p    1 1.00
 0.95774129632000E-01 0.10000000000000E+01
 
   16 0
 s    3 1.00
 0.34061341000000E+02 0.25439307208879E-01
 0.51235746000000E+01 0.19008594890375E+00
 0.11646626000000E+01 0.85244113011042E+00
 s    1 1.00
 0.32723041000000E+00 0.10000000000000E+01
 s    1 1.00
 0.10307241000000E+00 0.10000000000000E+01
 p    1 1.00
 0.80000000000000E+00 0.10000000000000E+01
 p    1 1.00
 0.95774129632000E-01 0.10000000000000E+01
 
[MO]
 Sym= X
 Ene= -0.896132
 Spin= Alpha
 Occup= -0.896132
         1    5.540946E-03
         2    1.271280E-02
         3   -2.625029E-02
         4    8.295796E-03
         5   -1.925040E-01
         6   -3.368587E-02
         7    3.536667E-02
         8    2.179863E-03
         9   -1.067120E-04
        10    4.574721E-02
        11    3.747048E-03
        12   -1.121018E-04
        13    7.284496E-02
        14   -8.811809E-02
        15   -1.565487E-04
        16    1.206970E-03
        17   -1.423773E-03
        18    2.168023E-04
        19    2.443365E-04
        20   -2.443281E-06
        21    1.407847E-06
        22    9.576532E-03
        23   -6.499586E-03
        24   -3.076946E-03
        25   -1.182410E-03
        26   -2.306959E-05
        27    2.226431E-06
        28   -9.493136E-04
        29   -2.670818E-03
        30    3.620132E-03
        31    1.494221E-02
        32    4.025674E-06
        33   -4.262688E-06
        34    2.931364E-05
        35   -1.358486E-04
        36    4.796444E-07
        37    5.944543E-05
        38    2.046922E-04
        39   -4.620981E-07
        40   -9.877380E-05
        41   -2.243219E-05
        42   -1.814124E-07
        43   -6.839028E-07
        44    1.500903E-08
        45    2.871127E-08
        46   -4.809942E-08
        47    1.320020E-06
        48    3.050587E-05
        49   -1.688948E-06
        50    4.354256E-07
        51    2.704793E-02
        52    1.499611E-05
        53    1.625413E-06
        54    3.705064E-02
        55    1.531623E-05
        56    6.713366E-06
        57   -2.064502E-01
        58   -4.069084E-06
        59   -2.069596E-08
        60    2.517138E-08
        61   -4.475417E-09
        62    2.001626E-03
        63    4.673345E-08
        64   -5.875062E-07
        65   -2.720420E-07
        66    2.942953E-07
        67   -2.225329E-08
        68   -2.604691E-03
        69    1.534682E-07
        70    1.171848E-05
        71    2.759228E-06
        72   -2.719060E-06
        73   -4.016759E-08
        74   -3.712273E-02
        75   -1.261082E-07
        76    5.825474E-05
        77    5.402179E-09
        78    5.240973E-04
        79   -6.526962E-08
        80    1.216104E-09
        81   -5.155047E-04
        82    2.540968E-08
        83   -8.463888E-09
        84   -1.876457E-04
        85    6.215870E-08
        86    9.079851E-07
        87   -5.541044E-03
        88   -1.271302E-02
        89    2.625071E-02
        90   -8.294416E-03
        91    1.925074E-01
        92    3.368607E-02
        93   -3.536713E-02
        94    2.179842E-03
        95    1.144881E-04
        96   -4.574593E-02
        97    3.748101E-03
        98    1.198714E-04
        99   -7.284718E-02
       100   -8.809348E-02
       101    1.565464E-04
       102   -1.207004E-03
       103    1.423813E-03
       104   -2.168090E-04
       105    2.443378E-04
       106    1.720543E-06
       107    8.225320E-07
       108   -9.576258E-03
       109    6.499411E-03
       110    3.076847E-03
       111   -1.182840E-03
       112    2.141795E-05
       113    7.603391E-07
       114    9.516314E-04
       115    2.668045E-03
       116   -3.619676E-03
       117    1.493769E-02
       118   -1.026514E-05
       119   -9.271259E-06
       120   -2.931250E-05
       121   -1.358438E-04
       122   -5.404759E-07
       123   -5.944785E-05
       124    2.046933E-04
       125    4.149399E-07
       126    9.877469E-05
       127   -2.243968E-05
       128    3.101846E-07
       129   -5.863930E-07
       130    2.731498E-03
       131    6.206257E-03
       132   -1.222869E-02
       133    1.267031E-02
       134   -8.049050E-02
       135   -1.128013E-02
       136    2.160349E-02
       137   -1.931422E-04
       138    3.264388E-05
       139   -7.232041E-03
       140    6.360663E-03
       141    2.411779E-05
       142   -4.374783E-02
       143    2.831132E-02
       144    4.777270E-05
       145   -5.372857E-04
       146    4.448070E-04
       147    9.247870E-05
       148   -1.286248E-04
       149   -9.991490E-07
       150   -4.175182E-07
       151    5.032236E-03
       152   -3.393141E-03
       153   -1.639095E-03
       154    2.257780E-04
       155   -2.050512E-05
       156    1.375515E-05
       157    1.023155E-02
       158   -1.119505E-02
       159    9.635047E-04
       160    3.244714E-03
       161    2.337496E-05
       162    2.166507E-05
       163   -1.846889E-05
       164    3.336361E-05
       165    3.320781E-07
       166    1.956128E-05
       167   -3.112372E-05
       168    1.023576E-08
       169    5.217334E-06
       170   -1.363826E-05
       171   -4.557653E-07
       172    1.042398E-06
       173   -6.735309E-08
       174   -1.488270E-07
       175    2.608546E-08
       176    1.710240E-06
       177   -2.949298E-05
       178    3.449580E-06
       179    4.291894E-07
       180    9.647110E-03
       181   -7.600365E-06
       182   -7.168676E-07
       183    1.670214E-02
       184   -7.834721E-06
       185    1.760557E-05
       186    7.942132E-02
       187   -6.382397E-06
       188    1.286479E-08
       189   -7.357913E-09
       190   -5.506875E-09
       191    1.343568E-04
       192    5.101159E-07
       193   -3.356441E-06
       194   -2.621443E-07
       195    4.637918E-07
       196   -2.016475E-07
       197   -3.174838E-03
       198    1.178333E-06
       199    3.949913E-05
       200   -3.294093E-06
       201    3.319762E-06
       202   -2.566867E-08
       203   -1.109552E-02
       204    1.742696E-06
       205    1.244444E-05
       206    4.725244E-09
       207    1.232750E-04
       208    2.140353E-08
       209   -5.968528E-09
       210   -1.109215E-04
       211    5.211383E-08
       212   -3.710528E-10
       213   -5.446924E-05
       214   -8.082969E-08
       215   -2.339461E-08
       216   -2.731461E-03
       217   -6.206173E-03
       218    1.222906E-02
       219   -1.267572E-02
       220    8.050451E-02
       221    1.127977E-02
       222   -2.160326E-02
       223   -1.933140E-04
       224   -4.890594E-05
       225    7.232289E-03
       226    6.359210E-03
       227   -4.169020E-05
       228    4.374464E-02
       229    2.832901E-02
       230   -4.568076E-05
       231    5.372850E-04
       232   -4.448246E-04
       233   -9.246035E-05
       234   -1.286173E-04
       235    7.828103E-07
       236   -7.626450E-07
       237   -5.032543E-03
       238    3.393263E-03
       239    1.639280E-03
       240    2.255198E-04
       241    1.966636E-05
       242    1.298429E-05
       243   -1.023610E-02
       244    1.120070E-02
       245   -9.645978E-04
       246    3.244298E-03
       247   -2.694753E-05
       248    2.097838E-05
       249    1.847773E-05
       250    3.336628E-05
       251   -2.521484E-07
       252   -1.957580E-05
       253   -3.113488E-05
       254   -1.471919E-09
       255   -5.214673E-06
       256   -1.363068E-05
       257    3.397645E-07
       258    9.961956E-07
       259   -1.231784E-02
       260   -1.668113E-02
       261   -3.457810E-02
       262   -1.662992E-03
       263   -2.169957E-03
       264    1.260578E-06
       265   -5.584869E-03
       266   -4.423847E-04
       267    3.515944E-05
       268    1.231800E-02
       269    1.668104E-02
       270    3.455789E-02
       271    1.662980E-03
       272   -2.169929E-03
       273   -1.186672E-06
       274    5.586450E-03
       275   -4.387068E-04
       276   -3.135414E-05
       277    2.390957E-03
       278    4.531781E-03
       279    1.866686E-02
       280    2.475915E-04
       281   -3.242324E-04
       282    2.707408E-06
       283   -1.650851E-03
       284   -4.789716E-04
       285   -3.234606E-05
       286   -2.390958E-03
       287   -4.531988E-03
       288   -1.866593E-02
       289   -2.475748E-04
       290   -3.242055E-04
       291   -3.342165E-06
       292    1.651968E-03
       293   -4.760854E-04
       294    3.292969E-05
       295    5.536806E-08
       296    1.282963E-07
       297   -1.129460E-07
       298   -1.298610E-06
       299   -1.731869E-06
       300    3.461920E-06
       301   -2.377519E-07
       302    3.391784E-02
       303   -1.288518E-06
       304    1.020254E-07
       305    2.556755E-02
       306   -1.877278E-06
       307    4.954883E-07
       308   -5.187115E-03
       309   -3.547455E-06
       310   -5.580875E-08
       311    4.572373E-08
       312    1.008501E-08
       313   -9.557609E-03
       314    1.747306E-07
       315    2.279640E-05
       316   -4.813954E-08
       317    1.197869E-07
       318   -7.164733E-08
       319   -2.654983E-02
       320    1.027882E-06
       321    6.395828E-05
       322    2.282187E-07
       323    3.790829E-07
       324   -6.073016E-07
       325    7.961977E-03
       326    4.155337E-06
       327   -2.077214E-05
       328    9.683453E-09
       329   -2.227256E-03
       330    1.903476E-08
       331   -1.062646E-08
       332    3.124504E-03
       333    7.595749E-08
       334   -2.365253E-09
       335   -1.363269E-04
       336   -1.014953E-07
       337   -8.947046E-06
       338   -1.513843E-03
       339   -3.846561E-03
       340    5.683972E-03
       341   -5.148166E-04
       342    1.179846E-02
       343   -1.684605E-02
       344   -2.638727E-01
       345   -2.271698E-01
       346    6.180488E-04
       347   -2.395380E-01
       348   -1.990692E-01
       349    5.603812E-04
       350   -1.797702E-01
       351   -1.451503E-01
       352    4.268991E-04
       353   -2.961962E-02
       354   -1.519135E-02
       355    7.213994E-05
       356   -2.139397E-03
       357    2.741846E-03
       358   -6.024484E-04
       359    7.340628E-07
       360    4.110553E-06
       361    4.352506E-08
       362   -6.513165E-03
       363    7.152232E-03
       364   -6.390664E-04
       365    1.229146E-03
       366    1.511627E-05
       367   -3.348186E-06
       368   -7.645110E-03
       369    6.743653E-03
       370    9.014569E-04
       371    1.274185E-03
       372    1.709438E-05
       373   -8.984982E-06
       374   -2.400950E-04
       375   -7.907421E-04
       376    6.630857E-07
       377    4.436599E-04
       378    8.910487E-04
       379    2.321218E-07
       380   -1.215387E-04
       381    1.698431E-04
       382   -1.121745E-06
       383   -1.959217E-06
       384    1.513795E-03
       385    3.846447E-03
       386   -5.683853E-03
       387    5.152499E-04
       388   -1.180027E-02
       389    1.684327E-02
       390    2.638740E-01
       391   -2.271710E-01
       392   -6.345840E-04
       393    2.395391E-01
       394   -1.990704E-01
       395   -5.758574E-04
       396    1.797704E-01
       397   -1.451499E-01
       398   -4.284376E-04
       399    2.961933E-02
       400   -1.519155E-02
       401   -7.312927E-05
       402    2.139412E-03
       403   -2.741866E-03
       404    6.024544E-04
       405    7.305743E-07
       406   -4.213127E-06
       407   -1.730050E-07
       408    6.513183E-03
       409   -7.152279E-03
       410    6.390963E-04
       411    1.229204E-03
       412   -1.570484E-05
       413   -3.462007E-06
       414    7.645041E-03
       415   -6.743715E-03
       416   -9.013263E-04
       417    1.274662E-03
       418   -2.188252E-05
       419   -5.414274E-06
       420    2.400987E-04
       421   -7.907431E-04
       422   -6.923464E-07
       423   -4.436672E-04
       424    8.910528E-04
       425   -1.500760E-07
       426    1.215409E-04
       427    1.698404E-04
       428    1.078956E-06
       429   -2.054594E-06
       430    3.080689E-07
       431    7.310580E-07
       432   -1.143383E-06
       433   -1.477065E-06
       434   -4.859723E-06
       435   -5.530124E-06
       436   -8.881433E-07
       437   -3.503931E-03
       438    1.265809E-05
       439   -1.198279E-06
       440   -2.125323E-03
       441    1.260960E-05
       442   -1.535541E-06
       443   -3.813920E-03
       444    9.918220E-06
       445   -1.269169E-08
       446    7.162794E-09
       447    5.528896E-09
       448   -2.210007E-04
       449    7.063000E-08
       450   -4.291170E-05
       451    3.970553E-08
       452   -1.497265E-07
       453    1.100210E-07
       454   -9.799005E-04
       455    2.459312E-07
       456   -6.005131E-05
       457    2.082039E-07
       458   -6.506472E-07
       459    4.424433E-07
       460    1.118909E-03
       461    3.705803E-08
       462   -5.416936E-05
       463   -8.766729E-09
       464   -4.384492E-05
       465   -4.514370E-08
       466   -5.953789E-09
       467    5.535208E-05
       468    2.000148E-08
       469    1.771559E-08
       470    3.472059E-06
       471    4.056514E-08
       472   -1.180657E-05
       473   -2.010322E-03
       474   -2.879807E-03
       475   -4.605087E-03
       476    1.112230E-04
       477    1.648747E-04
       478    4.204183E-05
       479    7.550982E-04
       480    4.554465E-04
       481    2.405577E-04
       482    2.011545E-03
       483    2.882931E-03
       484    4.613823E-03
       485   -1.115187E-04
       486    1.651274E-04
       487   -4.065922E-05
       488   -7.560776E-04
       489    4.560183E-04
       490   -2.386407E-04
 Sym= X
 Ene= 0.896132
 Spin= Alpha
 Occup= 0.896132
         1    1.843867E-05
         2    4.431856E-05
         3   -1.687815E-04
         4    3.699882E-04
         5    3.049454E-02
         6    3.329564E-04
         7   -2.417754E-04
         8   -7.735791E-05
         9   -9.703685E-02
        10   -1.669073E-04
        11   -4.066717E-05
        12   -9.663433E-02
        13    2.350178E-02
        14   -1.829173E-02
        15   -5.530721E-02
        16   -6.040586E-06
        17    2.087658E-06
        18    3.952929E-06
        19   -4.451736E-06
        20    2.146195E-04
        21   -4.749468E-04
        22    1.362277E-04
        23   -5.017194E-05
        24   -8.605579E-05
        25    3.986838E-05
        26    4.857935E-03
        27    4.827876E-04
        28    7.395115E-03
        29   -7.884875E-03
        30    4.897600E-04
        31    5.442259E-05
        32    5.556913E-03
        33    1.471576E-02
        34    4.455202E-06
        35   -1.491078E-06
        36    1.757734E-04
        37   -4.856887E-06
        38   -1.514372E-07
        39    1.267341E-04
        40   -1.120394E-06
        41    2.151928E-06
        42   -3.625588E-04
        43   -6.142011E-05
        44    4.010384E-06
        45    5.424463E-06
        46    9.805305E-05
        47   -1.758523E-03
        48    7.098213E-02
        49    5.971053E-03
        50   -2.803448E-06
        51    3.202424E-07
        52    7.231648E-03
        53   -2.253748E-04
        54   -1.187139E-05
        55    4.404748E-03
        56    2.372519E-02
        57   -9.661663E-05
        58   -5.647708E-02
        59   -3.810160E-05
        60   -3.104646E-06
        61    4.120624E-05
        62    1.611754E-07