[Molden Format]
[Title]
ADC(2) - opt by CAM-B3LYP gaussian                                              
[Atoms] AU
 c     1    6 -.12590385386216E+01 -.22819701624009E+01 -.30156123253150E-01
 c     2    6 -.25547233845863E+01 -.83266058000000E-06 -.28792213416740E-01
 c     3    6 -.12590428849917E+01 0.22819669475044E+01 -.30169993842970E-01
 c     4    6 0.13339759331395E+01 0.22828246941961E+01 -.32722654800530E-01
 c     5    6 0.26864234278208E+01 0.32869423900000E-05 -.32794180934660E-01
 c     6    6 0.13339778039684E+01 -.22828226745513E+01 -.32706516539360E-01
 h     7    1 -.23005849451053E+01 -.40353719055945E+01 -.27139024303910E-01
 h     8    1 -.23005903875166E+01 0.40353685773143E+01 -.27164403325880E-01
 h     9    1 0.23527432406667E+01 0.40554759247724E+01 -.35914685697900E-01
 h    10    1 0.23527525948111E+01 -.40554698422164E+01 -.35883032785170E-01
 n    11    7 -.52784595104117E+01 -.53030440000000E-06 -.22539903328000E-01
 o    12    8 -.63796877956448E+01 0.20272212823250E+01 -.19883023974210E-01
 o    13    8 -.63796922742957E+01 -.20272201130570E+01 -.19923067270970E-01
 n    14    7 0.52516126460355E+01 -.32243452000000E-06 -.88209511610250E-01
 h    15    1 0.62001707317805E+01 0.16133662892433E+01 0.23199721167530E+00
 h    16    1 0.62001633429513E+01 -.16133706190784E+01 0.23200112340840E+00
[GTO]
    1 0
 s    6 1.00
 0.13575349682000E+05 0.60645503603591E-03
 0.20352333680000E+04 0.46979088884982E-02
 0.46322562359000E+03 0.24332477647552E-01
 0.13120019598000E+03 0.97399968307759E-01
 0.42853015891000E+02 0.30195584253780E+00
 0.15584185766000E+02 0.66233609137875E+00
 s    2 1.00
 0.62067138508000E+01 0.65595308539952E+00
 0.25764896527000E+01 0.37585633285142E+00
 s    1 1.00
 0.57696339419000E+00 0.10000000000000E+01
 s    1 1.00
 0.22972831358000E+00 0.10000000000000E+01
 s    1 1.00
 0.95164440028000E-01 0.10000000000000E+01
 s    1 1.00
 0.48475401370000E-01 0.10000000000000E+01
 p    4 1.00
 0.34697232244000E+02 0.11327220003114E-01
 0.79582622826000E+01 0.76169659202087E-01
 0.23780826883000E+01 0.30192252202676E+00
 0.81433208183000E+00 0.72785027349547E+00
 p    1 1.00
 0.28887547253000E+00 0.10000000000000E+01
 p    1 1.00
 0.10056823671000E+00 0.10000000000000E+01
 d    1 1.00
 0.10970000000000E+01 0.10000000000000E+01
 d    1 1.00
 0.31800000000000E+00 0.10000000000000E+01
 d    1 1.00
 0.90985336424000E-01 0.10000000000000E+01
 f    1 1.00
 0.76100000000000E+00 0.10000000000000E+01
 
    2 0
 s    6 1.00
 0.13575349682000E+05 0.60645503603591E-03
 0.20352333680000E+04 0.46979088884982E-02
 0.46322562359000E+03 0.24332477647552E-01
 0.13120019598000E+03 0.97399968307759E-01
 0.42853015891000E+02 0.30195584253780E+00
 0.15584185766000E+02 0.66233609137875E+00
 s    2 1.00
 0.62067138508000E+01 0.65595308539952E+00
 0.25764896527000E+01 0.37585633285142E+00
 s    1 1.00
 0.57696339419000E+00 0.10000000000000E+01
 s    1 1.00
 0.22972831358000E+00 0.10000000000000E+01
 s    1 1.00
 0.95164440028000E-01 0.10000000000000E+01
 s    1 1.00
 0.48475401370000E-01 0.10000000000000E+01
 p    4 1.00
 0.34697232244000E+02 0.11327220003114E-01
 0.79582622826000E+01 0.76169659202087E-01
 0.23780826883000E+01 0.30192252202676E+00
 0.81433208183000E+00 0.72785027349547E+00
 p    1 1.00
 0.28887547253000E+00 0.10000000000000E+01
 p    1 1.00
 0.10056823671000E+00 0.10000000000000E+01
 d    1 1.00
 0.10970000000000E+01 0.10000000000000E+01
 d    1 1.00
 0.31800000000000E+00 0.10000000000000E+01
 d    1 1.00
 0.90985336424000E-01 0.10000000000000E+01
 f    1 1.00
 0.76100000000000E+00 0.10000000000000E+01
 
    3 0
 s    6 1.00
 0.13575349682000E+05 0.60645503603591E-03
 0.20352333680000E+04 0.46979088884982E-02
 0.46322562359000E+03 0.24332477647552E-01
 0.13120019598000E+03 0.97399968307759E-01
 0.42853015891000E+02 0.30195584253780E+00
 0.15584185766000E+02 0.66233609137875E+00
 s    2 1.00
 0.62067138508000E+01 0.65595308539952E+00
 0.25764896527000E+01 0.37585633285142E+00
 s    1 1.00
 0.57696339419000E+00 0.10000000000000E+01
 s    1 1.00
 0.22972831358000E+00 0.10000000000000E+01
 s    1 1.00
 0.95164440028000E-01 0.10000000000000E+01
 s    1 1.00
 0.48475401370000E-01 0.10000000000000E+01
 p    4 1.00
 0.34697232244000E+02 0.11327220003114E-01
 0.79582622826000E+01 0.76169659202087E-01
 0.23780826883000E+01 0.30192252202676E+00
 0.81433208183000E+00 0.72785027349547E+00
 p    1 1.00
 0.28887547253000E+00 0.10000000000000E+01
 p    1 1.00
 0.10056823671000E+00 0.10000000000000E+01
 d    1 1.00
 0.10970000000000E+01 0.10000000000000E+01
 d    1 1.00
 0.31800000000000E+00 0.10000000000000E+01
 d    1 1.00
 0.90985336424000E-01 0.10000000000000E+01
 f    1 1.00
 0.76100000000000E+00 0.10000000000000E+01
 
    4 0
 s    6 1.00
 0.13575349682000E+05 0.60645503603591E-03
 0.20352333680000E+04 0.46979088884982E-02
 0.46322562359000E+03 0.24332477647552E-01
 0.13120019598000E+03 0.97399968307759E-01
 0.42853015891000E+02 0.30195584253780E+00
 0.15584185766000E+02 0.66233609137875E+00
 s    2 1.00
 0.62067138508000E+01 0.65595308539952E+00
 0.25764896527000E+01 0.37585633285142E+00
 s    1 1.00
 0.57696339419000E+00 0.10000000000000E+01
 s    1 1.00
 0.22972831358000E+00 0.10000000000000E+01
 s    1 1.00
 0.95164440028000E-01 0.10000000000000E+01
 s    1 1.00
 0.48475401370000E-01 0.10000000000000E+01
 p    4 1.00
 0.34697232244000E+02 0.11327220003114E-01
 0.79582622826000E+01 0.76169659202087E-01
 0.23780826883000E+01 0.30192252202676E+00
 0.81433208183000E+00 0.72785027349547E+00
 p    1 1.00
 0.28887547253000E+00 0.10000000000000E+01
 p    1 1.00
 0.10056823671000E+00 0.10000000000000E+01
 d    1 1.00
 0.10970000000000E+01 0.10000000000000E+01
 d    1 1.00
 0.31800000000000E+00 0.10000000000000E+01
 d    1 1.00
 0.90985336424000E-01 0.10000000000000E+01
 f    1 1.00
 0.76100000000000E+00 0.10000000000000E+01
 
    5 0
 s    6 1.00
 0.13575349682000E+05 0.60645503603591E-03
 0.20352333680000E+04 0.46979088884982E-02
 0.46322562359000E+03 0.24332477647552E-01
 0.13120019598000E+03 0.97399968307759E-01
 0.42853015891000E+02 0.30195584253780E+00
 0.15584185766000E+02 0.66233609137875E+00
 s    2 1.00
 0.62067138508000E+01 0.65595308539952E+00
 0.25764896527000E+01 0.37585633285142E+00
 s    1 1.00
 0.57696339419000E+00 0.10000000000000E+01
 s    1 1.00
 0.22972831358000E+00 0.10000000000000E+01
 s    1 1.00
 0.95164440028000E-01 0.10000000000000E+01
 s    1 1.00
 0.48475401370000E-01 0.10000000000000E+01
 p    4 1.00
 0.34697232244000E+02 0.11327220003114E-01
 0.79582622826000E+01 0.76169659202087E-01
 0.23780826883000E+01 0.30192252202676E+00
 0.81433208183000E+00 0.72785027349547E+00
 p    1 1.00
 0.28887547253000E+00 0.10000000000000E+01
 p    1 1.00
 0.10056823671000E+00 0.10000000000000E+01
 d    1 1.00
 0.10970000000000E+01 0.10000000000000E+01
 d    1 1.00
 0.31800000000000E+00 0.10000000000000E+01
 d    1 1.00
 0.90985336424000E-01 0.10000000000000E+01
 f    1 1.00
 0.76100000000000E+00 0.10000000000000E+01
 
    6 0
 s    6 1.00
 0.13575349682000E+05 0.60645503603591E-03
 0.20352333680000E+04 0.46979088884982E-02
 0.46322562359000E+03 0.24332477647552E-01
 0.13120019598000E+03 0.97399968307759E-01
 0.42853015891000E+02 0.30195584253780E+00
 0.15584185766000E+02 0.66233609137875E+00
 s    2 1.00
 0.62067138508000E+01 0.65595308539952E+00
 0.25764896527000E+01 0.37585633285142E+00
 s    1 1.00
 0.57696339419000E+00 0.10000000000000E+01
 s    1 1.00
 0.22972831358000E+00 0.10000000000000E+01
 s    1 1.00
 0.95164440028000E-01 0.10000000000000E+01
 s    1 1.00
 0.48475401370000E-01 0.10000000000000E+01
 p    4 1.00
 0.34697232244000E+02 0.11327220003114E-01
 0.79582622826000E+01 0.76169659202087E-01
 0.23780826883000E+01 0.30192252202676E+00
 0.81433208183000E+00 0.72785027349547E+00
 p    1 1.00
 0.28887547253000E+00 0.10000000000000E+01
 p    1 1.00
 0.10056823671000E+00 0.10000000000000E+01
 d    1 1.00
 0.10970000000000E+01 0.10000000000000E+01
 d    1 1.00
 0.31800000000000E+00 0.10000000000000E+01
 d    1 1.00
 0.90985336424000E-01 0.10000000000000E+01
 f    1 1.00
 0.76100000000000E+00 0.10000000000000E+01
 
    7 0
 s    3 1.00
 0.34061341000000E+02 0.25439307208879E-01
 0.51235746000000E+01 0.19008594890375E+00
 0.11646626000000E+01 0.85244113011042E+00
 s    1 1.00
 0.32723041000000E+00 0.10000000000000E+01
 s    1 1.00
 0.10307241000000E+00 0.10000000000000E+01
 p    1 1.00
 0.80000000000000E+00 0.10000000000000E+01
 p    1 1.00
 0.95774129632000E-01 0.10000000000000E+01
 
    8 0
 s    3 1.00
 0.34061341000000E+02 0.25439307208879E-01
 0.51235746000000E+01 0.19008594890375E+00
 0.11646626000000E+01 0.85244113011042E+00
 s    1 1.00
 0.32723041000000E+00 0.10000000000000E+01
 s    1 1.00
 0.10307241000000E+00 0.10000000000000E+01
 p    1 1.00
 0.80000000000000E+00 0.10000000000000E+01
 p    1 1.00
 0.95774129632000E-01 0.10000000000000E+01
 
    9 0
 s    3 1.00
 0.34061341000000E+02 0.25439307208879E-01
 0.51235746000000E+01 0.19008594890375E+00
 0.11646626000000E+01 0.85244113011042E+00
 s    1 1.00
 0.32723041000000E+00 0.10000000000000E+01
 s    1 1.00
 0.10307241000000E+00 0.10000000000000E+01
 p    1 1.00
 0.80000000000000E+00 0.10000000000000E+01
 p    1 1.00
 0.95774129632000E-01 0.10000000000000E+01
 
   10 0
 s    3 1.00
 0.34061341000000E+02 0.25439307208879E-01
 0.51235746000000E+01 0.19008594890375E+00
 0.11646626000000E+01 0.85244113011042E+00
 s    1 1.00
 0.32723041000000E+00 0.10000000000000E+01
 s    1 1.00
 0.10307241000000E+00 0.10000000000000E+01
 p    1 1.00
 0.80000000000000E+00 0.10000000000000E+01
 p    1 1.00
 0.95774129632000E-01 0.10000000000000E+01
 
   11 0
 s    6 1.00
 0.19730800647000E+05 0.58626402628763E-03
 0.29578958745000E+04 0.45428820586397E-02
 0.67322133595000E+03 0.23558413450084E-01
 0.19068249494000E+03 0.94709193292923E-01
 0.62295441898000E+02 0.29719784913376E+00
 0.22654161182000E+02 0.66916246895232E+00
 s    2 1.00
 0.89791477428000E+01 0.64596683630063E+00
 0.36863002370000E+01 0.38700574393705E+00
 s    1 1.00
 0.84660076805000E+00 0.10000000000000E+01
 s    1 1.00
 0.33647133771000E+00 0.10000000000000E+01
 s    1 1.00
 0.13647653675000E+00 0.10000000000000E+01
 s    1 1.00
 0.68441605847000E-01 0.10000000000000E+01
 p    4 1.00
 0.49200380510000E+02 0.11448825101764E-01
 0.11346790537000E+02 0.78422337970864E-01
 0.34273972411000E+01 0.30818094738830E+00
 0.11785525134000E+01 0.72027196368413E+00
 p    1 1.00
 0.41642204972000E+00 0.10000000000000E+01
 p    1 1.00
 0.14260826011000E+00 0.10000000000000E+01
 d    1 1.00
 0.16540000000000E+01 0.10000000000000E+01
 d    1 1.00
 0.46900000000000E+00 0.10000000000000E+01
 d    1 1.00
 0.12829642058000E+00 0.10000000000000E+01
 f    1 1.00
 0.10930000000000E+01 0.10000000000000E+01
 
   12 0
 s    6 1.00
 0.27032382631000E+05 0.57227335211155E-03
 0.40523871392000E+04 0.44353233492995E-02
 0.92232722710000E+03 0.23020107706038E-01
 0.26124070989000E+03 0.92822490667928E-01
 0.85354641351000E+02 0.29378500009671E+00
 0.31035035245000E+02 0.67401604501641E+00
 s    2 1.00
 0.12260860728000E+02 0.63839937025506E+00
 0.49987076005000E+01 0.39534587125718E+00
 s    1 1.00
 0.11703108158000E+01 0.10000000000000E+01
 s    1 1.00
 0.46474740994000E+00 0.10000000000000E+01
 s    1 1.00
 0.18504536357000E+00 0.10000000000000E+01
 s    1 1.00
 0.70288026270000E-01 0.10000000000000E+01
 p    4 1.00
 0.63274954801000E+02 0.12018332222616E-01
 0.14627049379000E+02 0.83005421790056E-01
 0.44501223456000E+01 0.31991743925964E+00
 0.15275799647000E+01 0.70715542916104E+00
 p    1 1.00
 0.52935117943000E+00 0.10000000000000E+01
 p    1 1.00
 0.17478421270000E+00 0.10000000000000E+01
 p    1 1.00
 0.51112745706000E-01 0.10000000000000E+01
 d    1 1.00
 0.23140000000000E+01 0.10000000000000E+01
 d    1 1.00
 0.64500000000000E+00 0.10000000000000E+01
 d    1 1.00
 0.14696477366000E+00 0.10000000000000E+01
 f    1 1.00
 0.14280000000000E+01 0.10000000000000E+01
 
   13 0
 s    6 1.00
 0.27032382631000E+05 0.57227335211155E-03
 0.40523871392000E+04 0.44353233492995E-02
 0.92232722710000E+03 0.23020107706038E-01
 0.26124070989000E+03 0.92822490667928E-01
 0.85354641351000E+02 0.29378500009671E+00
 0.31035035245000E+02 0.67401604501641E+00
 s    2 1.00
 0.12260860728000E+02 0.63839937025506E+00
 0.49987076005000E+01 0.39534587125718E+00
 s    1 1.00
 0.11703108158000E+01 0.10000000000000E+01
 s    1 1.00
 0.46474740994000E+00 0.10000000000000E+01
 s    1 1.00
 0.18504536357000E+00 0.10000000000000E+01
 s    1 1.00
 0.70288026270000E-01 0.10000000000000E+01
 p    4 1.00
 0.63274954801000E+02 0.12018332222616E-01
 0.14627049379000E+02 0.83005421790056E-01
 0.44501223456000E+01 0.31991743925964E+00
 0.15275799647000E+01 0.70715542916104E+00
 p    1 1.00
 0.52935117943000E+00 0.10000000000000E+01
 p    1 1.00
 0.17478421270000E+00 0.10000000000000E+01
 p    1 1.00
 0.51112745706000E-01 0.10000000000000E+01
 d    1 1.00
 0.23140000000000E+01 0.10000000000000E+01
 d    1 1.00
 0.64500000000000E+00 0.10000000000000E+01
 d    1 1.00
 0.14696477366000E+00 0.10000000000000E+01
 f    1 1.00
 0.14280000000000E+01 0.10000000000000E+01
 
   14 0
 s    6 1.00
 0.19730800647000E+05 0.58626402628763E-03
 0.29578958745000E+04 0.45428820586397E-02
 0.67322133595000E+03 0.23558413450084E-01
 0.19068249494000E+03 0.94709193292923E-01
 0.62295441898000E+02 0.29719784913376E+00
 0.22654161182000E+02 0.66916246895232E+00
 s    2 1.00
 0.89791477428000E+01 0.64596683630063E+00
 0.36863002370000E+01 0.38700574393705E+00
 s    1 1.00
 0.84660076805000E+00 0.10000000000000E+01
 s    1 1.00
 0.33647133771000E+00 0.10000000000000E+01
 s    1 1.00
 0.13647653675000E+00 0.10000000000000E+01
 s    1 1.00
 0.68441605847000E-01 0.10000000000000E+01
 p    4 1.00
 0.49200380510000E+02 0.11448825101764E-01
 0.11346790537000E+02 0.78422337970864E-01
 0.34273972411000E+01 0.30818094738830E+00
 0.11785525134000E+01 0.72027196368413E+00
 p    1 1.00
 0.41642204972000E+00 0.10000000000000E+01
 p    1 1.00
 0.14260826011000E+00 0.10000000000000E+01
 d    1 1.00
 0.16540000000000E+01 0.10000000000000E+01
 d    1 1.00
 0.46900000000000E+00 0.10000000000000E+01
 d    1 1.00
 0.12829642058000E+00 0.10000000000000E+01
 f    1 1.00
 0.10930000000000E+01 0.10000000000000E+01
 
   15 0
 s    3 1.00
 0.34061341000000E+02 0.25439307208879E-01
 0.51235746000000E+01 0.19008594890375E+00
 0.11646626000000E+01 0.85244113011042E+00
 s    1 1.00
 0.32723041000000E+00 0.10000000000000E+01
 s    1 1.00
 0.10307241000000E+00 0.10000000000000E+01
 p    1 1.00
 0.80000000000000E+00 0.10000000000000E+01
 p    1 1.00
 0.95774129632000E-01 0.10000000000000E+01
 
   16 0
 s    3 1.00
 0.34061341000000E+02 0.25439307208879E-01
 0.51235746000000E+01 0.19008594890375E+00
 0.11646626000000E+01 0.85244113011042E+00
 s    1 1.00
 0.32723041000000E+00 0.10000000000000E+01
 s    1 1.00
 0.10307241000000E+00 0.10000000000000E+01
 p    1 1.00
 0.80000000000000E+00 0.10000000000000E+01
 p    1 1.00
 0.95774129632000E-01 0.10000000000000E+01
 
[MO]
 Sym= X
 Ene= -0.899681
 Spin= Alpha
 Occup= -0.899681
         1    9.064407E-04
         2    2.096881E-03
         3    9.759986E-04
         4   -3.524307E-02
         5   -2.594253E-01
         6    3.875051E-02
         7    1.864089E-02
         8   -3.737791E-02
         9   -4.237528E-05
        10    1.450044E-03
        11   -3.376867E-02
        12   -4.277574E-05
        13    1.172205E-02
        14   -8.124695E-02
        15   -1.432771E-04
        16    1.861633E-03
        17   -2.076681E-03
        18    2.150480E-04
        19    9.506468E-05
        20   -3.567412E-07
        21   -8.899372E-07
        22   -3.124400E-03
        23    4.278554E-05
        24    3.081615E-03
        25    6.073963E-04
        26    4.143861E-06
        27   -6.602616E-06
        28   -4.214764E-04
        29   -7.550060E-04
        30    1.176482E-03
        31   -1.360644E-02
        32   -2.667608E-05
        33    4.573061E-05
        34   -1.605465E-04
        35   -4.222621E-04
        36    4.504441E-07
        37    1.704596E-04
        38    4.706844E-04
        39   -2.804885E-07
        40    4.493609E-05
        41    9.583967E-05
        42   -3.238458E-07
        43   -9.311732E-07
        44   -1.389943E-02
        45   -3.140852E-02
        46    4.610875E-02
        47    8.356827E-02
        48    1.903709E-01
        49   -3.528819E-02
        50   -1.339348E-01
        51   -1.178817E-07
        52    1.547468E-04
        53   -1.005874E-01
        54   -4.422101E-07
        55    9.855155E-05
        56    8.519163E-02
        57    9.315769E-06
        58   -3.684892E-04
        59    4.883084E-03
        60   -4.169816E-03
        61   -7.132682E-04
        62    1.752091E-08
        63   -1.662958E-05
        64    1.166278E-07
        65    8.404895E-04
        66   -5.628488E-04
        67   -2.776408E-04
        68    1.094498E-07
        69   -4.226973E-07
        70    7.711994E-07
        71   -4.097903E-02
        72    4.143883E-02
        73   -4.598029E-04
        74   -3.082353E-07
        75    1.136012E-04
        76   -1.121017E-05
        77   -1.040568E-03
        78    8.434749E-10
        79   -1.884137E-06
        80    8.309034E-04
        81    2.556801E-10
        82    4.832157E-06
        83    5.651644E-04
        84   -1.387320E-09
        85   -2.304322E-06
        86    4.189052E-08
        87    9.063587E-04
        88    2.096700E-03
        89    9.763129E-04
        90   -3.524476E-02
        91   -2.594148E-01
        92    3.875404E-02
        93    1.864055E-02
        94    3.737826E-02
        95   -3.423084E-05
        96    1.448362E-03
        97    3.376844E-02
        98   -3.572848E-05
        99    1.174029E-02
       100    8.125094E-02
       101   -1.536754E-04
       102    1.861607E-03
       103   -2.076671E-03
       104    2.150638E-04
       105   -9.505891E-05
       106   -1.370407E-07
       107    8.442455E-07
       108   -3.124568E-03
       109    4.292749E-05
       110    3.081640E-03
       111   -6.073847E-04
       112    4.699989E-06
       113    6.828230E-06
       114   -4.211045E-04
       115   -7.545995E-04
       116    1.175704E-03
       117    1.360340E-02
       118   -5.181821E-05
       119   -6.362958E-05
       120   -1.605453E-04
       121    4.222745E-04
       122    4.462532E-07
       123    1.704564E-04
       124   -4.706939E-04
       125   -2.451342E-07
       126    4.493772E-05
       127   -9.584669E-05
       128   -3.535774E-07
       129    8.956883E-07
       130   -1.715118E-03
       131   -3.899555E-03
       132    3.100330E-03
       133    3.314800E-02
       134    1.176720E-01
       135   -3.269111E-02
       136   -1.993574E-02
       137   -7.866154E-03
       138    6.137279E-05
       139   -3.277179E-02
       140   -6.844655E-03
       141    8.778992E-05
       142   -3.767318E-02
       143   -4.882762E-02
       144    2.506152E-04
       145    5.623542E-04
       146   -4.528867E-04
       147   -1.094675E-04
       148   -1.351096E-03
       149    6.566380E-07
       150    1.530184E-06
       151    3.828564E-03
       152   -1.682215E-03
       153   -2.146349E-03
       154   -2.148710E-03
       155   -1.467632E-05
       156   -7.216680E-06
       157    5.252854E-03
       158   -5.199966E-03
       159   -5.288845E-05
       160    1.932736E-02
       161   -1.107300E-04
       162   -3.218124E-05
       163   -2.472319E-04
       164   -2.299844E-04
       165   -7.958992E-07
       166    1.671839E-04
       167    3.109103E-04
       168    8.235045E-07
       169    1.645126E-04
       170   -2.353862E-06
       171    2.443063E-07
       172   -1.821389E-07
       173   -1.893513E-03
       174   -4.347942E-03
       175    8.872117E-03
       176    3.526161E-04
       177    3.377257E-02
       178    3.499029E-02
       179   -6.196729E-03
       180    1.245863E-07
       181    1.734504E-05
       182   -3.235323E-03
       183   -1.540811E-07
       184    6.986749E-05
       185    2.445765E-02
       186   -2.432974E-07
       187    1.938899E-04
       188    2.604477E-04
       189   -2.551560E-04
       190   -5.291685E-06
       191   -2.722011E-09
       192   -3.380556E-06
       193    1.730483E-07
       194   -4.431069E-04
       195   -4.015044E-04
       196    8.446113E-04
       197    4.301337E-09
       198    1.611456E-05
       199    3.977333E-07
       200    1.399127E-02
       201   -1.469476E-02
       202    7.034890E-04
       203   -1.612786E-06
       204    2.534550E-04
       205    1.412771E-05
       206    2.934563E-05
       207   -4.555634E-09
       208   -4.642088E-07
       209   -4.060925E-05
       210    1.530403E-09
       211    7.053272E-07
       212    1.237955E-06
       213    4.581622E-09
       214   -8.252579E-08
       215   -2.320818E-08
       216   -1.715182E-03
       217   -3.899704E-03
       218    3.100875E-03
       219    3.314611E-02
       220    1.177132E-01
       221   -3.268941E-02
       222   -1.993596E-02
       223    7.865766E-03
       224    5.213247E-05
       225   -3.277092E-02
       226    6.843919E-03
       227    7.826958E-05
       228   -3.768787E-02
       229    4.883014E-02
       230    2.368079E-04
       231    5.623576E-04
       232   -4.528980E-04
       233   -1.094596E-04
       234    1.351109E-03
       235    8.127538E-07
       236   -1.540001E-06
       237    3.828266E-03
       238   -1.682005E-03
       239   -2.146262E-03
       240    2.148482E-03
       241   -1.384775E-05
       242    7.054776E-06
       243    5.250564E-03
       244   -5.196937E-03
       245   -5.362706E-05
       246   -1.932880E-02
       247   -8.546855E-05
       248    4.640555E-05
       249   -2.472223E-04
       250    2.299808E-04
       251   -7.267410E-07
       252    1.671719E-04
       253   -3.109076E-04
       254    7.375065E-07
       255    1.645116E-04
       256    2.355940E-06
       257    2.375189E-07
       258    1.749058E-07
       259    3.754580E-03
       260    4.828261E-03
       261    1.815780E-02
       262    1.996597E-03
       263    5.997574E-04
       264   -5.874224E-06
       265    6.790316E-03
       266    4.024216E-04
       267    6.613472E-06
       268    3.754765E-03
       269    4.828583E-03
       270    1.815257E-02
       271    1.996611E-03
       272   -5.997992E-04
       273   -5.653931E-06
       274    6.790067E-03
       275   -4.030873E-04
       276    1.593558E-05
       277   -9.598210E-03
       278   -1.575495E-02
       279   -1.684657E-02
       280   -8.076130E-05
       281    1.427341E-03
       282   -2.778227E-06
       283   -7.209201E-03
       284    2.787817E-03
       285    6.672584E-05
       286   -9.598157E-03
       287   -1.575526E-02
       288   -1.685660E-02
       289   -8.077699E-05
       290   -1.427313E-03
       291   -2.813389E-06
       292   -7.205017E-03
       293   -2.785989E-03
       294    6.742355E-05
       295   -1.796769E-03
       296   -4.101393E-03
       297    2.152900E-03
       298    2.972638E-02
       299    1.585966E-01
       300   -1.660283E-02
       301    1.065461E-01
       302   -1.394406E-07
       303   -2.450615E-04
       304    9.945268E-02
       305   -4.985410E-07
       306   -2.314590E-04
       307    1.010103E-01
       308    1.268719E-06
       309   -2.014754E-04
       310    1.172150E-02
       311   -1.299467E-02
       312    1.273166E-03
       313   -5.124077E-08
       314   -3.113793E-05
       315   -1.855686E-07
       316    3.333208E-02
       317   -3.462667E-02
       318    1.294594E-03
       319   -7.982122E-08
       320   -9.405959E-05
       321   -6.932046E-07
       322   -1.392223E-02
       323    4.120835E-03
       324    9.801393E-03
       325   -8.372158E-07
       326    7.188565E-05
       327   -8.254225E-07
       328   -7.153412E-05
       329   -7.206159E-09
       330    1.097520E-06
       331    3.242082E-04
       332    8.933867E-09
       333   -1.062064E-06
       334   -2.282351E-04
       335    7.342104E-10
       336   -4.104139E-07
       337    3.535269E-08
       338    8.163004E-04
       339    2.098180E-03
       340   -2.417262E-03
       341    8.073277E-03
       342    4.578848E-03
       343    2.028749E-02
       344   -3.099752E-01
       345   -6.196925E-02
       346    7.806443E-04
       347   -2.728092E-01
       348   -5.953193E-02
       349    6.891401E-04
       350   -2.049860E-01
       351   -5.075004E-02
       352    5.143880E-04
       353   -1.588902E-02
       354   -8.943343E-03
       355    3.628448E-05
       356   -9.903383E-04
       357    2.314164E-04
       358    7.589218E-04
       359    2.623001E-03
       360    4.789235E-06
       361   -6.774016E-06
       362   -3.943509E-03
       363    1.775939E-03
       364    2.167569E-03
       365    5.979396E-03
       366    1.632518E-05
       367   -1.597899E-05
       368   -4.482532E-03
       369    3.611718E-03
       370    8.708141E-04
       371    6.010240E-03
       372    4.622123E-06
       373   -1.796375E-05
       374    2.823045E-04
       375   -5.321472E-04
       376   -1.316496E-06
       377   -6.079858E-04
       378    9.706256E-04
       379    1.682333E-07
       380    2.292346E-04
       381   -2.566753E-04
       382    1.598031E-06
       383   -3.511419E-06
       384    8.163010E-04
       385    2.098179E-03
       386   -2.417205E-03
       387    8.073171E-03
       388    4.581499E-03
       389    2.028959E-02
       390   -3.099737E-01
       391    6.196888E-02
       392    7.831845E-04
       393   -2.728078E-01
       394    5.953151E-02
       395    6.925718E-04
       396   -2.049852E-01
       397    5.074919E-02
       398    5.068451E-04
       399   -1.588826E-02
       400    8.943123E-03
       401    3.901920E-05
       402   -9.903374E-04
       403    2.314255E-04
       404    7.589119E-04
       405   -2.622995E-03
       406    4.812825E-06
       407    6.780588E-06
       408   -3.943492E-03
       409    1.775902E-03
       410    2.167591E-03
       411   -5.979450E-03
       412    1.658718E-05
       413    1.567205E-05
       414   -4.482418E-03
       415    3.611629E-03
       416    8.707890E-04
       417   -6.010787E-03
       418    9.900499E-06
       419    1.293960E-05
       420    2.823009E-04
       421    5.321461E-04
       422   -1.243750E-06
       423   -6.079797E-04
       424   -9.706265E-04
       425    6.979376E-08
       426    2.292334E-04
       427    2.566775E-04
       428    1.598872E-06
       429    3.539810E-06
       430   -3.592959E-04
       431   -8.489923E-04
       432    1.056716E-03
       433    5.022774E-03
       434   -1.880637E-02
       435   -2.240463E-02
       436    2.624848E-04
       437   -7.128172E-08
       438    7.619454E-07
       439   -7.749820E-04
       440    1.985596E-09
       441   -8.373386E-06
       442    7.890326E-04
       443   -1.336290E-08
       444   -2.601327E-04
       445    2.992617E-05
       446   -2.333250E-05
       447   -6.593670E-06
       448   -1.659902E-10
       449    4.123701E-06
       450    9.006088E-09
       451    1.417351E-04
       452   -2.805540E-04
       453    1.388189E-04
       454   -2.578580E-08
       455   -1.065886E-05
       456   -9.993314E-09
       457    6.790371E-04
       458   -2.961501E-04
       459   -3.828870E-04
       460    3.859369E-07
       461    8.082941E-05
       462   -5.879224E-07
       463   -9.430567E-07
       464   -2.213691E-09
       465    2.859135E-06
       466    1.113693E-05
       467    1.796900E-09
       468    8.681188E-08
       469   -9.871687E-06
       470    1.173078E-09
       471   -3.922743E-06
       472   -4.084025E-09
       473    8.141950E-05
       474    6.505155E-04
       475   -1.869574E-03
       476   -3.215397E-05
       477   -1.804018E-04
       478   -3.285898E-05
       479    1.828635E-03
       480    8.523059E-04
       481   -3.441367E-04
       482    8.145429E-05
       483    6.503637E-04
       484   -1.867362E-03
       485   -3.210500E-05
       486    1.804127E-04
       487   -3.293814E-05
       488    1.829526E-03
       489   -8.501629E-04
       490   -3.452871E-04
 Sym= X
 Ene= 0.899681
 Spin= Alpha
 Occup= 0.899681
         1    1.923894E-05
         2    4.628450E-05
         3   -1.775981E-04
         4    3.891922E-04
         5    3.176908E-02
         6    3.757478E-04
         7   -2.478749E-04
         8   -7.770002E-05
         9   -9.935186E-02
        10   -1.859882E-04
        11   -3.445519E-05
        12   -9.907436E-02
        13    2.433685E-02
        14   -1.921602E-02
        15   -5.645431E-02
        16   -6.566065E-06
        17    2.319615E-06
        18    4.246449E-06
        19   -4.547846E-06
        20    1.584803E-04
        21   -4.273524E-04
        22    1.389731E-04
        23   -4.948037E-05
        24   -8.949272E-05
        25    3.765022E-05
        26    4.606411E-03
        27    6.554732E-04
        28    7.754904E-03
        29   -8.293595E-03
        30    5.386919E-04
        31    3.136028E-05
        32    4.408938E-03
        33    1.679965E-02
        34    4.590855E-06
        35   -1.449430E-06
        36    1.727578E-04
        37   -5.068699E-06
        38   -2.460654E-07
        39    1.187051E-04
        40   -1.090580E-06
        41    2.190680E-06
        42   -3.504839E-04
        43   -6.241382E-05
        44    4.657633E-06
        45    6.773759E-06
        46    1.015680E-04
        47   -1.874102E-03
        48    7.399270E-02
        49    6.212205E-03
        50    5.115814E-06
        51    3.345032E-07
        52    1.005646E-02
        53   -2.441405E-04
        54   -1.152353E-05
        55    6.775224E-03
        56    2.504449E-02
        57   -2.090325E-04
        58   -5.943938E-02
        59   -3.740595E-05
        60   -3.622873E-06
        61    4.102882E-05
        62    1.846465E-07