[Molden Format]
[Title]
ADC(2) - opt by CAM-B3LYP gaussian                                              
[Atoms] AU
 c     1    6 -.12590385386216E+01 -.22819701624009E+01 -.30156123253150E-01
 c     2    6 -.25547233845863E+01 -.83266058000000E-06 -.28792213416740E-01
 c     3    6 -.12590428849917E+01 0.22819669475044E+01 -.30169993842970E-01
 c     4    6 0.13339759331395E+01 0.22828246941961E+01 -.32722654800530E-01
 c     5    6 0.26864234278208E+01 0.32869423900000E-05 -.32794180934660E-01
 c     6    6 0.13339778039684E+01 -.22828226745513E+01 -.32706516539360E-01
 h     7    1 -.23005849451053E+01 -.40353719055945E+01 -.27139024303910E-01
 h     8    1 -.23005903875166E+01 0.40353685773143E+01 -.27164403325880E-01
 h     9    1 0.23527432406667E+01 0.40554759247724E+01 -.35914685697900E-01
 h    10    1 0.23527525948111E+01 -.40554698422164E+01 -.35883032785170E-01
 n    11    7 -.52784595104117E+01 -.53030440000000E-06 -.22539903328000E-01
 o    12    8 -.63796877956448E+01 0.20272212823250E+01 -.19883023974210E-01
 o    13    8 -.63796922742957E+01 -.20272201130570E+01 -.19923067270970E-01
 n    14    7 0.52516126460355E+01 -.32243452000000E-06 -.88209511610250E-01
 h    15    1 0.62001707317805E+01 0.16133662892433E+01 0.23199721167530E+00
 h    16    1 0.62001633429513E+01 -.16133706190784E+01 0.23200112340840E+00
[GTO]
    1 0
 s    6 1.00
 0.13575349682000E+05 0.60645503603591E-03
 0.20352333680000E+04 0.46979088884982E-02
 0.46322562359000E+03 0.24332477647552E-01
 0.13120019598000E+03 0.97399968307759E-01
 0.42853015891000E+02 0.30195584253780E+00
 0.15584185766000E+02 0.66233609137875E+00
 s    2 1.00
 0.62067138508000E+01 0.65595308539952E+00
 0.25764896527000E+01 0.37585633285142E+00
 s    1 1.00
 0.57696339419000E+00 0.10000000000000E+01
 s    1 1.00
 0.22972831358000E+00 0.10000000000000E+01
 s    1 1.00
 0.95164440028000E-01 0.10000000000000E+01
 s    1 1.00
 0.48475401370000E-01 0.10000000000000E+01
 p    4 1.00
 0.34697232244000E+02 0.11327220003114E-01
 0.79582622826000E+01 0.76169659202087E-01
 0.23780826883000E+01 0.30192252202676E+00
 0.81433208183000E+00 0.72785027349547E+00
 p    1 1.00
 0.28887547253000E+00 0.10000000000000E+01
 p    1 1.00
 0.10056823671000E+00 0.10000000000000E+01
 d    1 1.00
 0.10970000000000E+01 0.10000000000000E+01
 d    1 1.00
 0.31800000000000E+00 0.10000000000000E+01
 d    1 1.00
 0.90985336424000E-01 0.10000000000000E+01
 f    1 1.00
 0.76100000000000E+00 0.10000000000000E+01
 
    2 0
 s    6 1.00
 0.13575349682000E+05 0.60645503603591E-03
 0.20352333680000E+04 0.46979088884982E-02
 0.46322562359000E+03 0.24332477647552E-01
 0.13120019598000E+03 0.97399968307759E-01
 0.42853015891000E+02 0.30195584253780E+00
 0.15584185766000E+02 0.66233609137875E+00
 s    2 1.00
 0.62067138508000E+01 0.65595308539952E+00
 0.25764896527000E+01 0.37585633285142E+00
 s    1 1.00
 0.57696339419000E+00 0.10000000000000E+01
 s    1 1.00
 0.22972831358000E+00 0.10000000000000E+01
 s    1 1.00
 0.95164440028000E-01 0.10000000000000E+01
 s    1 1.00
 0.48475401370000E-01 0.10000000000000E+01
 p    4 1.00
 0.34697232244000E+02 0.11327220003114E-01
 0.79582622826000E+01 0.76169659202087E-01
 0.23780826883000E+01 0.30192252202676E+00
 0.81433208183000E+00 0.72785027349547E+00
 p    1 1.00
 0.28887547253000E+00 0.10000000000000E+01
 p    1 1.00
 0.10056823671000E+00 0.10000000000000E+01
 d    1 1.00
 0.10970000000000E+01 0.10000000000000E+01
 d    1 1.00
 0.31800000000000E+00 0.10000000000000E+01
 d    1 1.00
 0.90985336424000E-01 0.10000000000000E+01
 f    1 1.00
 0.76100000000000E+00 0.10000000000000E+01
 
    3 0
 s    6 1.00
 0.13575349682000E+05 0.60645503603591E-03
 0.20352333680000E+04 0.46979088884982E-02
 0.46322562359000E+03 0.24332477647552E-01
 0.13120019598000E+03 0.97399968307759E-01
 0.42853015891000E+02 0.30195584253780E+00
 0.15584185766000E+02 0.66233609137875E+00
 s    2 1.00
 0.62067138508000E+01 0.65595308539952E+00
 0.25764896527000E+01 0.37585633285142E+00
 s    1 1.00
 0.57696339419000E+00 0.10000000000000E+01
 s    1 1.00
 0.22972831358000E+00 0.10000000000000E+01
 s    1 1.00
 0.95164440028000E-01 0.10000000000000E+01
 s    1 1.00
 0.48475401370000E-01 0.10000000000000E+01
 p    4 1.00
 0.34697232244000E+02 0.11327220003114E-01
 0.79582622826000E+01 0.76169659202087E-01
 0.23780826883000E+01 0.30192252202676E+00
 0.81433208183000E+00 0.72785027349547E+00
 p    1 1.00
 0.28887547253000E+00 0.10000000000000E+01
 p    1 1.00
 0.10056823671000E+00 0.10000000000000E+01
 d    1 1.00
 0.10970000000000E+01 0.10000000000000E+01
 d    1 1.00
 0.31800000000000E+00 0.10000000000000E+01
 d    1 1.00
 0.90985336424000E-01 0.10000000000000E+01
 f    1 1.00
 0.76100000000000E+00 0.10000000000000E+01
 
    4 0
 s    6 1.00
 0.13575349682000E+05 0.60645503603591E-03
 0.20352333680000E+04 0.46979088884982E-02
 0.46322562359000E+03 0.24332477647552E-01
 0.13120019598000E+03 0.97399968307759E-01
 0.42853015891000E+02 0.30195584253780E+00
 0.15584185766000E+02 0.66233609137875E+00
 s    2 1.00
 0.62067138508000E+01 0.65595308539952E+00
 0.25764896527000E+01 0.37585633285142E+00
 s    1 1.00
 0.57696339419000E+00 0.10000000000000E+01
 s    1 1.00
 0.22972831358000E+00 0.10000000000000E+01
 s    1 1.00
 0.95164440028000E-01 0.10000000000000E+01
 s    1 1.00
 0.48475401370000E-01 0.10000000000000E+01
 p    4 1.00
 0.34697232244000E+02 0.11327220003114E-01
 0.79582622826000E+01 0.76169659202087E-01
 0.23780826883000E+01 0.30192252202676E+00
 0.81433208183000E+00 0.72785027349547E+00
 p    1 1.00
 0.28887547253000E+00 0.10000000000000E+01
 p    1 1.00
 0.10056823671000E+00 0.10000000000000E+01
 d    1 1.00
 0.10970000000000E+01 0.10000000000000E+01
 d    1 1.00
 0.31800000000000E+00 0.10000000000000E+01
 d    1 1.00
 0.90985336424000E-01 0.10000000000000E+01
 f    1 1.00
 0.76100000000000E+00 0.10000000000000E+01
 
    5 0
 s    6 1.00
 0.13575349682000E+05 0.60645503603591E-03
 0.20352333680000E+04 0.46979088884982E-02
 0.46322562359000E+03 0.24332477647552E-01
 0.13120019598000E+03 0.97399968307759E-01
 0.42853015891000E+02 0.30195584253780E+00
 0.15584185766000E+02 0.66233609137875E+00
 s    2 1.00
 0.62067138508000E+01 0.65595308539952E+00
 0.25764896527000E+01 0.37585633285142E+00
 s    1 1.00
 0.57696339419000E+00 0.10000000000000E+01
 s    1 1.00
 0.22972831358000E+00 0.10000000000000E+01
 s    1 1.00
 0.95164440028000E-01 0.10000000000000E+01
 s    1 1.00
 0.48475401370000E-01 0.10000000000000E+01
 p    4 1.00
 0.34697232244000E+02 0.11327220003114E-01
 0.79582622826000E+01 0.76169659202087E-01
 0.23780826883000E+01 0.30192252202676E+00
 0.81433208183000E+00 0.72785027349547E+00
 p    1 1.00
 0.28887547253000E+00 0.10000000000000E+01
 p    1 1.00
 0.10056823671000E+00 0.10000000000000E+01
 d    1 1.00
 0.10970000000000E+01 0.10000000000000E+01
 d    1 1.00
 0.31800000000000E+00 0.10000000000000E+01
 d    1 1.00
 0.90985336424000E-01 0.10000000000000E+01
 f    1 1.00
 0.76100000000000E+00 0.10000000000000E+01
 
    6 0
 s    6 1.00
 0.13575349682000E+05 0.60645503603591E-03
 0.20352333680000E+04 0.46979088884982E-02
 0.46322562359000E+03 0.24332477647552E-01
 0.13120019598000E+03 0.97399968307759E-01
 0.42853015891000E+02 0.30195584253780E+00
 0.15584185766000E+02 0.66233609137875E+00
 s    2 1.00
 0.62067138508000E+01 0.65595308539952E+00
 0.25764896527000E+01 0.37585633285142E+00
 s    1 1.00
 0.57696339419000E+00 0.10000000000000E+01
 s    1 1.00
 0.22972831358000E+00 0.10000000000000E+01
 s    1 1.00
 0.95164440028000E-01 0.10000000000000E+01
 s    1 1.00
 0.48475401370000E-01 0.10000000000000E+01
 p    4 1.00
 0.34697232244000E+02 0.11327220003114E-01
 0.79582622826000E+01 0.76169659202087E-01
 0.23780826883000E+01 0.30192252202676E+00
 0.81433208183000E+00 0.72785027349547E+00
 p    1 1.00
 0.28887547253000E+00 0.10000000000000E+01
 p    1 1.00
 0.10056823671000E+00 0.10000000000000E+01
 d    1 1.00
 0.10970000000000E+01 0.10000000000000E+01
 d    1 1.00
 0.31800000000000E+00 0.10000000000000E+01
 d    1 1.00
 0.90985336424000E-01 0.10000000000000E+01
 f    1 1.00
 0.76100000000000E+00 0.10000000000000E+01
 
    7 0
 s    3 1.00
 0.34061341000000E+02 0.25439307208879E-01
 0.51235746000000E+01 0.19008594890375E+00
 0.11646626000000E+01 0.85244113011042E+00
 s    1 1.00
 0.32723041000000E+00 0.10000000000000E+01
 s    1 1.00
 0.10307241000000E+00 0.10000000000000E+01
 p    1 1.00
 0.80000000000000E+00 0.10000000000000E+01
 p    1 1.00
 0.95774129632000E-01 0.10000000000000E+01
 
    8 0
 s    3 1.00
 0.34061341000000E+02 0.25439307208879E-01
 0.51235746000000E+01 0.19008594890375E+00
 0.11646626000000E+01 0.85244113011042E+00
 s    1 1.00
 0.32723041000000E+00 0.10000000000000E+01
 s    1 1.00
 0.10307241000000E+00 0.10000000000000E+01
 p    1 1.00
 0.80000000000000E+00 0.10000000000000E+01
 p    1 1.00
 0.95774129632000E-01 0.10000000000000E+01
 
    9 0
 s    3 1.00
 0.34061341000000E+02 0.25439307208879E-01
 0.51235746000000E+01 0.19008594890375E+00
 0.11646626000000E+01 0.85244113011042E+00
 s    1 1.00
 0.32723041000000E+00 0.10000000000000E+01
 s    1 1.00
 0.10307241000000E+00 0.10000000000000E+01
 p    1 1.00
 0.80000000000000E+00 0.10000000000000E+01
 p    1 1.00
 0.95774129632000E-01 0.10000000000000E+01
 
   10 0
 s    3 1.00
 0.34061341000000E+02 0.25439307208879E-01
 0.51235746000000E+01 0.19008594890375E+00
 0.11646626000000E+01 0.85244113011042E+00
 s    1 1.00
 0.32723041000000E+00 0.10000000000000E+01
 s    1 1.00
 0.10307241000000E+00 0.10000000000000E+01
 p    1 1.00
 0.80000000000000E+00 0.10000000000000E+01
 p    1 1.00
 0.95774129632000E-01 0.10000000000000E+01
 
   11 0
 s    6 1.00
 0.19730800647000E+05 0.58626402628763E-03
 0.29578958745000E+04 0.45428820586397E-02
 0.67322133595000E+03 0.23558413450084E-01
 0.19068249494000E+03 0.94709193292923E-01
 0.62295441898000E+02 0.29719784913376E+00
 0.22654161182000E+02 0.66916246895232E+00
 s    2 1.00
 0.89791477428000E+01 0.64596683630063E+00
 0.36863002370000E+01 0.38700574393705E+00
 s    1 1.00
 0.84660076805000E+00 0.10000000000000E+01
 s    1 1.00
 0.33647133771000E+00 0.10000000000000E+01
 s    1 1.00
 0.13647653675000E+00 0.10000000000000E+01
 s    1 1.00
 0.68441605847000E-01 0.10000000000000E+01
 p    4 1.00
 0.49200380510000E+02 0.11448825101764E-01
 0.11346790537000E+02 0.78422337970864E-01
 0.34273972411000E+01 0.30818094738830E+00
 0.11785525134000E+01 0.72027196368413E+00
 p    1 1.00
 0.41642204972000E+00 0.10000000000000E+01
 p    1 1.00
 0.14260826011000E+00 0.10000000000000E+01
 d    1 1.00
 0.16540000000000E+01 0.10000000000000E+01
 d    1 1.00
 0.46900000000000E+00 0.10000000000000E+01
 d    1 1.00
 0.12829642058000E+00 0.10000000000000E+01
 f    1 1.00
 0.10930000000000E+01 0.10000000000000E+01
 
   12 0
 s    6 1.00
 0.27032382631000E+05 0.57227335211155E-03
 0.40523871392000E+04 0.44353233492995E-02
 0.92232722710000E+03 0.23020107706038E-01
 0.26124070989000E+03 0.92822490667928E-01
 0.85354641351000E+02 0.29378500009671E+00
 0.31035035245000E+02 0.67401604501641E+00
 s    2 1.00
 0.12260860728000E+02 0.63839937025506E+00
 0.49987076005000E+01 0.39534587125718E+00
 s    1 1.00
 0.11703108158000E+01 0.10000000000000E+01
 s    1 1.00
 0.46474740994000E+00 0.10000000000000E+01
 s    1 1.00
 0.18504536357000E+00 0.10000000000000E+01
 s    1 1.00
 0.70288026270000E-01 0.10000000000000E+01
 p    4 1.00
 0.63274954801000E+02 0.12018332222616E-01
 0.14627049379000E+02 0.83005421790056E-01
 0.44501223456000E+01 0.31991743925964E+00
 0.15275799647000E+01 0.70715542916104E+00
 p    1 1.00
 0.52935117943000E+00 0.10000000000000E+01
 p    1 1.00
 0.17478421270000E+00 0.10000000000000E+01
 p    1 1.00
 0.51112745706000E-01 0.10000000000000E+01
 d    1 1.00
 0.23140000000000E+01 0.10000000000000E+01
 d    1 1.00
 0.64500000000000E+00 0.10000000000000E+01
 d    1 1.00
 0.14696477366000E+00 0.10000000000000E+01
 f    1 1.00
 0.14280000000000E+01 0.10000000000000E+01
 
   13 0
 s    6 1.00
 0.27032382631000E+05 0.57227335211155E-03
 0.40523871392000E+04 0.44353233492995E-02
 0.92232722710000E+03 0.23020107706038E-01
 0.26124070989000E+03 0.92822490667928E-01
 0.85354641351000E+02 0.29378500009671E+00
 0.31035035245000E+02 0.67401604501641E+00
 s    2 1.00
 0.12260860728000E+02 0.63839937025506E+00
 0.49987076005000E+01 0.39534587125718E+00
 s    1 1.00
 0.11703108158000E+01 0.10000000000000E+01
 s    1 1.00
 0.46474740994000E+00 0.10000000000000E+01
 s    1 1.00
 0.18504536357000E+00 0.10000000000000E+01
 s    1 1.00
 0.70288026270000E-01 0.10000000000000E+01
 p    4 1.00
 0.63274954801000E+02 0.12018332222616E-01
 0.14627049379000E+02 0.83005421790056E-01
 0.44501223456000E+01 0.31991743925964E+00
 0.15275799647000E+01 0.70715542916104E+00
 p    1 1.00
 0.52935117943000E+00 0.10000000000000E+01
 p    1 1.00
 0.17478421270000E+00 0.10000000000000E+01
 p    1 1.00
 0.51112745706000E-01 0.10000000000000E+01
 d    1 1.00
 0.23140000000000E+01 0.10000000000000E+01
 d    1 1.00
 0.64500000000000E+00 0.10000000000000E+01
 d    1 1.00
 0.14696477366000E+00 0.10000000000000E+01
 f    1 1.00
 0.14280000000000E+01 0.10000000000000E+01
 
   14 0
 s    6 1.00
 0.19730800647000E+05 0.58626402628763E-03
 0.29578958745000E+04 0.45428820586397E-02
 0.67322133595000E+03 0.23558413450084E-01
 0.19068249494000E+03 0.94709193292923E-01
 0.62295441898000E+02 0.29719784913376E+00
 0.22654161182000E+02 0.66916246895232E+00
 s    2 1.00
 0.89791477428000E+01 0.64596683630063E+00
 0.36863002370000E+01 0.38700574393705E+00
 s    1 1.00
 0.84660076805000E+00 0.10000000000000E+01
 s    1 1.00
 0.33647133771000E+00 0.10000000000000E+01
 s    1 1.00
 0.13647653675000E+00 0.10000000000000E+01
 s    1 1.00
 0.68441605847000E-01 0.10000000000000E+01
 p    4 1.00
 0.49200380510000E+02 0.11448825101764E-01
 0.11346790537000E+02 0.78422337970864E-01
 0.34273972411000E+01 0.30818094738830E+00
 0.11785525134000E+01 0.72027196368413E+00
 p    1 1.00
 0.41642204972000E+00 0.10000000000000E+01
 p    1 1.00
 0.14260826011000E+00 0.10000000000000E+01
 d    1 1.00
 0.16540000000000E+01 0.10000000000000E+01
 d    1 1.00
 0.46900000000000E+00 0.10000000000000E+01
 d    1 1.00
 0.12829642058000E+00 0.10000000000000E+01
 f    1 1.00
 0.10930000000000E+01 0.10000000000000E+01
 
   15 0
 s    3 1.00
 0.34061341000000E+02 0.25439307208879E-01
 0.51235746000000E+01 0.19008594890375E+00
 0.11646626000000E+01 0.85244113011042E+00
 s    1 1.00
 0.32723041000000E+00 0.10000000000000E+01
 s    1 1.00
 0.10307241000000E+00 0.10000000000000E+01
 p    1 1.00
 0.80000000000000E+00 0.10000000000000E+01
 p    1 1.00
 0.95774129632000E-01 0.10000000000000E+01
 
   16 0
 s    3 1.00
 0.34061341000000E+02 0.25439307208879E-01
 0.51235746000000E+01 0.19008594890375E+00
 0.11646626000000E+01 0.85244113011042E+00
 s    1 1.00
 0.32723041000000E+00 0.10000000000000E+01
 s    1 1.00
 0.10307241000000E+00 0.10000000000000E+01
 p    1 1.00
 0.80000000000000E+00 0.10000000000000E+01
 p    1 1.00
 0.95774129632000E-01 0.10000000000000E+01
 
[MO]
 Sym= X
 Ene= -0.881260
 Spin= Alpha
 Occup= -0.881260
         1    9.306223E-07
         2    2.217260E-06
         3    4.071569E-05
         4   -2.877226E-04
         5   -1.152763E-02
         6   -8.686621E-04
         7    1.282789E-04
         8   -1.908078E-04
         9   -1.879706E-01
        10   -4.926189E-04
        11    9.660548E-06
        12   -1.885731E-01
        13    4.977606E-03
        14   -7.362966E-03
        15   -1.097872E-01
        16   -7.794076E-07
        17   -6.334938E-06
        18    7.114346E-06
        19    3.533536E-06
        20   -4.958241E-03
        21   -5.481146E-04
        22   -9.459601E-05
        23    5.953232E-05
        24    3.506369E-05
        25    1.096168E-05
        26   -9.599799E-03
        27    4.273330E-04
        28    9.712385E-04
        29   -1.124758E-03
        30    1.535198E-04
        31    6.454408E-04
        32   -3.455429E-03
        33    2.877911E-04
        34   -5.477407E-06
        35   -1.583177E-06
        36    1.165910E-03
        37    1.847307E-06
        38    1.152515E-06
        39   -1.409403E-03
        40    5.501406E-06
        41    9.715391E-07
        42   -1.548297E-04
        43   -3.989949E-06
        44   -2.818150E-07
        45   -4.961808E-07
        46   -7.059602E-06
        47    3.219429E-05
        48    2.604282E-03
        49    1.815157E-04
        50   -6.840174E-06
        51    3.214922E-04
        52    1.099884E-06
        53    1.456605E-05
        54    5.808755E-04
        55    6.101473E-06
        56    1.164360E-03
        57   -1.204905E-02
        58    1.117652E-05
        59    8.418484E-09
        60    1.234902E-07
        61   -1.319087E-07
        62    2.244428E-05
        63   -1.084481E-07
        64    7.038837E-03
        65   -2.018904E-06
        66    7.773860E-06
        67   -5.754956E-06
        68    9.870593E-05
        69    1.316840E-06
        70    1.600959E-02
        71    5.960167E-05
        72   -5.171089E-06
        73   -5.443058E-05
        74   -1.725970E-03
        75    3.060743E-06
        76    2.475360E-03
        77   -9.262626E-08
        78    3.713372E-06
        79   -7.316185E-08
        80    2.112384E-07
        81   -1.177494E-06
        82    3.916347E-08
        83   -8.696726E-08
        84   -3.804518E-06
        85    5.899345E-08
        86    1.022403E-03
        87   -2.680786E-06
        88   -6.277083E-06
        89   -1.559550E-05
        90    2.055751E-04
        91    6.530576E-03
        92    5.982130E-04
        93   -1.317155E-04
        94   -1.795199E-04
        95    1.879703E-01
        96    4.180618E-04
        97    5.763691E-05
        98    1.885710E-01
        99   -6.366831E-03
       100   -5.176277E-03
       101    1.097122E-01
       102    8.087972E-07
       103    6.496956E-06
       104   -7.305753E-06
       105    2.967566E-06
       106    4.958538E-03
       107   -5.482946E-04
       108    7.409721E-05
       109   -5.299017E-05
       110   -2.110704E-05
       111   -1.773887E-07
       112    9.600347E-03
       113    4.293879E-04
       114   -9.323821E-04
       115    9.915259E-04
       116   -5.914379E-05
       117    7.782627E-04
       118    3.441213E-03
       119    2.980078E-04
       120    4.822869E-06
       121   -1.324878E-06
       122   -1.165967E-03
       123   -1.422006E-06
       124    1.249589E-06
       125    1.409530E-03
       126   -5.048551E-06
       127    5.279216E-07
       128    1.547795E-04
       129   -4.075421E-06
       130   -1.250755E-05
       131   -3.007430E-05
       132    1.432567E-04
       133   -8.228535E-04
       134   -1.103682E-02
       135   -4.830964E-04
       136    4.259142E-04
       137    8.252580E-05
       138    1.999588E-01
       139    5.700221E-04
       140    2.378205E-04
       141    2.026728E-01
       142   -7.678012E-03
       143    7.739649E-03
       144    1.301871E-01
       145   -2.172678E-05
       146    2.435943E-06
       147    1.929084E-05
       148    7.559202E-06
       149   -4.629795E-03
       150   -4.847074E-04
       151   -1.675461E-04
       152    4.626104E-05
       153    1.212851E-04
       154    8.961329E-05
       155   -8.188746E-03
       156   -6.352612E-04
       157    2.805369E-04
       158   -5.484007E-04
       159    2.678639E-04
       160    1.325437E-03
       161    1.143987E-03
       162   -3.019686E-03
       163    6.674801E-06
       164    1.383679E-06
       165   -1.311660E-03
       166   -3.759194E-06
       167    8.105786E-07
       168    1.459281E-03
       169   -5.195992E-06
       170   -2.666979E-06
       171    3.004947E-04
       172   -4.690220E-05
       173   -2.361357E-07
       174   -7.097399E-07
       175    1.063103E-05
       176   -2.207221E-05
       177   -3.164734E-03
       178   -2.332741E-04
       179   -1.207285E-06
       180   -5.615884E-05
       181    1.632451E-06
       182    2.387396E-05
       183    1.530436E-05
       184   -1.860419E-06
       185    1.186033E-03
       186    1.917283E-02
       187   -4.339097E-06
       188    4.399007E-07
       189   -1.985268E-07
       190   -2.413738E-07
       191   -2.768020E-05
       192   -6.072587E-07
       193    7.520911E-03
       194    4.165713E-07
       195   -9.716125E-06
       196    9.299554E-06
       197   -1.142906E-04
       198    1.032235E-07
       199    1.571145E-02
       200   -5.709624E-05
       201   -1.883436E-05
       202    7.593060E-05
       203   -2.528377E-03
       204    1.351931E-06
       205   -4.830395E-03
       206   -7.828054E-08
       207    6.927318E-06
       208    4.208975E-08
       209    3.146284E-07
       210   -6.999747E-06
       211   -9.656178E-08
       212   -2.096040E-07
       213   -2.294226E-06
       214    4.009245E-08
       215   -1.180095E-03
       216    1.429532E-05
       217    3.421922E-05
       218   -1.713539E-04
       219    9.200442E-04
       220    1.647623E-02
       221    7.789395E-04
       222   -4.319964E-04
       223    8.933676E-05
       224   -1.999481E-01
       225   -6.400185E-04
       226    2.895140E-04
       227   -2.026614E-01
       228    6.500949E-03
       229    1.008669E-02
       230   -1.301026E-01
       231    2.184479E-05
       232   -2.958321E-06
       233   -1.888647E-05
       234    8.364324E-06
       235    4.630017E-03
       236   -4.847073E-04
       237    1.880308E-04
       238   -4.987530E-05
       239   -1.381555E-04
       240    1.014282E-04
       241    8.188753E-03
       242   -6.331109E-04
       243   -2.988171E-04
       244    6.668907E-04
       245   -3.680736E-04
       246    1.211515E-03
       247   -1.156534E-03
       248   -3.014571E-03
       249   -7.363951E-06
       250    1.699780E-06
       251    1.311604E-03
       252    4.338627E-06
       253    8.715727E-07
       254   -1.459314E-03
       255    5.541149E-06
       256   -3.152067E-06
       257   -3.003872E-04
       258   -4.684037E-05
       259   -4.432241E-05
       260   -7.643066E-05
       261   -1.062483E-03
       262   -1.989242E-05
       263   -1.575092E-05
       264   -7.688056E-03
       265    5.377419E-05
       266   -3.596779E-04
       267   -7.200624E-03
       268    5.207030E-05
       269    6.431167E-05
       270    4.159236E-04
       271    1.967947E-05
       272   -1.435055E-05
       273    7.687886E-03
       274   -1.064709E-04
       275   -1.689497E-04
       276    7.193731E-03
       277    4.557829E-05
       278    2.981942E-05
       279   -2.094054E-03
       280    2.321936E-05
       281    1.523752E-06
       282    8.632803E-03
       283    3.854532E-04
       284    1.345409E-04
       285    9.768783E-03
       286   -5.414741E-05
       287   -2.802515E-05
       288    2.786647E-03
       289   -2.357171E-05
       290    2.336911E-06
       291   -8.632303E-03
       292   -4.703621E-04
       293    3.272314E-04
       294   -9.768804E-03
       295   -3.033518E-08
       296   -1.995839E-08
       297   -7.391376E-07
       298    7.101985E-06
       299    7.306712E-05
       300   -1.165594E-04
       301    2.723707E-06
       302    1.336319E-04
       303    5.262623E-07
       304    5.466378E-06
       305    1.246076E-04
       306    8.734127E-08
       307    2.565468E-05
       308    3.554531E-04
       309    1.368079E-06
       310    4.534244E-07
       311   -4.597207E-07
       312    6.296228E-09
       313   -5.122980E-05
       314    4.443791E-08
       315   -1.338339E-03
       316    1.628116E-06
       317   -1.804765E-06
       318    1.766496E-07
       319   -1.292383E-04
       320    1.651937E-07
       321   -3.518624E-03
       322   -5.247654E-06
       323   -7.853585E-06
       324    1.310124E-05
       325    2.261520E-04
       326    2.274781E-06
       327   -2.163000E-03
       328   -4.932145E-10
       329   -1.285367E-05
       330   -1.602156E-09
       331    7.322541E-10
       332    1.953335E-05
       333    1.072050E-08
       334   -7.053737E-11
       335   -2.288335E-06
       336   -8.570983E-09
       337    3.977918E-04
       338   -4.682353E-06
       339   -1.217597E-05
       340    1.738803E-05
       341   -2.442689E-07
       342    1.567079E-05
       343   -9.627332E-05
       344   -1.566148E-03
       345   -1.188464E-03
       346   -4.294272E-02
       347   -1.417876E-03
       348   -1.039758E-03
       349   -3.995805E-02
       350   -1.187435E-03
       351   -7.972396E-04
       352   -2.854365E-02
       353   -1.942216E-04
       354   -1.018827E-04
       355   -1.772395E-03
       356   -1.157290E-05
       357    1.389698E-05
       358   -2.324080E-06
       359    1.613390E-06
       360   -1.493035E-04
       361    3.372647E-04
       362   -3.889504E-05
       363    3.774722E-05
       364    1.147816E-06
       365    1.387500E-05
       366   -5.301271E-04
       367    1.301389E-03
       368   -5.410370E-05
       369    5.708899E-05
       370   -2.985283E-06
       371    2.115030E-05
       372    3.525737E-06
       373    1.212323E-04
       374   -9.229786E-07
       375   -4.248249E-06
       376    4.853580E-05
       377    1.717098E-06
       378    5.481578E-06
       379    3.181480E-05
       380   -4.787924E-07
       381    2.180465E-07
       382   -9.693241E-05
       383    1.135650E-04
       384    4.989568E-06
       385    1.291717E-05
       386   -1.822831E-05
       387   -2.669517E-06
       388    3.346011E-05
       389    1.545783E-04
       390    1.541684E-03
       391   -1.183061E-03
       392    4.294056E-02
       393    1.397830E-03
       394   -1.034071E-03
       395    3.995568E-02
       396    1.174776E-03
       397   -7.805065E-04
       398    2.854408E-02
       399    1.985353E-04
       400   -9.537836E-05
       401    1.772028E-03
       402    1.150586E-05
       403   -1.386012E-05
       404    2.354260E-06
       405    1.370411E-06
       406    1.493059E-04
       407    3.372558E-04
       408    3.843774E-05
       409   -3.750536E-05
       410   -9.323838E-07
       411    1.366972E-05
       412    5.301095E-04
       413    1.301379E-03
       414    5.341519E-05
       415   -5.504478E-05
       416    1.629591E-06
       417    1.964465E-05
       418   -4.179763E-06
       419    1.222226E-04
       420    9.316043E-07
       421   -4.195563E-06
       422   -4.853716E-05
       423   -1.767236E-06
       424    5.400935E-06
       425   -3.181392E-05
       426    5.173574E-07
       427    2.280044E-07
       428    9.693336E-05
       429    1.135641E-04
       430   -6.537939E-07
       431   -1.622455E-06
       432    3.405164E-06
       433   -6.744713E-06
       434   -9.297740E-06
       435    7.810346E-05
       436   -1.022619E-06
       437   -1.273834E-03
       438   -1.540989E-05
       439    2.766185E-06
       440   -1.497246E-03
       441   -1.533064E-05
       442   -4.316786E-05
       443   -1.701698E-03
       444   -1.297174E-05
       445    6.876637E-08
       446   -8.358908E-08
       447    1.482271E-08
       448    1.659894E-05
       449   -1.006731E-08
       450    2.979205E-04
       451   -1.318105E-09
       452    7.780460E-07
       453   -7.767279E-07
       454   -3.991343E-05
       455    2.428281E-07
       456    6.411364E-04
       457    1.361175E-05
       458   -4.029747E-06
       459   -9.581999E-06
       460   -4.194781E-04
       461   -2.988028E-07
       462   -7.891028E-04
       463    1.166147E-08
       464   -5.315274E-06
       465    5.998020E-08
       466   -1.289091E-08
       467   -1.648587E-05
       468   -6.044138E-08
       469   -2.754590E-09
       470    2.361705E-05
       471   -2.003051E-08
       472   -1.330906E-04
       473   -7.946547E-06
       474    4.173228E-04
       475    3.000517E-03
       476   -6.606781E-05
       477   -6.307690E-05
       478    3.705884E-04
       479   -1.843494E-04
       480   -6.601999E-04
       481    1.818061E-03
       482    5.797892E-06
       483   -4.245056E-04
       484   -2.985104E-03
       485    6.709592E-05
       486   -6.378085E-05
       487   -3.718877E-04
       488    1.682227E-04
       489   -6.659910E-04
       490   -1.817214E-03
 Sym= X
 Ene= 0.881260
 Spin= Alpha
 Occup= 0.881260
         1    1.151541E-02
         2    2.569521E-02
         3   -2.851416E-02
         4   -2.615448E-01
         5    6.789446E-01
         6    1.027260E+00
         7    2.284376E-02
         8    1.626125E-02
         9    2.372010E-04
        10    9.952652E-02
        11    1.676393E-02
        12   -1.152476E-03
        13    8.368391E-01
        14    5.568213E-01
        15   -1.559190E-02
        16   -2.374839E-03
        17   -3.375531E-05
        18    2.408594E-03
        19    1.959763E-03
        20    8.900338E-05
        21   -5.478674E-05
        22    3.739801E-03
        23   -1.304322E-02
        24    9.303423E-03
        25    4.537989E-03
        26   -3.962361E-04
        27   -7.630175E-05
        28    5.782776E-01
        29   -3.346546E-01
        30   -2.436229E-01
        31    1.449750E-01
        32    6.760742E-03
        33   -1.064660E-02
        34   -1.337254E-04
        35    1.300223E-04
        36   -7.111942E-06
        37    7.798407E-04
        38    2.084076E-05
        39   -1.965573E-06
        40   -6.004292E-04
        41   -1.952840E-04
        42    1.150724E-05
        43   -1.358331E-05
        44    7.938316E-03
        45    1.726645E-02
        46   -8.570555E-03
        47   -2.892060E-01
        48   -9.221373E-01
        49    7.929916E-01
        50    1.141042E-02
        51    3.777018E-06
        52   -1.389070E-03
        53    9.289466E-02
        54    5.228678E-05
        55   -3.580518E-03
        56    1.679389E+00
        57    7.539942E-04
        58    4.166210E-02
        59    1.676755E-03
        60   -4.778837E-03
        61    3.102082E-03
        62    8.709582E-08