[Molden Format]
[Title]
ADC(2) - opt by CAM-B3LYP gaussian                                              
[Atoms] AU
 c     1    6 -.12590385386216E+01 -.22819701624009E+01 -.30156123253150E-01
 c     2    6 -.25547233845863E+01 -.83266058000000E-06 -.28792213416740E-01
 c     3    6 -.12590428849917E+01 0.22819669475044E+01 -.30169993842970E-01
 c     4    6 0.13339759331395E+01 0.22828246941961E+01 -.32722654800530E-01
 c     5    6 0.26864234278208E+01 0.32869423900000E-05 -.32794180934660E-01
 c     6    6 0.13339778039684E+01 -.22828226745513E+01 -.32706516539360E-01
 h     7    1 -.23005849451053E+01 -.40353719055945E+01 -.27139024303910E-01
 h     8    1 -.23005903875166E+01 0.40353685773143E+01 -.27164403325880E-01
 h     9    1 0.23527432406667E+01 0.40554759247724E+01 -.35914685697900E-01
 h    10    1 0.23527525948111E+01 -.40554698422164E+01 -.35883032785170E-01
 n    11    7 -.52784595104117E+01 -.53030440000000E-06 -.22539903328000E-01
 o    12    8 -.63796877956448E+01 0.20272212823250E+01 -.19883023974210E-01
 o    13    8 -.63796922742957E+01 -.20272201130570E+01 -.19923067270970E-01
 n    14    7 0.52516126460355E+01 -.32243452000000E-06 -.88209511610250E-01
 h    15    1 0.62001707317805E+01 0.16133662892433E+01 0.23199721167530E+00
 h    16    1 0.62001633429513E+01 -.16133706190784E+01 0.23200112340840E+00
[GTO]
    1 0
 s    6 1.00
 0.13575349682000E+05 0.60645503603591E-03
 0.20352333680000E+04 0.46979088884982E-02
 0.46322562359000E+03 0.24332477647552E-01
 0.13120019598000E+03 0.97399968307759E-01
 0.42853015891000E+02 0.30195584253780E+00
 0.15584185766000E+02 0.66233609137875E+00
 s    2 1.00
 0.62067138508000E+01 0.65595308539952E+00
 0.25764896527000E+01 0.37585633285142E+00
 s    1 1.00
 0.57696339419000E+00 0.10000000000000E+01
 s    1 1.00
 0.22972831358000E+00 0.10000000000000E+01
 s    1 1.00
 0.95164440028000E-01 0.10000000000000E+01
 s    1 1.00
 0.48475401370000E-01 0.10000000000000E+01
 p    4 1.00
 0.34697232244000E+02 0.11327220003114E-01
 0.79582622826000E+01 0.76169659202087E-01
 0.23780826883000E+01 0.30192252202676E+00
 0.81433208183000E+00 0.72785027349547E+00
 p    1 1.00
 0.28887547253000E+00 0.10000000000000E+01
 p    1 1.00
 0.10056823671000E+00 0.10000000000000E+01
 d    1 1.00
 0.10970000000000E+01 0.10000000000000E+01
 d    1 1.00
 0.31800000000000E+00 0.10000000000000E+01
 d    1 1.00
 0.90985336424000E-01 0.10000000000000E+01
 f    1 1.00
 0.76100000000000E+00 0.10000000000000E+01
 
    2 0
 s    6 1.00
 0.13575349682000E+05 0.60645503603591E-03
 0.20352333680000E+04 0.46979088884982E-02
 0.46322562359000E+03 0.24332477647552E-01
 0.13120019598000E+03 0.97399968307759E-01
 0.42853015891000E+02 0.30195584253780E+00
 0.15584185766000E+02 0.66233609137875E+00
 s    2 1.00
 0.62067138508000E+01 0.65595308539952E+00
 0.25764896527000E+01 0.37585633285142E+00
 s    1 1.00
 0.57696339419000E+00 0.10000000000000E+01
 s    1 1.00
 0.22972831358000E+00 0.10000000000000E+01
 s    1 1.00
 0.95164440028000E-01 0.10000000000000E+01
 s    1 1.00
 0.48475401370000E-01 0.10000000000000E+01
 p    4 1.00
 0.34697232244000E+02 0.11327220003114E-01
 0.79582622826000E+01 0.76169659202087E-01
 0.23780826883000E+01 0.30192252202676E+00
 0.81433208183000E+00 0.72785027349547E+00
 p    1 1.00
 0.28887547253000E+00 0.10000000000000E+01
 p    1 1.00
 0.10056823671000E+00 0.10000000000000E+01
 d    1 1.00
 0.10970000000000E+01 0.10000000000000E+01
 d    1 1.00
 0.31800000000000E+00 0.10000000000000E+01
 d    1 1.00
 0.90985336424000E-01 0.10000000000000E+01
 f    1 1.00
 0.76100000000000E+00 0.10000000000000E+01
 
    3 0
 s    6 1.00
 0.13575349682000E+05 0.60645503603591E-03
 0.20352333680000E+04 0.46979088884982E-02
 0.46322562359000E+03 0.24332477647552E-01
 0.13120019598000E+03 0.97399968307759E-01
 0.42853015891000E+02 0.30195584253780E+00
 0.15584185766000E+02 0.66233609137875E+00
 s    2 1.00
 0.62067138508000E+01 0.65595308539952E+00
 0.25764896527000E+01 0.37585633285142E+00
 s    1 1.00
 0.57696339419000E+00 0.10000000000000E+01
 s    1 1.00
 0.22972831358000E+00 0.10000000000000E+01
 s    1 1.00
 0.95164440028000E-01 0.10000000000000E+01
 s    1 1.00
 0.48475401370000E-01 0.10000000000000E+01
 p    4 1.00
 0.34697232244000E+02 0.11327220003114E-01
 0.79582622826000E+01 0.76169659202087E-01
 0.23780826883000E+01 0.30192252202676E+00
 0.81433208183000E+00 0.72785027349547E+00
 p    1 1.00
 0.28887547253000E+00 0.10000000000000E+01
 p    1 1.00
 0.10056823671000E+00 0.10000000000000E+01
 d    1 1.00
 0.10970000000000E+01 0.10000000000000E+01
 d    1 1.00
 0.31800000000000E+00 0.10000000000000E+01
 d    1 1.00
 0.90985336424000E-01 0.10000000000000E+01
 f    1 1.00
 0.76100000000000E+00 0.10000000000000E+01
 
    4 0
 s    6 1.00
 0.13575349682000E+05 0.60645503603591E-03
 0.20352333680000E+04 0.46979088884982E-02
 0.46322562359000E+03 0.24332477647552E-01
 0.13120019598000E+03 0.97399968307759E-01
 0.42853015891000E+02 0.30195584253780E+00
 0.15584185766000E+02 0.66233609137875E+00
 s    2 1.00
 0.62067138508000E+01 0.65595308539952E+00
 0.25764896527000E+01 0.37585633285142E+00
 s    1 1.00
 0.57696339419000E+00 0.10000000000000E+01
 s    1 1.00
 0.22972831358000E+00 0.10000000000000E+01
 s    1 1.00
 0.95164440028000E-01 0.10000000000000E+01
 s    1 1.00
 0.48475401370000E-01 0.10000000000000E+01
 p    4 1.00
 0.34697232244000E+02 0.11327220003114E-01
 0.79582622826000E+01 0.76169659202087E-01
 0.23780826883000E+01 0.30192252202676E+00
 0.81433208183000E+00 0.72785027349547E+00
 p    1 1.00
 0.28887547253000E+00 0.10000000000000E+01
 p    1 1.00
 0.10056823671000E+00 0.10000000000000E+01
 d    1 1.00
 0.10970000000000E+01 0.10000000000000E+01
 d    1 1.00
 0.31800000000000E+00 0.10000000000000E+01
 d    1 1.00
 0.90985336424000E-01 0.10000000000000E+01
 f    1 1.00
 0.76100000000000E+00 0.10000000000000E+01
 
    5 0
 s    6 1.00
 0.13575349682000E+05 0.60645503603591E-03
 0.20352333680000E+04 0.46979088884982E-02
 0.46322562359000E+03 0.24332477647552E-01
 0.13120019598000E+03 0.97399968307759E-01
 0.42853015891000E+02 0.30195584253780E+00
 0.15584185766000E+02 0.66233609137875E+00
 s    2 1.00
 0.62067138508000E+01 0.65595308539952E+00
 0.25764896527000E+01 0.37585633285142E+00
 s    1 1.00
 0.57696339419000E+00 0.10000000000000E+01
 s    1 1.00
 0.22972831358000E+00 0.10000000000000E+01
 s    1 1.00
 0.95164440028000E-01 0.10000000000000E+01
 s    1 1.00
 0.48475401370000E-01 0.10000000000000E+01
 p    4 1.00
 0.34697232244000E+02 0.11327220003114E-01
 0.79582622826000E+01 0.76169659202087E-01
 0.23780826883000E+01 0.30192252202676E+00
 0.81433208183000E+00 0.72785027349547E+00
 p    1 1.00
 0.28887547253000E+00 0.10000000000000E+01
 p    1 1.00
 0.10056823671000E+00 0.10000000000000E+01
 d    1 1.00
 0.10970000000000E+01 0.10000000000000E+01
 d    1 1.00
 0.31800000000000E+00 0.10000000000000E+01
 d    1 1.00
 0.90985336424000E-01 0.10000000000000E+01
 f    1 1.00
 0.76100000000000E+00 0.10000000000000E+01
 
    6 0
 s    6 1.00
 0.13575349682000E+05 0.60645503603591E-03
 0.20352333680000E+04 0.46979088884982E-02
 0.46322562359000E+03 0.24332477647552E-01
 0.13120019598000E+03 0.97399968307759E-01
 0.42853015891000E+02 0.30195584253780E+00
 0.15584185766000E+02 0.66233609137875E+00
 s    2 1.00
 0.62067138508000E+01 0.65595308539952E+00
 0.25764896527000E+01 0.37585633285142E+00
 s    1 1.00
 0.57696339419000E+00 0.10000000000000E+01
 s    1 1.00
 0.22972831358000E+00 0.10000000000000E+01
 s    1 1.00
 0.95164440028000E-01 0.10000000000000E+01
 s    1 1.00
 0.48475401370000E-01 0.10000000000000E+01
 p    4 1.00
 0.34697232244000E+02 0.11327220003114E-01
 0.79582622826000E+01 0.76169659202087E-01
 0.23780826883000E+01 0.30192252202676E+00
 0.81433208183000E+00 0.72785027349547E+00
 p    1 1.00
 0.28887547253000E+00 0.10000000000000E+01
 p    1 1.00
 0.10056823671000E+00 0.10000000000000E+01
 d    1 1.00
 0.10970000000000E+01 0.10000000000000E+01
 d    1 1.00
 0.31800000000000E+00 0.10000000000000E+01
 d    1 1.00
 0.90985336424000E-01 0.10000000000000E+01
 f    1 1.00
 0.76100000000000E+00 0.10000000000000E+01
 
    7 0
 s    3 1.00
 0.34061341000000E+02 0.25439307208879E-01
 0.51235746000000E+01 0.19008594890375E+00
 0.11646626000000E+01 0.85244113011042E+00
 s    1 1.00
 0.32723041000000E+00 0.10000000000000E+01
 s    1 1.00
 0.10307241000000E+00 0.10000000000000E+01
 p    1 1.00
 0.80000000000000E+00 0.10000000000000E+01
 p    1 1.00
 0.95774129632000E-01 0.10000000000000E+01
 
    8 0
 s    3 1.00
 0.34061341000000E+02 0.25439307208879E-01
 0.51235746000000E+01 0.19008594890375E+00
 0.11646626000000E+01 0.85244113011042E+00
 s    1 1.00
 0.32723041000000E+00 0.10000000000000E+01
 s    1 1.00
 0.10307241000000E+00 0.10000000000000E+01
 p    1 1.00
 0.80000000000000E+00 0.10000000000000E+01
 p    1 1.00
 0.95774129632000E-01 0.10000000000000E+01
 
    9 0
 s    3 1.00
 0.34061341000000E+02 0.25439307208879E-01
 0.51235746000000E+01 0.19008594890375E+00
 0.11646626000000E+01 0.85244113011042E+00
 s    1 1.00
 0.32723041000000E+00 0.10000000000000E+01
 s    1 1.00
 0.10307241000000E+00 0.10000000000000E+01
 p    1 1.00
 0.80000000000000E+00 0.10000000000000E+01
 p    1 1.00
 0.95774129632000E-01 0.10000000000000E+01
 
   10 0
 s    3 1.00
 0.34061341000000E+02 0.25439307208879E-01
 0.51235746000000E+01 0.19008594890375E+00
 0.11646626000000E+01 0.85244113011042E+00
 s    1 1.00
 0.32723041000000E+00 0.10000000000000E+01
 s    1 1.00
 0.10307241000000E+00 0.10000000000000E+01
 p    1 1.00
 0.80000000000000E+00 0.10000000000000E+01
 p    1 1.00
 0.95774129632000E-01 0.10000000000000E+01
 
   11 0
 s    6 1.00
 0.19730800647000E+05 0.58626402628763E-03
 0.29578958745000E+04 0.45428820586397E-02
 0.67322133595000E+03 0.23558413450084E-01
 0.19068249494000E+03 0.94709193292923E-01
 0.62295441898000E+02 0.29719784913376E+00
 0.22654161182000E+02 0.66916246895232E+00
 s    2 1.00
 0.89791477428000E+01 0.64596683630063E+00
 0.36863002370000E+01 0.38700574393705E+00
 s    1 1.00
 0.84660076805000E+00 0.10000000000000E+01
 s    1 1.00
 0.33647133771000E+00 0.10000000000000E+01
 s    1 1.00
 0.13647653675000E+00 0.10000000000000E+01
 s    1 1.00
 0.68441605847000E-01 0.10000000000000E+01
 p    4 1.00
 0.49200380510000E+02 0.11448825101764E-01
 0.11346790537000E+02 0.78422337970864E-01
 0.34273972411000E+01 0.30818094738830E+00
 0.11785525134000E+01 0.72027196368413E+00
 p    1 1.00
 0.41642204972000E+00 0.10000000000000E+01
 p    1 1.00
 0.14260826011000E+00 0.10000000000000E+01
 d    1 1.00
 0.16540000000000E+01 0.10000000000000E+01
 d    1 1.00
 0.46900000000000E+00 0.10000000000000E+01
 d    1 1.00
 0.12829642058000E+00 0.10000000000000E+01
 f    1 1.00
 0.10930000000000E+01 0.10000000000000E+01
 
   12 0
 s    6 1.00
 0.27032382631000E+05 0.57227335211155E-03
 0.40523871392000E+04 0.44353233492995E-02
 0.92232722710000E+03 0.23020107706038E-01
 0.26124070989000E+03 0.92822490667928E-01
 0.85354641351000E+02 0.29378500009671E+00
 0.31035035245000E+02 0.67401604501641E+00
 s    2 1.00
 0.12260860728000E+02 0.63839937025506E+00
 0.49987076005000E+01 0.39534587125718E+00
 s    1 1.00
 0.11703108158000E+01 0.10000000000000E+01
 s    1 1.00
 0.46474740994000E+00 0.10000000000000E+01
 s    1 1.00
 0.18504536357000E+00 0.10000000000000E+01
 s    1 1.00
 0.70288026270000E-01 0.10000000000000E+01
 p    4 1.00
 0.63274954801000E+02 0.12018332222616E-01
 0.14627049379000E+02 0.83005421790056E-01
 0.44501223456000E+01 0.31991743925964E+00
 0.15275799647000E+01 0.70715542916104E+00
 p    1 1.00
 0.52935117943000E+00 0.10000000000000E+01
 p    1 1.00
 0.17478421270000E+00 0.10000000000000E+01
 p    1 1.00
 0.51112745706000E-01 0.10000000000000E+01
 d    1 1.00
 0.23140000000000E+01 0.10000000000000E+01
 d    1 1.00
 0.64500000000000E+00 0.10000000000000E+01
 d    1 1.00
 0.14696477366000E+00 0.10000000000000E+01
 f    1 1.00
 0.14280000000000E+01 0.10000000000000E+01
 
   13 0
 s    6 1.00
 0.27032382631000E+05 0.57227335211155E-03
 0.40523871392000E+04 0.44353233492995E-02
 0.92232722710000E+03 0.23020107706038E-01
 0.26124070989000E+03 0.92822490667928E-01
 0.85354641351000E+02 0.29378500009671E+00
 0.31035035245000E+02 0.67401604501641E+00
 s    2 1.00
 0.12260860728000E+02 0.63839937025506E+00
 0.49987076005000E+01 0.39534587125718E+00
 s    1 1.00
 0.11703108158000E+01 0.10000000000000E+01
 s    1 1.00
 0.46474740994000E+00 0.10000000000000E+01
 s    1 1.00
 0.18504536357000E+00 0.10000000000000E+01
 s    1 1.00
 0.70288026270000E-01 0.10000000000000E+01
 p    4 1.00
 0.63274954801000E+02 0.12018332222616E-01
 0.14627049379000E+02 0.83005421790056E-01
 0.44501223456000E+01 0.31991743925964E+00
 0.15275799647000E+01 0.70715542916104E+00
 p    1 1.00
 0.52935117943000E+00 0.10000000000000E+01
 p    1 1.00
 0.17478421270000E+00 0.10000000000000E+01
 p    1 1.00
 0.51112745706000E-01 0.10000000000000E+01
 d    1 1.00
 0.23140000000000E+01 0.10000000000000E+01
 d    1 1.00
 0.64500000000000E+00 0.10000000000000E+01
 d    1 1.00
 0.14696477366000E+00 0.10000000000000E+01
 f    1 1.00
 0.14280000000000E+01 0.10000000000000E+01
 
   14 0
 s    6 1.00
 0.19730800647000E+05 0.58626402628763E-03
 0.29578958745000E+04 0.45428820586397E-02
 0.67322133595000E+03 0.23558413450084E-01
 0.19068249494000E+03 0.94709193292923E-01
 0.62295441898000E+02 0.29719784913376E+00
 0.22654161182000E+02 0.66916246895232E+00
 s    2 1.00
 0.89791477428000E+01 0.64596683630063E+00
 0.36863002370000E+01 0.38700574393705E+00
 s    1 1.00
 0.84660076805000E+00 0.10000000000000E+01
 s    1 1.00
 0.33647133771000E+00 0.10000000000000E+01
 s    1 1.00
 0.13647653675000E+00 0.10000000000000E+01
 s    1 1.00
 0.68441605847000E-01 0.10000000000000E+01
 p    4 1.00
 0.49200380510000E+02 0.11448825101764E-01
 0.11346790537000E+02 0.78422337970864E-01
 0.34273972411000E+01 0.30818094738830E+00
 0.11785525134000E+01 0.72027196368413E+00
 p    1 1.00
 0.41642204972000E+00 0.10000000000000E+01
 p    1 1.00
 0.14260826011000E+00 0.10000000000000E+01
 d    1 1.00
 0.16540000000000E+01 0.10000000000000E+01
 d    1 1.00
 0.46900000000000E+00 0.10000000000000E+01
 d    1 1.00
 0.12829642058000E+00 0.10000000000000E+01
 f    1 1.00
 0.10930000000000E+01 0.10000000000000E+01
 
   15 0
 s    3 1.00
 0.34061341000000E+02 0.25439307208879E-01
 0.51235746000000E+01 0.19008594890375E+00
 0.11646626000000E+01 0.85244113011042E+00
 s    1 1.00
 0.32723041000000E+00 0.10000000000000E+01
 s    1 1.00
 0.10307241000000E+00 0.10000000000000E+01
 p    1 1.00
 0.80000000000000E+00 0.10000000000000E+01
 p    1 1.00
 0.95774129632000E-01 0.10000000000000E+01
 
   16 0
 s    3 1.00
 0.34061341000000E+02 0.25439307208879E-01
 0.51235746000000E+01 0.19008594890375E+00
 0.11646626000000E+01 0.85244113011042E+00
 s    1 1.00
 0.32723041000000E+00 0.10000000000000E+01
 s    1 1.00
 0.10307241000000E+00 0.10000000000000E+01
 p    1 1.00
 0.80000000000000E+00 0.10000000000000E+01
 p    1 1.00
 0.95774129632000E-01 0.10000000000000E+01
 
[MO]
 Sym= X
 Ene= -0.188346
 Spin= Alpha
 Occup= -0.188346
         1   -2.630819E-04
         2   -6.090499E-04
         3    1.636362E-03
         4   -3.336749E-03
         5    8.601711E-04
         6   -1.465889E-02
         7    2.660054E-03
         8    3.357754E-04
         9    1.506623E-02
        10   -2.812089E-03
        11    6.548586E-04
        12    1.338582E-02
        13   -4.246276E-02
        14    1.370940E-02
        15    2.700481E-03
        16    2.217702E-05
        17   -3.319226E-05
        18    1.101525E-05
        19   -2.401622E-05
        20   -6.015187E-03
        21    3.361264E-03
        22   -8.235346E-04
        23    4.959451E-04
        24    3.275895E-04
        25   -9.494225E-04
        26   -1.358814E-02
        27    6.425053E-03
        28   -5.602909E-03
        29    5.251064E-03
        30    3.518458E-04
        31    1.710251E-03
        32    2.987281E-03
        33   -1.108733E-02
        34   -2.371201E-05
        35    9.718102E-06
        36   -1.377379E-05
        37    9.603570E-06
        38   -9.232790E-06
        39   -7.329236E-04
        40    2.220943E-05
        41   -3.805411E-06
        42    7.514031E-04
        43   -6.252155E-04
        44    5.332040E-05
        45    1.171380E-04
        46    1.505461E-04
        47   -4.086780E-03
        48   -6.292061E-02
        49    7.769866E-03
        50    3.305128E-04
        51    1.651163E-06
        52    1.781369E-01
        53   -7.600972E-04
        54    1.364367E-05
        55    1.852455E-01
        56   -1.980092E-02
        57   -5.587854E-04
        58    1.903091E-01
        59    6.716548E-05
        60   -6.423827E-05
        61   -2.927208E-06
        62    1.180375E-07
        63   -7.353021E-04
        64   -2.340446E-07
        65    5.293114E-04
        66   -8.614634E-04
        67    3.321521E-04
        68    2.923197E-06
        69   -3.197645E-03
        70   -6.180810E-07
        71    1.329918E-02
        72   -1.481914E-02
        73    1.519957E-03
        74   -8.682732E-05
        75    3.919615E-03
        76   -1.155508E-05
        77    8.926433E-06
        78    9.771209E-09
        79   -9.498533E-04
        80   -1.005625E-05
        81    4.353965E-08
        82    5.580530E-04
        83   -1.919814E-06
        84   -5.664910E-08
        85    7.163090E-04
        86   -3.262357E-11
        87   -2.619494E-04
        88   -6.064937E-04
        89    1.632890E-03
        90   -3.349516E-03
        91    2.738522E-03
        92   -1.466484E-02
        93    2.661325E-03
        94   -3.407635E-04
        95    1.505983E-02
        96   -2.779383E-03
        97   -6.544974E-04
        98    1.337997E-02
        99   -4.244786E-02
       100   -1.424412E-02
       101    2.714919E-03
       102    2.213043E-05
       103   -3.319809E-05
       104    1.106766E-05
       105    2.434867E-05
       106   -6.015533E-03
       107   -3.361300E-03
       108   -8.167133E-04
       109    4.889925E-04
       110    3.277208E-04
       111    9.476083E-04
       112   -1.358741E-02
       113   -6.424755E-03
       114   -5.664481E-03
       115    5.326596E-03
       116    3.378852E-04
       117   -1.625266E-03
       118    2.976732E-03
       119    1.108612E-02
       120   -2.375107E-05
       121   -9.687207E-06
       122   -1.367866E-05
       123    9.754098E-06
       124    9.153084E-06
       125   -7.330438E-04
       126    2.211131E-05
       127    3.843668E-06
       128    7.513957E-04
       129    6.251544E-04
       130    1.596872E-04
       131    3.458517E-04
       132    7.201743E-04
       133   -1.348892E-02
       134    2.512676E-02
       135    1.679582E-02
       136   -2.247350E-03
       137    1.041637E-03
       138   -1.525578E-01
       139   -1.227288E-02
       140    8.172287E-03
       141   -1.553365E-01
       142   -2.537127E-02
       143   -9.715525E-03
       144   -9.258650E-02
       145    2.136753E-04
       146   -2.537755E-04
       147    4.010016E-05
       148    5.248634E-07
       149   -5.767729E-04
       150    2.870058E-03
       151    8.364295E-04
       152   -1.004584E-03
       153    1.681547E-04
       154    2.194050E-03
       155   -3.726198E-03
       156    4.711685E-03
       157    1.034752E-02
       158   -8.071683E-03
       159   -2.275836E-03
       160   -1.225050E-02
       161    4.137886E-03
       162   -1.368354E-02
       163   -2.070994E-05
       164    1.465109E-05
       165    8.608172E-04
       166   -2.534034E-05
       167    1.997239E-05
       168   -2.348626E-04
       169    5.312564E-05
       170   -3.962889E-05
       171   -9.200449E-04
       172    3.005332E-04
       173   -1.483419E-03
       174   -3.374627E-03
       175    3.469742E-03
       176    2.812755E-02
       177   -3.392185E-02
       178    1.042644E-02
       179    1.248588E-02
       180   -1.369269E-06
       181   -1.031154E-01
       182    1.114457E-03
       183   -1.575784E-05
       184   -1.064784E-01
       185   -4.125572E-02
       186    6.399281E-04
       187   -1.371654E-01
       188    6.671649E-04
       189   -3.835186E-04
       190   -2.836463E-04
       191    2.405489E-07
       192    1.042908E-02
       193   -2.092886E-07
       194   -2.348617E-03
       195    5.243592E-03
       196   -2.894975E-03
       197    4.136394E-06
       198    2.540710E-02
       199   -7.976495E-07
       200   -8.452111E-03
       201    9.875539E-03
       202   -1.423428E-03
       203   -1.377637E-04
       204    1.797076E-02
       205    5.518900E-06
       206    1.567393E-04
       207   -1.047849E-08
       208    2.100853E-04
       209   -1.095613E-04
       210   -6.349409E-08
       211    1.197204E-03
       212   -1.007265E-04
       213    7.755247E-08
       214   -1.479063E-03
       215    5.025031E-08
       216    1.596663E-04
       217    3.456966E-04
       218    7.222663E-04
       219   -1.351039E-02
       220    2.711224E-02
       221    1.675709E-02
       222   -2.248851E-03
       223   -1.035485E-03
       224   -1.525464E-01
       225   -1.229460E-02
       226   -8.182085E-03
       227   -1.553254E-01
       228   -2.544253E-02
       229    1.040851E-02
       230   -9.255798E-02
       231    2.136885E-04
       232   -2.541784E-04
       233    4.048998E-05
       234   -1.112877E-07
       235   -5.770372E-04
       236   -2.870064E-03
       237    8.421608E-04
       238   -1.010883E-03
       239    1.687224E-04
       240   -2.197661E-03
       241   -3.725098E-03
       242   -4.711150E-03
       243    1.030064E-02
       244   -8.027381E-03
       245   -2.273260E-03
       246    1.231635E-02
       247    4.147940E-03
       248    1.369169E-02
       249   -2.078000E-05
       250   -1.473273E-05
       251    8.608025E-04
       252   -2.547572E-05
       253   -1.987436E-05
       254   -2.348618E-04
       255    5.335501E-05
       256    3.964039E-05
       257   -9.200259E-04
       258   -3.004632E-04
       259   -6.214051E-04
       260   -4.946038E-04
       261   -2.236973E-02
       262   -1.784991E-05
       263   -1.960221E-05
       264    6.298315E-04
       265   -6.696610E-03
       266   -6.457217E-04
       267   -6.568613E-03
       268   -6.258202E-04
       269   -4.908978E-04
       270   -2.232294E-02
       271   -1.731643E-05
       272    1.888193E-05
       273    6.294643E-04
       274   -6.779099E-03
       275    6.170648E-04
       276   -6.575118E-03
       277   -6.386278E-04
       278   -3.218772E-03
       279    4.497900E-02
       280   -2.199923E-05
       281    1.458005E-04
       282   -6.150315E-03
       283   -2.377587E-03
       284   -3.575554E-03
       285    2.563212E-03
       286   -6.429371E-04
       287   -3.217342E-03
       288    4.522785E-02
       289   -2.158478E-05
       290   -1.453386E-04
       291   -6.150158E-03
       292   -2.373864E-03
       293    3.610010E-03
       294    2.564309E-03
       295   -7.037108E-05
       296   -1.640778E-04
       297    1.653859E-04
       298    5.636129E-04
       299   -9.613199E-03
       300    1.164559E-04
       301    6.831035E-04
       302   -8.516773E-09
       303    1.319652E-02
       304    2.681207E-04
       305    1.640876E-07
       306    1.577372E-02
       307   -4.044825E-03
       308    2.546566E-05
       309    4.533080E-03
       310    1.901819E-05
       311   -6.450091E-06
       312   -1.256810E-05
       313   -5.261461E-08
       314    3.940564E-03
       315   -2.309502E-06
       316   -1.601693E-05
       317    8.253649E-05
       318   -6.651957E-05
       319   -5.147465E-07
       320    1.180230E-02
       321   -6.791912E-06
       322   -1.039777E-03
       323    3.573123E-03
       324   -2.533346E-03
       325    1.981640E-05
       326    2.311143E-03
       327    2.810145E-06
       328    8.116675E-06
       329   -2.714286E-09
       330    2.949170E-05
       331   -5.818903E-06
       332    2.896586E-08
       333    6.135247E-04
       334   -5.070759E-06
       335   -2.532427E-08
       336   -6.530919E-04
       337    3.973996E-07
       338   -2.426634E-05
       339   -5.454299E-05
       340    2.270325E-05
       341    7.131340E-04
       342   -7.689378E-03
       343   -1.322657E-03
       344   -1.650845E-04
       345    2.183536E-04
       346   -7.172149E-02
       347   -3.001639E-04
       348    3.745225E-04
       349   -6.647574E-02
       350   -1.647378E-03
       351    7.642611E-04
       352   -5.313258E-02
       353   -2.605363E-04
       354    2.621855E-04
       355   -6.404692E-03
       356    5.360857E-06
       357   -7.061339E-06
       358    1.700482E-06
       359   -2.500189E-07
       360   -2.026950E-05
       361    4.749758E-04
       362   -1.233990E-05
       363   -1.746418E-05
       364    2.980408E-05
       365    1.064584E-05
       366   -5.541797E-04
       367    1.544918E-03
       368   -8.614462E-05
       369    3.929669E-05
       370    4.684793E-05
       371    6.208877E-05
       372   -2.225164E-04
       373    3.210681E-04
       374    8.601120E-07
       375    2.725435E-06
       376    6.655833E-05
       377   -1.651803E-06
       378   -1.280012E-06
       379    7.699531E-05
       380    4.978421E-07
       381   -2.376543E-06
       382   -1.662927E-04
       383    1.327374E-04
       384   -2.395643E-05
       385   -5.381628E-05
       386    2.200919E-05
       387    7.088561E-04
       388   -7.686096E-03
       389   -1.299101E-03
       390   -1.588528E-04
       391   -2.197829E-04
       392   -7.159583E-02
       393   -2.941558E-04
       394   -3.758117E-04
       395   -6.636083E-02
       396   -1.623935E-03
       397   -7.601790E-04
       398   -5.304269E-02
       399   -2.489616E-04
       400   -2.654160E-04
       401   -6.393736E-03
       402    5.385734E-06
       403   -7.072823E-06
       404    1.687089E-06
       405    2.246539E-07
       406   -1.960987E-05
       407   -4.739395E-04
       408   -1.207574E-05
       409   -1.751531E-05
       410    2.959105E-05
       411   -1.030854E-05
       412   -5.519199E-04
       413   -1.541411E-03
       414   -8.679023E-05
       415    4.144906E-05
       416    4.534117E-05
       417   -6.159231E-05
       418   -2.205247E-04
       419   -3.175608E-04
       420    8.603107E-07
       421   -2.725566E-06
       422    6.637017E-05
       423   -1.641850E-06
       424    1.292535E-06
       425    7.696307E-05
       426    4.876217E-07
       427    2.364196E-06
       428   -1.660080E-04
       429   -1.323987E-04
       430    6.503450E-03
       431    1.541968E-02
       432   -2.390307E-02
       433   -3.784521E-02
       434   -2.309657E-02
       435   -8.351005E-02
       436   -2.342839E-02
       437    1.084873E-05
       438    2.802254E-01
       439   -2.654170E-02
       440    1.491373E-06
       441    2.760238E-01
       442   -2.702008E-02
       443   -1.061790E-04
       444    2.228412E-01
       445   -1.424467E-04
       446   -5.375729E-05
       447    1.962040E-04
       448    2.789536E-07
       449    6.203471E-04
       450    1.939139E-07
       451   -2.985588E-04
       452   -2.118682E-03
       453    2.417241E-03
       454   -3.859878E-06
       455    3.220719E-03
       456    6.190953E-07
       457   -2.166799E-03
       458   -4.671332E-03
       459    6.838131E-03
       460   -6.693948E-06
       461    2.252764E-03
       462    1.442819E-06
       463   -1.765891E-04
       464    4.562928E-08
       465   -1.125065E-03
       466   -1.205763E-04
       467    1.179478E-08
       468    6.386412E-04
       469    3.574955E-04
       470   -7.301288E-08
       471    8.707917E-04
       472   -3.706686E-08
       473    1.176405E-02
       474    2.294613E-02
       475    4.029795E-02
       476   -2.950382E-03
       477   -2.434830E-03
       478    1.397805E-02
       479    8.532249E-04
       480   -4.594711E-03
       481    1.528130E-02
       482    1.175695E-02
       483    2.286678E-02
       484    4.002501E-02
       485   -2.945543E-03
       486    2.427531E-03
       487    1.398196E-02
       488    8.914831E-04
       489    4.549756E-03
       490    1.529291E-02
 Sym= X
 Ene= -0.676212
 Spin= Alpha
 Occup= -0.676212
         1    2.882467E-05
         2    6.581433E-05
         3   -1.690878E-04
         4    2.762477E-04
         5    9.487539E-03
         6    5.116592E-04
         7    8.291990E-05
         8    1.897031E-04
         9    1.560413E-01
        10    6.872983E-04
        11    1.244523E-05
        12    1.565856E-01
        13   -4.436936E-03
        14    6.315061E-03
        15    8.647123E-02
        16    7.062560E-06
        17   -2.348309E-06
        18   -4.714251E-06
        19   -1.838143E-06
        20    4.232700E-03
        21    4.343018E-04
        22    1.335512E-04
        23   -8.688513E-05
        24   -4.666607E-05
        25   -1.320631E-05
        26    8.756012E-03
        27   -5.170669E-04
        28   -1.043036E-03
        29    1.179813E-03
        30   -1.367767E-04
        31   -5.508870E-04
        32    4.371447E-03
        33   -1.698128E-03
        34    4.649542E-06
        35    6.397976E-07
        36   -9.360456E-04
        37   -1.168292E-06
        38    1.511532E-07
        39    1.140754E-03
        40   -5.069724E-06
        41   -1.009532E-06
        42    1.150825E-04
        43    3.025552E-05
        44   -2.265886E-07
        45   -6.086468E-07
        46    6.748196E-06
        47   -2.275046E-05
        48   -2.143948E-03
        49   -1.361447E-04
        50   -4.493199E-07
        51   -1.349242E-04
        52    1.769465E-05
        53   -1.689103E-05
        54   -3.329412E-04
        55    1.424705E-05
        56   -9.803615E-04
        57    1.020565E-02
        58    1.096142E-05
        59    1.574777E-07
        60   -2.531016E-07
        61    9.562383E-08
        62   -9.247281E-06