[Molden Format]
[Title]
ADC(2) - opt by CAM-B3LYP gaussian                                              
[Atoms] AU
 c     1    6 -.12590385386216E+01 -.22819701624009E+01 -.30156123253150E-01
 c     2    6 -.25547233845863E+01 -.83266058000000E-06 -.28792213416740E-01
 c     3    6 -.12590428849917E+01 0.22819669475044E+01 -.30169993842970E-01
 c     4    6 0.13339759331395E+01 0.22828246941961E+01 -.32722654800530E-01
 c     5    6 0.26864234278208E+01 0.32869423900000E-05 -.32794180934660E-01
 c     6    6 0.13339778039684E+01 -.22828226745513E+01 -.32706516539360E-01
 h     7    1 -.23005849451053E+01 -.40353719055945E+01 -.27139024303910E-01
 h     8    1 -.23005903875166E+01 0.40353685773143E+01 -.27164403325880E-01
 h     9    1 0.23527432406667E+01 0.40554759247724E+01 -.35914685697900E-01
 h    10    1 0.23527525948111E+01 -.40554698422164E+01 -.35883032785170E-01
 n    11    7 -.52784595104117E+01 -.53030440000000E-06 -.22539903328000E-01
 o    12    8 -.63796877956448E+01 0.20272212823250E+01 -.19883023974210E-01
 o    13    8 -.63796922742957E+01 -.20272201130570E+01 -.19923067270970E-01
 n    14    7 0.52516126460355E+01 -.32243452000000E-06 -.88209511610250E-01
 h    15    1 0.62001707317805E+01 0.16133662892433E+01 0.23199721167530E+00
 h    16    1 0.62001633429513E+01 -.16133706190784E+01 0.23200112340840E+00
[GTO]
    1 0
 s    6 1.00
 0.13575349682000E+05 0.60645503603591E-03
 0.20352333680000E+04 0.46979088884982E-02
 0.46322562359000E+03 0.24332477647552E-01
 0.13120019598000E+03 0.97399968307759E-01
 0.42853015891000E+02 0.30195584253780E+00
 0.15584185766000E+02 0.66233609137875E+00
 s    2 1.00
 0.62067138508000E+01 0.65595308539952E+00
 0.25764896527000E+01 0.37585633285142E+00
 s    1 1.00
 0.57696339419000E+00 0.10000000000000E+01
 s    1 1.00
 0.22972831358000E+00 0.10000000000000E+01
 s    1 1.00
 0.95164440028000E-01 0.10000000000000E+01
 s    1 1.00
 0.48475401370000E-01 0.10000000000000E+01
 p    4 1.00
 0.34697232244000E+02 0.11327220003114E-01
 0.79582622826000E+01 0.76169659202087E-01
 0.23780826883000E+01 0.30192252202676E+00
 0.81433208183000E+00 0.72785027349547E+00
 p    1 1.00
 0.28887547253000E+00 0.10000000000000E+01
 p    1 1.00
 0.10056823671000E+00 0.10000000000000E+01
 d    1 1.00
 0.10970000000000E+01 0.10000000000000E+01
 d    1 1.00
 0.31800000000000E+00 0.10000000000000E+01
 d    1 1.00
 0.90985336424000E-01 0.10000000000000E+01
 f    1 1.00
 0.76100000000000E+00 0.10000000000000E+01
 
    2 0
 s    6 1.00
 0.13575349682000E+05 0.60645503603591E-03
 0.20352333680000E+04 0.46979088884982E-02
 0.46322562359000E+03 0.24332477647552E-01
 0.13120019598000E+03 0.97399968307759E-01
 0.42853015891000E+02 0.30195584253780E+00
 0.15584185766000E+02 0.66233609137875E+00
 s    2 1.00
 0.62067138508000E+01 0.65595308539952E+00
 0.25764896527000E+01 0.37585633285142E+00
 s    1 1.00
 0.57696339419000E+00 0.10000000000000E+01
 s    1 1.00
 0.22972831358000E+00 0.10000000000000E+01
 s    1 1.00
 0.95164440028000E-01 0.10000000000000E+01
 s    1 1.00
 0.48475401370000E-01 0.10000000000000E+01
 p    4 1.00
 0.34697232244000E+02 0.11327220003114E-01
 0.79582622826000E+01 0.76169659202087E-01
 0.23780826883000E+01 0.30192252202676E+00
 0.81433208183000E+00 0.72785027349547E+00
 p    1 1.00
 0.28887547253000E+00 0.10000000000000E+01
 p    1 1.00
 0.10056823671000E+00 0.10000000000000E+01
 d    1 1.00
 0.10970000000000E+01 0.10000000000000E+01
 d    1 1.00
 0.31800000000000E+00 0.10000000000000E+01
 d    1 1.00
 0.90985336424000E-01 0.10000000000000E+01
 f    1 1.00
 0.76100000000000E+00 0.10000000000000E+01
 
    3 0
 s    6 1.00
 0.13575349682000E+05 0.60645503603591E-03
 0.20352333680000E+04 0.46979088884982E-02
 0.46322562359000E+03 0.24332477647552E-01
 0.13120019598000E+03 0.97399968307759E-01
 0.42853015891000E+02 0.30195584253780E+00
 0.15584185766000E+02 0.66233609137875E+00
 s    2 1.00
 0.62067138508000E+01 0.65595308539952E+00
 0.25764896527000E+01 0.37585633285142E+00
 s    1 1.00
 0.57696339419000E+00 0.10000000000000E+01
 s    1 1.00
 0.22972831358000E+00 0.10000000000000E+01
 s    1 1.00
 0.95164440028000E-01 0.10000000000000E+01
 s    1 1.00
 0.48475401370000E-01 0.10000000000000E+01
 p    4 1.00
 0.34697232244000E+02 0.11327220003114E-01
 0.79582622826000E+01 0.76169659202087E-01
 0.23780826883000E+01 0.30192252202676E+00
 0.81433208183000E+00 0.72785027349547E+00
 p    1 1.00
 0.28887547253000E+00 0.10000000000000E+01
 p    1 1.00
 0.10056823671000E+00 0.10000000000000E+01
 d    1 1.00
 0.10970000000000E+01 0.10000000000000E+01
 d    1 1.00
 0.31800000000000E+00 0.10000000000000E+01
 d    1 1.00
 0.90985336424000E-01 0.10000000000000E+01
 f    1 1.00
 0.76100000000000E+00 0.10000000000000E+01
 
    4 0
 s    6 1.00
 0.13575349682000E+05 0.60645503603591E-03
 0.20352333680000E+04 0.46979088884982E-02
 0.46322562359000E+03 0.24332477647552E-01
 0.13120019598000E+03 0.97399968307759E-01
 0.42853015891000E+02 0.30195584253780E+00
 0.15584185766000E+02 0.66233609137875E+00
 s    2 1.00
 0.62067138508000E+01 0.65595308539952E+00
 0.25764896527000E+01 0.37585633285142E+00
 s    1 1.00
 0.57696339419000E+00 0.10000000000000E+01
 s    1 1.00
 0.22972831358000E+00 0.10000000000000E+01
 s    1 1.00
 0.95164440028000E-01 0.10000000000000E+01
 s    1 1.00
 0.48475401370000E-01 0.10000000000000E+01
 p    4 1.00
 0.34697232244000E+02 0.11327220003114E-01
 0.79582622826000E+01 0.76169659202087E-01
 0.23780826883000E+01 0.30192252202676E+00
 0.81433208183000E+00 0.72785027349547E+00
 p    1 1.00
 0.28887547253000E+00 0.10000000000000E+01
 p    1 1.00
 0.10056823671000E+00 0.10000000000000E+01
 d    1 1.00
 0.10970000000000E+01 0.10000000000000E+01
 d    1 1.00
 0.31800000000000E+00 0.10000000000000E+01
 d    1 1.00
 0.90985336424000E-01 0.10000000000000E+01
 f    1 1.00
 0.76100000000000E+00 0.10000000000000E+01
 
    5 0
 s    6 1.00
 0.13575349682000E+05 0.60645503603591E-03
 0.20352333680000E+04 0.46979088884982E-02
 0.46322562359000E+03 0.24332477647552E-01
 0.13120019598000E+03 0.97399968307759E-01
 0.42853015891000E+02 0.30195584253780E+00
 0.15584185766000E+02 0.66233609137875E+00
 s    2 1.00
 0.62067138508000E+01 0.65595308539952E+00
 0.25764896527000E+01 0.37585633285142E+00
 s    1 1.00
 0.57696339419000E+00 0.10000000000000E+01
 s    1 1.00
 0.22972831358000E+00 0.10000000000000E+01
 s    1 1.00
 0.95164440028000E-01 0.10000000000000E+01
 s    1 1.00
 0.48475401370000E-01 0.10000000000000E+01
 p    4 1.00
 0.34697232244000E+02 0.11327220003114E-01
 0.79582622826000E+01 0.76169659202087E-01
 0.23780826883000E+01 0.30192252202676E+00
 0.81433208183000E+00 0.72785027349547E+00
 p    1 1.00
 0.28887547253000E+00 0.10000000000000E+01
 p    1 1.00
 0.10056823671000E+00 0.10000000000000E+01
 d    1 1.00
 0.10970000000000E+01 0.10000000000000E+01
 d    1 1.00
 0.31800000000000E+00 0.10000000000000E+01
 d    1 1.00
 0.90985336424000E-01 0.10000000000000E+01
 f    1 1.00
 0.76100000000000E+00 0.10000000000000E+01
 
    6 0
 s    6 1.00
 0.13575349682000E+05 0.60645503603591E-03
 0.20352333680000E+04 0.46979088884982E-02
 0.46322562359000E+03 0.24332477647552E-01
 0.13120019598000E+03 0.97399968307759E-01
 0.42853015891000E+02 0.30195584253780E+00
 0.15584185766000E+02 0.66233609137875E+00
 s    2 1.00
 0.62067138508000E+01 0.65595308539952E+00
 0.25764896527000E+01 0.37585633285142E+00
 s    1 1.00
 0.57696339419000E+00 0.10000000000000E+01
 s    1 1.00
 0.22972831358000E+00 0.10000000000000E+01
 s    1 1.00
 0.95164440028000E-01 0.10000000000000E+01
 s    1 1.00
 0.48475401370000E-01 0.10000000000000E+01
 p    4 1.00
 0.34697232244000E+02 0.11327220003114E-01
 0.79582622826000E+01 0.76169659202087E-01
 0.23780826883000E+01 0.30192252202676E+00
 0.81433208183000E+00 0.72785027349547E+00
 p    1 1.00
 0.28887547253000E+00 0.10000000000000E+01
 p    1 1.00
 0.10056823671000E+00 0.10000000000000E+01
 d    1 1.00
 0.10970000000000E+01 0.10000000000000E+01
 d    1 1.00
 0.31800000000000E+00 0.10000000000000E+01
 d    1 1.00
 0.90985336424000E-01 0.10000000000000E+01
 f    1 1.00
 0.76100000000000E+00 0.10000000000000E+01
 
    7 0
 s    3 1.00
 0.34061341000000E+02 0.25439307208879E-01
 0.51235746000000E+01 0.19008594890375E+00
 0.11646626000000E+01 0.85244113011042E+00
 s    1 1.00
 0.32723041000000E+00 0.10000000000000E+01
 s    1 1.00
 0.10307241000000E+00 0.10000000000000E+01
 p    1 1.00
 0.80000000000000E+00 0.10000000000000E+01
 p    1 1.00
 0.95774129632000E-01 0.10000000000000E+01
 
    8 0
 s    3 1.00
 0.34061341000000E+02 0.25439307208879E-01
 0.51235746000000E+01 0.19008594890375E+00
 0.11646626000000E+01 0.85244113011042E+00
 s    1 1.00
 0.32723041000000E+00 0.10000000000000E+01
 s    1 1.00
 0.10307241000000E+00 0.10000000000000E+01
 p    1 1.00
 0.80000000000000E+00 0.10000000000000E+01
 p    1 1.00
 0.95774129632000E-01 0.10000000000000E+01
 
    9 0
 s    3 1.00
 0.34061341000000E+02 0.25439307208879E-01
 0.51235746000000E+01 0.19008594890375E+00
 0.11646626000000E+01 0.85244113011042E+00
 s    1 1.00
 0.32723041000000E+00 0.10000000000000E+01
 s    1 1.00
 0.10307241000000E+00 0.10000000000000E+01
 p    1 1.00
 0.80000000000000E+00 0.10000000000000E+01
 p    1 1.00
 0.95774129632000E-01 0.10000000000000E+01
 
   10 0
 s    3 1.00
 0.34061341000000E+02 0.25439307208879E-01
 0.51235746000000E+01 0.19008594890375E+00
 0.11646626000000E+01 0.85244113011042E+00
 s    1 1.00
 0.32723041000000E+00 0.10000000000000E+01
 s    1 1.00
 0.10307241000000E+00 0.10000000000000E+01
 p    1 1.00
 0.80000000000000E+00 0.10000000000000E+01
 p    1 1.00
 0.95774129632000E-01 0.10000000000000E+01
 
   11 0
 s    6 1.00
 0.19730800647000E+05 0.58626402628763E-03
 0.29578958745000E+04 0.45428820586397E-02
 0.67322133595000E+03 0.23558413450084E-01
 0.19068249494000E+03 0.94709193292923E-01
 0.62295441898000E+02 0.29719784913376E+00
 0.22654161182000E+02 0.66916246895232E+00
 s    2 1.00
 0.89791477428000E+01 0.64596683630063E+00
 0.36863002370000E+01 0.38700574393705E+00
 s    1 1.00
 0.84660076805000E+00 0.10000000000000E+01
 s    1 1.00
 0.33647133771000E+00 0.10000000000000E+01
 s    1 1.00
 0.13647653675000E+00 0.10000000000000E+01
 s    1 1.00
 0.68441605847000E-01 0.10000000000000E+01
 p    4 1.00
 0.49200380510000E+02 0.11448825101764E-01
 0.11346790537000E+02 0.78422337970864E-01
 0.34273972411000E+01 0.30818094738830E+00
 0.11785525134000E+01 0.72027196368413E+00
 p    1 1.00
 0.41642204972000E+00 0.10000000000000E+01
 p    1 1.00
 0.14260826011000E+00 0.10000000000000E+01
 d    1 1.00
 0.16540000000000E+01 0.10000000000000E+01
 d    1 1.00
 0.46900000000000E+00 0.10000000000000E+01
 d    1 1.00
 0.12829642058000E+00 0.10000000000000E+01
 f    1 1.00
 0.10930000000000E+01 0.10000000000000E+01
 
   12 0
 s    6 1.00
 0.27032382631000E+05 0.57227335211155E-03
 0.40523871392000E+04 0.44353233492995E-02
 0.92232722710000E+03 0.23020107706038E-01
 0.26124070989000E+03 0.92822490667928E-01
 0.85354641351000E+02 0.29378500009671E+00
 0.31035035245000E+02 0.67401604501641E+00
 s    2 1.00
 0.12260860728000E+02 0.63839937025506E+00
 0.49987076005000E+01 0.39534587125718E+00
 s    1 1.00
 0.11703108158000E+01 0.10000000000000E+01
 s    1 1.00
 0.46474740994000E+00 0.10000000000000E+01
 s    1 1.00
 0.18504536357000E+00 0.10000000000000E+01
 s    1 1.00
 0.70288026270000E-01 0.10000000000000E+01
 p    4 1.00
 0.63274954801000E+02 0.12018332222616E-01
 0.14627049379000E+02 0.83005421790056E-01
 0.44501223456000E+01 0.31991743925964E+00
 0.15275799647000E+01 0.70715542916104E+00
 p    1 1.00
 0.52935117943000E+00 0.10000000000000E+01
 p    1 1.00
 0.17478421270000E+00 0.10000000000000E+01
 p    1 1.00
 0.51112745706000E-01 0.10000000000000E+01
 d    1 1.00
 0.23140000000000E+01 0.10000000000000E+01
 d    1 1.00
 0.64500000000000E+00 0.10000000000000E+01
 d    1 1.00
 0.14696477366000E+00 0.10000000000000E+01
 f    1 1.00
 0.14280000000000E+01 0.10000000000000E+01
 
   13 0
 s    6 1.00
 0.27032382631000E+05 0.57227335211155E-03
 0.40523871392000E+04 0.44353233492995E-02
 0.92232722710000E+03 0.23020107706038E-01
 0.26124070989000E+03 0.92822490667928E-01
 0.85354641351000E+02 0.29378500009671E+00
 0.31035035245000E+02 0.67401604501641E+00
 s    2 1.00
 0.12260860728000E+02 0.63839937025506E+00
 0.49987076005000E+01 0.39534587125718E+00
 s    1 1.00
 0.11703108158000E+01 0.10000000000000E+01
 s    1 1.00
 0.46474740994000E+00 0.10000000000000E+01
 s    1 1.00
 0.18504536357000E+00 0.10000000000000E+01
 s    1 1.00
 0.70288026270000E-01 0.10000000000000E+01
 p    4 1.00
 0.63274954801000E+02 0.12018332222616E-01
 0.14627049379000E+02 0.83005421790056E-01
 0.44501223456000E+01 0.31991743925964E+00
 0.15275799647000E+01 0.70715542916104E+00
 p    1 1.00
 0.52935117943000E+00 0.10000000000000E+01
 p    1 1.00
 0.17478421270000E+00 0.10000000000000E+01
 p    1 1.00
 0.51112745706000E-01 0.10000000000000E+01
 d    1 1.00
 0.23140000000000E+01 0.10000000000000E+01
 d    1 1.00
 0.64500000000000E+00 0.10000000000000E+01
 d    1 1.00
 0.14696477366000E+00 0.10000000000000E+01
 f    1 1.00
 0.14280000000000E+01 0.10000000000000E+01
 
   14 0
 s    6 1.00
 0.19730800647000E+05 0.58626402628763E-03
 0.29578958745000E+04 0.45428820586397E-02
 0.67322133595000E+03 0.23558413450084E-01
 0.19068249494000E+03 0.94709193292923E-01
 0.62295441898000E+02 0.29719784913376E+00
 0.22654161182000E+02 0.66916246895232E+00
 s    2 1.00
 0.89791477428000E+01 0.64596683630063E+00
 0.36863002370000E+01 0.38700574393705E+00
 s    1 1.00
 0.84660076805000E+00 0.10000000000000E+01
 s    1 1.00
 0.33647133771000E+00 0.10000000000000E+01
 s    1 1.00
 0.13647653675000E+00 0.10000000000000E+01
 s    1 1.00
 0.68441605847000E-01 0.10000000000000E+01
 p    4 1.00
 0.49200380510000E+02 0.11448825101764E-01
 0.11346790537000E+02 0.78422337970864E-01
 0.34273972411000E+01 0.30818094738830E+00
 0.11785525134000E+01 0.72027196368413E+00
 p    1 1.00
 0.41642204972000E+00 0.10000000000000E+01
 p    1 1.00
 0.14260826011000E+00 0.10000000000000E+01
 d    1 1.00
 0.16540000000000E+01 0.10000000000000E+01
 d    1 1.00
 0.46900000000000E+00 0.10000000000000E+01
 d    1 1.00
 0.12829642058000E+00 0.10000000000000E+01
 f    1 1.00
 0.10930000000000E+01 0.10000000000000E+01
 
   15 0
 s    3 1.00
 0.34061341000000E+02 0.25439307208879E-01
 0.51235746000000E+01 0.19008594890375E+00
 0.11646626000000E+01 0.85244113011042E+00
 s    1 1.00
 0.32723041000000E+00 0.10000000000000E+01
 s    1 1.00
 0.10307241000000E+00 0.10000000000000E+01
 p    1 1.00
 0.80000000000000E+00 0.10000000000000E+01
 p    1 1.00
 0.95774129632000E-01 0.10000000000000E+01
 
   16 0
 s    3 1.00
 0.34061341000000E+02 0.25439307208879E-01
 0.51235746000000E+01 0.19008594890375E+00
 0.11646626000000E+01 0.85244113011042E+00
 s    1 1.00
 0.32723041000000E+00 0.10000000000000E+01
 s    1 1.00
 0.10307241000000E+00 0.10000000000000E+01
 p    1 1.00
 0.80000000000000E+00 0.10000000000000E+01
 p    1 1.00
 0.95774129632000E-01 0.10000000000000E+01
 
[MO]
 Sym= X
 Ene= -0.232229
 Spin= Alpha
 Occup= -0.232229
         1    7.310609E-06
         2   -3.313732E-06
         3    6.636335E-04
         4   -4.253395E-03
         5   -3.950762E-03
         6   -1.263642E-02
         7    3.713291E-03
         8    5.246108E-04
         9    3.037462E-02
        10   -1.633516E-03
        11    8.063672E-04
        12    2.844218E-02
        13   -4.040948E-02
        14    1.353191E-02
        15    8.999482E-03
        16    5.376886E-05
        17   -8.494955E-05
        18    3.118069E-05
        19   -5.564233E-05
        20   -6.204683E-03
        21    3.903729E-03
        22   -7.468354E-04
        23    4.129569E-04
        24    3.338786E-04
        25   -8.740119E-04
        26   -1.405369E-02
        27    7.346643E-03
        28   -5.398500E-03
        29    4.981254E-03
        30    4.172459E-04
        31    1.003914E-03
        32    2.352760E-03
        33   -1.033061E-02
        34   -2.310191E-05
        35    1.172832E-05
        36   -1.409997E-04
        37    1.635793E-05
        38   -1.292489E-05
        39   -6.762397E-04
        40    1.463654E-05
        41   -2.810300E-06
        42    8.654106E-04
        43   -6.958345E-04
        44    2.412509E-04
        45    5.310073E-04
        46   -4.745055E-04
        47   -4.199878E-03
        48   -6.199824E-02
        49    6.061401E-03
        50   -3.234838E-04
        51    1.545372E-05
        52    2.051068E-01
        53   -1.077209E-03
        54    3.007390E-05
        55    2.124087E-01
        56   -1.785267E-02
        57   -5.456284E-04
        58    1.988826E-01
        59    1.172844E-04
        60   -1.298972E-04
        61    1.261282E-05
        62    6.681120E-07
        63   -5.996630E-04
        64   -1.324273E-05
        65    5.159733E-04
        66   -8.516797E-04
        67    3.357064E-04
        68    2.786015E-06
        69   -3.060361E-03
        70   -3.035092E-05
        71    1.188450E-02
        72   -1.325975E-02
        73    1.375246E-03
        74   -9.025632E-05
        75    4.818324E-03
        76   -1.615300E-05
        77    7.601128E-06
        78    2.114837E-07
        79   -1.174476E-03
        80   -1.152916E-05
        81   -1.280340E-07
        82    7.024064E-04
        83    1.331176E-06
        84   -1.557011E-07
        85    8.733182E-04
        86   -1.918200E-06
        87    4.661348E-06
        88   -9.335631E-06
        89    6.767294E-04
        90   -4.267912E-03
        91   -2.201968E-03
        92   -1.262234E-02
        93    3.682830E-03
        94   -5.292278E-04
        95    2.966870E-02
        96   -1.634905E-03
        97   -8.023644E-04
        98    2.773460E-02
        99   -4.045486E-02
       100   -1.402872E-02
       101    8.604132E-03
       102    5.286394E-05
       103   -8.387867E-05
       104    3.101473E-05
       105    5.645358E-05
       106   -6.223541E-03
       107   -3.901757E-03
       108   -7.451903E-04
       109    4.095930E-04
       110    3.355974E-04
       111    8.715304E-04
       112   -1.408904E-02
       113   -7.347821E-03
       114   -5.461933E-03
       115    5.058257E-03
       116    4.036754E-04
       117   -9.136499E-04
       118    2.329294E-03
       119    1.033138E-02
       120   -2.319643E-05
       121   -1.177456E-05
       122   -1.365838E-04
       123    1.646016E-05
       124    1.297898E-05
       125   -6.815862E-04
       126    1.466112E-05
       127    2.818242E-06
       128    8.648326E-04
       129    6.957917E-04
       130   -2.216136E-04
       131   -4.906194E-04
       132    1.826597E-03
       133   -1.060871E-02
       134    2.835140E-02
       135    1.443098E-02
       136   -2.079709E-03
       137    2.411866E-03
       138   -1.511166E-01
       139   -1.116819E-02
       140    8.569062E-03
       141   -1.539020E-01
       142   -2.548496E-02
       143   -8.139584E-03
       144   -9.373910E-02
       145    2.161179E-04
       146   -2.286011E-04
       147    1.248318E-05
       148    5.517960E-05
       149   -1.028397E-03
       150    3.005762E-03
       151    8.537976E-04
       152   -9.580065E-04
       153    1.042089E-04
       154    2.018841E-03
       155   -4.540932E-03
       156    5.020177E-03
       157    9.502349E-03
       158   -7.288700E-03
       159   -2.213649E-03
       160   -1.078675E-02
       161    3.825590E-03
       162   -1.221727E-02
       163   -2.407005E-05
       164    1.947263E-05
       165    8.448120E-04
       166   -1.524256E-05
       167    1.649164E-05
       168   -1.851693E-04
       169    4.753592E-05
       170   -4.261691E-05
       171   -9.482649E-04
       172    3.495081E-04
       173   -1.156470E-03
       174   -2.625444E-03
       175    2.404085E-03
       176    2.516962E-02
       177   -2.506056E-02
       178    1.131519E-02
       179    1.206818E-02
       180    6.527638E-07
       181   -1.152892E-01
       182    1.800381E-03
       183   -1.119363E-05
       184   -1.182684E-01
       185   -3.576670E-02
       186    6.210151E-04
       187   -1.358165E-01
       188    6.129484E-04
       189   -3.590809E-04
       190   -2.538675E-04
       191    4.400905E-07
       192    9.753400E-03
       193   -1.420544E-05
       194   -2.060103E-03
       195    4.704224E-03
       196   -2.644121E-03
       197    3.238260E-06
       198    2.406488E-02
       199   -3.029721E-05
       200   -7.682115E-03
       201    9.041978E-03
       202   -1.359863E-03
       203   -1.285223E-04
       204    1.761330E-02
       205    1.158453E-05
       206    1.426463E-04
       207    7.351477E-08
       208    3.245794E-04
       209   -9.626321E-05
       210   -1.485782E-07
       211    1.039657E-03
       212   -9.511691E-05
       213    4.994779E-08
       214   -1.475126E-03
       215    2.257789E-06
       216   -2.217390E-04
       217   -4.910772E-04
       218    1.830720E-03
       219   -1.064150E-02
       220    3.016404E-02
       221    1.440542E-02
       222   -2.104237E-03
       223   -2.393320E-03
       224   -1.503604E-01
       225   -1.119396E-02
       226   -8.564785E-03
       227   -1.531364E-01
       228   -2.549774E-02
       229    8.786483E-03
       230   -9.323494E-02
       231    2.167093E-04
       232   -2.297182E-04
       233    1.300887E-05
       234   -5.442817E-05
       235   -1.045918E-03
       236   -3.003952E-03
       237    8.566407E-04
       238   -9.625216E-04
       239    1.058809E-04
       240   -2.022063E-03
       241   -4.570224E-03
       242   -5.017472E-03
       243    9.452002E-03
       244   -7.242039E-03
       245   -2.209963E-03
       246    1.085834E-02
       247    3.837696E-03
       248    1.223402E-02
       249   -2.414762E-05
       250   -1.952702E-05
       251    8.399265E-04
       252   -1.539841E-05
       253   -1.638647E-05
       254   -1.797458E-04
       255    4.779584E-05
       256    4.258471E-05
       257   -9.471338E-04
       258   -3.492710E-04
       259   -1.306418E-03
       260   -1.539268E-03
       261   -1.905234E-02
       262   -4.513065E-05
       263   -1.289789E-04
       264    1.190388E-03
       265   -6.158445E-03
       266   -3.240105E-04
       267   -6.109457E-03
       268   -1.301535E-03
       269   -1.524388E-03
       270   -1.901559E-02
       271   -4.389840E-05
       272    1.267120E-04
       273    1.161471E-03
       274   -6.242135E-03
       275    2.978435E-04
       276   -6.145178E-03
       277    4.348914E-04
       278   -1.475881E-03
       279    3.974541E-02
       280   -1.125907E-04
       281    5.658493E-06
       282   -6.159595E-03
       283   -1.694627E-03
       284   -3.164370E-03
       285    1.299625E-03
       286    4.186620E-04
       287   -1.494622E-03
       288    3.997166E-02
       289   -1.116099E-04
       290   -6.990020E-06
       291   -6.127324E-03
       292   -1.687312E-03
       293    3.197008E-03
       294    1.336248E-03
       295   -1.491753E-04
       296   -3.643122E-04
       297    5.223795E-04
       298    1.184764E-03
       299   -7.705224E-03
       300    5.854216E-04
       301    1.222589E-03
       302    6.416962E-06
       303    2.259345E-02
       304    8.239561E-04
       305    5.430078E-06
       306    2.463192E-02
       307   -3.236824E-03
       308    1.928561E-05
       309    7.932743E-03
       310    4.040489E-05
       311   -3.082227E-05
       312   -9.582617E-06
       313   -2.024145E-06
       314    4.272454E-03
       315    1.689976E-06
       316    6.279875E-05
       317    4.209054E-07
       318   -6.321965E-05
       319   -6.040682E-06
       320    1.293250E-02
       321    4.131902E-06
       322   -1.091930E-03
       323    3.337699E-03
       324   -2.245770E-03
       325    2.008720E-05
       326    3.272316E-03
       327    7.437403E-06
       328    9.492089E-06
       329   -5.176731E-07
       330   -3.621636E-05
       331   -5.693858E-06
       332    7.434301E-07
       333    7.054016E-04
       334   -7.041116E-06
       335   -4.889877E-08
       336   -6.568122E-04
       337   -6.063833E-07
       338    8.191425E-05
       339    2.025907E-04
       340   -3.428005E-04
       341    1.580880E-04
       342   -7.300163E-03
       343   -1.125854E-03
       344   -5.784374E-04
       345   -1.243024E-05
       346   -7.234438E-02
       347   -6.578638E-04
       348    1.590093E-04
       349   -6.718860E-02
       350   -1.927698E-03
       351    5.362747E-04
       352   -5.490382E-02
       353   -2.466077E-04
       354    2.220116E-04
       355   -6.684033E-03
       356    4.396039E-06
       357   -6.394931E-06
       358    1.998892E-06
       359   -5.576672E-07
       360    3.970259E-05
       361    4.092604E-04
       362   -1.900306E-05
       363   -1.358445E-05
       364    3.258751E-05
       365    5.145075E-06
       366   -4.081946E-04
       367    1.374400E-03
       368   -9.753414E-05
       369    6.000360E-05
       370    3.753054E-05
       371    8.139799E-05
       372   -3.010769E-04
       373    1.828337E-04
       374    8.470910E-07
       375    2.748082E-06
       376    4.945813E-05
       377   -1.859108E-06
       378   -1.047407E-06
       379    8.351028E-05
       380    7.226166E-07
       381   -2.639532E-06
       382   -1.498653E-04
       383    1.154716E-04
       384    8.210247E-05
       385    2.030883E-04
       386   -3.432002E-04
       387    1.577084E-04
       388   -7.301462E-03
       389   -1.094436E-03
       390   -4.550052E-04
       391   -8.863017E-05
       392   -7.246061E-02
       393   -5.454612E-04
       394   -2.475527E-04
       395   -6.729782E-02
       396   -1.825076E-03
       397   -5.968991E-04
       398   -5.497483E-02
       399   -2.210177E-04
       400   -2.326926E-04
       401   -6.687215E-03
       402    5.340212E-06
       403   -7.585908E-06
       404    2.245696E-06
       405    5.623016E-07
       406    3.936366E-05
       407   -4.101549E-04
       408   -1.592028E-05
       409   -1.669381E-05
       410    3.261410E-05
       411   -4.134311E-06
       412   -4.093280E-04
       413   -1.378031E-03
       414   -9.451568E-05
       415    5.886868E-05
       416    3.564700E-05
       417   -8.057421E-05
       418   -3.003929E-04
       419   -1.814035E-04
       420    9.422152E-07
       421   -3.091638E-06
       422    4.957327E-05
       423   -2.027130E-06
       424    1.452931E-06
       425    8.361655E-05
       426    7.630154E-07
       427    2.694936E-06
       428   -1.501261E-04
       429   -1.157789E-04
       430    5.838780E-03
       431    1.385447E-02
       432   -2.152537E-02
       433   -3.402553E-02
       434   -2.239149E-02
       435   -8.023200E-02
       436   -2.183396E-02
       437    9.327924E-06
       438    2.532737E-01
       439   -2.450936E-02
       440    1.571330E-06
       441    2.499239E-01
       442   -2.333145E-02
       443   -9.725433E-05
       444    2.052749E-01
       445   -1.080466E-04
       446   -4.821511E-05
       447    1.562617E-04
       448    1.131740E-07
       449    8.487881E-04
       450   -4.143952E-07
       451   -2.735560E-04
       452   -1.860970E-03
       453    2.134526E-03
       454   -3.824798E-06
       455    3.724507E-03
       456   -6.813874E-07
       457   -2.427513E-03
       458   -3.835797E-03
       459    6.263310E-03
       460   -5.037250E-06
       461    2.315896E-03
       462    2.876877E-06
       463   -1.689183E-04
       464    2.867780E-08
       465   -9.797879E-04
       466   -1.056723E-04
       467    6.127765E-08
       468    5.114593E-04
       469    3.322999E-04
       470   -9.975296E-08
       471    8.030641E-04
       472    2.078590E-07
       473    1.079059E-02
       474    2.083554E-02
       475    3.705514E-02
       476   -2.650726E-03
       477   -2.163812E-03
       478    1.276861E-02
       479    1.322180E-03
       480   -4.368460E-03
       481    1.483534E-02
       482    1.078681E-02
       483    2.076815E-02
       484    3.681731E-02
       485   -2.646773E-03
       486    2.157623E-03
       487    1.277353E-02
       488    1.356163E-03
       489    4.329454E-03
       490    1.485190E-02
 Sym= X
 Ene= -0.245521
 Spin= Alpha
 Occup= -0.245521
         1    5.623305E-04
         2    1.283504E-03
         3   -2.674470E-03
         4    1.350623E-03
         5   -1.501690E-02
         6   -2.698041E-03
         7    7.220498E-03
         8    1.744814E-04
         9    1.876919E-01
        10    8.227121E-03
        11    1.797467E-04
        12    1.882951E-01
        13    5.161325E-03
        14   -4.612378E-03
        15    1.100137E-01
        16    2.240835E-04
        17   -2.441263E-04
        18    2.004274E-05
        19    8.163918E-05
        20    4.955426E-03
        21    5.412030E-04
        22    1.190078E-03
        23   -8.495006E-04
        24   -3.405771E-04
        25   -2.678306E-05
        26    9.549210E-03
        27   -4.288893E-04
        28   -9.035104E-04
        29    5.958509E-04
        30    3.076595E-04
        31    1.485002E-03
        32    3.285909E-03
        33   -1.249033E-04
        34    1.751929E-05
        35   -1.616384E-05
        36   -1.166896E-03
        37    7.132946E-06
        38    2.382302E-05
        39    1.411611E-03
        40   -3.063754E-05
        41   -2.136950E-06
        42    1.539438E-04
        43    3.063253E-06
        44   -5.380789E-07
        45   -1.307625E-06
        46    9.083029E-06
        47   -2.295621E-05
        48   -2.471955E-03
        49   -1.926016E-04
        50    5.464290E-06
        51    5.364976E-03
        52   -4.335069E-04
        53   -1.404952E-05
        54    5.424141E-03
        55   -4.528930E-04
        56   -1.125475E-03
        57   -1.530318E-02
        58   -4.100978E-04
        59   -2.226743E-07
        60    1.405204E-07
        61    8.215395E-08
        62    2.150536E-04