[Molden Format]
[Title]
ADC(2) - opt by CAM-B3LYP gaussian                                              
[Atoms] AU
 c     1    6 -.12590385386216E+01 -.22819701624009E+01 -.30156123253150E-01
 c     2    6 -.25547233845863E+01 -.83266058000000E-06 -.28792213416740E-01
 c     3    6 -.12590428849917E+01 0.22819669475044E+01 -.30169993842970E-01
 c     4    6 0.13339759331395E+01 0.22828246941961E+01 -.32722654800530E-01
 c     5    6 0.26864234278208E+01 0.32869423900000E-05 -.32794180934660E-01
 c     6    6 0.13339778039684E+01 -.22828226745513E+01 -.32706516539360E-01
 h     7    1 -.23005849451053E+01 -.40353719055945E+01 -.27139024303910E-01
 h     8    1 -.23005903875166E+01 0.40353685773143E+01 -.27164403325880E-01
 h     9    1 0.23527432406667E+01 0.40554759247724E+01 -.35914685697900E-01
 h    10    1 0.23527525948111E+01 -.40554698422164E+01 -.35883032785170E-01
 n    11    7 -.52784595104117E+01 -.53030440000000E-06 -.22539903328000E-01
 o    12    8 -.63796877956448E+01 0.20272212823250E+01 -.19883023974210E-01
 o    13    8 -.63796922742957E+01 -.20272201130570E+01 -.19923067270970E-01
 n    14    7 0.52516126460355E+01 -.32243452000000E-06 -.88209511610250E-01
 h    15    1 0.62001707317805E+01 0.16133662892433E+01 0.23199721167530E+00
 h    16    1 0.62001633429513E+01 -.16133706190784E+01 0.23200112340840E+00
[GTO]
    1 0
 s    6 1.00
 0.13575349682000E+05 0.60645503603591E-03
 0.20352333680000E+04 0.46979088884982E-02
 0.46322562359000E+03 0.24332477647552E-01
 0.13120019598000E+03 0.97399968307759E-01
 0.42853015891000E+02 0.30195584253780E+00
 0.15584185766000E+02 0.66233609137875E+00
 s    2 1.00
 0.62067138508000E+01 0.65595308539952E+00
 0.25764896527000E+01 0.37585633285142E+00
 s    1 1.00
 0.57696339419000E+00 0.10000000000000E+01
 s    1 1.00
 0.22972831358000E+00 0.10000000000000E+01
 s    1 1.00
 0.95164440028000E-01 0.10000000000000E+01
 s    1 1.00
 0.48475401370000E-01 0.10000000000000E+01
 p    4 1.00
 0.34697232244000E+02 0.11327220003114E-01
 0.79582622826000E+01 0.76169659202087E-01
 0.23780826883000E+01 0.30192252202676E+00
 0.81433208183000E+00 0.72785027349547E+00
 p    1 1.00
 0.28887547253000E+00 0.10000000000000E+01
 p    1 1.00
 0.10056823671000E+00 0.10000000000000E+01
 d    1 1.00
 0.10970000000000E+01 0.10000000000000E+01
 d    1 1.00
 0.31800000000000E+00 0.10000000000000E+01
 d    1 1.00
 0.90985336424000E-01 0.10000000000000E+01
 f    1 1.00
 0.76100000000000E+00 0.10000000000000E+01
 
    2 0
 s    6 1.00
 0.13575349682000E+05 0.60645503603591E-03
 0.20352333680000E+04 0.46979088884982E-02
 0.46322562359000E+03 0.24332477647552E-01
 0.13120019598000E+03 0.97399968307759E-01
 0.42853015891000E+02 0.30195584253780E+00
 0.15584185766000E+02 0.66233609137875E+00
 s    2 1.00
 0.62067138508000E+01 0.65595308539952E+00
 0.25764896527000E+01 0.37585633285142E+00
 s    1 1.00
 0.57696339419000E+00 0.10000000000000E+01
 s    1 1.00
 0.22972831358000E+00 0.10000000000000E+01
 s    1 1.00
 0.95164440028000E-01 0.10000000000000E+01
 s    1 1.00
 0.48475401370000E-01 0.10000000000000E+01
 p    4 1.00
 0.34697232244000E+02 0.11327220003114E-01
 0.79582622826000E+01 0.76169659202087E-01
 0.23780826883000E+01 0.30192252202676E+00
 0.81433208183000E+00 0.72785027349547E+00
 p    1 1.00
 0.28887547253000E+00 0.10000000000000E+01
 p    1 1.00
 0.10056823671000E+00 0.10000000000000E+01
 d    1 1.00
 0.10970000000000E+01 0.10000000000000E+01
 d    1 1.00
 0.31800000000000E+00 0.10000000000000E+01
 d    1 1.00
 0.90985336424000E-01 0.10000000000000E+01
 f    1 1.00
 0.76100000000000E+00 0.10000000000000E+01
 
    3 0
 s    6 1.00
 0.13575349682000E+05 0.60645503603591E-03
 0.20352333680000E+04 0.46979088884982E-02
 0.46322562359000E+03 0.24332477647552E-01
 0.13120019598000E+03 0.97399968307759E-01
 0.42853015891000E+02 0.30195584253780E+00
 0.15584185766000E+02 0.66233609137875E+00
 s    2 1.00
 0.62067138508000E+01 0.65595308539952E+00
 0.25764896527000E+01 0.37585633285142E+00
 s    1 1.00
 0.57696339419000E+00 0.10000000000000E+01
 s    1 1.00
 0.22972831358000E+00 0.10000000000000E+01
 s    1 1.00
 0.95164440028000E-01 0.10000000000000E+01
 s    1 1.00
 0.48475401370000E-01 0.10000000000000E+01
 p    4 1.00
 0.34697232244000E+02 0.11327220003114E-01
 0.79582622826000E+01 0.76169659202087E-01
 0.23780826883000E+01 0.30192252202676E+00
 0.81433208183000E+00 0.72785027349547E+00
 p    1 1.00
 0.28887547253000E+00 0.10000000000000E+01
 p    1 1.00
 0.10056823671000E+00 0.10000000000000E+01
 d    1 1.00
 0.10970000000000E+01 0.10000000000000E+01
 d    1 1.00
 0.31800000000000E+00 0.10000000000000E+01
 d    1 1.00
 0.90985336424000E-01 0.10000000000000E+01
 f    1 1.00
 0.76100000000000E+00 0.10000000000000E+01
 
    4 0
 s    6 1.00
 0.13575349682000E+05 0.60645503603591E-03
 0.20352333680000E+04 0.46979088884982E-02
 0.46322562359000E+03 0.24332477647552E-01
 0.13120019598000E+03 0.97399968307759E-01
 0.42853015891000E+02 0.30195584253780E+00
 0.15584185766000E+02 0.66233609137875E+00
 s    2 1.00
 0.62067138508000E+01 0.65595308539952E+00
 0.25764896527000E+01 0.37585633285142E+00
 s    1 1.00
 0.57696339419000E+00 0.10000000000000E+01
 s    1 1.00
 0.22972831358000E+00 0.10000000000000E+01
 s    1 1.00
 0.95164440028000E-01 0.10000000000000E+01
 s    1 1.00
 0.48475401370000E-01 0.10000000000000E+01
 p    4 1.00
 0.34697232244000E+02 0.11327220003114E-01
 0.79582622826000E+01 0.76169659202087E-01
 0.23780826883000E+01 0.30192252202676E+00
 0.81433208183000E+00 0.72785027349547E+00
 p    1 1.00
 0.28887547253000E+00 0.10000000000000E+01
 p    1 1.00
 0.10056823671000E+00 0.10000000000000E+01
 d    1 1.00
 0.10970000000000E+01 0.10000000000000E+01
 d    1 1.00
 0.31800000000000E+00 0.10000000000000E+01
 d    1 1.00
 0.90985336424000E-01 0.10000000000000E+01
 f    1 1.00
 0.76100000000000E+00 0.10000000000000E+01
 
    5 0
 s    6 1.00
 0.13575349682000E+05 0.60645503603591E-03
 0.20352333680000E+04 0.46979088884982E-02
 0.46322562359000E+03 0.24332477647552E-01
 0.13120019598000E+03 0.97399968307759E-01
 0.42853015891000E+02 0.30195584253780E+00
 0.15584185766000E+02 0.66233609137875E+00
 s    2 1.00
 0.62067138508000E+01 0.65595308539952E+00
 0.25764896527000E+01 0.37585633285142E+00
 s    1 1.00
 0.57696339419000E+00 0.10000000000000E+01
 s    1 1.00
 0.22972831358000E+00 0.10000000000000E+01
 s    1 1.00
 0.95164440028000E-01 0.10000000000000E+01
 s    1 1.00
 0.48475401370000E-01 0.10000000000000E+01
 p    4 1.00
 0.34697232244000E+02 0.11327220003114E-01
 0.79582622826000E+01 0.76169659202087E-01
 0.23780826883000E+01 0.30192252202676E+00
 0.81433208183000E+00 0.72785027349547E+00
 p    1 1.00
 0.28887547253000E+00 0.10000000000000E+01
 p    1 1.00
 0.10056823671000E+00 0.10000000000000E+01
 d    1 1.00
 0.10970000000000E+01 0.10000000000000E+01
 d    1 1.00
 0.31800000000000E+00 0.10000000000000E+01
 d    1 1.00
 0.90985336424000E-01 0.10000000000000E+01
 f    1 1.00
 0.76100000000000E+00 0.10000000000000E+01
 
    6 0
 s    6 1.00
 0.13575349682000E+05 0.60645503603591E-03
 0.20352333680000E+04 0.46979088884982E-02
 0.46322562359000E+03 0.24332477647552E-01
 0.13120019598000E+03 0.97399968307759E-01
 0.42853015891000E+02 0.30195584253780E+00
 0.15584185766000E+02 0.66233609137875E+00
 s    2 1.00
 0.62067138508000E+01 0.65595308539952E+00
 0.25764896527000E+01 0.37585633285142E+00
 s    1 1.00
 0.57696339419000E+00 0.10000000000000E+01
 s    1 1.00
 0.22972831358000E+00 0.10000000000000E+01
 s    1 1.00
 0.95164440028000E-01 0.10000000000000E+01
 s    1 1.00
 0.48475401370000E-01 0.10000000000000E+01
 p    4 1.00
 0.34697232244000E+02 0.11327220003114E-01
 0.79582622826000E+01 0.76169659202087E-01
 0.23780826883000E+01 0.30192252202676E+00
 0.81433208183000E+00 0.72785027349547E+00
 p    1 1.00
 0.28887547253000E+00 0.10000000000000E+01
 p    1 1.00
 0.10056823671000E+00 0.10000000000000E+01
 d    1 1.00
 0.10970000000000E+01 0.10000000000000E+01
 d    1 1.00
 0.31800000000000E+00 0.10000000000000E+01
 d    1 1.00
 0.90985336424000E-01 0.10000000000000E+01
 f    1 1.00
 0.76100000000000E+00 0.10000000000000E+01
 
    7 0
 s    3 1.00
 0.34061341000000E+02 0.25439307208879E-01
 0.51235746000000E+01 0.19008594890375E+00
 0.11646626000000E+01 0.85244113011042E+00
 s    1 1.00
 0.32723041000000E+00 0.10000000000000E+01
 s    1 1.00
 0.10307241000000E+00 0.10000000000000E+01
 p    1 1.00
 0.80000000000000E+00 0.10000000000000E+01
 p    1 1.00
 0.95774129632000E-01 0.10000000000000E+01
 
    8 0
 s    3 1.00
 0.34061341000000E+02 0.25439307208879E-01
 0.51235746000000E+01 0.19008594890375E+00
 0.11646626000000E+01 0.85244113011042E+00
 s    1 1.00
 0.32723041000000E+00 0.10000000000000E+01
 s    1 1.00
 0.10307241000000E+00 0.10000000000000E+01
 p    1 1.00
 0.80000000000000E+00 0.10000000000000E+01
 p    1 1.00
 0.95774129632000E-01 0.10000000000000E+01
 
    9 0
 s    3 1.00
 0.34061341000000E+02 0.25439307208879E-01
 0.51235746000000E+01 0.19008594890375E+00
 0.11646626000000E+01 0.85244113011042E+00
 s    1 1.00
 0.32723041000000E+00 0.10000000000000E+01
 s    1 1.00
 0.10307241000000E+00 0.10000000000000E+01
 p    1 1.00
 0.80000000000000E+00 0.10000000000000E+01
 p    1 1.00
 0.95774129632000E-01 0.10000000000000E+01
 
   10 0
 s    3 1.00
 0.34061341000000E+02 0.25439307208879E-01
 0.51235746000000E+01 0.19008594890375E+00
 0.11646626000000E+01 0.85244113011042E+00
 s    1 1.00
 0.32723041000000E+00 0.10000000000000E+01
 s    1 1.00
 0.10307241000000E+00 0.10000000000000E+01
 p    1 1.00
 0.80000000000000E+00 0.10000000000000E+01
 p    1 1.00
 0.95774129632000E-01 0.10000000000000E+01
 
   11 0
 s    6 1.00
 0.19730800647000E+05 0.58626402628763E-03
 0.29578958745000E+04 0.45428820586397E-02
 0.67322133595000E+03 0.23558413450084E-01
 0.19068249494000E+03 0.94709193292923E-01
 0.62295441898000E+02 0.29719784913376E+00
 0.22654161182000E+02 0.66916246895232E+00
 s    2 1.00
 0.89791477428000E+01 0.64596683630063E+00
 0.36863002370000E+01 0.38700574393705E+00
 s    1 1.00
 0.84660076805000E+00 0.10000000000000E+01
 s    1 1.00
 0.33647133771000E+00 0.10000000000000E+01
 s    1 1.00
 0.13647653675000E+00 0.10000000000000E+01
 s    1 1.00
 0.68441605847000E-01 0.10000000000000E+01
 p    4 1.00
 0.49200380510000E+02 0.11448825101764E-01
 0.11346790537000E+02 0.78422337970864E-01
 0.34273972411000E+01 0.30818094738830E+00
 0.11785525134000E+01 0.72027196368413E+00
 p    1 1.00
 0.41642204972000E+00 0.10000000000000E+01
 p    1 1.00
 0.14260826011000E+00 0.10000000000000E+01
 d    1 1.00
 0.16540000000000E+01 0.10000000000000E+01
 d    1 1.00
 0.46900000000000E+00 0.10000000000000E+01
 d    1 1.00
 0.12829642058000E+00 0.10000000000000E+01
 f    1 1.00
 0.10930000000000E+01 0.10000000000000E+01
 
   12 0
 s    6 1.00
 0.27032382631000E+05 0.57227335211155E-03
 0.40523871392000E+04 0.44353233492995E-02
 0.92232722710000E+03 0.23020107706038E-01
 0.26124070989000E+03 0.92822490667928E-01
 0.85354641351000E+02 0.29378500009671E+00
 0.31035035245000E+02 0.67401604501641E+00
 s    2 1.00
 0.12260860728000E+02 0.63839937025506E+00
 0.49987076005000E+01 0.39534587125718E+00
 s    1 1.00
 0.11703108158000E+01 0.10000000000000E+01
 s    1 1.00
 0.46474740994000E+00 0.10000000000000E+01
 s    1 1.00
 0.18504536357000E+00 0.10000000000000E+01
 s    1 1.00
 0.70288026270000E-01 0.10000000000000E+01
 p    4 1.00
 0.63274954801000E+02 0.12018332222616E-01
 0.14627049379000E+02 0.83005421790056E-01
 0.44501223456000E+01 0.31991743925964E+00
 0.15275799647000E+01 0.70715542916104E+00
 p    1 1.00
 0.52935117943000E+00 0.10000000000000E+01
 p    1 1.00
 0.17478421270000E+00 0.10000000000000E+01
 p    1 1.00
 0.51112745706000E-01 0.10000000000000E+01
 d    1 1.00
 0.23140000000000E+01 0.10000000000000E+01
 d    1 1.00
 0.64500000000000E+00 0.10000000000000E+01
 d    1 1.00
 0.14696477366000E+00 0.10000000000000E+01
 f    1 1.00
 0.14280000000000E+01 0.10000000000000E+01
 
   13 0
 s    6 1.00
 0.27032382631000E+05 0.57227335211155E-03
 0.40523871392000E+04 0.44353233492995E-02
 0.92232722710000E+03 0.23020107706038E-01
 0.26124070989000E+03 0.92822490667928E-01
 0.85354641351000E+02 0.29378500009671E+00
 0.31035035245000E+02 0.67401604501641E+00
 s    2 1.00
 0.12260860728000E+02 0.63839937025506E+00
 0.49987076005000E+01 0.39534587125718E+00
 s    1 1.00
 0.11703108158000E+01 0.10000000000000E+01
 s    1 1.00
 0.46474740994000E+00 0.10000000000000E+01
 s    1 1.00
 0.18504536357000E+00 0.10000000000000E+01
 s    1 1.00
 0.70288026270000E-01 0.10000000000000E+01
 p    4 1.00
 0.63274954801000E+02 0.12018332222616E-01
 0.14627049379000E+02 0.83005421790056E-01
 0.44501223456000E+01 0.31991743925964E+00
 0.15275799647000E+01 0.70715542916104E+00
 p    1 1.00
 0.52935117943000E+00 0.10000000000000E+01
 p    1 1.00
 0.17478421270000E+00 0.10000000000000E+01
 p    1 1.00
 0.51112745706000E-01 0.10000000000000E+01
 d    1 1.00
 0.23140000000000E+01 0.10000000000000E+01
 d    1 1.00
 0.64500000000000E+00 0.10000000000000E+01
 d    1 1.00
 0.14696477366000E+00 0.10000000000000E+01
 f    1 1.00
 0.14280000000000E+01 0.10000000000000E+01
 
   14 0
 s    6 1.00
 0.19730800647000E+05 0.58626402628763E-03
 0.29578958745000E+04 0.45428820586397E-02
 0.67322133595000E+03 0.23558413450084E-01
 0.19068249494000E+03 0.94709193292923E-01
 0.62295441898000E+02 0.29719784913376E+00
 0.22654161182000E+02 0.66916246895232E+00
 s    2 1.00
 0.89791477428000E+01 0.64596683630063E+00
 0.36863002370000E+01 0.38700574393705E+00
 s    1 1.00
 0.84660076805000E+00 0.10000000000000E+01
 s    1 1.00
 0.33647133771000E+00 0.10000000000000E+01
 s    1 1.00
 0.13647653675000E+00 0.10000000000000E+01
 s    1 1.00
 0.68441605847000E-01 0.10000000000000E+01
 p    4 1.00
 0.49200380510000E+02 0.11448825101764E-01
 0.11346790537000E+02 0.78422337970864E-01
 0.34273972411000E+01 0.30818094738830E+00
 0.11785525134000E+01 0.72027196368413E+00
 p    1 1.00
 0.41642204972000E+00 0.10000000000000E+01
 p    1 1.00
 0.14260826011000E+00 0.10000000000000E+01
 d    1 1.00
 0.16540000000000E+01 0.10000000000000E+01
 d    1 1.00
 0.46900000000000E+00 0.10000000000000E+01
 d    1 1.00
 0.12829642058000E+00 0.10000000000000E+01
 f    1 1.00
 0.10930000000000E+01 0.10000000000000E+01
 
   15 0
 s    3 1.00
 0.34061341000000E+02 0.25439307208879E-01
 0.51235746000000E+01 0.19008594890375E+00
 0.11646626000000E+01 0.85244113011042E+00
 s    1 1.00
 0.32723041000000E+00 0.10000000000000E+01
 s    1 1.00
 0.10307241000000E+00 0.10000000000000E+01
 p    1 1.00
 0.80000000000000E+00 0.10000000000000E+01
 p    1 1.00
 0.95774129632000E-01 0.10000000000000E+01
 
   16 0
 s    3 1.00
 0.34061341000000E+02 0.25439307208879E-01
 0.51235746000000E+01 0.19008594890375E+00
 0.11646626000000E+01 0.85244113011042E+00
 s    1 1.00
 0.32723041000000E+00 0.10000000000000E+01
 s    1 1.00
 0.10307241000000E+00 0.10000000000000E+01
 p    1 1.00
 0.80000000000000E+00 0.10000000000000E+01
 p    1 1.00
 0.95774129632000E-01 0.10000000000000E+01
 
[MO]
 Sym= X
 Ene= -0.263685
 Spin= Alpha
 Occup= -0.263685
         1    2.667890E-05
         2    6.068260E-05
         3   -1.742726E-04
         4    3.578349E-04
         5    1.020145E-02
         6    6.760512E-04
         7    1.106307E-04
         8    1.777081E-04
         9    1.890838E-01
        10    7.790243E-04
        11   -7.777837E-06
        12    1.896837E-01
        13   -4.378674E-03
        14    6.699925E-03
        15    1.111196E-01
        16    8.784589E-06
        17   -2.655692E-06
        18   -6.128897E-06
        19   -9.691864E-08
        20    4.971705E-03
        21    5.537574E-04
        22    1.495211E-04
        23   -9.696171E-05
        24   -5.255943E-05
        25   -1.515185E-05
        26    9.544629E-03
        27   -4.074234E-04
        28   -9.307380E-04
        29    1.057980E-03
        30   -1.272415E-04
        31   -5.234651E-04
        32    3.256617E-03
        33   -7.606923E-05
        34    5.795310E-06
        35    6.339359E-07
        36   -1.177439E-03
        37   -1.562068E-06
        38    1.778324E-07
        39    1.422134E-03
        40   -6.213157E-06
        41   -1.028347E-06
        42    1.575660E-04
        43    2.037538E-07
        44   -7.362382E-07
        45   -1.789645E-06
        46    1.039819E-05
        47   -2.608941E-05
        48   -2.591808E-03
        49   -1.871836E-04
        50   -4.847768E-06
        51   -1.280111E-04
        52   -3.689424E-05
        53   -2.335326E-05
        54   -3.327734E-04
        55   -4.302309E-05
        56   -1.159434E-03
        57    1.055223E-02
        58   -4.241267E-05
        59    3.741091E-07
        60   -4.468142E-07
        61    7.270505E-08
        62   -1.027641E-05
        63    1.666934E-07
        64   -7.130660E-03
        65    2.016731E-06
        66   -7.796649E-06
        67    5.779918E-06
        68   -1.130046E-04
        69   -8.801151E-07
        70   -1.610643E-02
        71   -6.419518E-05
        72    9.703163E-06
        73    5.449202E-05
        74    1.445281E-03
        75   -4.118508E-06
        76   -2.036928E-03
        77    1.074428E-08
        78   -3.740507E-07
        79    2.993353E-07
        80   -1.503729E-07
        81   -2.025491E-06
        82   -1.797231E-07
        83    1.359580E-07
        84    2.527332E-06
        85   -2.218774E-07
        86   -1.018074E-03
        87   -2.580304E-05
        88   -5.856805E-05
        89    1.525260E-04
        90   -2.749145E-04
        91   -5.209264E-03
        92   -3.948503E-04
        93   -1.054215E-04
        94    1.763888E-04
        95   -1.890996E-01
        96   -7.040134E-04
        97   -4.745777E-05
        98   -1.896971E-01
        99    5.790045E-03
       100    4.519657E-03
       101   -1.110492E-01
       102   -8.475430E-06
       103    2.201585E-06
       104    6.273845E-06
       105    2.877284E-07
       106   -4.970161E-03
       107    5.553154E-04
       108   -1.290890E-04
       109    9.024738E-05
       110    3.884164E-05
       111   -4.319053E-06
       112   -9.540982E-03
       113   -4.069500E-04
       114    8.935987E-04
       115   -9.262111E-04
       116    3.261243E-05
       117   -6.557588E-04
       118   -3.242667E-03
       119   -8.931308E-05
       120   -5.145140E-06
       121    4.618258E-07
       122    1.177601E-03
       123    1.136119E-06
       124   -1.040869E-08
       125   -1.422100E-03
       126    5.766811E-06
       127   -6.091956E-07
       128   -1.578177E-04
       129    5.891276E-08
       130    1.576522E-05
       131    3.822037E-05
       132   -1.735051E-04
       133    9.590820E-04
       134    1.038191E-02
       135    4.144448E-04
       136   -2.427693E-04
       137   -2.962741E-05
       138   -2.008741E-01
       139   -5.619664E-04
       140   -1.619101E-04
       141   -2.036407E-01
       142    7.348396E-03
       143   -7.403479E-03
       144   -1.307978E-01
       145    1.692177E-05
       146    2.765981E-06
       147   -1.968775E-05
       148   -6.140801E-06
       149    4.653559E-03
       150    4.868884E-04
       151    1.940632E-04
       152   -6.212060E-05
       153   -1.319426E-04
       154   -8.727261E-05
       155    8.265219E-03
       156    6.318415E-04
       157   -1.687496E-04
       158    4.282258E-04
       159   -2.594762E-04
       160   -1.275350E-03
       161   -1.162439E-03
       162    2.878094E-03
       163   -6.870932E-06
       164   -1.233396E-06
       165    1.318224E-03
       166    4.187751E-06
       167   -7.483680E-07
       168   -1.467760E-03
       169    5.030572E-06
       170    2.403142E-06
       171   -3.008230E-04
       172    4.641047E-05
       173    3.254636E-07
       174    8.961643E-07
       175   -1.055355E-05
       176    1.903678E-05
       177    3.193814E-03
       178    2.372810E-04
       179   -1.779186E-09
       180    1.103289E-04
       181    1.688566E-05
       182   -2.395386E-05
       183    7.338485E-05
       184    2.075128E-05
       185   -1.190058E-03
       186   -1.848024E-02
       187    2.348024E-05
       188   -4.218290E-07
       189    1.345162E-07
       190    2.873128E-07
       191    2.654978E-05
       192   -6.208434E-07
       193   -7.554378E-03
       194   -1.453949E-07
       195    9.094084E-06
       196   -8.948689E-06
       197    9.513959E-05
       198   -3.207740E-06
       199   -1.580057E-02
       200    5.884094E-05
       201    1.743751E-05
       202   -7.627845E-05
       203    2.360185E-03
       204   -3.722037E-06
       205    4.814508E-03
       206    6.671732E-08
       207   -5.345661E-06
       208   -1.082466E-07
       209   -3.065710E-07
       210    5.172640E-06
       211   -1.966588E-08
       212    2.170604E-07
       213    1.999317E-06
       214    1.648939E-07
       215    1.186050E-03
       216   -1.698025E-05
       217   -4.109114E-05
       218    1.990500E-04
       219   -1.052231E-03
       220   -1.585815E-02
       221   -7.214840E-04
       222    2.428343E-04
       223   -3.280624E-05
       224    2.009044E-01
       225    6.270539E-04
       226   -2.091853E-04
       227    2.036710E-01
       228   -6.162876E-03
       229   -9.762007E-03
       230    1.307392E-01
       231   -1.691279E-05
       232   -2.404720E-06
       233    1.931751E-05
       234   -6.582554E-06
       235   -4.653272E-03
       236    4.877787E-04
       237   -2.142300E-04
       238    6.561047E-05
       239    1.486195E-04
       240   -9.825919E-05
       241   -8.263536E-03
       242    6.312006E-04
       243    1.855563E-04
       244   -5.464933E-04
       245    3.609369E-04
       246   -1.165930E-03
       247    1.174010E-03
       248    2.869999E-03
       249    7.531487E-06
       250   -1.496206E-06
       251   -1.318390E-03
       252   -4.760083E-06
       253   -8.691995E-07
       254    1.467815E-03
       255   -5.344467E-06
       256    2.876571E-06
       257    3.009913E-04
       258    4.646786E-05
       259   -1.563596E-05
       260   -3.936712E-06
       261    8.838779E-04
       262    1.195237E-05
       263    4.052022E-06
       264    7.755805E-03
       265   -4.916759E-05
       266    3.415486E-04
       267    7.270832E-03
       268    1.159124E-05
       269    2.142798E-05
       270   -2.278618E-04
       271   -1.113670E-05
       272    2.143204E-06
       273   -7.756246E-03
       274    1.055497E-04
       275    1.505726E-04
       276   -7.262013E-03
       277    2.226417E-05
       278    7.433819E-05
       279    2.207821E-03
       280   -2.531551E-05
       281   -1.058232E-05
       282   -8.670307E-03
       283   -4.327971E-04
       284   -1.137219E-04
       285   -9.664284E-03
       286   -1.802781E-05
       287   -8.241058E-05
       288   -2.918287E-03
       289    2.581682E-05
       290   -1.201847E-05
       291    8.671510E-03
       292    5.173438E-04
       293   -3.091076E-04
       294    9.664457E-03
       295   -1.932803E-07
       296   -4.985825E-07
       297    1.220620E-06
       298   -4.539225E-06
       299   -5.988123E-05
       300    1.179477E-04
       301    6.028213E-06
       302    3.996206E-05
       303   -7.106556E-06
       304    2.789073E-06
       305    8.295619E-06
       306   -6.773741E-06
       307   -1.599244E-05
       308   -4.071106E-04
       309   -3.614386E-06
       310    5.087862E-07
       311   -5.986435E-07
       312    8.985733E-08
       313   -4.916644E-06
       314   -7.189520E-07
       315    5.376855E-04
       316    1.160925E-06
       317   -1.032594E-06
       318   -1.283311E-07
       319   -2.830598E-05
       320   -2.245789E-06
       321    1.182515E-03
       322    3.861226E-06
       323    8.222526E-06
       324   -1.208375E-05
       325   -1.753608E-04
       326   -2.808050E-06
       327    2.012432E-03
       328   -4.343729E-09
       329   -2.460846E-07
       330    3.025888E-08
       331    2.261729E-08
       332   -6.992717E-07
       333   -1.340950E-07
       334   -1.678956E-08
       335    1.029429E-06
       336    9.349847E-08
       337   -2.595527E-04
       338   -1.601811E-06
       339   -4.110366E-06
       340    7.772513E-06
       341   -1.334805E-05
       342    6.471883E-05
       343   -4.053303E-06
       344   -5.318699E-05
       345   -1.217691E-04
       346    2.120678E-02
       347   -5.176762E-05
       348   -1.088716E-04
       349    2.000658E-02
       350    8.885389E-05
       351   -5.040470E-05
       352    1.388066E-02
       353    1.410428E-05
       354    1.192740E-05
       355   -2.738575E-04
       356   -1.343752E-06
       357    1.750779E-06
       358   -4.070272E-07
       359   -5.795977E-07
       360    3.210369E-05
       361   -1.572613E-04
       362   -7.109139E-07
       363    3.326714E-06
       364   -2.615800E-06
       365   -3.804404E-06
       366    1.498526E-04
       367   -6.952688E-04
       368    8.555481E-06
       369   -1.743834E-05
       370    8.882857E-06
       371   -1.287575E-05
       372   -3.570921E-04
       373    3.547216E-04
       374   -3.367041E-07
       375   -3.489693E-07
       376   -1.587218E-05
       377    5.386160E-07
       378    4.155254E-08
       379   -2.654082E-05
       380   -8.688007E-08
       381    4.266389E-07
       382    4.783559E-05
       383   -5.451040E-05
       384    1.516613E-06
       385    3.929267E-06
       386   -7.631363E-06
       387    1.681804E-05
       388   -1.119493E-04
       389   -5.142832E-05
       390    2.668044E-05
       391   -1.170857E-04
       392   -2.118531E-02
       393    2.698805E-05
       394   -1.049073E-04
       395   -1.998621E-02
       396   -1.098704E-04
       397   -5.800779E-05
       398   -1.386518E-02
       399   -2.100562E-05
       400    6.865154E-06
       401    2.762498E-04
       402    1.245051E-06
       403   -1.751565E-06
       404    5.065147E-07
       405   -7.670614E-07
       406   -3.216148E-05
       407   -1.571989E-04
       408    5.113849E-07
       409   -3.263816E-06
       410    2.752431E-06
       411   -4.560637E-06
       412   -1.498353E-04
       413   -6.950306E-04
       414   -8.719487E-06
       415    1.616365E-05
       416   -7.444162E-06
       417   -1.222638E-05
       418    3.578063E-04
       419    3.537717E-04
       420    3.710641E-07
       421   -3.137578E-07
       422    1.587338E-05
       423   -5.895246E-07
       424   -3.811198E-08
       425    2.651438E-05
       426    9.168986E-08
       427    4.590623E-07
       428   -4.781075E-05
       429   -5.449236E-05
       430   -6.805174E-08
       431   -9.588448E-08
       432   -7.361361E-07
       433    1.133446E-05
       434    1.186924E-05
       435   -7.074563E-05
       436    2.865132E-06
       437    1.094073E-03
       438   -1.481788E-05
       439   -6.208409E-07
       440    1.353020E-03
       441   -1.457931E-05
       442    4.555301E-05
       443    1.648789E-03
       444   -1.242685E-05
       445   -3.992281E-08
       446    6.766415E-08
       447   -2.774134E-08
       448   -2.154689E-05
       449   -1.588083E-07
       450   -3.012195E-04
       451    7.049429E-08
       452   -6.262311E-07
       453    5.557368E-07
       454    3.335093E-05
       455   -8.794612E-07
       456   -6.432299E-04
       457   -1.332934E-05
       458    4.331903E-06
       459    8.997439E-06
       460    4.320350E-04
       461   -4.419844E-08
       462    7.958060E-04
       463    8.177428E-09
       464    4.696013E-06
       465    4.989235E-08
       466    2.557924E-08
       467    1.676286E-05
       468    1.328193E-08
       469   -3.655041E-08
       470   -2.306323E-05
       471   -8.021955E-08
       472    1.333502E-04
       473   -7.478798E-05
       474   -5.455984E-04
       475   -3.017984E-03
       476    7.574595E-05
       477    7.452856E-05
       478   -3.711948E-04
       479    1.685316E-04
       480    6.706389E-04
       481   -1.817304E-03
       482    7.381870E-05
       483    5.473473E-04
       484    2.994308E-03
       485   -7.615697E-05
       486    7.469481E-05
       487    3.694015E-04
       488   -1.526576E-04
       489    6.754134E-04
       490    1.812301E-03
 Sym= X
 Ene= -0.630746
 Spin= Alpha
 Occup= -0.630746
         1   -1.846815E-04
         2   -4.292080E-04
         3    1.255493E-03
         4   -3.089659E-03
         5   -2.263271E-03
         6   -1.204327E-02
         7    1.754613E-03
         8    2.201016E-04
         9    4.039152E-02
        10   -2.692454E-03
        11    4.621276E-04
        12    3.833983E-02
        13   -3.720330E-02
        14    1.321265E-02
        15    1.280954E-02
        16    1.285910E-06
        17   -1.457163E-05
        18    1.328572E-05
        19   -1.101761E-05
        20   -6.297070E-03
        21    4.244589E-03
        22   -7.251652E-04
        23    4.308515E-04
        24    2.943137E-04
        25   -7.523765E-04
        26   -1.428552E-02
        27    7.917329E-03
        28   -5.167147E-03
        29    4.867173E-03
        30    2.999740E-04
        31    1.209127E-03
        32    1.739074E-03
        33   -9.768914E-03
        34   -2.190872E-05
        35    7.069889E-06
        36   -2.231477E-04
        37    9.840369E-06
        38   -6.791618E-06
        39   -6.392519E-04
        40    1.955327E-05
        41   -2.693633E-06
        42    9.386359E-04
        43   -7.376744E-04
        44    3.607314E-05
        45    7.916388E-05
        46    1.178068E-04
        47   -3.030245E-03
        48   -5.914189E-02
        49    5.481652E-03
        50    4.588022E-04
        51    2.023331E-06
        52    2.213617E-01
        53   -3.982427E-04
        54    1.805438E-05
        55    2.289201E-01
        56   -1.766811E-02
        57   -4.676575E-04
        58    2.041747E-01
        59    4.146785E-05
        60   -3.860796E-05
        61   -2.859885E-06
        62    1.271402E-07