[Molden Format]
[Title]
ADC(2) - opt by CAM-B3LYP gaussian                                              
[Atoms] AU
 c     1    6 -.12590385386216E+01 -.22819701624009E+01 -.30156123253150E-01
 c     2    6 -.25547233845863E+01 -.83266058000000E-06 -.28792213416740E-01
 c     3    6 -.12590428849917E+01 0.22819669475044E+01 -.30169993842970E-01
 c     4    6 0.13339759331395E+01 0.22828246941961E+01 -.32722654800530E-01
 c     5    6 0.26864234278208E+01 0.32869423900000E-05 -.32794180934660E-01
 c     6    6 0.13339778039684E+01 -.22828226745513E+01 -.32706516539360E-01
 h     7    1 -.23005849451053E+01 -.40353719055945E+01 -.27139024303910E-01
 h     8    1 -.23005903875166E+01 0.40353685773143E+01 -.27164403325880E-01
 h     9    1 0.23527432406667E+01 0.40554759247724E+01 -.35914685697900E-01
 h    10    1 0.23527525948111E+01 -.40554698422164E+01 -.35883032785170E-01
 n    11    7 -.52784595104117E+01 -.53030440000000E-06 -.22539903328000E-01
 o    12    8 -.63796877956448E+01 0.20272212823250E+01 -.19883023974210E-01
 o    13    8 -.63796922742957E+01 -.20272201130570E+01 -.19923067270970E-01
 n    14    7 0.52516126460355E+01 -.32243452000000E-06 -.88209511610250E-01
 h    15    1 0.62001707317805E+01 0.16133662892433E+01 0.23199721167530E+00
 h    16    1 0.62001633429513E+01 -.16133706190784E+01 0.23200112340840E+00
[GTO]
    1 0
 s    6 1.00
 0.13575349682000E+05 0.60645503603591E-03
 0.20352333680000E+04 0.46979088884982E-02
 0.46322562359000E+03 0.24332477647552E-01
 0.13120019598000E+03 0.97399968307759E-01
 0.42853015891000E+02 0.30195584253780E+00
 0.15584185766000E+02 0.66233609137875E+00
 s    2 1.00
 0.62067138508000E+01 0.65595308539952E+00
 0.25764896527000E+01 0.37585633285142E+00
 s    1 1.00
 0.57696339419000E+00 0.10000000000000E+01
 s    1 1.00
 0.22972831358000E+00 0.10000000000000E+01
 s    1 1.00
 0.95164440028000E-01 0.10000000000000E+01
 s    1 1.00
 0.48475401370000E-01 0.10000000000000E+01
 p    4 1.00
 0.34697232244000E+02 0.11327220003114E-01
 0.79582622826000E+01 0.76169659202087E-01
 0.23780826883000E+01 0.30192252202676E+00
 0.81433208183000E+00 0.72785027349547E+00
 p    1 1.00
 0.28887547253000E+00 0.10000000000000E+01
 p    1 1.00
 0.10056823671000E+00 0.10000000000000E+01
 d    1 1.00
 0.10970000000000E+01 0.10000000000000E+01
 d    1 1.00
 0.31800000000000E+00 0.10000000000000E+01
 d    1 1.00
 0.90985336424000E-01 0.10000000000000E+01
 f    1 1.00
 0.76100000000000E+00 0.10000000000000E+01
 
    2 0
 s    6 1.00
 0.13575349682000E+05 0.60645503603591E-03
 0.20352333680000E+04 0.46979088884982E-02
 0.46322562359000E+03 0.24332477647552E-01
 0.13120019598000E+03 0.97399968307759E-01
 0.42853015891000E+02 0.30195584253780E+00
 0.15584185766000E+02 0.66233609137875E+00
 s    2 1.00
 0.62067138508000E+01 0.65595308539952E+00
 0.25764896527000E+01 0.37585633285142E+00
 s    1 1.00
 0.57696339419000E+00 0.10000000000000E+01
 s    1 1.00
 0.22972831358000E+00 0.10000000000000E+01
 s    1 1.00
 0.95164440028000E-01 0.10000000000000E+01
 s    1 1.00
 0.48475401370000E-01 0.10000000000000E+01
 p    4 1.00
 0.34697232244000E+02 0.11327220003114E-01
 0.79582622826000E+01 0.76169659202087E-01
 0.23780826883000E+01 0.30192252202676E+00
 0.81433208183000E+00 0.72785027349547E+00
 p    1 1.00
 0.28887547253000E+00 0.10000000000000E+01
 p    1 1.00
 0.10056823671000E+00 0.10000000000000E+01
 d    1 1.00
 0.10970000000000E+01 0.10000000000000E+01
 d    1 1.00
 0.31800000000000E+00 0.10000000000000E+01
 d    1 1.00
 0.90985336424000E-01 0.10000000000000E+01
 f    1 1.00
 0.76100000000000E+00 0.10000000000000E+01
 
    3 0
 s    6 1.00
 0.13575349682000E+05 0.60645503603591E-03
 0.20352333680000E+04 0.46979088884982E-02
 0.46322562359000E+03 0.24332477647552E-01
 0.13120019598000E+03 0.97399968307759E-01
 0.42853015891000E+02 0.30195584253780E+00
 0.15584185766000E+02 0.66233609137875E+00
 s    2 1.00
 0.62067138508000E+01 0.65595308539952E+00
 0.25764896527000E+01 0.37585633285142E+00
 s    1 1.00
 0.57696339419000E+00 0.10000000000000E+01
 s    1 1.00
 0.22972831358000E+00 0.10000000000000E+01
 s    1 1.00
 0.95164440028000E-01 0.10000000000000E+01
 s    1 1.00
 0.48475401370000E-01 0.10000000000000E+01
 p    4 1.00
 0.34697232244000E+02 0.11327220003114E-01
 0.79582622826000E+01 0.76169659202087E-01
 0.23780826883000E+01 0.30192252202676E+00
 0.81433208183000E+00 0.72785027349547E+00
 p    1 1.00
 0.28887547253000E+00 0.10000000000000E+01
 p    1 1.00
 0.10056823671000E+00 0.10000000000000E+01
 d    1 1.00
 0.10970000000000E+01 0.10000000000000E+01
 d    1 1.00
 0.31800000000000E+00 0.10000000000000E+01
 d    1 1.00
 0.90985336424000E-01 0.10000000000000E+01
 f    1 1.00
 0.76100000000000E+00 0.10000000000000E+01
 
    4 0
 s    6 1.00
 0.13575349682000E+05 0.60645503603591E-03
 0.20352333680000E+04 0.46979088884982E-02
 0.46322562359000E+03 0.24332477647552E-01
 0.13120019598000E+03 0.97399968307759E-01
 0.42853015891000E+02 0.30195584253780E+00
 0.15584185766000E+02 0.66233609137875E+00
 s    2 1.00
 0.62067138508000E+01 0.65595308539952E+00
 0.25764896527000E+01 0.37585633285142E+00
 s    1 1.00
 0.57696339419000E+00 0.10000000000000E+01
 s    1 1.00
 0.22972831358000E+00 0.10000000000000E+01
 s    1 1.00
 0.95164440028000E-01 0.10000000000000E+01
 s    1 1.00
 0.48475401370000E-01 0.10000000000000E+01
 p    4 1.00
 0.34697232244000E+02 0.11327220003114E-01
 0.79582622826000E+01 0.76169659202087E-01
 0.23780826883000E+01 0.30192252202676E+00
 0.81433208183000E+00 0.72785027349547E+00
 p    1 1.00
 0.28887547253000E+00 0.10000000000000E+01
 p    1 1.00
 0.10056823671000E+00 0.10000000000000E+01
 d    1 1.00
 0.10970000000000E+01 0.10000000000000E+01
 d    1 1.00
 0.31800000000000E+00 0.10000000000000E+01
 d    1 1.00
 0.90985336424000E-01 0.10000000000000E+01
 f    1 1.00
 0.76100000000000E+00 0.10000000000000E+01
 
    5 0
 s    6 1.00
 0.13575349682000E+05 0.60645503603591E-03
 0.20352333680000E+04 0.46979088884982E-02
 0.46322562359000E+03 0.24332477647552E-01
 0.13120019598000E+03 0.97399968307759E-01
 0.42853015891000E+02 0.30195584253780E+00
 0.15584185766000E+02 0.66233609137875E+00
 s    2 1.00
 0.62067138508000E+01 0.65595308539952E+00
 0.25764896527000E+01 0.37585633285142E+00
 s    1 1.00
 0.57696339419000E+00 0.10000000000000E+01
 s    1 1.00
 0.22972831358000E+00 0.10000000000000E+01
 s    1 1.00
 0.95164440028000E-01 0.10000000000000E+01
 s    1 1.00
 0.48475401370000E-01 0.10000000000000E+01
 p    4 1.00
 0.34697232244000E+02 0.11327220003114E-01
 0.79582622826000E+01 0.76169659202087E-01
 0.23780826883000E+01 0.30192252202676E+00
 0.81433208183000E+00 0.72785027349547E+00
 p    1 1.00
 0.28887547253000E+00 0.10000000000000E+01
 p    1 1.00
 0.10056823671000E+00 0.10000000000000E+01
 d    1 1.00
 0.10970000000000E+01 0.10000000000000E+01
 d    1 1.00
 0.31800000000000E+00 0.10000000000000E+01
 d    1 1.00
 0.90985336424000E-01 0.10000000000000E+01
 f    1 1.00
 0.76100000000000E+00 0.10000000000000E+01
 
    6 0
 s    6 1.00
 0.13575349682000E+05 0.60645503603591E-03
 0.20352333680000E+04 0.46979088884982E-02
 0.46322562359000E+03 0.24332477647552E-01
 0.13120019598000E+03 0.97399968307759E-01
 0.42853015891000E+02 0.30195584253780E+00
 0.15584185766000E+02 0.66233609137875E+00
 s    2 1.00
 0.62067138508000E+01 0.65595308539952E+00
 0.25764896527000E+01 0.37585633285142E+00
 s    1 1.00
 0.57696339419000E+00 0.10000000000000E+01
 s    1 1.00
 0.22972831358000E+00 0.10000000000000E+01
 s    1 1.00
 0.95164440028000E-01 0.10000000000000E+01
 s    1 1.00
 0.48475401370000E-01 0.10000000000000E+01
 p    4 1.00
 0.34697232244000E+02 0.11327220003114E-01
 0.79582622826000E+01 0.76169659202087E-01
 0.23780826883000E+01 0.30192252202676E+00
 0.81433208183000E+00 0.72785027349547E+00
 p    1 1.00
 0.28887547253000E+00 0.10000000000000E+01
 p    1 1.00
 0.10056823671000E+00 0.10000000000000E+01
 d    1 1.00
 0.10970000000000E+01 0.10000000000000E+01
 d    1 1.00
 0.31800000000000E+00 0.10000000000000E+01
 d    1 1.00
 0.90985336424000E-01 0.10000000000000E+01
 f    1 1.00
 0.76100000000000E+00 0.10000000000000E+01
 
    7 0
 s    3 1.00
 0.34061341000000E+02 0.25439307208879E-01
 0.51235746000000E+01 0.19008594890375E+00
 0.11646626000000E+01 0.85244113011042E+00
 s    1 1.00
 0.32723041000000E+00 0.10000000000000E+01
 s    1 1.00
 0.10307241000000E+00 0.10000000000000E+01
 p    1 1.00
 0.80000000000000E+00 0.10000000000000E+01
 p    1 1.00
 0.95774129632000E-01 0.10000000000000E+01
 
    8 0
 s    3 1.00
 0.34061341000000E+02 0.25439307208879E-01
 0.51235746000000E+01 0.19008594890375E+00
 0.11646626000000E+01 0.85244113011042E+00
 s    1 1.00
 0.32723041000000E+00 0.10000000000000E+01
 s    1 1.00
 0.10307241000000E+00 0.10000000000000E+01
 p    1 1.00
 0.80000000000000E+00 0.10000000000000E+01
 p    1 1.00
 0.95774129632000E-01 0.10000000000000E+01
 
    9 0
 s    3 1.00
 0.34061341000000E+02 0.25439307208879E-01
 0.51235746000000E+01 0.19008594890375E+00
 0.11646626000000E+01 0.85244113011042E+00
 s    1 1.00
 0.32723041000000E+00 0.10000000000000E+01
 s    1 1.00
 0.10307241000000E+00 0.10000000000000E+01
 p    1 1.00
 0.80000000000000E+00 0.10000000000000E+01
 p    1 1.00
 0.95774129632000E-01 0.10000000000000E+01
 
   10 0
 s    3 1.00
 0.34061341000000E+02 0.25439307208879E-01
 0.51235746000000E+01 0.19008594890375E+00
 0.11646626000000E+01 0.85244113011042E+00
 s    1 1.00
 0.32723041000000E+00 0.10000000000000E+01
 s    1 1.00
 0.10307241000000E+00 0.10000000000000E+01
 p    1 1.00
 0.80000000000000E+00 0.10000000000000E+01
 p    1 1.00
 0.95774129632000E-01 0.10000000000000E+01
 
   11 0
 s    6 1.00
 0.19730800647000E+05 0.58626402628763E-03
 0.29578958745000E+04 0.45428820586397E-02
 0.67322133595000E+03 0.23558413450084E-01
 0.19068249494000E+03 0.94709193292923E-01
 0.62295441898000E+02 0.29719784913376E+00
 0.22654161182000E+02 0.66916246895232E+00
 s    2 1.00
 0.89791477428000E+01 0.64596683630063E+00
 0.36863002370000E+01 0.38700574393705E+00
 s    1 1.00
 0.84660076805000E+00 0.10000000000000E+01
 s    1 1.00
 0.33647133771000E+00 0.10000000000000E+01
 s    1 1.00
 0.13647653675000E+00 0.10000000000000E+01
 s    1 1.00
 0.68441605847000E-01 0.10000000000000E+01
 p    4 1.00
 0.49200380510000E+02 0.11448825101764E-01
 0.11346790537000E+02 0.78422337970864E-01
 0.34273972411000E+01 0.30818094738830E+00
 0.11785525134000E+01 0.72027196368413E+00
 p    1 1.00
 0.41642204972000E+00 0.10000000000000E+01
 p    1 1.00
 0.14260826011000E+00 0.10000000000000E+01
 d    1 1.00
 0.16540000000000E+01 0.10000000000000E+01
 d    1 1.00
 0.46900000000000E+00 0.10000000000000E+01
 d    1 1.00
 0.12829642058000E+00 0.10000000000000E+01
 f    1 1.00
 0.10930000000000E+01 0.10000000000000E+01
 
   12 0
 s    6 1.00
 0.27032382631000E+05 0.57227335211155E-03
 0.40523871392000E+04 0.44353233492995E-02
 0.92232722710000E+03 0.23020107706038E-01
 0.26124070989000E+03 0.92822490667928E-01
 0.85354641351000E+02 0.29378500009671E+00
 0.31035035245000E+02 0.67401604501641E+00
 s    2 1.00
 0.12260860728000E+02 0.63839937025506E+00
 0.49987076005000E+01 0.39534587125718E+00
 s    1 1.00
 0.11703108158000E+01 0.10000000000000E+01
 s    1 1.00
 0.46474740994000E+00 0.10000000000000E+01
 s    1 1.00
 0.18504536357000E+00 0.10000000000000E+01
 s    1 1.00
 0.70288026270000E-01 0.10000000000000E+01
 p    4 1.00
 0.63274954801000E+02 0.12018332222616E-01
 0.14627049379000E+02 0.83005421790056E-01
 0.44501223456000E+01 0.31991743925964E+00
 0.15275799647000E+01 0.70715542916104E+00
 p    1 1.00
 0.52935117943000E+00 0.10000000000000E+01
 p    1 1.00
 0.17478421270000E+00 0.10000000000000E+01
 p    1 1.00
 0.51112745706000E-01 0.10000000000000E+01
 d    1 1.00
 0.23140000000000E+01 0.10000000000000E+01
 d    1 1.00
 0.64500000000000E+00 0.10000000000000E+01
 d    1 1.00
 0.14696477366000E+00 0.10000000000000E+01
 f    1 1.00
 0.14280000000000E+01 0.10000000000000E+01
 
   13 0
 s    6 1.00
 0.27032382631000E+05 0.57227335211155E-03
 0.40523871392000E+04 0.44353233492995E-02
 0.92232722710000E+03 0.23020107706038E-01
 0.26124070989000E+03 0.92822490667928E-01
 0.85354641351000E+02 0.29378500009671E+00
 0.31035035245000E+02 0.67401604501641E+00
 s    2 1.00
 0.12260860728000E+02 0.63839937025506E+00
 0.49987076005000E+01 0.39534587125718E+00
 s    1 1.00
 0.11703108158000E+01 0.10000000000000E+01
 s    1 1.00
 0.46474740994000E+00 0.10000000000000E+01
 s    1 1.00
 0.18504536357000E+00 0.10000000000000E+01
 s    1 1.00
 0.70288026270000E-01 0.10000000000000E+01
 p    4 1.00
 0.63274954801000E+02 0.12018332222616E-01
 0.14627049379000E+02 0.83005421790056E-01
 0.44501223456000E+01 0.31991743925964E+00
 0.15275799647000E+01 0.70715542916104E+00
 p    1 1.00
 0.52935117943000E+00 0.10000000000000E+01
 p    1 1.00
 0.17478421270000E+00 0.10000000000000E+01
 p    1 1.00
 0.51112745706000E-01 0.10000000000000E+01
 d    1 1.00
 0.23140000000000E+01 0.10000000000000E+01
 d    1 1.00
 0.64500000000000E+00 0.10000000000000E+01
 d    1 1.00
 0.14696477366000E+00 0.10000000000000E+01
 f    1 1.00
 0.14280000000000E+01 0.10000000000000E+01
 
   14 0
 s    6 1.00
 0.19730800647000E+05 0.58626402628763E-03
 0.29578958745000E+04 0.45428820586397E-02
 0.67322133595000E+03 0.23558413450084E-01
 0.19068249494000E+03 0.94709193292923E-01
 0.62295441898000E+02 0.29719784913376E+00
 0.22654161182000E+02 0.66916246895232E+00
 s    2 1.00
 0.89791477428000E+01 0.64596683630063E+00
 0.36863002370000E+01 0.38700574393705E+00
 s    1 1.00
 0.84660076805000E+00 0.10000000000000E+01
 s    1 1.00
 0.33647133771000E+00 0.10000000000000E+01
 s    1 1.00
 0.13647653675000E+00 0.10000000000000E+01
 s    1 1.00
 0.68441605847000E-01 0.10000000000000E+01
 p    4 1.00
 0.49200380510000E+02 0.11448825101764E-01
 0.11346790537000E+02 0.78422337970864E-01
 0.34273972411000E+01 0.30818094738830E+00
 0.11785525134000E+01 0.72027196368413E+00
 p    1 1.00
 0.41642204972000E+00 0.10000000000000E+01
 p    1 1.00
 0.14260826011000E+00 0.10000000000000E+01
 d    1 1.00
 0.16540000000000E+01 0.10000000000000E+01
 d    1 1.00
 0.46900000000000E+00 0.10000000000000E+01
 d    1 1.00
 0.12829642058000E+00 0.10000000000000E+01
 f    1 1.00
 0.10930000000000E+01 0.10000000000000E+01
 
   15 0
 s    3 1.00
 0.34061341000000E+02 0.25439307208879E-01
 0.51235746000000E+01 0.19008594890375E+00
 0.11646626000000E+01 0.85244113011042E+00
 s    1 1.00
 0.32723041000000E+00 0.10000000000000E+01
 s    1 1.00
 0.10307241000000E+00 0.10000000000000E+01
 p    1 1.00
 0.80000000000000E+00 0.10000000000000E+01
 p    1 1.00
 0.95774129632000E-01 0.10000000000000E+01
 
   16 0
 s    3 1.00
 0.34061341000000E+02 0.25439307208879E-01
 0.51235746000000E+01 0.19008594890375E+00
 0.11646626000000E+01 0.85244113011042E+00
 s    1 1.00
 0.32723041000000E+00 0.10000000000000E+01
 s    1 1.00
 0.10307241000000E+00 0.10000000000000E+01
 p    1 1.00
 0.80000000000000E+00 0.10000000000000E+01
 p    1 1.00
 0.95774129632000E-01 0.10000000000000E+01
 
[MO]
 Sym= X
 Ene= -0.836992
 Spin= Alpha
 Occup= -0.836992
         1   -2.318353E-04
         2   -5.386287E-04
         3    1.492599E-03
         4   -3.221344E-03
         5   -5.389386E-04
         6   -1.355122E-02
         7    2.089550E-03
         8    1.479268E-04
         9    2.906742E-02
        10   -2.920526E-03
        11    4.549188E-04
        12    2.716220E-02
        13   -4.041233E-02
        14    1.345553E-02
        15    7.934168E-03
        16    9.221541E-06
        17   -2.145751E-05
        18    1.223597E-05
        19   -1.150589E-05
        20   -6.136226E-03
        21    3.838040E-03
        22   -7.914026E-04
        23    4.737291E-04
        24    3.176735E-04
        25   -8.609299E-04
        26   -1.390883E-02
        27    7.228661E-03
        28   -5.439840E-03
        29    5.107474E-03
        30    3.323664E-04
        31    1.530731E-03
        32    2.370283E-03
        33   -1.069058E-02
        34   -2.363505E-05
        35    7.324849E-06
        36   -1.303755E-04
        37    9.705189E-06
        38   -6.903278E-06
        39   -6.779264E-04
        40    2.200456E-05
        41   -2.924039E-06
        42    8.528435E-04
        43   -6.825693E-04
        44    3.325404E-05
        45    7.221179E-05
        46    1.761813E-04
        47   -3.557908E-03
        48   -6.133991E-02
        49    6.738702E-03
        50    2.441271E-04
        51    1.786139E-06
        52    2.011400E-01
        53   -7.164349E-04
        54    1.642369E-05
        55    2.084839E-01
        56   -1.893803E-02
        57   -5.145550E-04
        58    1.989723E-01
        59    5.529627E-05
        60   -5.170484E-05
        61   -3.591435E-06
        62    1.584384E-07
        63   -4.866205E-04
        64    6.126708E-07
        65    4.678648E-04
        66   -7.739900E-04
        67    3.061252E-04
        68    3.237058E-06
        69   -2.840459E-03
        70    1.157636E-06
        71    1.203424E-02
        72   -1.351444E-02
        73    1.480205E-03
        74   -8.422002E-05
        75    4.741777E-03
        76   -1.193941E-05
        77    8.100592E-06
        78    5.099235E-08
        79   -1.130694E-03
        80   -8.335251E-06
        81    9.814911E-09
        82    6.565898E-04
        83   -2.532834E-06
        84   -7.822832E-08
        85    8.603949E-04
        86    9.423303E-08
        87   -2.325915E-04
        88   -5.403128E-04
        89    1.496440E-03
        90   -3.229825E-03
        91    1.150331E-03
        92   -1.354963E-02
        93    2.088255E-03
        94   -1.475727E-04
        95    2.910144E-02
        96   -2.890942E-03
        97   -4.477364E-04
        98    2.719695E-02
        99   -4.043070E-02
       100   -1.392754E-02
       101    7.970634E-03
       102    9.176258E-06
       103   -2.131724E-05
       104    1.214098E-05
       105    1.164592E-05
       106   -6.135563E-03
       107   -3.838225E-03
       108   -7.854809E-04
       109    4.673232E-04
       110    3.181577E-04
       111    8.581738E-04
       112   -1.390639E-02
       113   -7.228176E-03
       114   -5.505261E-03
       115    5.185216E-03
       116    3.200459E-04
       117   -1.446651E-03
       118    2.359256E-03
       119    1.069195E-02
       120   -2.366363E-05
       121   -7.292810E-06
       122   -1.305499E-04
       123    9.835480E-06
       124    6.860813E-06
       125   -6.777238E-04
       126    2.191261E-05
       127    2.923518E-06
       128    8.528748E-04
       129    6.825122E-04
       130    1.715268E-04
       131    3.732708E-04
       132    5.788878E-04
       133   -1.253693E-02
       134    2.581072E-02
       135    1.548220E-02
       136   -1.778385E-03
       137    6.748231E-04
       138   -1.490057E-01
       139   -1.117330E-02
       140    7.347882E-03
       141   -1.518449E-01
       142   -2.462189E-02
       143   -8.802462E-03
       144   -9.204238E-02
       145    1.795090E-04
       146   -2.176419E-04
       147    3.813291E-05
       148   -1.014638E-05
       149   -9.794481E-04
       150    2.932860E-03
       151    7.729474E-04
       152   -9.194977E-04
       153    1.465503E-04
       154    2.014294E-03
       155   -4.450421E-03
       156    4.881928E-03
       157    9.638564E-03
       158   -7.482894E-03
       159   -2.155669E-03
       160   -1.138180E-02
       161    3.870544E-03
       162   -1.265778E-02
       163   -1.871370E-05
       164    1.117569E-05
       165    8.267887E-04
       166   -2.301602E-05
       167    2.058304E-05
       168   -1.769608E-04
       169    4.812309E-05
       170   -3.557681E-05
       171   -9.322926E-04
       172    3.365270E-04
       173   -1.394757E-03
       174   -3.175456E-03
       175    3.271636E-03
       176    2.669606E-02
       177   -2.811650E-02
       178    1.054316E-02
       179    1.089147E-02
       180   -5.033532E-07
       181   -1.107770E-01
       182    7.185823E-04
       183   -1.360243E-05
       184   -1.139128E-01
       185   -3.698384E-02
       186    6.341549E-04
       187   -1.362520E-01
       188    5.946079E-04
       189   -3.307851E-04
       190   -2.638227E-04
       191    2.275094E-07
       192    9.862485E-03
       193    5.970377E-07
       194   -2.163170E-03
       195    4.869156E-03
       196   -2.705986E-03
       197    3.558576E-06
       198    2.423854E-02
       199    6.934797E-07
       200   -7.643485E-03
       201    9.067933E-03
       202   -1.424448E-03
       203   -1.312262E-04
       204    1.764469E-02
       205    3.328371E-06
       206    1.435785E-04
       207   -5.431663E-09
       208    2.800314E-04
       209   -1.023987E-04
       210   -5.670148E-08
       211    1.086335E-03
       212   -9.023197E-05
       213    6.398882E-08
       214   -1.462036E-03
       215   -6.758231E-08
       216    1.717010E-04
       217    3.735275E-04
       218    5.804055E-04
       219   -1.255722E-02
       220    2.765363E-02
       221    1.545230E-02
       222   -1.779421E-03
       223   -6.697365E-04
       224   -1.490368E-01
       225   -1.119102E-02
       226   -7.356486E-03
       227   -1.518770E-01
       228   -2.463525E-02
       229    9.459940E-03
       230   -9.204915E-02
       231    1.794351E-04
       232   -2.179891E-04
       233    3.855399E-05
       234    1.040801E-05
       235   -9.787453E-04
       236   -2.932957E-03
       237    7.778763E-04
       238   -9.249826E-04
       239    1.471062E-04
       240   -2.017819E-03
       241   -4.447453E-03
       242   -4.881702E-03
       243    9.592065E-03
       244   -7.439250E-03
       245   -2.152816E-03
       246    1.145415E-02
       247    3.879673E-03
       248    1.266324E-02
       249   -1.877804E-05
       250   -1.125955E-05
       251    8.270636E-04
       252   -2.314010E-05
       253   -2.048296E-05
       254   -1.772810E-04
       255    4.833348E-05
       256    3.558924E-05
       257   -9.323413E-04
       258   -3.364726E-04
       259   -4.040014E-04
       260   -1.916949E-04
       261   -2.053324E-02
       262   -7.949232E-06
       263    7.698113E-06
       264    1.131705E-03
       265   -6.242262E-03
       266   -4.995786E-04
       267   -6.384075E-03
       268   -4.036560E-04
       269   -1.824723E-04
       270   -2.050659E-02
       271   -6.970777E-06
       272   -8.916546E-06
       273    1.133039E-03
       274   -6.327224E-03
       275    4.727268E-04
       276   -6.391704E-03
       277   -6.499591E-04
       278   -3.059831E-03
       279    4.151275E-02
       280   -7.402808E-06
       281    1.396418E-04
       282   -6.070706E-03
       283   -1.869407E-03
       284   -3.364431E-03
       285    1.681192E-03
       286   -6.534409E-04
       287   -3.058573E-03
       288    4.175528E-02
       289   -7.052178E-06
       290   -1.392389E-04
       291   -6.072385E-03
       292   -1.864307E-03
       293    3.397532E-03
       294    1.679133E-03
       295   -6.374016E-05
       296   -1.485001E-04
       297    1.454361E-04
       298    5.180020E-04
       299   -8.418145E-03
       300    6.743665E-04
       301    5.966894E-04
       302    7.874668E-07
       303    1.328370E-02
       304    2.186547E-04
       305    1.144726E-06
       306    1.584296E-02
       307   -3.533673E-03
       308    2.169176E-05
       309    5.581911E-03
       310    3.473004E-05
       311   -2.095312E-05
       312   -1.377692E-05
       313   -3.957858E-07
       314    4.351459E-03
       315   -9.521037E-07
       316    3.276275E-05
       317    3.740645E-05
       318   -7.016920E-05
       319   -1.534964E-06
       320    1.300943E-02
       321   -2.805407E-06
       322   -1.043427E-03
       323    3.367694E-03
       324   -2.324267E-03
       325    1.865737E-05
       326    2.952703E-03
       327    3.284063E-06
       328    7.840687E-06
       329   -8.529332E-08
       330    2.759338E-05
       331   -5.644595E-06
       332    1.456505E-07
       333    6.809764E-04
       334   -4.874791E-06
       335   -3.121749E-08
       336   -7.179968E-04
       337    1.786556E-07
       338   -4.889117E-06
       339   -7.349253E-06
       340   -4.338151E-05
       341    5.741861E-04
       342   -7.205387E-03
       343   -1.237113E-03
       344   -5.790840E-04
       345    1.577588E-05
       346   -7.827911E-02
       347   -6.549773E-04
       348    1.844005E-04
       349   -7.254168E-02
       350   -1.855772E-03
       351    5.738135E-04
       352   -5.764147E-02
       353   -2.536423E-04
       354    2.484348E-04
       355   -6.815936E-03
       356    2.359572E-06
       357   -3.923261E-06
       358    1.563689E-06
       359    2.935472E-06
       360   -2.934641E-05
       361    5.334857E-04
       362   -2.002923E-05
       363   -8.222881E-06
       364    2.825211E-05
       365    1.907642E-05
       366   -6.232288E-04
       367    1.729186E-03
       368   -9.288540E-05
       369    5.187678E-05
       370    4.100862E-05
       371    7.627963E-05
       372   -3.753991E-04
       373    3.294867E-04
       374    1.061831E-06
       375    1.154795E-06
       376    7.421588E-05
       377   -2.074465E-06
       378    7.934215E-07
       379    8.465278E-05
       380    6.498696E-07
       381   -2.342741E-06
       382   -1.842238E-04
       383    1.477532E-04
       384   -4.661499E-06
       385   -6.812422E-06
       386   -4.379568E-05
       387    5.706807E-04
       388   -7.202097E-03
       389   -1.211927E-03
       390   -5.532171E-04
       391   -3.373790E-05
       392   -7.822587E-02
       393   -6.311503E-04
       394   -1.999702E-04
       395   -7.249322E-02
       396   -1.819580E-03
       397   -5.805178E-04
       398   -5.759965E-02
       399   -2.392998E-04
       400   -2.533156E-04
       401   -6.812059E-03
       402    2.542269E-06
       403   -4.132808E-06
       404    1.590539E-06
       405   -2.949191E-06
       406   -2.909592E-05
       407   -5.330517E-04
       408   -1.931565E-05
       409   -8.725695E-06
       410    2.804134E-05
       411   -1.857142E-05
       412   -6.222652E-04
       413   -1.727682E-03
       414   -9.261926E-05
       415    5.322148E-05
       416    3.939778E-05
       417   -7.589278E-05
       418   -3.746949E-04
       419   -3.275678E-04
       420    1.076908E-06
       421   -1.211648E-06
       422    7.413969E-05
       423   -2.089077E-06
       424   -7.134121E-07
       425    8.463359E-05
       426    6.442533E-07
       427    2.339009E-06
       428   -1.841024E-04
       429   -1.476120E-04
       430    6.031809E-03
       431    1.430040E-02
       432   -2.217312E-02
       433   -3.505562E-02
       434   -2.292384E-02
       435   -8.071865E-02
       436   -2.128745E-02
       437    1.085739E-05
       438    2.597365E-01
       439   -2.415943E-02
       440    1.960113E-06
       441    2.561455E-01
       442   -2.379868E-02
       443   -9.981593E-05
       444    2.093736E-01
       445   -1.340698E-04
       446   -3.443705E-05
       447    1.685068E-04
       448    2.690507E-07
       449    7.830597E-04
       450    2.150110E-07
       451   -3.116581E-04
       452   -1.902512E-03
       453    2.214170E-03
       454   -3.637959E-06
       455    3.568340E-03
       456    6.637545E-07
       457   -2.321285E-03
       458   -4.054202E-03
       459    6.375487E-03
       460   -6.193743E-06
       461    2.278296E-03
       462    1.312788E-06
       463   -1.673535E-04
       464    4.072778E-08
       465   -1.017272E-03
       466   -1.087372E-04
       467    1.308827E-08
       468    5.459526E-04
       469    3.332655E-04
       470   -6.773032E-08
       471    8.188603E-04
       472   -4.789763E-08
       473    1.121403E-02
       474    2.159102E-02
       475    3.773699E-02
       476   -2.709509E-03
       477   -2.268816E-03
       478    1.304327E-02
       479    1.206938E-03
       480   -4.375145E-03
       481    1.492654E-02
       482    1.120676E-02
       483    2.151607E-02
       484    3.748152E-02
       485   -2.704927E-03
       486    2.261885E-03
       487    1.304690E-02
       488    1.242460E-03
       489    4.332814E-03
       490    1.493633E-02
 Sym= X
 Ene= 0.836992
 Spin= Alpha
 Occup= 0.836992
         1    9.897082E-03
         2    2.114474E-02
         3    8.475982E-03
         4   -5.587717E-01
         5    3.725988E+00
         6    7.486725E+00
         7    1.701934E-02
         8    4.369494E-02
         9    1.948122E-03
        10    1.401323E-02
        11    1.988665E-02
        12    3.439853E-03
        13   -3.722147E+00
        14    3.099360E+00
        15   -2.941319E-02
        16   -2.665099E-04
        17   -6.056475E-04
        18    8.721574E-04
        19   -1.065041E-03
        20    1.195181E-04
        21   -3.454539E-06
        22   -9.028935E-03
        23    7.583277E-03
        24    1.445658E-03
        25    2.209608E-03
        26    3.432888E-04
        27    2.721361E-04
        28   -1.294048E-03
        29    5.074230E-01
        30   -5.061290E-01
        31   -1.626845E+00
        32   -1.851351E-02
        33   -1.249167E-02
        34   -4.856070E-04
        35    2.127731E-04
        36   -4.044478E-05
        37    5.207584E-04
        38   -4.530674E-04
        39    7.363574E-05
        40    1.307518E-04
        41    1.676024E-04
        42   -1.937337E-05
        43    3.631929E-06
        44   -1.643979E-05
        45   -3.478384E-05
        46   -2.150394E-05
        47    9.766257E-04
        48    1.027079E-02
        49   -1.218029E-02
        50   -9.036482E-05
        51   -2.592256E-02
        52   -4.247498E-05
        53   -1.874178E-04
        54   -9.119649E-02
        55   -4.245935E-05
        56    3.851948E-03
        57    8.513762E+00
        58   -5.646629E-04
        59    1.566001E-06
        60    6.126508E-07
        61   -2.178651E-06
        62   -8.005427E-05