[Molden Format]
[Title]
ADC(2) - opt by CAM-B3LYP gaussian                                              
[Atoms] AU
 c     1    6 -.12590385386216E+01 -.22819701624009E+01 -.30156123253150E-01
 c     2    6 -.25547233845863E+01 -.83266058000000E-06 -.28792213416740E-01
 c     3    6 -.12590428849917E+01 0.22819669475044E+01 -.30169993842970E-01
 c     4    6 0.13339759331395E+01 0.22828246941961E+01 -.32722654800530E-01
 c     5    6 0.26864234278208E+01 0.32869423900000E-05 -.32794180934660E-01
 c     6    6 0.13339778039684E+01 -.22828226745513E+01 -.32706516539360E-01
 h     7    1 -.23005849451053E+01 -.40353719055945E+01 -.27139024303910E-01
 h     8    1 -.23005903875166E+01 0.40353685773143E+01 -.27164403325880E-01
 h     9    1 0.23527432406667E+01 0.40554759247724E+01 -.35914685697900E-01
 h    10    1 0.23527525948111E+01 -.40554698422164E+01 -.35883032785170E-01
 n    11    7 -.52784595104117E+01 -.53030440000000E-06 -.22539903328000E-01
 o    12    8 -.63796877956448E+01 0.20272212823250E+01 -.19883023974210E-01
 o    13    8 -.63796922742957E+01 -.20272201130570E+01 -.19923067270970E-01
 n    14    7 0.52516126460355E+01 -.32243452000000E-06 -.88209511610250E-01
 h    15    1 0.62001707317805E+01 0.16133662892433E+01 0.23199721167530E+00
 h    16    1 0.62001633429513E+01 -.16133706190784E+01 0.23200112340840E+00
[GTO]
    1 0
 s    6 1.00
 0.13575349682000E+05 0.60645503603591E-03
 0.20352333680000E+04 0.46979088884982E-02
 0.46322562359000E+03 0.24332477647552E-01
 0.13120019598000E+03 0.97399968307759E-01
 0.42853015891000E+02 0.30195584253780E+00
 0.15584185766000E+02 0.66233609137875E+00
 s    2 1.00
 0.62067138508000E+01 0.65595308539952E+00
 0.25764896527000E+01 0.37585633285142E+00
 s    1 1.00
 0.57696339419000E+00 0.10000000000000E+01
 s    1 1.00
 0.22972831358000E+00 0.10000000000000E+01
 s    1 1.00
 0.95164440028000E-01 0.10000000000000E+01
 s    1 1.00
 0.48475401370000E-01 0.10000000000000E+01
 p    4 1.00
 0.34697232244000E+02 0.11327220003114E-01
 0.79582622826000E+01 0.76169659202087E-01
 0.23780826883000E+01 0.30192252202676E+00
 0.81433208183000E+00 0.72785027349547E+00
 p    1 1.00
 0.28887547253000E+00 0.10000000000000E+01
 p    1 1.00
 0.10056823671000E+00 0.10000000000000E+01
 d    1 1.00
 0.10970000000000E+01 0.10000000000000E+01
 d    1 1.00
 0.31800000000000E+00 0.10000000000000E+01
 d    1 1.00
 0.90985336424000E-01 0.10000000000000E+01
 f    1 1.00
 0.76100000000000E+00 0.10000000000000E+01
 
    2 0
 s    6 1.00
 0.13575349682000E+05 0.60645503603591E-03
 0.20352333680000E+04 0.46979088884982E-02
 0.46322562359000E+03 0.24332477647552E-01
 0.13120019598000E+03 0.97399968307759E-01
 0.42853015891000E+02 0.30195584253780E+00
 0.15584185766000E+02 0.66233609137875E+00
 s    2 1.00
 0.62067138508000E+01 0.65595308539952E+00
 0.25764896527000E+01 0.37585633285142E+00
 s    1 1.00
 0.57696339419000E+00 0.10000000000000E+01
 s    1 1.00
 0.22972831358000E+00 0.10000000000000E+01
 s    1 1.00
 0.95164440028000E-01 0.10000000000000E+01
 s    1 1.00
 0.48475401370000E-01 0.10000000000000E+01
 p    4 1.00
 0.34697232244000E+02 0.11327220003114E-01
 0.79582622826000E+01 0.76169659202087E-01
 0.23780826883000E+01 0.30192252202676E+00
 0.81433208183000E+00 0.72785027349547E+00
 p    1 1.00
 0.28887547253000E+00 0.10000000000000E+01
 p    1 1.00
 0.10056823671000E+00 0.10000000000000E+01
 d    1 1.00
 0.10970000000000E+01 0.10000000000000E+01
 d    1 1.00
 0.31800000000000E+00 0.10000000000000E+01
 d    1 1.00
 0.90985336424000E-01 0.10000000000000E+01
 f    1 1.00
 0.76100000000000E+00 0.10000000000000E+01
 
    3 0
 s    6 1.00
 0.13575349682000E+05 0.60645503603591E-03
 0.20352333680000E+04 0.46979088884982E-02
 0.46322562359000E+03 0.24332477647552E-01
 0.13120019598000E+03 0.97399968307759E-01
 0.42853015891000E+02 0.30195584253780E+00
 0.15584185766000E+02 0.66233609137875E+00
 s    2 1.00
 0.62067138508000E+01 0.65595308539952E+00
 0.25764896527000E+01 0.37585633285142E+00
 s    1 1.00
 0.57696339419000E+00 0.10000000000000E+01
 s    1 1.00
 0.22972831358000E+00 0.10000000000000E+01
 s    1 1.00
 0.95164440028000E-01 0.10000000000000E+01
 s    1 1.00
 0.48475401370000E-01 0.10000000000000E+01
 p    4 1.00
 0.34697232244000E+02 0.11327220003114E-01
 0.79582622826000E+01 0.76169659202087E-01
 0.23780826883000E+01 0.30192252202676E+00
 0.81433208183000E+00 0.72785027349547E+00
 p    1 1.00
 0.28887547253000E+00 0.10000000000000E+01
 p    1 1.00
 0.10056823671000E+00 0.10000000000000E+01
 d    1 1.00
 0.10970000000000E+01 0.10000000000000E+01
 d    1 1.00
 0.31800000000000E+00 0.10000000000000E+01
 d    1 1.00
 0.90985336424000E-01 0.10000000000000E+01
 f    1 1.00
 0.76100000000000E+00 0.10000000000000E+01
 
    4 0
 s    6 1.00
 0.13575349682000E+05 0.60645503603591E-03
 0.20352333680000E+04 0.46979088884982E-02
 0.46322562359000E+03 0.24332477647552E-01
 0.13120019598000E+03 0.97399968307759E-01
 0.42853015891000E+02 0.30195584253780E+00
 0.15584185766000E+02 0.66233609137875E+00
 s    2 1.00
 0.62067138508000E+01 0.65595308539952E+00
 0.25764896527000E+01 0.37585633285142E+00
 s    1 1.00
 0.57696339419000E+00 0.10000000000000E+01
 s    1 1.00
 0.22972831358000E+00 0.10000000000000E+01
 s    1 1.00
 0.95164440028000E-01 0.10000000000000E+01
 s    1 1.00
 0.48475401370000E-01 0.10000000000000E+01
 p    4 1.00
 0.34697232244000E+02 0.11327220003114E-01
 0.79582622826000E+01 0.76169659202087E-01
 0.23780826883000E+01 0.30192252202676E+00
 0.81433208183000E+00 0.72785027349547E+00
 p    1 1.00
 0.28887547253000E+00 0.10000000000000E+01
 p    1 1.00
 0.10056823671000E+00 0.10000000000000E+01
 d    1 1.00
 0.10970000000000E+01 0.10000000000000E+01
 d    1 1.00
 0.31800000000000E+00 0.10000000000000E+01
 d    1 1.00
 0.90985336424000E-01 0.10000000000000E+01
 f    1 1.00
 0.76100000000000E+00 0.10000000000000E+01
 
    5 0
 s    6 1.00
 0.13575349682000E+05 0.60645503603591E-03
 0.20352333680000E+04 0.46979088884982E-02
 0.46322562359000E+03 0.24332477647552E-01
 0.13120019598000E+03 0.97399968307759E-01
 0.42853015891000E+02 0.30195584253780E+00
 0.15584185766000E+02 0.66233609137875E+00
 s    2 1.00
 0.62067138508000E+01 0.65595308539952E+00
 0.25764896527000E+01 0.37585633285142E+00
 s    1 1.00
 0.57696339419000E+00 0.10000000000000E+01
 s    1 1.00
 0.22972831358000E+00 0.10000000000000E+01
 s    1 1.00
 0.95164440028000E-01 0.10000000000000E+01
 s    1 1.00
 0.48475401370000E-01 0.10000000000000E+01
 p    4 1.00
 0.34697232244000E+02 0.11327220003114E-01
 0.79582622826000E+01 0.76169659202087E-01
 0.23780826883000E+01 0.30192252202676E+00
 0.81433208183000E+00 0.72785027349547E+00
 p    1 1.00
 0.28887547253000E+00 0.10000000000000E+01
 p    1 1.00
 0.10056823671000E+00 0.10000000000000E+01
 d    1 1.00
 0.10970000000000E+01 0.10000000000000E+01
 d    1 1.00
 0.31800000000000E+00 0.10000000000000E+01
 d    1 1.00
 0.90985336424000E-01 0.10000000000000E+01
 f    1 1.00
 0.76100000000000E+00 0.10000000000000E+01
 
    6 0
 s    6 1.00
 0.13575349682000E+05 0.60645503603591E-03
 0.20352333680000E+04 0.46979088884982E-02
 0.46322562359000E+03 0.24332477647552E-01
 0.13120019598000E+03 0.97399968307759E-01
 0.42853015891000E+02 0.30195584253780E+00
 0.15584185766000E+02 0.66233609137875E+00
 s    2 1.00
 0.62067138508000E+01 0.65595308539952E+00
 0.25764896527000E+01 0.37585633285142E+00
 s    1 1.00
 0.57696339419000E+00 0.10000000000000E+01
 s    1 1.00
 0.22972831358000E+00 0.10000000000000E+01
 s    1 1.00
 0.95164440028000E-01 0.10000000000000E+01
 s    1 1.00
 0.48475401370000E-01 0.10000000000000E+01
 p    4 1.00
 0.34697232244000E+02 0.11327220003114E-01
 0.79582622826000E+01 0.76169659202087E-01
 0.23780826883000E+01 0.30192252202676E+00
 0.81433208183000E+00 0.72785027349547E+00
 p    1 1.00
 0.28887547253000E+00 0.10000000000000E+01
 p    1 1.00
 0.10056823671000E+00 0.10000000000000E+01
 d    1 1.00
 0.10970000000000E+01 0.10000000000000E+01
 d    1 1.00
 0.31800000000000E+00 0.10000000000000E+01
 d    1 1.00
 0.90985336424000E-01 0.10000000000000E+01
 f    1 1.00
 0.76100000000000E+00 0.10000000000000E+01
 
    7 0
 s    3 1.00
 0.34061341000000E+02 0.25439307208879E-01
 0.51235746000000E+01 0.19008594890375E+00
 0.11646626000000E+01 0.85244113011042E+00
 s    1 1.00
 0.32723041000000E+00 0.10000000000000E+01
 s    1 1.00
 0.10307241000000E+00 0.10000000000000E+01
 p    1 1.00
 0.80000000000000E+00 0.10000000000000E+01
 p    1 1.00
 0.95774129632000E-01 0.10000000000000E+01
 
    8 0
 s    3 1.00
 0.34061341000000E+02 0.25439307208879E-01
 0.51235746000000E+01 0.19008594890375E+00
 0.11646626000000E+01 0.85244113011042E+00
 s    1 1.00
 0.32723041000000E+00 0.10000000000000E+01
 s    1 1.00
 0.10307241000000E+00 0.10000000000000E+01
 p    1 1.00
 0.80000000000000E+00 0.10000000000000E+01
 p    1 1.00
 0.95774129632000E-01 0.10000000000000E+01
 
    9 0
 s    3 1.00
 0.34061341000000E+02 0.25439307208879E-01
 0.51235746000000E+01 0.19008594890375E+00
 0.11646626000000E+01 0.85244113011042E+00
 s    1 1.00
 0.32723041000000E+00 0.10000000000000E+01
 s    1 1.00
 0.10307241000000E+00 0.10000000000000E+01
 p    1 1.00
 0.80000000000000E+00 0.10000000000000E+01
 p    1 1.00
 0.95774129632000E-01 0.10000000000000E+01
 
   10 0
 s    3 1.00
 0.34061341000000E+02 0.25439307208879E-01
 0.51235746000000E+01 0.19008594890375E+00
 0.11646626000000E+01 0.85244113011042E+00
 s    1 1.00
 0.32723041000000E+00 0.10000000000000E+01
 s    1 1.00
 0.10307241000000E+00 0.10000000000000E+01
 p    1 1.00
 0.80000000000000E+00 0.10000000000000E+01
 p    1 1.00
 0.95774129632000E-01 0.10000000000000E+01
 
   11 0
 s    6 1.00
 0.19730800647000E+05 0.58626402628763E-03
 0.29578958745000E+04 0.45428820586397E-02
 0.67322133595000E+03 0.23558413450084E-01
 0.19068249494000E+03 0.94709193292923E-01
 0.62295441898000E+02 0.29719784913376E+00
 0.22654161182000E+02 0.66916246895232E+00
 s    2 1.00
 0.89791477428000E+01 0.64596683630063E+00
 0.36863002370000E+01 0.38700574393705E+00
 s    1 1.00
 0.84660076805000E+00 0.10000000000000E+01
 s    1 1.00
 0.33647133771000E+00 0.10000000000000E+01
 s    1 1.00
 0.13647653675000E+00 0.10000000000000E+01
 s    1 1.00
 0.68441605847000E-01 0.10000000000000E+01
 p    4 1.00
 0.49200380510000E+02 0.11448825101764E-01
 0.11346790537000E+02 0.78422337970864E-01
 0.34273972411000E+01 0.30818094738830E+00
 0.11785525134000E+01 0.72027196368413E+00
 p    1 1.00
 0.41642204972000E+00 0.10000000000000E+01
 p    1 1.00
 0.14260826011000E+00 0.10000000000000E+01
 d    1 1.00
 0.16540000000000E+01 0.10000000000000E+01
 d    1 1.00
 0.46900000000000E+00 0.10000000000000E+01
 d    1 1.00
 0.12829642058000E+00 0.10000000000000E+01
 f    1 1.00
 0.10930000000000E+01 0.10000000000000E+01
 
   12 0
 s    6 1.00
 0.27032382631000E+05 0.57227335211155E-03
 0.40523871392000E+04 0.44353233492995E-02
 0.92232722710000E+03 0.23020107706038E-01
 0.26124070989000E+03 0.92822490667928E-01
 0.85354641351000E+02 0.29378500009671E+00
 0.31035035245000E+02 0.67401604501641E+00
 s    2 1.00
 0.12260860728000E+02 0.63839937025506E+00
 0.49987076005000E+01 0.39534587125718E+00
 s    1 1.00
 0.11703108158000E+01 0.10000000000000E+01
 s    1 1.00
 0.46474740994000E+00 0.10000000000000E+01
 s    1 1.00
 0.18504536357000E+00 0.10000000000000E+01
 s    1 1.00
 0.70288026270000E-01 0.10000000000000E+01
 p    4 1.00
 0.63274954801000E+02 0.12018332222616E-01
 0.14627049379000E+02 0.83005421790056E-01
 0.44501223456000E+01 0.31991743925964E+00
 0.15275799647000E+01 0.70715542916104E+00
 p    1 1.00
 0.52935117943000E+00 0.10000000000000E+01
 p    1 1.00
 0.17478421270000E+00 0.10000000000000E+01
 p    1 1.00
 0.51112745706000E-01 0.10000000000000E+01
 d    1 1.00
 0.23140000000000E+01 0.10000000000000E+01
 d    1 1.00
 0.64500000000000E+00 0.10000000000000E+01
 d    1 1.00
 0.14696477366000E+00 0.10000000000000E+01
 f    1 1.00
 0.14280000000000E+01 0.10000000000000E+01
 
   13 0
 s    6 1.00
 0.27032382631000E+05 0.57227335211155E-03
 0.40523871392000E+04 0.44353233492995E-02
 0.92232722710000E+03 0.23020107706038E-01
 0.26124070989000E+03 0.92822490667928E-01
 0.85354641351000E+02 0.29378500009671E+00
 0.31035035245000E+02 0.67401604501641E+00
 s    2 1.00
 0.12260860728000E+02 0.63839937025506E+00
 0.49987076005000E+01 0.39534587125718E+00
 s    1 1.00
 0.11703108158000E+01 0.10000000000000E+01
 s    1 1.00
 0.46474740994000E+00 0.10000000000000E+01
 s    1 1.00
 0.18504536357000E+00 0.10000000000000E+01
 s    1 1.00
 0.70288026270000E-01 0.10000000000000E+01
 p    4 1.00
 0.63274954801000E+02 0.12018332222616E-01
 0.14627049379000E+02 0.83005421790056E-01
 0.44501223456000E+01 0.31991743925964E+00
 0.15275799647000E+01 0.70715542916104E+00
 p    1 1.00
 0.52935117943000E+00 0.10000000000000E+01
 p    1 1.00
 0.17478421270000E+00 0.10000000000000E+01
 p    1 1.00
 0.51112745706000E-01 0.10000000000000E+01
 d    1 1.00
 0.23140000000000E+01 0.10000000000000E+01
 d    1 1.00
 0.64500000000000E+00 0.10000000000000E+01
 d    1 1.00
 0.14696477366000E+00 0.10000000000000E+01
 f    1 1.00
 0.14280000000000E+01 0.10000000000000E+01
 
   14 0
 s    6 1.00
 0.19730800647000E+05 0.58626402628763E-03
 0.29578958745000E+04 0.45428820586397E-02
 0.67322133595000E+03 0.23558413450084E-01
 0.19068249494000E+03 0.94709193292923E-01
 0.62295441898000E+02 0.29719784913376E+00
 0.22654161182000E+02 0.66916246895232E+00
 s    2 1.00
 0.89791477428000E+01 0.64596683630063E+00
 0.36863002370000E+01 0.38700574393705E+00
 s    1 1.00
 0.84660076805000E+00 0.10000000000000E+01
 s    1 1.00
 0.33647133771000E+00 0.10000000000000E+01
 s    1 1.00
 0.13647653675000E+00 0.10000000000000E+01
 s    1 1.00
 0.68441605847000E-01 0.10000000000000E+01
 p    4 1.00
 0.49200380510000E+02 0.11448825101764E-01
 0.11346790537000E+02 0.78422337970864E-01
 0.34273972411000E+01 0.30818094738830E+00
 0.11785525134000E+01 0.72027196368413E+00
 p    1 1.00
 0.41642204972000E+00 0.10000000000000E+01
 p    1 1.00
 0.14260826011000E+00 0.10000000000000E+01
 d    1 1.00
 0.16540000000000E+01 0.10000000000000E+01
 d    1 1.00
 0.46900000000000E+00 0.10000000000000E+01
 d    1 1.00
 0.12829642058000E+00 0.10000000000000E+01
 f    1 1.00
 0.10930000000000E+01 0.10000000000000E+01
 
   15 0
 s    3 1.00
 0.34061341000000E+02 0.25439307208879E-01
 0.51235746000000E+01 0.19008594890375E+00
 0.11646626000000E+01 0.85244113011042E+00
 s    1 1.00
 0.32723041000000E+00 0.10000000000000E+01
 s    1 1.00
 0.10307241000000E+00 0.10000000000000E+01
 p    1 1.00
 0.80000000000000E+00 0.10000000000000E+01
 p    1 1.00
 0.95774129632000E-01 0.10000000000000E+01
 
   16 0
 s    3 1.00
 0.34061341000000E+02 0.25439307208879E-01
 0.51235746000000E+01 0.19008594890375E+00
 0.11646626000000E+01 0.85244113011042E+00
 s    1 1.00
 0.32723041000000E+00 0.10000000000000E+01
 s    1 1.00
 0.10307241000000E+00 0.10000000000000E+01
 p    1 1.00
 0.80000000000000E+00 0.10000000000000E+01
 p    1 1.00
 0.95774129632000E-01 0.10000000000000E+01
 
[MO]
 Sym= X
 Ene= -0.890589
 Spin= Alpha
 Occup= -0.890589
         1   -2.118079E-04
         2   -4.934704E-04
         3    1.418823E-03
         4   -3.300176E-03
         5    1.219228E-04
         6   -1.368517E-02
         7    1.974895E-03
         8    3.368126E-04
         9    2.916205E-02
        10   -3.031204E-03
        11    6.167748E-04
        12    2.724083E-02
        13   -4.085776E-02
        14    1.378175E-02
        15    7.882834E-03
        16    6.685274E-07
        17   -1.425401E-05
        18    1.358548E-05
        19   -2.059233E-05
        20   -6.109559E-03
        21    3.831301E-03
        22   -8.006667E-04
        23    4.847639E-04
        24    3.159028E-04
        25   -8.829913E-04
        26   -1.385450E-02
        27    7.216109E-03
        28   -5.462433E-03
        29    5.123244E-03
        30    3.391888E-04
        31    1.548696E-03
        32    2.419663E-03
        33   -1.079238E-02
        34   -2.400822E-05
        35    9.238128E-06
        36   -1.324135E-04
        37    9.767356E-06
        38   -8.996204E-06
        39   -6.734080E-04
        40    2.244305E-05
        41   -3.398046E-06
        42    8.510593E-04
        43   -6.800602E-04
        44    2.812340E-05
        45    6.050243E-05
        46    2.042010E-04
        47   -3.627580E-03
        48   -6.233331E-02
        49    6.834865E-03
        50    6.152550E-04
        51    2.551672E-06
        52    2.007809E-01
        53   -4.573054E-04
        54    1.672256E-05
        55    2.080672E-01
        56   -1.923534E-02
        57   -5.074428E-04
        58    1.988610E-01
        59    4.040029E-05
        60   -3.737685E-05
        61   -3.023439E-06
        62    1.518454E-07
        63   -4.953033E-04
        64    3.398427E-07
        65    4.644399E-04
        66   -7.732539E-04
        67    3.088140E-04
        68    3.396345E-06
        69   -2.852891E-03
        70    4.123027E-07
        71    1.231646E-02
        72   -1.380382E-02
        73    1.487361E-03
        74   -8.291453E-05
        75    4.728386E-03
        76   -1.270556E-05
        77    1.014672E-05
        78    4.058027E-08
        79   -1.131739E-03
        80   -9.544000E-06
        81    2.680461E-08
        82    6.593932E-04
        83   -4.069250E-06
        84   -8.124875E-08
        85    8.589940E-04
        86    3.451468E-08
        87   -2.125056E-04
        88   -4.950041E-04
        89    1.422188E-03
        90   -3.308509E-03
        91    1.796399E-03
        92   -1.368613E-02
        93    1.974703E-03
        94   -3.383750E-04
        95    2.917849E-02
        96   -3.000354E-03
        97   -6.110270E-04
        98    2.725793E-02
        99   -4.087137E-02
       100   -1.424721E-02
       101    7.910426E-03
       102    6.851812E-07
       103   -1.416869E-05
       104    1.348351E-05
       105    2.082131E-05
       106   -6.109397E-03
       107   -3.831441E-03
       108   -7.943320E-04
       109    4.780598E-04
       110    3.162722E-04
       111    8.804020E-04
       112   -1.385323E-02
       113   -7.215720E-03
       114   -5.527473E-03
       115    5.200333E-03
       116    3.271402E-04
       117   -1.464962E-03
       118    2.407551E-03
       119    1.079320E-02
       120   -2.403726E-05
       121   -9.200581E-06
       122   -1.324894E-04
       123    9.895797E-06
       124    8.939281E-06
       125   -6.733277E-04
       126    2.235357E-05
       127    3.404594E-06
       128    8.510808E-04
       129    6.800125E-04
       130    1.482126E-04
       131    3.210793E-04
       132    6.806975E-04
       133   -1.263250E-02
       134    2.583867E-02
       135    1.564154E-02
       136   -1.537259E-03
       137    9.288690E-04
       138   -1.480032E-01
       139   -1.107069E-02
       140    7.641292E-03
       141   -1.508700E-01
       142   -2.470248E-02
       143   -8.795001E-03
       144   -9.149721E-02
       145    1.767100E-04
       146   -2.142016E-04
       147    3.749165E-05
       148    1.042232E-06
       149   -9.610329E-04
       150    2.895573E-03
       151    7.720693E-04
       152   -9.263209E-04
       153    1.542515E-04
       154    2.049801E-03
       155   -4.416452E-03
       156    4.814044E-03
       157    9.698977E-03
       158   -7.514828E-03
       159   -2.184149E-03
       160   -1.150921E-02
       161    3.934119E-03
       162   -1.280712E-02
       163   -1.803505E-05
       164    1.316814E-05
       165    8.172890E-04
       166   -2.312322E-05
       167    1.939105E-05
       168   -1.720875E-04
       169    4.731978E-05
       170   -3.705796E-05
       171   -9.244207E-04
       172    3.311277E-04
       173   -1.402318E-03
       174   -3.193657E-03
       175    3.267094E-03
       176    2.699903E-02
       177   -2.883858E-02
       178    1.059156E-02
       179    1.115042E-02
       180   -1.398692E-06
       181   -1.085436E-01
       182    8.305380E-04
       183   -1.495443E-05
       184   -1.117602E-01
       185   -3.732387E-02
       186    6.224270E-04
       187   -1.363538E-01
       188    5.935918E-04
       189   -3.274981E-04
       190   -2.660937E-04
       191    2.361136E-07
       192    9.908719E-03
       193    2.330553E-07
       194   -2.195001E-03
       195    4.936762E-03
       196   -2.741761E-03
       197    3.794489E-06
       198    2.430658E-02
       199   -2.040022E-08
       200   -7.806943E-03
       201    9.235009E-03
       202   -1.428066E-03
       203   -1.308356E-04
       204    1.762277E-02
       205    3.841319E-06
       206    1.460193E-04
       207   -7.448702E-09
       208    2.576000E-04
       209   -1.037707E-04
       210   -6.110617E-08
       211    1.108826E-03
       212   -9.213475E-05
       213    7.109965E-08
       214   -1.454433E-03
       215   -1.240432E-08
       216    1.486267E-04
       217    3.218713E-04
       218    6.814694E-04
       219   -1.265379E-02
       220    2.766085E-02
       221    1.560973E-02
       222   -1.537451E-03
       223   -9.223702E-04
       224   -1.480150E-01
       225   -1.108873E-02
       226   -7.649609E-03
       227   -1.508827E-01
       228   -2.472464E-02
       229    9.443401E-03
       230   -9.149147E-02
       231    1.766252E-04
       232   -2.145476E-04
       233    3.792239E-05
       234   -6.903226E-07
       235   -9.607740E-04
       236   -2.895626E-03
       237    7.771371E-04
       238   -9.320153E-04
       239    1.548782E-04
       240   -2.053330E-03
       241   -4.414177E-03
       242   -4.813731E-03
       243    9.652483E-03
       244   -7.471612E-03
       245   -2.180871E-03
       246    1.158038E-02
       247    3.943624E-03
       248    1.281327E-02
       249   -1.809120E-05
       250   -1.325254E-05
       251    8.174374E-04
       252   -2.325567E-05
       253   -1.928784E-05
       254   -1.722701E-04
       255    4.752757E-05
       256    3.706799E-05
       257   -9.244373E-04
       258   -3.310663E-04
       259   -4.726304E-04
       260   -2.875173E-04
       261   -2.067051E-02
       262   -1.971986E-05
       263    7.199368E-07
       264    1.132690E-03
       265   -6.309949E-03
       266   -4.963674E-04
       267   -6.438561E-03
       268   -4.734365E-04
       269   -2.800489E-04
       270   -2.064540E-02
       271   -1.889564E-05
       272   -1.794969E-06
       273    1.133357E-03
       274   -6.395426E-03
       275    4.695884E-04
       276   -6.446901E-03
       277   -4.495518E-04
       278   -2.783197E-03
       279    4.193720E-02
       280   -1.861628E-05
       281    1.124364E-04
       282   -6.031110E-03
       283   -1.892342E-03
       284   -3.399078E-03
       285    1.800982E-03
       286   -4.538392E-04
       287   -2.782994E-03
       288    4.217791E-02
       289   -1.816978E-05
       290   -1.121105E-04
       291   -6.031963E-03
       292   -1.886765E-03
       293    3.432140E-03
       294    1.800113E-03
       295   -3.244266E-05
       296   -7.383891E-05
       297    3.360238E-05
       298    2.894877E-04
       299   -9.032151E-03
       300    6.587652E-04
       301    3.699263E-04
       302    3.636014E-08
       303    1.425168E-02
       304    1.949690E-06
       305    5.718129E-07
       306    1.675411E-02
       307   -3.793621E-03
       308    2.155154E-05
       309    5.718159E-03
       310    8.985537E-06
       311    7.029247E-06
       312   -1.601478E-05
       313   -1.278391E-07
       314    4.325848E-03
       315    3.033577E-08
       316   -4.101047E-05
       317    1.122768E-04
       318   -7.126636E-05
       319   -7.659617E-07
       320    1.295041E-02
       321    3.998008E-08
       322   -1.008069E-03
       323    3.380986E-03
       324   -2.372917E-03
       325    1.847174E-05
       326    2.954631E-03
       327    3.582369E-06
       328    7.586370E-06
       329   -2.759610E-08
       330    2.062626E-05
       331   -5.704642E-06
       332    6.422929E-08
       333    6.808947E-04
       334   -4.473541E-06
       335   -2.720524E-08
       336   -7.085677E-04
       337    2.134725E-10
       338   -3.492233E-05
       339   -8.095993E-05
       340    6.406504E-05
       341    7.154508E-04
       342   -7.163401E-03
       343   -1.285867E-03
       344    6.974074E-05
       345    2.342473E-04
       346   -7.731945E-02
       347   -8.038789E-05
       348    3.803539E-04
       349   -7.167050E-02
       350   -1.412006E-03
       351    7.124982E-04
       352   -5.710245E-02
       353   -2.210723E-04
       354    2.692505E-04
       355   -6.773688E-03
       356    5.022334E-06
       357   -5.809064E-06
       358    7.867305E-07
       359   -1.351443E-06
       360   -2.153364E-05
       361    5.177801E-04
       362   -1.021742E-05
       363   -1.475767E-05
       364    2.497508E-05
       365    8.371536E-06
       366   -5.973062E-04
       367    1.682785E-03
       368   -8.302804E-05
       369    4.355341E-05
       370    3.947462E-05
       371    6.162104E-05
       372   -3.575855E-04
       373    3.117957E-04
       374    6.487233E-07
       375    2.484326E-06
       376    7.120649E-05
       377   -1.098493E-06
       378   -1.403168E-06
       379    8.420434E-05
       380    2.281398E-07
       381   -1.929905E-06
       382   -1.797379E-04
       383    1.436298E-04
       384   -3.479501E-05
       385   -8.067694E-05
       386    6.403280E-05
       387    7.120541E-04
       388   -7.159795E-03
       389   -1.261778E-03
       390    8.129176E-05
       391   -2.401606E-04
       392   -7.732026E-02
       393   -6.955050E-05
       394   -3.853992E-04
       395   -7.167172E-02
       396   -1.385551E-03
       397   -7.115728E-04
       398   -5.709702E-02
       399   -2.083842E-04
       400   -2.733015E-04
       401   -6.774645E-03
       402    5.086473E-06
       403   -5.872278E-06
       404    7.858056E-07
       405    1.332128E-06
       406   -2.156541E-05
       407   -5.177920E-04
       408   -9.854886E-06
       409   -1.488859E-05
       410    2.474347E-05
       411   -7.950416E-06
       412   -5.972650E-04
       413   -1.682799E-03
       414   -8.318850E-05
       415    4.527412E-05
       416    3.791437E-05
       417   -6.130301E-05
       418   -3.576861E-04
       419   -3.109672E-04
       420    6.512944E-07
       421   -2.498701E-06
       422    7.120972E-05
       423   -1.090918E-06
       424    1.434003E-06
       425    8.420082E-05
       426    2.171146E-07
       427    1.918356E-06
       428   -1.797387E-04
       429   -1.436351E-04
       430    6.228801E-03
       431    1.476673E-02
       432   -2.286598E-02
       433   -3.610257E-02
       434   -2.322329E-02
       435   -8.107778E-02
       436   -2.177044E-02
       437    1.036691E-05
       438    2.627506E-01
       439   -2.462524E-02
       440    1.428420E-06
       441    2.590502E-01
       442   -2.422768E-02
       443   -1.002003E-04
       444    2.113339E-01
       445   -1.348607E-04
       446   -4.328459E-05
       447    1.781453E-04
       448    2.678490E-07
       449    7.460621E-04
       450    1.978657E-07
       451   -3.169315E-04
       452   -1.938670E-03
       453    2.255602E-03
       454   -3.646181E-06
       455    3.482439E-03
       456    6.274419E-07
       457   -2.310943E-03
       458   -4.120471E-03
       459    6.431414E-03
       460   -6.455564E-06
       461    2.248260E-03
       462    1.374606E-06
       463   -1.668179E-04
       464    4.195651E-08
       465   -1.034002E-03
       466   -1.134945E-04
       467    1.039398E-08
       468    5.619002E-04
       469    3.373042E-04
       470   -6.668455E-08
       471    8.253586E-04
       472   -4.197969E-08
       473    1.113322E-02
       474    2.160322E-02
       475    3.803043E-02
       476   -2.734503E-03
       477   -2.264952E-03
       478    1.318229E-02
       479    1.170461E-03
       480   -4.413567E-03
       481    1.497214E-02
       482    1.112636E-02
       483    2.152818E-02
       484    3.777256E-02
       485   -2.729941E-03
       486    2.258021E-03
       487    1.318596E-02
       488    1.206218E-03
       489    4.370724E-03
       490    1.498236E-02
 Sym= X
 Ene= 0.890589
 Spin= Alpha
 Occup= 0.890589
         1    1.439623E-02
         2    3.202950E-02
         3   -1.567544E-02
         4   -4.976755E-01
         5   -4.841038E+00
         6    3.904805E+00
         7    6.831659E-03
         8    2.093919E-02
         9    5.360452E-03
        10   -3.647385E-02
        11   -2.826571E-03
        12    7.583944E-03
        13    3.476496E-01
        14   -5.918231E-03
        15    4.362787E-02
        16   -1.930126E-03
        17   -2.576738E-06
        18    1.932702E-03
        19    7.299662E-04
        20    2.178022E-04
        21   -3.199051E-04
        22   -2.651193E-02
        23    7.461623E-03
        24    1.905031E-02
        25    8.694294E-03
        26    1.444069E-03
        27   -8.816799E-04
        28    1.057792E-01
        29    1.207507E-01
        30   -2.265299E-01
        31   -9.172921E-01
        32   -1.075600E-02
        33    2.647568E-02
        34   -8.166411E-04
        35    1.677740E-05
        36    2.201817E-05
        37    9.426122E-04
        38   -1.133400E-04
        39    3.216694E-05
        40    1.530268E-04
        41    9.083080E-05
        42   -6.170741E-05
        43    2.841473E-05
        44    4.891562E-03
        45    1.005084E-02
        46    2.841620E-03
        47   -3.112290E-01
        48   -4.558918E+00
        49   -5.929165E-01
        50    1.706398E-02
        51   -6.732166E-07
        52   -1.127412E-02
        53    8.238829E-02
        54    5.916992E-05
        55   -9.085727E-03
        56    1.898068E+00
        57   -3.681230E-04
        58   -1.239462E-01
        59   -3.357824E-04
        60   -3.135822E-03
        61    3.471604E-03
        62   -2.827173E-09