[Molden Format]
[Title]
ADC(2) - opt by CAM-B3LYP gaussian                                              
[Atoms] AU
 c     1    6 -.12588573623097E+01 -.22835126974190E+01 -.24083260376910E-01
 c     2    6 -.25578815622211E+01 0.23621577000000E-06 -.22837930855340E-01
 c     3    6 -.12588573623097E+01 0.22835131698505E+01 -.24090819281440E-01
 c     4    6 0.13318248850473E+01 0.22853065199506E+01 -.26003222127920E-01
 c     5    6 0.26868737956204E+01 0.23621577000000E-06 -.25389061134730E-01
 c     6    6 0.13318248850473E+01 -.22853060475191E+01 -.25993773497260E-01
 h     7    1 -.22974546243959E+01 -.40385977330627E+01 -.21598270512170E-01
 h     8    1 -.22974527346698E+01 0.40385982054942E+01 -.21613388321230E-01
 h     9    1 0.23510089905703E+01 0.40574312161345E+01 -.28191524989800E-01
 h    10    1 0.23510071008442E+01 -.40574307437030E+01 -.28172627728480E-01
 n    11    7 -.52726375582849E+01 0.23621577000000E-06 -.17238672323600E-01
 o    12    8 -.63813946825068E+01 0.20269261555273E+01 -.14842499587100E-01
 o    13    8 -.63813927927806E+01 -.20269275728219E+01 -.14865176300690E-01
 n    14    7 0.52430742102305E+01 0.23621577000000E-06 -.67376886081320E-01
 h    15    1 0.62051583509223E+01 0.16177513148781E+01 0.18115044628513E+00
 h    16    1 0.62051564611962E+01 -.16177527321727E+01 0.18114666683287E+00
[GTO]
    1 0
 s    6 1.00
 0.13575349682000E+05 0.60645503603591E-03
 0.20352333680000E+04 0.46979088884982E-02
 0.46322562359000E+03 0.24332477647552E-01
 0.13120019598000E+03 0.97399968307759E-01
 0.42853015891000E+02 0.30195584253780E+00
 0.15584185766000E+02 0.66233609137875E+00
 s    2 1.00
 0.62067138508000E+01 0.65595308539952E+00
 0.25764896527000E+01 0.37585633285142E+00
 s    1 1.00
 0.57696339419000E+00 0.10000000000000E+01
 s    1 1.00
 0.22972831358000E+00 0.10000000000000E+01
 s    1 1.00
 0.95164440028000E-01 0.10000000000000E+01
 s    1 1.00
 0.48475401370000E-01 0.10000000000000E+01
 p    4 1.00
 0.34697232244000E+02 0.11327220003114E-01
 0.79582622826000E+01 0.76169659202087E-01
 0.23780826883000E+01 0.30192252202676E+00
 0.81433208183000E+00 0.72785027349547E+00
 p    1 1.00
 0.28887547253000E+00 0.10000000000000E+01
 p    1 1.00
 0.10056823671000E+00 0.10000000000000E+01
 d    1 1.00
 0.10970000000000E+01 0.10000000000000E+01
 d    1 1.00
 0.31800000000000E+00 0.10000000000000E+01
 d    1 1.00
 0.90985336424000E-01 0.10000000000000E+01
 f    1 1.00
 0.76100000000000E+00 0.10000000000000E+01
 
    2 0
 s    6 1.00
 0.13575349682000E+05 0.60645503603591E-03
 0.20352333680000E+04 0.46979088884982E-02
 0.46322562359000E+03 0.24332477647552E-01
 0.13120019598000E+03 0.97399968307759E-01
 0.42853015891000E+02 0.30195584253780E+00
 0.15584185766000E+02 0.66233609137875E+00
 s    2 1.00
 0.62067138508000E+01 0.65595308539952E+00
 0.25764896527000E+01 0.37585633285142E+00
 s    1 1.00
 0.57696339419000E+00 0.10000000000000E+01
 s    1 1.00
 0.22972831358000E+00 0.10000000000000E+01
 s    1 1.00
 0.95164440028000E-01 0.10000000000000E+01
 s    1 1.00
 0.48475401370000E-01 0.10000000000000E+01
 p    4 1.00
 0.34697232244000E+02 0.11327220003114E-01
 0.79582622826000E+01 0.76169659202087E-01
 0.23780826883000E+01 0.30192252202676E+00
 0.81433208183000E+00 0.72785027349547E+00
 p    1 1.00
 0.28887547253000E+00 0.10000000000000E+01
 p    1 1.00
 0.10056823671000E+00 0.10000000000000E+01
 d    1 1.00
 0.10970000000000E+01 0.10000000000000E+01
 d    1 1.00
 0.31800000000000E+00 0.10000000000000E+01
 d    1 1.00
 0.90985336424000E-01 0.10000000000000E+01
 f    1 1.00
 0.76100000000000E+00 0.10000000000000E+01
 
    3 0
 s    6 1.00
 0.13575349682000E+05 0.60645503603591E-03
 0.20352333680000E+04 0.46979088884982E-02
 0.46322562359000E+03 0.24332477647552E-01
 0.13120019598000E+03 0.97399968307759E-01
 0.42853015891000E+02 0.30195584253780E+00
 0.15584185766000E+02 0.66233609137875E+00
 s    2 1.00
 0.62067138508000E+01 0.65595308539952E+00
 0.25764896527000E+01 0.37585633285142E+00
 s    1 1.00
 0.57696339419000E+00 0.10000000000000E+01
 s    1 1.00
 0.22972831358000E+00 0.10000000000000E+01
 s    1 1.00
 0.95164440028000E-01 0.10000000000000E+01
 s    1 1.00
 0.48475401370000E-01 0.10000000000000E+01
 p    4 1.00
 0.34697232244000E+02 0.11327220003114E-01
 0.79582622826000E+01 0.76169659202087E-01
 0.23780826883000E+01 0.30192252202676E+00
 0.81433208183000E+00 0.72785027349547E+00
 p    1 1.00
 0.28887547253000E+00 0.10000000000000E+01
 p    1 1.00
 0.10056823671000E+00 0.10000000000000E+01
 d    1 1.00
 0.10970000000000E+01 0.10000000000000E+01
 d    1 1.00
 0.31800000000000E+00 0.10000000000000E+01
 d    1 1.00
 0.90985336424000E-01 0.10000000000000E+01
 f    1 1.00
 0.76100000000000E+00 0.10000000000000E+01
 
    4 0
 s    6 1.00
 0.13575349682000E+05 0.60645503603591E-03
 0.20352333680000E+04 0.46979088884982E-02
 0.46322562359000E+03 0.24332477647552E-01
 0.13120019598000E+03 0.97399968307759E-01
 0.42853015891000E+02 0.30195584253780E+00
 0.15584185766000E+02 0.66233609137875E+00
 s    2 1.00
 0.62067138508000E+01 0.65595308539952E+00
 0.25764896527000E+01 0.37585633285142E+00
 s    1 1.00
 0.57696339419000E+00 0.10000000000000E+01
 s    1 1.00
 0.22972831358000E+00 0.10000000000000E+01
 s    1 1.00
 0.95164440028000E-01 0.10000000000000E+01
 s    1 1.00
 0.48475401370000E-01 0.10000000000000E+01
 p    4 1.00
 0.34697232244000E+02 0.11327220003114E-01
 0.79582622826000E+01 0.76169659202087E-01
 0.23780826883000E+01 0.30192252202676E+00
 0.81433208183000E+00 0.72785027349547E+00
 p    1 1.00
 0.28887547253000E+00 0.10000000000000E+01
 p    1 1.00
 0.10056823671000E+00 0.10000000000000E+01
 d    1 1.00
 0.10970000000000E+01 0.10000000000000E+01
 d    1 1.00
 0.31800000000000E+00 0.10000000000000E+01
 d    1 1.00
 0.90985336424000E-01 0.10000000000000E+01
 f    1 1.00
 0.76100000000000E+00 0.10000000000000E+01
 
    5 0
 s    6 1.00
 0.13575349682000E+05 0.60645503603591E-03
 0.20352333680000E+04 0.46979088884982E-02
 0.46322562359000E+03 0.24332477647552E-01
 0.13120019598000E+03 0.97399968307759E-01
 0.42853015891000E+02 0.30195584253780E+00
 0.15584185766000E+02 0.66233609137875E+00
 s    2 1.00
 0.62067138508000E+01 0.65595308539952E+00
 0.25764896527000E+01 0.37585633285142E+00
 s    1 1.00
 0.57696339419000E+00 0.10000000000000E+01
 s    1 1.00
 0.22972831358000E+00 0.10000000000000E+01
 s    1 1.00
 0.95164440028000E-01 0.10000000000000E+01
 s    1 1.00
 0.48475401370000E-01 0.10000000000000E+01
 p    4 1.00
 0.34697232244000E+02 0.11327220003114E-01
 0.79582622826000E+01 0.76169659202087E-01
 0.23780826883000E+01 0.30192252202676E+00
 0.81433208183000E+00 0.72785027349547E+00
 p    1 1.00
 0.28887547253000E+00 0.10000000000000E+01
 p    1 1.00
 0.10056823671000E+00 0.10000000000000E+01
 d    1 1.00
 0.10970000000000E+01 0.10000000000000E+01
 d    1 1.00
 0.31800000000000E+00 0.10000000000000E+01
 d    1 1.00
 0.90985336424000E-01 0.10000000000000E+01
 f    1 1.00
 0.76100000000000E+00 0.10000000000000E+01
 
    6 0
 s    6 1.00
 0.13575349682000E+05 0.60645503603591E-03
 0.20352333680000E+04 0.46979088884982E-02
 0.46322562359000E+03 0.24332477647552E-01
 0.13120019598000E+03 0.97399968307759E-01
 0.42853015891000E+02 0.30195584253780E+00
 0.15584185766000E+02 0.66233609137875E+00
 s    2 1.00
 0.62067138508000E+01 0.65595308539952E+00
 0.25764896527000E+01 0.37585633285142E+00
 s    1 1.00
 0.57696339419000E+00 0.10000000000000E+01
 s    1 1.00
 0.22972831358000E+00 0.10000000000000E+01
 s    1 1.00
 0.95164440028000E-01 0.10000000000000E+01
 s    1 1.00
 0.48475401370000E-01 0.10000000000000E+01
 p    4 1.00
 0.34697232244000E+02 0.11327220003114E-01
 0.79582622826000E+01 0.76169659202087E-01
 0.23780826883000E+01 0.30192252202676E+00
 0.81433208183000E+00 0.72785027349547E+00
 p    1 1.00
 0.28887547253000E+00 0.10000000000000E+01
 p    1 1.00
 0.10056823671000E+00 0.10000000000000E+01
 d    1 1.00
 0.10970000000000E+01 0.10000000000000E+01
 d    1 1.00
 0.31800000000000E+00 0.10000000000000E+01
 d    1 1.00
 0.90985336424000E-01 0.10000000000000E+01
 f    1 1.00
 0.76100000000000E+00 0.10000000000000E+01
 
    7 0
 s    3 1.00
 0.34061341000000E+02 0.25439307208879E-01
 0.51235746000000E+01 0.19008594890375E+00
 0.11646626000000E+01 0.85244113011042E+00
 s    1 1.00
 0.32723041000000E+00 0.10000000000000E+01
 s    1 1.00
 0.10307241000000E+00 0.10000000000000E+01
 p    1 1.00
 0.80000000000000E+00 0.10000000000000E+01
 p    1 1.00
 0.95774129632000E-01 0.10000000000000E+01
 
    8 0
 s    3 1.00
 0.34061341000000E+02 0.25439307208879E-01
 0.51235746000000E+01 0.19008594890375E+00
 0.11646626000000E+01 0.85244113011042E+00
 s    1 1.00
 0.32723041000000E+00 0.10000000000000E+01
 s    1 1.00
 0.10307241000000E+00 0.10000000000000E+01
 p    1 1.00
 0.80000000000000E+00 0.10000000000000E+01
 p    1 1.00
 0.95774129632000E-01 0.10000000000000E+01
 
    9 0
 s    3 1.00
 0.34061341000000E+02 0.25439307208879E-01
 0.51235746000000E+01 0.19008594890375E+00
 0.11646626000000E+01 0.85244113011042E+00
 s    1 1.00
 0.32723041000000E+00 0.10000000000000E+01
 s    1 1.00
 0.10307241000000E+00 0.10000000000000E+01
 p    1 1.00
 0.80000000000000E+00 0.10000000000000E+01
 p    1 1.00
 0.95774129632000E-01 0.10000000000000E+01
 
   10 0
 s    3 1.00
 0.34061341000000E+02 0.25439307208879E-01
 0.51235746000000E+01 0.19008594890375E+00
 0.11646626000000E+01 0.85244113011042E+00
 s    1 1.00
 0.32723041000000E+00 0.10000000000000E+01
 s    1 1.00
 0.10307241000000E+00 0.10000000000000E+01
 p    1 1.00
 0.80000000000000E+00 0.10000000000000E+01
 p    1 1.00
 0.95774129632000E-01 0.10000000000000E+01
 
   11 0
 s    6 1.00
 0.19730800647000E+05 0.58626402628763E-03
 0.29578958745000E+04 0.45428820586397E-02
 0.67322133595000E+03 0.23558413450084E-01
 0.19068249494000E+03 0.94709193292923E-01
 0.62295441898000E+02 0.29719784913376E+00
 0.22654161182000E+02 0.66916246895232E+00
 s    2 1.00
 0.89791477428000E+01 0.64596683630063E+00
 0.36863002370000E+01 0.38700574393705E+00
 s    1 1.00
 0.84660076805000E+00 0.10000000000000E+01
 s    1 1.00
 0.33647133771000E+00 0.10000000000000E+01
 s    1 1.00
 0.13647653675000E+00 0.10000000000000E+01
 s    1 1.00
 0.68441605847000E-01 0.10000000000000E+01
 p    4 1.00
 0.49200380510000E+02 0.11448825101764E-01
 0.11346790537000E+02 0.78422337970864E-01
 0.34273972411000E+01 0.30818094738830E+00
 0.11785525134000E+01 0.72027196368413E+00
 p    1 1.00
 0.41642204972000E+00 0.10000000000000E+01
 p    1 1.00
 0.14260826011000E+00 0.10000000000000E+01
 d    1 1.00
 0.16540000000000E+01 0.10000000000000E+01
 d    1 1.00
 0.46900000000000E+00 0.10000000000000E+01
 d    1 1.00
 0.12829642058000E+00 0.10000000000000E+01
 f    1 1.00
 0.10930000000000E+01 0.10000000000000E+01
 
   12 0
 s    6 1.00
 0.27032382631000E+05 0.57227335211155E-03
 0.40523871392000E+04 0.44353233492995E-02
 0.92232722710000E+03 0.23020107706038E-01
 0.26124070989000E+03 0.92822490667928E-01
 0.85354641351000E+02 0.29378500009671E+00
 0.31035035245000E+02 0.67401604501641E+00
 s    2 1.00
 0.12260860728000E+02 0.63839937025506E+00
 0.49987076005000E+01 0.39534587125718E+00
 s    1 1.00
 0.11703108158000E+01 0.10000000000000E+01
 s    1 1.00
 0.46474740994000E+00 0.10000000000000E+01
 s    1 1.00
 0.18504536357000E+00 0.10000000000000E+01
 s    1 1.00
 0.70288026270000E-01 0.10000000000000E+01
 p    4 1.00
 0.63274954801000E+02 0.12018332222616E-01
 0.14627049379000E+02 0.83005421790056E-01
 0.44501223456000E+01 0.31991743925964E+00
 0.15275799647000E+01 0.70715542916104E+00
 p    1 1.00
 0.52935117943000E+00 0.10000000000000E+01
 p    1 1.00
 0.17478421270000E+00 0.10000000000000E+01
 p    1 1.00
 0.51112745706000E-01 0.10000000000000E+01
 d    1 1.00
 0.23140000000000E+01 0.10000000000000E+01
 d    1 1.00
 0.64500000000000E+00 0.10000000000000E+01
 d    1 1.00
 0.14696477366000E+00 0.10000000000000E+01
 f    1 1.00
 0.14280000000000E+01 0.10000000000000E+01
 
   13 0
 s    6 1.00
 0.27032382631000E+05 0.57227335211155E-03
 0.40523871392000E+04 0.44353233492995E-02
 0.92232722710000E+03 0.23020107706038E-01
 0.26124070989000E+03 0.92822490667928E-01
 0.85354641351000E+02 0.29378500009671E+00
 0.31035035245000E+02 0.67401604501641E+00
 s    2 1.00
 0.12260860728000E+02 0.63839937025506E+00
 0.49987076005000E+01 0.39534587125718E+00
 s    1 1.00
 0.11703108158000E+01 0.10000000000000E+01
 s    1 1.00
 0.46474740994000E+00 0.10000000000000E+01
 s    1 1.00
 0.18504536357000E+00 0.10000000000000E+01
 s    1 1.00
 0.70288026270000E-01 0.10000000000000E+01
 p    4 1.00
 0.63274954801000E+02 0.12018332222616E-01
 0.14627049379000E+02 0.83005421790056E-01
 0.44501223456000E+01 0.31991743925964E+00
 0.15275799647000E+01 0.70715542916104E+00
 p    1 1.00
 0.52935117943000E+00 0.10000000000000E+01
 p    1 1.00
 0.17478421270000E+00 0.10000000000000E+01
 p    1 1.00
 0.51112745706000E-01 0.10000000000000E+01
 d    1 1.00
 0.23140000000000E+01 0.10000000000000E+01
 d    1 1.00
 0.64500000000000E+00 0.10000000000000E+01
 d    1 1.00
 0.14696477366000E+00 0.10000000000000E+01
 f    1 1.00
 0.14280000000000E+01 0.10000000000000E+01
 
   14 0
 s    6 1.00
 0.19730800647000E+05 0.58626402628763E-03
 0.29578958745000E+04 0.45428820586397E-02
 0.67322133595000E+03 0.23558413450084E-01
 0.19068249494000E+03 0.94709193292923E-01
 0.62295441898000E+02 0.29719784913376E+00
 0.22654161182000E+02 0.66916246895232E+00
 s    2 1.00
 0.89791477428000E+01 0.64596683630063E+00
 0.36863002370000E+01 0.38700574393705E+00
 s    1 1.00
 0.84660076805000E+00 0.10000000000000E+01
 s    1 1.00
 0.33647133771000E+00 0.10000000000000E+01
 s    1 1.00
 0.13647653675000E+00 0.10000000000000E+01
 s    1 1.00
 0.68441605847000E-01 0.10000000000000E+01
 p    4 1.00
 0.49200380510000E+02 0.11448825101764E-01
 0.11346790537000E+02 0.78422337970864E-01
 0.34273972411000E+01 0.30818094738830E+00
 0.11785525134000E+01 0.72027196368413E+00
 p    1 1.00
 0.41642204972000E+00 0.10000000000000E+01
 p    1 1.00
 0.14260826011000E+00 0.10000000000000E+01
 d    1 1.00
 0.16540000000000E+01 0.10000000000000E+01
 d    1 1.00
 0.46900000000000E+00 0.10000000000000E+01
 d    1 1.00
 0.12829642058000E+00 0.10000000000000E+01
 f    1 1.00
 0.10930000000000E+01 0.10000000000000E+01
 
   15 0
 s    3 1.00
 0.34061341000000E+02 0.25439307208879E-01
 0.51235746000000E+01 0.19008594890375E+00
 0.11646626000000E+01 0.85244113011042E+00
 s    1 1.00
 0.32723041000000E+00 0.10000000000000E+01
 s    1 1.00
 0.10307241000000E+00 0.10000000000000E+01
 p    1 1.00
 0.80000000000000E+00 0.10000000000000E+01
 p    1 1.00
 0.95774129632000E-01 0.10000000000000E+01
 
   16 0
 s    3 1.00
 0.34061341000000E+02 0.25439307208879E-01
 0.51235746000000E+01 0.19008594890375E+00
 0.11646626000000E+01 0.85244113011042E+00
 s    1 1.00
 0.32723041000000E+00 0.10000000000000E+01
 s    1 1.00
 0.10307241000000E+00 0.10000000000000E+01
 p    1 1.00
 0.80000000000000E+00 0.10000000000000E+01
 p    1 1.00
 0.95774129632000E-01 0.10000000000000E+01
 
[MO]
 Sym= X
 Ene= -0.055267
 Spin= Alpha
 Occup= -0.055267
         1   -8.406774E-04
         2   -1.898638E-03
         3    3.557372E-03
         4   -2.708606E-04
         5   -4.505123E-03
         6   -1.527693E-02
         7    7.431266E-03
         8   -3.936105E-04
         9   -3.574571E-03
        10    8.222254E-04
        11    2.224947E-04
        12   -5.261848E-03
        13   -4.295690E-02
        14    7.952985E-03
        15   -1.264017E-02
        16    2.002683E-04
        17   -1.689385E-04
        18   -3.132979E-05
        19   -2.430947E-05
        20   -3.163852E-03
        21    1.627517E-03
        22   -5.905984E-04
        23    3.673586E-04
        24    2.232398E-04
        25   -1.084548E-03
        26   -7.400700E-03
        27    3.248864E-03
        28   -5.147584E-03
        29    4.532865E-03
        30    6.147190E-04
        31    2.783636E-03
        32    4.544667E-03
        33   -1.505601E-02
        34   -2.690970E-06
        35    1.175752E-05
        36    5.328678E-05
        37   -4.062907E-06
        38   -1.364797E-05
        39   -4.313585E-04
        40    7.673222E-06
        41   -2.126402E-06
        42    3.598668E-04
        43   -2.731738E-04
        44    2.729422E-04
        45    6.218014E-04
        46   -5.035508E-04
        47   -6.454108E-03
        48   -4.499444E-02
        49    1.026120E-02
        50   -1.907657E-03
        51   -8.874483E-06
        52    8.637450E-02
        53   -2.634189E-03
        54    3.704054E-06
        55    8.965483E-02
        56   -1.802866E-02
        57   -1.565614E-03
        58    1.393328E-01
        59    2.600093E-04
        60   -2.541142E-04
        61   -5.895128E-06
        62   -2.299200E-07
        63   -7.794651E-04
        64   -9.341858E-07
        65    8.074442E-04
        66   -1.207908E-03
        67    4.004634E-04
        68    1.157954E-06
        69   -2.651450E-03
        70   -2.250137E-06
        71    1.533380E-02
        72   -1.643322E-02
        73    1.099421E-03
        74   -2.605286E-04
        75    1.557717E-03
        76   -4.449974E-05
        77   -1.491952E-06
        78   -7.279333E-08
        79   -4.282000E-04
        80   -1.067825E-05
        81    9.799611E-08
        82    2.727870E-04
        83    1.267992E-05
        84   -3.336109E-10
        85    3.017035E-04
        86   -1.312788E-07
        87   -8.368809E-04
        88   -1.890318E-03
        89    3.556584E-03
        90   -3.890568E-04
        91   -2.240352E-03
        92   -1.524817E-02
        93    7.443325E-03
        94    3.968457E-04
        95   -3.626839E-03
        96    8.018844E-04
        97   -2.162615E-04
        98   -5.315435E-03
        99   -4.413759E-02
       100   -9.520170E-03
       101   -1.263671E-02
       102    1.999359E-04
       103   -1.692131E-04
       104   -3.072285E-05
       105    2.428426E-05
       106   -3.165573E-03
       107   -1.627437E-03
       108   -5.956363E-04
       109    3.676110E-04
       110    2.280253E-04
       111    1.082149E-03
       112   -7.403218E-03
       113   -3.248570E-03
       114   -5.463760E-03
       115    4.875407E-03
       116    5.883527E-04
       117   -2.512045E-03
       118    4.490487E-03
       119    1.500453E-02
       120   -3.142933E-06
       121   -1.171851E-05
       122    5.366797E-05
       123   -3.596936E-06
       124    1.363287E-05
       125   -4.318411E-04
       126    7.813624E-06
       127    2.089162E-06
       128    3.598380E-04
       129    2.731455E-04
       130    6.419234E-04
       131    1.419401E-03
       132   -6.238795E-04
       133   -1.755728E-02
       134    1.684825E-02
       135    1.569571E-02
       136   -8.446326E-03
       137    1.902141E-03
       138   -7.167931E-02
       139   -1.763882E-02
       140    9.360704E-03
       141   -7.540600E-02
       142   -3.315639E-02
       143   -9.268510E-03
       144   -4.190119E-02
       145    4.857153E-04
       146   -5.761556E-04
       147    9.044030E-05
       148   -1.754012E-05
       149    1.077155E-03
       150    1.830796E-04
       151    9.888103E-04
       152   -1.348256E-03
       153    3.594460E-04
       154    2.456990E-03
       155   -5.146024E-05
       156   -9.792822E-05
       157    1.065523E-02
       158   -8.490814E-03
       159   -2.164417E-03
       160   -1.159970E-02
       161    5.682680E-03
       162   -2.035691E-02
       163   -2.199441E-05
       164    2.947093E-05
       165    2.192082E-04
       166   -5.188479E-05
       167    8.312910E-06
       168   -9.073379E-06
       169    8.139339E-05
       170   -4.785232E-05
       171   -2.850253E-04
       172   -9.952716E-05
       173   -1.540481E-03
       174   -3.505078E-03
       175    3.635431E-03
       176    2.719290E-02
       177   -2.901439E-02
       178    1.266341E-02
       179    2.218788E-02
       180    8.954921E-06
       181    4.785819E-02
       182    6.813903E-03
       183   -2.185062E-05
       184    4.104293E-02
       185   -4.225120E-02
       186    1.342908E-03
       187   -1.106884E-01
       188    1.159312E-03
       189   -8.334893E-04
       190   -3.258223E-04
       191   -1.036647E-07
       192    1.128851E-02
       193   -9.802085E-07
       194   -2.220198E-03
       195    5.266818E-03
       196   -3.046620E-03
       197    5.838001E-06
       198    2.487444E-02
       199   -3.270676E-06
       200   -1.132301E-02
       201    1.305334E-02
       202   -1.730337E-03
       203   -3.703049E-04
       204    1.573750E-02
       205    4.633119E-05
       206    2.125576E-04
       207    4.197754E-08
       208   -1.078343E-03
       209   -1.268569E-04
       210   -2.067846E-07
       211    2.223151E-03
       212   -1.583190E-04
       213    1.504658E-07
       214   -7.764028E-04
       215    2.472225E-07
       216    6.462537E-04
       217    1.428949E-03
       218   -6.248567E-04
       219   -1.768653E-02
       220    1.915085E-02
       221    1.565687E-02
       222   -8.453489E-03
       223   -1.898081E-03
       224   -7.161527E-02
       225   -1.761603E-02
       226   -9.386869E-03
       227   -7.534587E-02
       228   -3.212187E-02
       229    1.089719E-02
       230   -4.178133E-02
       231    4.856233E-04
       232   -5.768382E-04
       233    9.121488E-05
       234    1.746662E-05
       235    1.075759E-03
       236   -1.829560E-04
       237    9.816688E-04
       238   -1.349442E-03
       239    3.677736E-04
       240   -2.463139E-03
       241   -5.302597E-05
       242    9.820525E-05
       243    1.028566E-02
       244   -8.118947E-03
       245   -2.166709E-03
       246    1.183752E-02
       247    5.755083E-03
       248    2.041044E-02
       249   -2.146935E-05
       250   -2.961963E-05
       251    2.188977E-04
       252   -5.261526E-05
       253   -8.231183E-06
       254   -8.719771E-06
       255    8.141941E-05
       256    4.797008E-05
       257   -2.849623E-04
       258    9.954145E-05
       259   -1.074921E-03
       260   -1.350556E-03
       261   -2.699239E-02
       262    6.420598E-05
       263   -1.208795E-04
       264   -2.278961E-04
       265   -6.314435E-03
       266   -1.670664E-03
       267   -9.071916E-03
       268   -1.080266E-03
       269   -1.351854E-03
       270   -2.673537E-02
       271    6.493408E-05
       272    1.211469E-04
       273   -2.299373E-04
       274   -6.504197E-03
       275    1.528183E-03
       276   -9.057015E-03
       277   -2.725672E-03
       278   -6.372277E-03
       279    4.578844E-02
       280   -1.500792E-05
       281    4.710566E-04
       282   -2.858658E-03
       283   -4.253038E-03
       284   -3.270555E-03
       285    1.037632E-02
       286   -2.733983E-03
       287   -6.371064E-03
       288    4.609907E-02
       289   -1.365955E-05
       290   -4.711776E-04
       291   -2.856390E-03
       292   -4.081513E-03
       293    3.432428E-03
       294    1.038354E-02
       295   -2.700709E-04
       296   -6.342864E-04
       297    8.093442E-04
       298    2.219116E-03
       299   -1.123838E-02
       300   -4.392318E-03
       301    3.584074E-03
       302    4.695440E-06
       303    1.049325E-02
       304    2.910450E-03
       305    3.075830E-06
       306    1.256409E-02
       307   -3.644808E-03
       308    1.209251E-05
       309   -4.392488E-04
       310    7.355870E-05
       311   -8.514441E-05
       312    1.158571E-05
       313    7.765719E-09
       314    2.089711E-03
       315    1.513125E-07
       316    1.590385E-04
       317   -1.214498E-04
       318   -3.758866E-05
       319   -1.808740E-07
       320    6.308573E-03
       321    2.295043E-07
       322   -1.043239E-03
       323    3.647758E-03
       324   -2.604519E-03
       325    4.510377E-05
       326   -4.217171E-05
       327    6.226932E-06
       328    1.115891E-05
       329    1.051757E-07
       330    2.835086E-05
       331   -1.646752E-06
       332   -1.111133E-07
       333    3.121961E-04
       334   -1.332450E-05
       335   -2.999465E-08
       336   -3.502327E-04
       337   -4.880241E-08
       338   -9.918723E-05
       339   -2.369689E-04
       340    3.067343E-04
       341    1.259774E-03
       342   -7.527935E-03
       343   -4.363015E-04
       344   -1.368275E-03
       345    9.282328E-04
       346   -4.018389E-02
       347   -1.353552E-03
       348    9.614708E-04
       349   -3.734799E-02
       350   -2.598769E-03
       351    9.864285E-04
       352   -3.024848E-02
       353   -3.596468E-04
       354    8.129790E-05
       355   -4.065817E-03
       356    1.809533E-05
       357   -3.146274E-05
       358    1.336741E-05
       359    1.034965E-05
       360    9.041577E-06
       361    2.282849E-04
       362    9.375349E-06
       363   -7.661520E-05
       364    6.723985E-05
       365    2.500372E-05
       366   -2.657451E-04
       367    7.354511E-04
       368   -1.055815E-04
       369    4.576279E-05
       370    5.981872E-05
       371    9.142321E-05
       372    4.602603E-04
       373    1.576253E-04
       374    3.684709E-06
       375    8.684273E-06
       376    3.346786E-05
       377   -7.173321E-06
       378   -4.812401E-06
       379    4.019595E-05
       380    2.229765E-06
       381   -6.838774E-06
       382   -8.509779E-05
       383    6.744523E-05
       384   -1.003066E-04
       385   -2.397073E-04
       386    3.108856E-04
       387    1.266172E-03
       388   -7.569044E-03
       389   -4.139955E-04
       390   -1.384015E-03
       391   -9.270102E-04
       392   -4.019290E-02
       393   -1.368194E-03
       394   -9.599741E-04
       395   -3.735710E-02
       396   -2.574891E-03
       397   -9.973684E-04
       398   -3.024642E-02
       399   -3.506205E-04
       400   -8.382915E-05
       401   -4.067026E-03
       402    1.797492E-05
       403   -3.145435E-05
       404    1.347942E-05
       405   -1.057801E-05
       406    9.006732E-06
       407   -2.283753E-04
       408    9.639978E-06
       409   -7.681507E-05
       410    6.717509E-05
       411   -2.538338E-05
       412   -2.658180E-04
       413   -7.356252E-04
       414   -1.069574E-04
       415    4.809402E-05
       416    5.886333E-05
       417   -9.044379E-05
       418    4.611096E-04
       419   -1.575276E-04
       420    3.710934E-06
       421   -8.657539E-06
       422    3.347946E-05
       423   -7.218041E-06
       424    4.757201E-06
       425    4.020370E-05
       426    2.239301E-06
       427    6.858106E-06
       428   -8.512111E-05
       429   -6.747205E-05
       430    6.703473E-03
       431    1.587338E-02
       432   -2.456306E-02
       433   -3.852214E-02
       434   -2.219916E-02
       435   -7.294371E-02
       436   -3.204448E-02
       437    2.108802E-05
       438    3.934679E-01
       439   -3.481223E-02
       440   -1.532822E-06
       441    3.846827E-01
       442   -3.496047E-02
       443   -1.947108E-04
       444    2.860473E-01
       445   -4.234152E-05
       446   -2.367748E-04
       447    2.791163E-04
       448    5.106845E-07
       449   -1.641932E-03
       450    5.570914E-07
       451   -6.441490E-06
       452   -2.784043E-03
       453    2.790485E-03
       454   -1.003711E-05
       455   -2.312689E-03
       456    1.401468E-06
       457   -5.852514E-04
       458   -6.203234E-03
       459    6.788485E-03
       460   -4.585802E-05
       461    1.031197E-04
       462    1.062234E-05
       463   -1.699495E-04
       464    1.012980E-08
       465   -1.926742E-03
       466   -1.533629E-04
       467    8.017608E-09
       468    1.472753E-03
       469    3.813740E-04
       470   -2.160816E-08
       471    1.112243E-03
       472    3.625971E-08
       473    9.626764E-03
       474    2.092553E-02
       475    3.887004E-02
       476   -3.434514E-03
       477   -2.458254E-03
       478    1.884103E-02
       479   -9.017224E-04
       480   -4.578198E-03
       481    1.444657E-02
       482    9.612717E-03
       483    2.075004E-02
       484    3.810711E-02
       485   -3.424829E-03
       486    2.441271E-03
       487    1.884774E-02
       488   -8.165598E-04
       489    4.449084E-03
       490    1.448010E-02
 Sym= X
 Ene= -0.831736
 Spin= Alpha
 Occup= -0.831736
         1    1.918815E-05
         2    4.466379E-05
         3   -7.435602E-05
         4   -7.418072E-05
         5   -1.186255E-02
         6   -7.014882E-04
         7    6.085159E-04
         8   -1.979739E-04
         9   -1.883603E-01
        10    1.957143E-04
        11   -5.643358E-05
        12   -1.888203E-01
        13    4.597298E-03
        14   -7.262484E-03
        15   -1.100188E-01
        16    1.435334E-05
        17   -2.181402E-05
        18    7.460671E-06
        19    1.396177E-05
        20   -4.966328E-03
        21   -5.408863E-04
        22   -5.102580E-06
        23   -1.033202E-05
        24    1.543460E-05
        25    2.617339E-05
        26   -9.526913E-03
        27    4.141605E-04
        28    8.212357E-04
        29   -9.964783E-04
        30    1.752426E-04
        31    6.375743E-04
        32   -2.735034E-03
        33   -5.837254E-04
        34   -2.745706E-06
        35   -2.539656E-06
        36    1.161427E-03
        37    1.687305E-06
        38    2.415289E-06
        39   -1.404715E-03
        40    1.996446E-06
        41    9.920164E-07
        42   -1.535027E-04
        43   -3.207392E-06
        44    1.874355E-07
        45    4.165777E-07
        46    7.385944E-07
        47   -3.386569E-05
        48    2.171119E-03
        49    1.151944E-04
        50   -3.739805E-06
        51    7.128109E-04
        52    1.182408E-05
        53   -5.750983E-06
        54    7.876221E-04
        55    2.062503E-05
        56    1.040607E-03
        57   -1.180357E-02
        58    8.946809E-05
        59    2.244358E-07
        60   -3.556417E-07
        61    1.312059E-07
        62    3.079418E-05