[Molden Format]
[Title]
ADC(2) - opt by CAM-B3LYP gaussian                                              
[Atoms] AU
 c     1    6 -.12588573623097E+01 -.22835126974190E+01 -.24083260376910E-01
 c     2    6 -.25578815622211E+01 0.23621577000000E-06 -.22837930855340E-01
 c     3    6 -.12588573623097E+01 0.22835131698505E+01 -.24090819281440E-01
 c     4    6 0.13318248850473E+01 0.22853065199506E+01 -.26003222127920E-01
 c     5    6 0.26868737956204E+01 0.23621577000000E-06 -.25389061134730E-01
 c     6    6 0.13318248850473E+01 -.22853060475191E+01 -.25993773497260E-01
 h     7    1 -.22974546243959E+01 -.40385977330627E+01 -.21598270512170E-01
 h     8    1 -.22974527346698E+01 0.40385982054942E+01 -.21613388321230E-01
 h     9    1 0.23510089905703E+01 0.40574312161345E+01 -.28191524989800E-01
 h    10    1 0.23510071008442E+01 -.40574307437030E+01 -.28172627728480E-01
 n    11    7 -.52726375582849E+01 0.23621577000000E-06 -.17238672323600E-01
 o    12    8 -.63813946825068E+01 0.20269261555273E+01 -.14842499587100E-01
 o    13    8 -.63813927927806E+01 -.20269275728219E+01 -.14865176300690E-01
 n    14    7 0.52430742102305E+01 0.23621577000000E-06 -.67376886081320E-01
 h    15    1 0.62051583509223E+01 0.16177513148781E+01 0.18115044628513E+00
 h    16    1 0.62051564611962E+01 -.16177527321727E+01 0.18114666683287E+00
[GTO]
    1 0
 s    6 1.00
 0.13575349682000E+05 0.60645503603591E-03
 0.20352333680000E+04 0.46979088884982E-02
 0.46322562359000E+03 0.24332477647552E-01
 0.13120019598000E+03 0.97399968307759E-01
 0.42853015891000E+02 0.30195584253780E+00
 0.15584185766000E+02 0.66233609137875E+00
 s    2 1.00
 0.62067138508000E+01 0.65595308539952E+00
 0.25764896527000E+01 0.37585633285142E+00
 s    1 1.00
 0.57696339419000E+00 0.10000000000000E+01
 s    1 1.00
 0.22972831358000E+00 0.10000000000000E+01
 s    1 1.00
 0.95164440028000E-01 0.10000000000000E+01
 s    1 1.00
 0.48475401370000E-01 0.10000000000000E+01
 p    4 1.00
 0.34697232244000E+02 0.11327220003114E-01
 0.79582622826000E+01 0.76169659202087E-01
 0.23780826883000E+01 0.30192252202676E+00
 0.81433208183000E+00 0.72785027349547E+00
 p    1 1.00
 0.28887547253000E+00 0.10000000000000E+01
 p    1 1.00
 0.10056823671000E+00 0.10000000000000E+01
 d    1 1.00
 0.10970000000000E+01 0.10000000000000E+01
 d    1 1.00
 0.31800000000000E+00 0.10000000000000E+01
 d    1 1.00
 0.90985336424000E-01 0.10000000000000E+01
 f    1 1.00
 0.76100000000000E+00 0.10000000000000E+01
 
    2 0
 s    6 1.00
 0.13575349682000E+05 0.60645503603591E-03
 0.20352333680000E+04 0.46979088884982E-02
 0.46322562359000E+03 0.24332477647552E-01
 0.13120019598000E+03 0.97399968307759E-01
 0.42853015891000E+02 0.30195584253780E+00
 0.15584185766000E+02 0.66233609137875E+00
 s    2 1.00
 0.62067138508000E+01 0.65595308539952E+00
 0.25764896527000E+01 0.37585633285142E+00
 s    1 1.00
 0.57696339419000E+00 0.10000000000000E+01
 s    1 1.00
 0.22972831358000E+00 0.10000000000000E+01
 s    1 1.00
 0.95164440028000E-01 0.10000000000000E+01
 s    1 1.00
 0.48475401370000E-01 0.10000000000000E+01
 p    4 1.00
 0.34697232244000E+02 0.11327220003114E-01
 0.79582622826000E+01 0.76169659202087E-01
 0.23780826883000E+01 0.30192252202676E+00
 0.81433208183000E+00 0.72785027349547E+00
 p    1 1.00
 0.28887547253000E+00 0.10000000000000E+01
 p    1 1.00
 0.10056823671000E+00 0.10000000000000E+01
 d    1 1.00
 0.10970000000000E+01 0.10000000000000E+01
 d    1 1.00
 0.31800000000000E+00 0.10000000000000E+01
 d    1 1.00
 0.90985336424000E-01 0.10000000000000E+01
 f    1 1.00
 0.76100000000000E+00 0.10000000000000E+01
 
    3 0
 s    6 1.00
 0.13575349682000E+05 0.60645503603591E-03
 0.20352333680000E+04 0.46979088884982E-02
 0.46322562359000E+03 0.24332477647552E-01
 0.13120019598000E+03 0.97399968307759E-01
 0.42853015891000E+02 0.30195584253780E+00
 0.15584185766000E+02 0.66233609137875E+00
 s    2 1.00
 0.62067138508000E+01 0.65595308539952E+00
 0.25764896527000E+01 0.37585633285142E+00
 s    1 1.00
 0.57696339419000E+00 0.10000000000000E+01
 s    1 1.00
 0.22972831358000E+00 0.10000000000000E+01
 s    1 1.00
 0.95164440028000E-01 0.10000000000000E+01
 s    1 1.00
 0.48475401370000E-01 0.10000000000000E+01
 p    4 1.00
 0.34697232244000E+02 0.11327220003114E-01
 0.79582622826000E+01 0.76169659202087E-01
 0.23780826883000E+01 0.30192252202676E+00
 0.81433208183000E+00 0.72785027349547E+00
 p    1 1.00
 0.28887547253000E+00 0.10000000000000E+01
 p    1 1.00
 0.10056823671000E+00 0.10000000000000E+01
 d    1 1.00
 0.10970000000000E+01 0.10000000000000E+01
 d    1 1.00
 0.31800000000000E+00 0.10000000000000E+01
 d    1 1.00
 0.90985336424000E-01 0.10000000000000E+01
 f    1 1.00
 0.76100000000000E+00 0.10000000000000E+01
 
    4 0
 s    6 1.00
 0.13575349682000E+05 0.60645503603591E-03
 0.20352333680000E+04 0.46979088884982E-02
 0.46322562359000E+03 0.24332477647552E-01
 0.13120019598000E+03 0.97399968307759E-01
 0.42853015891000E+02 0.30195584253780E+00
 0.15584185766000E+02 0.66233609137875E+00
 s    2 1.00
 0.62067138508000E+01 0.65595308539952E+00
 0.25764896527000E+01 0.37585633285142E+00
 s    1 1.00
 0.57696339419000E+00 0.10000000000000E+01
 s    1 1.00
 0.22972831358000E+00 0.10000000000000E+01
 s    1 1.00
 0.95164440028000E-01 0.10000000000000E+01
 s    1 1.00
 0.48475401370000E-01 0.10000000000000E+01
 p    4 1.00
 0.34697232244000E+02 0.11327220003114E-01
 0.79582622826000E+01 0.76169659202087E-01
 0.23780826883000E+01 0.30192252202676E+00
 0.81433208183000E+00 0.72785027349547E+00
 p    1 1.00
 0.28887547253000E+00 0.10000000000000E+01
 p    1 1.00
 0.10056823671000E+00 0.10000000000000E+01
 d    1 1.00
 0.10970000000000E+01 0.10000000000000E+01
 d    1 1.00
 0.31800000000000E+00 0.10000000000000E+01
 d    1 1.00
 0.90985336424000E-01 0.10000000000000E+01
 f    1 1.00
 0.76100000000000E+00 0.10000000000000E+01
 
    5 0
 s    6 1.00
 0.13575349682000E+05 0.60645503603591E-03
 0.20352333680000E+04 0.46979088884982E-02
 0.46322562359000E+03 0.24332477647552E-01
 0.13120019598000E+03 0.97399968307759E-01
 0.42853015891000E+02 0.30195584253780E+00
 0.15584185766000E+02 0.66233609137875E+00
 s    2 1.00
 0.62067138508000E+01 0.65595308539952E+00
 0.25764896527000E+01 0.37585633285142E+00
 s    1 1.00
 0.57696339419000E+00 0.10000000000000E+01
 s    1 1.00
 0.22972831358000E+00 0.10000000000000E+01
 s    1 1.00
 0.95164440028000E-01 0.10000000000000E+01
 s    1 1.00
 0.48475401370000E-01 0.10000000000000E+01
 p    4 1.00
 0.34697232244000E+02 0.11327220003114E-01
 0.79582622826000E+01 0.76169659202087E-01
 0.23780826883000E+01 0.30192252202676E+00
 0.81433208183000E+00 0.72785027349547E+00
 p    1 1.00
 0.28887547253000E+00 0.10000000000000E+01
 p    1 1.00
 0.10056823671000E+00 0.10000000000000E+01
 d    1 1.00
 0.10970000000000E+01 0.10000000000000E+01
 d    1 1.00
 0.31800000000000E+00 0.10000000000000E+01
 d    1 1.00
 0.90985336424000E-01 0.10000000000000E+01
 f    1 1.00
 0.76100000000000E+00 0.10000000000000E+01
 
    6 0
 s    6 1.00
 0.13575349682000E+05 0.60645503603591E-03
 0.20352333680000E+04 0.46979088884982E-02
 0.46322562359000E+03 0.24332477647552E-01
 0.13120019598000E+03 0.97399968307759E-01
 0.42853015891000E+02 0.30195584253780E+00
 0.15584185766000E+02 0.66233609137875E+00
 s    2 1.00
 0.62067138508000E+01 0.65595308539952E+00
 0.25764896527000E+01 0.37585633285142E+00
 s    1 1.00
 0.57696339419000E+00 0.10000000000000E+01
 s    1 1.00
 0.22972831358000E+00 0.10000000000000E+01
 s    1 1.00
 0.95164440028000E-01 0.10000000000000E+01
 s    1 1.00
 0.48475401370000E-01 0.10000000000000E+01
 p    4 1.00
 0.34697232244000E+02 0.11327220003114E-01
 0.79582622826000E+01 0.76169659202087E-01
 0.23780826883000E+01 0.30192252202676E+00
 0.81433208183000E+00 0.72785027349547E+00
 p    1 1.00
 0.28887547253000E+00 0.10000000000000E+01
 p    1 1.00
 0.10056823671000E+00 0.10000000000000E+01
 d    1 1.00
 0.10970000000000E+01 0.10000000000000E+01
 d    1 1.00
 0.31800000000000E+00 0.10000000000000E+01
 d    1 1.00
 0.90985336424000E-01 0.10000000000000E+01
 f    1 1.00
 0.76100000000000E+00 0.10000000000000E+01
 
    7 0
 s    3 1.00
 0.34061341000000E+02 0.25439307208879E-01
 0.51235746000000E+01 0.19008594890375E+00
 0.11646626000000E+01 0.85244113011042E+00
 s    1 1.00
 0.32723041000000E+00 0.10000000000000E+01
 s    1 1.00
 0.10307241000000E+00 0.10000000000000E+01
 p    1 1.00
 0.80000000000000E+00 0.10000000000000E+01
 p    1 1.00
 0.95774129632000E-01 0.10000000000000E+01
 
    8 0
 s    3 1.00
 0.34061341000000E+02 0.25439307208879E-01
 0.51235746000000E+01 0.19008594890375E+00
 0.11646626000000E+01 0.85244113011042E+00
 s    1 1.00
 0.32723041000000E+00 0.10000000000000E+01
 s    1 1.00
 0.10307241000000E+00 0.10000000000000E+01
 p    1 1.00
 0.80000000000000E+00 0.10000000000000E+01
 p    1 1.00
 0.95774129632000E-01 0.10000000000000E+01
 
    9 0
 s    3 1.00
 0.34061341000000E+02 0.25439307208879E-01
 0.51235746000000E+01 0.19008594890375E+00
 0.11646626000000E+01 0.85244113011042E+00
 s    1 1.00
 0.32723041000000E+00 0.10000000000000E+01
 s    1 1.00
 0.10307241000000E+00 0.10000000000000E+01
 p    1 1.00
 0.80000000000000E+00 0.10000000000000E+01
 p    1 1.00
 0.95774129632000E-01 0.10000000000000E+01
 
   10 0
 s    3 1.00
 0.34061341000000E+02 0.25439307208879E-01
 0.51235746000000E+01 0.19008594890375E+00
 0.11646626000000E+01 0.85244113011042E+00
 s    1 1.00
 0.32723041000000E+00 0.10000000000000E+01
 s    1 1.00
 0.10307241000000E+00 0.10000000000000E+01
 p    1 1.00
 0.80000000000000E+00 0.10000000000000E+01
 p    1 1.00
 0.95774129632000E-01 0.10000000000000E+01
 
   11 0
 s    6 1.00
 0.19730800647000E+05 0.58626402628763E-03
 0.29578958745000E+04 0.45428820586397E-02
 0.67322133595000E+03 0.23558413450084E-01
 0.19068249494000E+03 0.94709193292923E-01
 0.62295441898000E+02 0.29719784913376E+00
 0.22654161182000E+02 0.66916246895232E+00
 s    2 1.00
 0.89791477428000E+01 0.64596683630063E+00
 0.36863002370000E+01 0.38700574393705E+00
 s    1 1.00
 0.84660076805000E+00 0.10000000000000E+01
 s    1 1.00
 0.33647133771000E+00 0.10000000000000E+01
 s    1 1.00
 0.13647653675000E+00 0.10000000000000E+01
 s    1 1.00
 0.68441605847000E-01 0.10000000000000E+01
 p    4 1.00
 0.49200380510000E+02 0.11448825101764E-01
 0.11346790537000E+02 0.78422337970864E-01
 0.34273972411000E+01 0.30818094738830E+00
 0.11785525134000E+01 0.72027196368413E+00
 p    1 1.00
 0.41642204972000E+00 0.10000000000000E+01
 p    1 1.00
 0.14260826011000E+00 0.10000000000000E+01
 d    1 1.00
 0.16540000000000E+01 0.10000000000000E+01
 d    1 1.00
 0.46900000000000E+00 0.10000000000000E+01
 d    1 1.00
 0.12829642058000E+00 0.10000000000000E+01
 f    1 1.00
 0.10930000000000E+01 0.10000000000000E+01
 
   12 0
 s    6 1.00
 0.27032382631000E+05 0.57227335211155E-03
 0.40523871392000E+04 0.44353233492995E-02
 0.92232722710000E+03 0.23020107706038E-01
 0.26124070989000E+03 0.92822490667928E-01
 0.85354641351000E+02 0.29378500009671E+00
 0.31035035245000E+02 0.67401604501641E+00
 s    2 1.00
 0.12260860728000E+02 0.63839937025506E+00
 0.49987076005000E+01 0.39534587125718E+00
 s    1 1.00
 0.11703108158000E+01 0.10000000000000E+01
 s    1 1.00
 0.46474740994000E+00 0.10000000000000E+01
 s    1 1.00
 0.18504536357000E+00 0.10000000000000E+01
 s    1 1.00
 0.70288026270000E-01 0.10000000000000E+01
 p    4 1.00
 0.63274954801000E+02 0.12018332222616E-01
 0.14627049379000E+02 0.83005421790056E-01
 0.44501223456000E+01 0.31991743925964E+00
 0.15275799647000E+01 0.70715542916104E+00
 p    1 1.00
 0.52935117943000E+00 0.10000000000000E+01
 p    1 1.00
 0.17478421270000E+00 0.10000000000000E+01
 p    1 1.00
 0.51112745706000E-01 0.10000000000000E+01
 d    1 1.00
 0.23140000000000E+01 0.10000000000000E+01
 d    1 1.00
 0.64500000000000E+00 0.10000000000000E+01
 d    1 1.00
 0.14696477366000E+00 0.10000000000000E+01
 f    1 1.00
 0.14280000000000E+01 0.10000000000000E+01
 
   13 0
 s    6 1.00
 0.27032382631000E+05 0.57227335211155E-03
 0.40523871392000E+04 0.44353233492995E-02
 0.92232722710000E+03 0.23020107706038E-01
 0.26124070989000E+03 0.92822490667928E-01
 0.85354641351000E+02 0.29378500009671E+00
 0.31035035245000E+02 0.67401604501641E+00
 s    2 1.00
 0.12260860728000E+02 0.63839937025506E+00
 0.49987076005000E+01 0.39534587125718E+00
 s    1 1.00
 0.11703108158000E+01 0.10000000000000E+01
 s    1 1.00
 0.46474740994000E+00 0.10000000000000E+01
 s    1 1.00
 0.18504536357000E+00 0.10000000000000E+01
 s    1 1.00
 0.70288026270000E-01 0.10000000000000E+01
 p    4 1.00
 0.63274954801000E+02 0.12018332222616E-01
 0.14627049379000E+02 0.83005421790056E-01
 0.44501223456000E+01 0.31991743925964E+00
 0.15275799647000E+01 0.70715542916104E+00
 p    1 1.00
 0.52935117943000E+00 0.10000000000000E+01
 p    1 1.00
 0.17478421270000E+00 0.10000000000000E+01
 p    1 1.00
 0.51112745706000E-01 0.10000000000000E+01
 d    1 1.00
 0.23140000000000E+01 0.10000000000000E+01
 d    1 1.00
 0.64500000000000E+00 0.10000000000000E+01
 d    1 1.00
 0.14696477366000E+00 0.10000000000000E+01
 f    1 1.00
 0.14280000000000E+01 0.10000000000000E+01
 
   14 0
 s    6 1.00
 0.19730800647000E+05 0.58626402628763E-03
 0.29578958745000E+04 0.45428820586397E-02
 0.67322133595000E+03 0.23558413450084E-01
 0.19068249494000E+03 0.94709193292923E-01
 0.62295441898000E+02 0.29719784913376E+00
 0.22654161182000E+02 0.66916246895232E+00
 s    2 1.00
 0.89791477428000E+01 0.64596683630063E+00
 0.36863002370000E+01 0.38700574393705E+00
 s    1 1.00
 0.84660076805000E+00 0.10000000000000E+01
 s    1 1.00
 0.33647133771000E+00 0.10000000000000E+01
 s    1 1.00
 0.13647653675000E+00 0.10000000000000E+01
 s    1 1.00
 0.68441605847000E-01 0.10000000000000E+01
 p    4 1.00
 0.49200380510000E+02 0.11448825101764E-01
 0.11346790537000E+02 0.78422337970864E-01
 0.34273972411000E+01 0.30818094738830E+00
 0.11785525134000E+01 0.72027196368413E+00
 p    1 1.00
 0.41642204972000E+00 0.10000000000000E+01
 p    1 1.00
 0.14260826011000E+00 0.10000000000000E+01
 d    1 1.00
 0.16540000000000E+01 0.10000000000000E+01
 d    1 1.00
 0.46900000000000E+00 0.10000000000000E+01
 d    1 1.00
 0.12829642058000E+00 0.10000000000000E+01
 f    1 1.00
 0.10930000000000E+01 0.10000000000000E+01
 
   15 0
 s    3 1.00
 0.34061341000000E+02 0.25439307208879E-01
 0.51235746000000E+01 0.19008594890375E+00
 0.11646626000000E+01 0.85244113011042E+00
 s    1 1.00
 0.32723041000000E+00 0.10000000000000E+01
 s    1 1.00
 0.10307241000000E+00 0.10000000000000E+01
 p    1 1.00
 0.80000000000000E+00 0.10000000000000E+01
 p    1 1.00
 0.95774129632000E-01 0.10000000000000E+01
 
   16 0
 s    3 1.00
 0.34061341000000E+02 0.25439307208879E-01
 0.51235746000000E+01 0.19008594890375E+00
 0.11646626000000E+01 0.85244113011042E+00
 s    1 1.00
 0.32723041000000E+00 0.10000000000000E+01
 s    1 1.00
 0.10307241000000E+00 0.10000000000000E+01
 p    1 1.00
 0.80000000000000E+00 0.10000000000000E+01
 p    1 1.00
 0.95774129632000E-01 0.10000000000000E+01
 
[MO]
 Sym= X
 Ene= -0.891296
 Spin= Alpha
 Occup= -0.891296
         1   -1.693975E-04
         2   -3.947058E-04
         3    1.100138E-03
         4   -2.306457E-03
         5   -1.009936E-02
         6   -1.063666E-02
         7    1.568361E-03
         8    2.647695E-04
         9    2.300336E-02
        10   -2.255358E-03
        11    4.623397E-04
        12    2.107802E-02
        13   -3.398971E-02
        14    9.047936E-03
        15    1.608092E-03
        16    1.773142E-06
        17   -1.242559E-05
        18    1.065245E-05
        19   -1.671579E-05
        20   -6.162452E-03
        21    3.748357E-03
        22   -6.170481E-04
        23    3.778216E-04
        24    2.392265E-04
        25   -6.949130E-04
        26   -1.391652E-02
        27    7.079641E-03
        28   -4.814146E-03
        29    4.479506E-03
        30    3.346402E-04
        31    1.205012E-03
        32    1.706154E-03
        33   -1.125331E-02
        34   -1.782731E-05
        35    7.526201E-06
        36   -1.026773E-04
        37    6.731409E-06
        38   -7.761460E-06
        39   -6.845058E-04
        40    1.718643E-05
        41   -2.335997E-06
        42    8.222619E-04
        43   -6.761134E-04
        44    1.781275E-05
        45    3.798787E-05
        46    1.721449E-04
        47   -2.705677E-03
        48   -4.752115E-02
        49    5.392277E-03
        50    4.935786E-04
        51    1.930068E-06
        52    1.985019E-01
        53   -3.482086E-04
        54    2.253331E-05
        55    2.059526E-01
        56   -1.606980E-02
        57   -1.658592E-03
        58    2.024887E-01
        59    3.219955E-05
        60   -2.980865E-05
        61   -2.390907E-06
        62    1.845703E-07
        63   -7.991517E-04
        64    7.356778E-07
        65    3.640952E-04
        66   -6.053549E-04
        67    2.412596E-04
        68    4.496954E-06
        69   -3.558373E-03
        70    1.146804E-06
        71    8.890826E-03
        72   -9.920546E-03
        73    1.029721E-03
        74   -2.842213E-04
        75    4.901242E-03
        76   -2.894359E-05
        77    8.071500E-06
        78    5.099533E-08
        79   -1.110767E-03
        80   -7.231766E-06
        81    3.667945E-08
        82    6.764606E-04
        83   -3.597287E-06
        84   -1.050969E-07
        85    8.137893E-04
        86    8.493382E-08
        87   -1.698858E-04
        88   -3.959586E-04
        89    1.112369E-03
        90   -2.398821E-03
        91   -7.457769E-03
        92   -1.056136E-02
        93    1.568505E-03
        94   -2.665226E-04
        95    2.303653E-02
        96   -2.250100E-03
        97   -4.483303E-04
        98    2.110892E-02
        99   -3.517262E-02
       100   -1.077735E-02
       101    1.710634E-03
       102    1.479585E-06
       103   -1.234007E-05
       104    1.086049E-05
       105    1.702750E-05
       106   -6.162334E-03
       107   -3.748547E-03
       108   -6.153739E-04
       109    3.737687E-04
       110    2.416052E-04
       111    6.910310E-04
       112   -1.391374E-02
       113   -7.079088E-03
       114   -5.144662E-03
       115    4.842437E-03
       116    3.022247E-04
       117   -9.537499E-04
       118    1.690974E-03
       119    1.120934E-02
       120   -1.807530E-05
       121   -7.503655E-06
       122   -1.028328E-04
       123    7.077807E-06
       124    7.770625E-06
       125   -6.843443E-04
       126    1.717275E-05
       127    2.296585E-06
       128    8.223090E-04
       129    6.760428E-04
       130    1.256731E-04
       131    2.723312E-04
       132    5.414827E-04
       133   -1.020751E-02
       134    2.749694E-02
       135    1.177442E-02
       136   -1.222221E-03
       137    7.213767E-04
       138   -1.482972E-01
       139   -8.667702E-03
       140    6.010047E-03
       141   -1.513461E-01
       142   -2.467755E-02
       143   -6.553581E-03
       144   -9.040540E-02
       145    1.436627E-04
       146   -1.748225E-04
       147    3.115983E-05
       148   -3.214332E-06
       149   -6.740590E-04
       150    2.735875E-03
       151    5.696010E-04
       152   -7.183227E-04
       153    1.487217E-04
       154    1.635675E-03
       155   -3.743185E-03
       156    4.595601E-03
       157    7.997458E-03
       158   -6.332497E-03
       159   -1.664960E-03
       160   -8.029845E-03
       161    3.701936E-03
       162   -1.331787E-02
       163   -1.314135E-05
       164    1.052849E-05
       165    8.110400E-04
       166   -1.951985E-05
       167    1.487704E-05
       168   -1.955245E-04
       169    3.715082E-05
       170   -2.900249E-05
       171   -8.925998E-04
       172    3.026006E-04
       173   -1.125275E-03
       174   -2.562748E-03
       175    2.694320E-03
       176    2.085118E-02
       177   -1.354037E-02
       178    9.151457E-03
       179    9.058976E-03
       180    1.090851E-06
       181   -9.836956E-02
       182    6.916438E-04
       183   -1.737663E-05
       184   -1.014863E-01
       185   -2.381132E-02
       186    1.683847E-03
       187   -1.326264E-01
       188    4.657346E-04
       189   -2.612809E-04
       190   -2.044537E-04
       191    1.284061E-07
       192    1.019501E-02
       193    5.725666E-07
       194   -1.791706E-03
       195    3.936050E-03
       196   -2.144344E-03
       197    4.380673E-06
       198    2.492042E-02
       199   -1.980448E-06
       200   -5.668358E-03
       201    6.910301E-03
       202   -1.241943E-03
       203   -3.554857E-04
       204    1.936191E-02
       205    1.241295E-05
       206    1.146749E-04
       207    2.641389E-08
       208    1.912902E-04
       209   -8.020758E-05
       210   -1.359758E-07
       211    1.172654E-03
       212   -7.364492E-05
       213    1.005379E-07
       214   -1.429296E-03
       215    7.062110E-08
       216    1.261606E-04
       217    2.732375E-04
       218    5.489415E-04
       219   -1.030399E-02
       220    3.043985E-02
       221    1.180029E-02
       222   -1.224137E-03
       223   -7.150792E-04
       224   -1.483156E-01
       225   -8.664268E-03
       226   -6.027146E-03
       227   -1.513734E-01
       228   -2.342317E-02
       229    8.530985E-03
       230   -9.032771E-02
       231    1.434239E-04
       232   -1.753756E-04
       233    3.195167E-05
       234    3.290985E-06
       235   -6.733900E-04
       236   -2.736029E-03
       237    5.694997E-04
       238   -7.206158E-04
       239    1.511162E-04
       240   -1.638823E-03
       241   -3.740564E-03
       242   -4.595524E-03
       243    7.645748E-03
       244   -5.965579E-03
       245   -1.680169E-03
       246    8.305347E-03
       247    3.722808E-03
       248    1.337213E-02
       249   -1.297015E-05
       250   -1.061151E-05
       251    8.114090E-04
       252   -1.986096E-05
       253   -1.478936E-05
       254   -1.958987E-04
       255    3.726224E-05
       256    2.902619E-05
       257   -8.927207E-04
       258   -3.025878E-04
       259   -3.757862E-04
       260   -2.643073E-04
       261   -1.695438E-02
       262   -1.697502E-05
       263   -4.457850E-06
       264    8.751090E-04
       265   -4.970835E-03
       266   -3.561670E-04
       267   -7.221370E-03
       268   -3.768958E-04
       269   -2.577626E-04
       270   -1.671900E-02
       271   -1.571919E-05
       272    3.695949E-06
       273    8.767731E-04
       274   -5.152891E-03
       275    2.117463E-04
       276   -7.194404E-03
       277   -3.974129E-04
       278   -2.237477E-03
       279    3.235288E-02
       280   -9.250350E-06
       281    9.249490E-05
       282   -6.026650E-03
       283   -1.856664E-03
       284   -2.513890E-03
       285    2.648953E-03
       286   -4.018528E-04
       287   -2.237182E-03
       288    3.278035E-02
       289   -8.814535E-06
       290   -9.231847E-05
       291   -6.027897E-03
       292   -1.705036E-03
       293    2.684471E-03
       294    2.676732E-03
       295   -3.205025E-05
       296   -7.322792E-05
       297    4.067065E-05
       298    3.483589E-04
       299   -7.022334E-03
       300    5.768595E-04
       301    3.366349E-04
       302    1.223126E-07
       303    1.936232E-02
       304    4.940988E-05
       305    9.347745E-07
       306    2.188017E-02
       307   -3.028359E-03
       308    2.599072E-05
       309    9.361544E-03
       310    1.237311E-05
       311    2.672958E-06
       312   -1.504606E-05
       313   -1.334064E-07
       314    4.419924E-03
       315    5.506643E-08
       316   -2.046726E-05
       317    8.360350E-05
       318   -6.313625E-05
       319   -1.015545E-06
       320    1.328020E-02
       321   -5.401043E-08
       322   -9.517938E-04
       323    2.699512E-03
       324   -1.747719E-03
       325    4.675117E-05
       326    2.961734E-03
       327    4.824672E-06
       328    6.481106E-06
       329   -2.091107E-08
       330    2.069798E-05
       331   -4.817011E-06
       332    5.885753E-08
       333    6.867611E-04
       334   -3.878305E-06
       335   -3.080238E-08
       336   -7.145304E-04
       337    1.040025E-08
       338   -2.243376E-05
       339   -5.140405E-05
       340    3.339972E-05
       341    5.317977E-04
       342   -5.517362E-03
       343   -8.290573E-04
       344   -3.137335E-05
       345    1.599380E-04
       346   -8.004824E-02
       347   -1.322434E-04
       348    2.808510E-04
       349   -7.422092E-02
       350   -1.269525E-03
       351    4.888969E-04
       352   -6.043360E-02
       353   -1.503295E-04
       354    1.943101E-04
       355   -7.531668E-03
       356    3.911174E-06
       357   -4.341599E-06
       358    4.304252E-07
       359   -7.624888E-07
       360    2.849455E-06
       361    4.853424E-04
       362   -9.962000E-06
       363   -1.123242E-05
       364    2.119442E-05
       365    8.383675E-06
       366   -5.394048E-04
       367    1.614040E-03
       368   -7.682583E-05
       369    5.302807E-05
       370    2.379776E-05
       371    7.688087E-05
       372   -1.106477E-04
       373    2.650173E-04
       374    6.188734E-07
       375    1.798815E-06
       376    6.808741E-05
       377   -1.088948E-06
       378   -8.070274E-07
       379    8.318064E-05
       380    2.586420E-07
       381   -1.606336E-06
       382   -1.745295E-04
       383    1.393697E-04
       384   -2.221334E-05
       385   -5.089557E-05
       386    3.303646E-05
       387    5.276096E-04
       388   -5.540904E-03
       389   -7.863717E-04
       390   -1.906834E-05
       391   -1.672235E-04
       392   -8.004840E-02
       393   -1.214542E-04
       394   -2.864049E-04
       395   -7.422145E-02
       396   -1.219876E-03
       397   -5.011530E-04
       398   -6.042735E-02
       399   -1.309953E-04
       400   -1.996034E-04
       401   -7.536528E-03
       402    3.939906E-06
       403   -4.414253E-06
       404    4.743476E-07
       405    7.208339E-07
       406    2.803451E-06
       407   -4.853500E-04
       408   -9.272604E-06
       409   -1.146531E-05
       410    2.073792E-05
       411   -7.829789E-06
       412   -5.393423E-04
       413   -1.614028E-03
       414   -7.658087E-05
       415    5.403508E-05
       416    2.254580E-05
       417   -7.615132E-05
       418   -1.114694E-04
       419   -2.644631E-04
       420    6.259268E-07
       421   -1.818329E-06
       422    6.809487E-05
       423   -1.081919E-06
       424    8.402357E-07
       425    8.317465E-05
       426    2.421502E-07
       427    1.599308E-06
       428   -1.745335E-04
       429   -1.393774E-04
       430    4.831655E-03
       431    1.145707E-02
       432   -1.777169E-02
       433   -2.743379E-02
       434   -2.167628E-02
       435   -6.480362E-02
       436   -1.698016E-02
       437    1.393737E-05
       438    2.682565E-01
       439   -1.931867E-02
       440   -2.305627E-06
       441    2.648148E-01
       442   -1.782837E-02
       443   -1.552459E-04
       444    2.146704E-01
       445   -9.456186E-05
       446   -2.304799E-05
       447    1.176098E-04
       448    3.519627E-07
       449    5.552468E-04
       450    4.109418E-07
       451   -2.071064E-04
       452   -1.513366E-03
       453    1.720472E-03
       454   -6.477021E-06
       455    3.141689E-03
       456    1.189147E-06
       457   -1.551106E-03
       458   -2.977853E-03
       459    4.528959E-03
       460   -2.697479E-05
       461    1.959982E-03
       462    1.116447E-05
       463   -1.303251E-04
       464    1.376153E-08
       465   -1.100609E-03
       466   -8.823069E-05
       467   -2.221738E-08
       468    6.303925E-04
       469    2.630802E-04
       470    3.754347E-09
       471    8.462288E-04
       472    1.416293E-08
       473    8.787405E-03
       474    1.689437E-02
       475    2.843439E-02
       476   -2.200230E-03
       477   -1.808553E-03
       478    1.354380E-02
       479    1.152374E-03
       480   -3.349168E-03
       481    1.508961E-02
       482    8.778103E-03
       483    1.677274E-02
       484    2.787925E-02
       485   -2.193832E-03
       486    1.796920E-03
       487    1.354900E-02
       488    1.218307E-03
       489    3.263463E-03
       490    1.511330E-02
 Sym= X
 Ene= 0.891296
 Spin= Alpha
 Occup= 0.891296
         1   -1.312237E-02
         2   -2.910792E-02
         3    7.847902E-03
         4    5.057974E-01
         5    5.495266E+00
         6   -3.865192E+00
         7   -6.582522E-03
         8   -2.079238E-02
         9   -2.287174E-03
        10    6.815483E-02
        11    2.515196E-03
        12   -4.161864E-03
        13   -2.170516E-01
        14    2.501342E-01
        15   -3.000751E-02
        16    1.649555E-03
        17   -3.248495E-05
        18   -1.617070E-03
        19   -5.216997E-04
        20   -3.522893E-05
        21    1.094890E-04
        22    3.190742E-02
        23   -1.236395E-02
        24   -1.954346E-02
        25   -7.199773E-03
        26   -8.934021E-04
        27    3.773522E-04
        28    8.634062E-02
        29   -2.870538E-01
        30    2.007132E-01
        31    1.007752E+00
        32    1.147943E-02
        33   -2.401757E-02
        34    9.100799E-04
        35   -4.071833E-05
        36   -1.909583E-05
        37   -9.200368E-04
        38    1.228260E-04
        39   -1.260558E-05
        40   -3.009635E-04
        41   -6.819658E-05
        42    3.822532E-05
        43   -1.868871E-05
        44   -4.423519E-03
        45   -8.973651E-03
        46   -5.743446E-03
        47    3.261379E-01
        48    4.749088E+00
        49    1.708717E-01
        50   -1.992401E-02
        51   -8.731477E-06
        52    4.428447E-03
        53   -7.509543E-02
        54   -2.382202E-05
        55    1.897770E-03
        56   -1.668478E+00
        57    7.530360E-03
        58    1.038361E-01
        59    7.060238E-04
        60    2.570206E-03
        61   -3.276230E-03
        62    6.042850E-07