[Molden Format]
[Title]
ADC(2) - opt by CAM-B3LYP gaussian                                              
[Atoms] AU
 c     1    6 -.12588573623097E+01 -.22835126974190E+01 -.24083260376910E-01
 c     2    6 -.25578815622211E+01 0.23621577000000E-06 -.22837930855340E-01
 c     3    6 -.12588573623097E+01 0.22835131698505E+01 -.24090819281440E-01
 c     4    6 0.13318248850473E+01 0.22853065199506E+01 -.26003222127920E-01
 c     5    6 0.26868737956204E+01 0.23621577000000E-06 -.25389061134730E-01
 c     6    6 0.13318248850473E+01 -.22853060475191E+01 -.25993773497260E-01
 h     7    1 -.22974546243959E+01 -.40385977330627E+01 -.21598270512170E-01
 h     8    1 -.22974527346698E+01 0.40385982054942E+01 -.21613388321230E-01
 h     9    1 0.23510089905703E+01 0.40574312161345E+01 -.28191524989800E-01
 h    10    1 0.23510071008442E+01 -.40574307437030E+01 -.28172627728480E-01
 n    11    7 -.52726375582849E+01 0.23621577000000E-06 -.17238672323600E-01
 o    12    8 -.63813946825068E+01 0.20269261555273E+01 -.14842499587100E-01
 o    13    8 -.63813927927806E+01 -.20269275728219E+01 -.14865176300690E-01
 n    14    7 0.52430742102305E+01 0.23621577000000E-06 -.67376886081320E-01
 h    15    1 0.62051583509223E+01 0.16177513148781E+01 0.18115044628513E+00
 h    16    1 0.62051564611962E+01 -.16177527321727E+01 0.18114666683287E+00
[GTO]
    1 0
 s    6 1.00
 0.13575349682000E+05 0.60645503603591E-03
 0.20352333680000E+04 0.46979088884982E-02
 0.46322562359000E+03 0.24332477647552E-01
 0.13120019598000E+03 0.97399968307759E-01
 0.42853015891000E+02 0.30195584253780E+00
 0.15584185766000E+02 0.66233609137875E+00
 s    2 1.00
 0.62067138508000E+01 0.65595308539952E+00
 0.25764896527000E+01 0.37585633285142E+00
 s    1 1.00
 0.57696339419000E+00 0.10000000000000E+01
 s    1 1.00
 0.22972831358000E+00 0.10000000000000E+01
 s    1 1.00
 0.95164440028000E-01 0.10000000000000E+01
 s    1 1.00
 0.48475401370000E-01 0.10000000000000E+01
 p    4 1.00
 0.34697232244000E+02 0.11327220003114E-01
 0.79582622826000E+01 0.76169659202087E-01
 0.23780826883000E+01 0.30192252202676E+00
 0.81433208183000E+00 0.72785027349547E+00
 p    1 1.00
 0.28887547253000E+00 0.10000000000000E+01
 p    1 1.00
 0.10056823671000E+00 0.10000000000000E+01
 d    1 1.00
 0.10970000000000E+01 0.10000000000000E+01
 d    1 1.00
 0.31800000000000E+00 0.10000000000000E+01
 d    1 1.00
 0.90985336424000E-01 0.10000000000000E+01
 f    1 1.00
 0.76100000000000E+00 0.10000000000000E+01
 
    2 0
 s    6 1.00
 0.13575349682000E+05 0.60645503603591E-03
 0.20352333680000E+04 0.46979088884982E-02
 0.46322562359000E+03 0.24332477647552E-01
 0.13120019598000E+03 0.97399968307759E-01
 0.42853015891000E+02 0.30195584253780E+00
 0.15584185766000E+02 0.66233609137875E+00
 s    2 1.00
 0.62067138508000E+01 0.65595308539952E+00
 0.25764896527000E+01 0.37585633285142E+00
 s    1 1.00
 0.57696339419000E+00 0.10000000000000E+01
 s    1 1.00
 0.22972831358000E+00 0.10000000000000E+01
 s    1 1.00
 0.95164440028000E-01 0.10000000000000E+01
 s    1 1.00
 0.48475401370000E-01 0.10000000000000E+01
 p    4 1.00
 0.34697232244000E+02 0.11327220003114E-01
 0.79582622826000E+01 0.76169659202087E-01
 0.23780826883000E+01 0.30192252202676E+00
 0.81433208183000E+00 0.72785027349547E+00
 p    1 1.00
 0.28887547253000E+00 0.10000000000000E+01
 p    1 1.00
 0.10056823671000E+00 0.10000000000000E+01
 d    1 1.00
 0.10970000000000E+01 0.10000000000000E+01
 d    1 1.00
 0.31800000000000E+00 0.10000000000000E+01
 d    1 1.00
 0.90985336424000E-01 0.10000000000000E+01
 f    1 1.00
 0.76100000000000E+00 0.10000000000000E+01
 
    3 0
 s    6 1.00
 0.13575349682000E+05 0.60645503603591E-03
 0.20352333680000E+04 0.46979088884982E-02
 0.46322562359000E+03 0.24332477647552E-01
 0.13120019598000E+03 0.97399968307759E-01
 0.42853015891000E+02 0.30195584253780E+00
 0.15584185766000E+02 0.66233609137875E+00
 s    2 1.00
 0.62067138508000E+01 0.65595308539952E+00
 0.25764896527000E+01 0.37585633285142E+00
 s    1 1.00
 0.57696339419000E+00 0.10000000000000E+01
 s    1 1.00
 0.22972831358000E+00 0.10000000000000E+01
 s    1 1.00
 0.95164440028000E-01 0.10000000000000E+01
 s    1 1.00
 0.48475401370000E-01 0.10000000000000E+01
 p    4 1.00
 0.34697232244000E+02 0.11327220003114E-01
 0.79582622826000E+01 0.76169659202087E-01
 0.23780826883000E+01 0.30192252202676E+00
 0.81433208183000E+00 0.72785027349547E+00
 p    1 1.00
 0.28887547253000E+00 0.10000000000000E+01
 p    1 1.00
 0.10056823671000E+00 0.10000000000000E+01
 d    1 1.00
 0.10970000000000E+01 0.10000000000000E+01
 d    1 1.00
 0.31800000000000E+00 0.10000000000000E+01
 d    1 1.00
 0.90985336424000E-01 0.10000000000000E+01
 f    1 1.00
 0.76100000000000E+00 0.10000000000000E+01
 
    4 0
 s    6 1.00
 0.13575349682000E+05 0.60645503603591E-03
 0.20352333680000E+04 0.46979088884982E-02
 0.46322562359000E+03 0.24332477647552E-01
 0.13120019598000E+03 0.97399968307759E-01
 0.42853015891000E+02 0.30195584253780E+00
 0.15584185766000E+02 0.66233609137875E+00
 s    2 1.00
 0.62067138508000E+01 0.65595308539952E+00
 0.25764896527000E+01 0.37585633285142E+00
 s    1 1.00
 0.57696339419000E+00 0.10000000000000E+01
 s    1 1.00
 0.22972831358000E+00 0.10000000000000E+01
 s    1 1.00
 0.95164440028000E-01 0.10000000000000E+01
 s    1 1.00
 0.48475401370000E-01 0.10000000000000E+01
 p    4 1.00
 0.34697232244000E+02 0.11327220003114E-01
 0.79582622826000E+01 0.76169659202087E-01
 0.23780826883000E+01 0.30192252202676E+00
 0.81433208183000E+00 0.72785027349547E+00
 p    1 1.00
 0.28887547253000E+00 0.10000000000000E+01
 p    1 1.00
 0.10056823671000E+00 0.10000000000000E+01
 d    1 1.00
 0.10970000000000E+01 0.10000000000000E+01
 d    1 1.00
 0.31800000000000E+00 0.10000000000000E+01
 d    1 1.00
 0.90985336424000E-01 0.10000000000000E+01
 f    1 1.00
 0.76100000000000E+00 0.10000000000000E+01
 
    5 0
 s    6 1.00
 0.13575349682000E+05 0.60645503603591E-03
 0.20352333680000E+04 0.46979088884982E-02
 0.46322562359000E+03 0.24332477647552E-01
 0.13120019598000E+03 0.97399968307759E-01
 0.42853015891000E+02 0.30195584253780E+00
 0.15584185766000E+02 0.66233609137875E+00
 s    2 1.00
 0.62067138508000E+01 0.65595308539952E+00
 0.25764896527000E+01 0.37585633285142E+00
 s    1 1.00
 0.57696339419000E+00 0.10000000000000E+01
 s    1 1.00
 0.22972831358000E+00 0.10000000000000E+01
 s    1 1.00
 0.95164440028000E-01 0.10000000000000E+01
 s    1 1.00
 0.48475401370000E-01 0.10000000000000E+01
 p    4 1.00
 0.34697232244000E+02 0.11327220003114E-01
 0.79582622826000E+01 0.76169659202087E-01
 0.23780826883000E+01 0.30192252202676E+00
 0.81433208183000E+00 0.72785027349547E+00
 p    1 1.00
 0.28887547253000E+00 0.10000000000000E+01
 p    1 1.00
 0.10056823671000E+00 0.10000000000000E+01
 d    1 1.00
 0.10970000000000E+01 0.10000000000000E+01
 d    1 1.00
 0.31800000000000E+00 0.10000000000000E+01
 d    1 1.00
 0.90985336424000E-01 0.10000000000000E+01
 f    1 1.00
 0.76100000000000E+00 0.10000000000000E+01
 
    6 0
 s    6 1.00
 0.13575349682000E+05 0.60645503603591E-03
 0.20352333680000E+04 0.46979088884982E-02
 0.46322562359000E+03 0.24332477647552E-01
 0.13120019598000E+03 0.97399968307759E-01
 0.42853015891000E+02 0.30195584253780E+00
 0.15584185766000E+02 0.66233609137875E+00
 s    2 1.00
 0.62067138508000E+01 0.65595308539952E+00
 0.25764896527000E+01 0.37585633285142E+00
 s    1 1.00
 0.57696339419000E+00 0.10000000000000E+01
 s    1 1.00
 0.22972831358000E+00 0.10000000000000E+01
 s    1 1.00
 0.95164440028000E-01 0.10000000000000E+01
 s    1 1.00
 0.48475401370000E-01 0.10000000000000E+01
 p    4 1.00
 0.34697232244000E+02 0.11327220003114E-01
 0.79582622826000E+01 0.76169659202087E-01
 0.23780826883000E+01 0.30192252202676E+00
 0.81433208183000E+00 0.72785027349547E+00
 p    1 1.00
 0.28887547253000E+00 0.10000000000000E+01
 p    1 1.00
 0.10056823671000E+00 0.10000000000000E+01
 d    1 1.00
 0.10970000000000E+01 0.10000000000000E+01
 d    1 1.00
 0.31800000000000E+00 0.10000000000000E+01
 d    1 1.00
 0.90985336424000E-01 0.10000000000000E+01
 f    1 1.00
 0.76100000000000E+00 0.10000000000000E+01
 
    7 0
 s    3 1.00
 0.34061341000000E+02 0.25439307208879E-01
 0.51235746000000E+01 0.19008594890375E+00
 0.11646626000000E+01 0.85244113011042E+00
 s    1 1.00
 0.32723041000000E+00 0.10000000000000E+01
 s    1 1.00
 0.10307241000000E+00 0.10000000000000E+01
 p    1 1.00
 0.80000000000000E+00 0.10000000000000E+01
 p    1 1.00
 0.95774129632000E-01 0.10000000000000E+01
 
    8 0
 s    3 1.00
 0.34061341000000E+02 0.25439307208879E-01
 0.51235746000000E+01 0.19008594890375E+00
 0.11646626000000E+01 0.85244113011042E+00
 s    1 1.00
 0.32723041000000E+00 0.10000000000000E+01
 s    1 1.00
 0.10307241000000E+00 0.10000000000000E+01
 p    1 1.00
 0.80000000000000E+00 0.10000000000000E+01
 p    1 1.00
 0.95774129632000E-01 0.10000000000000E+01
 
    9 0
 s    3 1.00
 0.34061341000000E+02 0.25439307208879E-01
 0.51235746000000E+01 0.19008594890375E+00
 0.11646626000000E+01 0.85244113011042E+00
 s    1 1.00
 0.32723041000000E+00 0.10000000000000E+01
 s    1 1.00
 0.10307241000000E+00 0.10000000000000E+01
 p    1 1.00
 0.80000000000000E+00 0.10000000000000E+01
 p    1 1.00
 0.95774129632000E-01 0.10000000000000E+01
 
   10 0
 s    3 1.00
 0.34061341000000E+02 0.25439307208879E-01
 0.51235746000000E+01 0.19008594890375E+00
 0.11646626000000E+01 0.85244113011042E+00
 s    1 1.00
 0.32723041000000E+00 0.10000000000000E+01
 s    1 1.00
 0.10307241000000E+00 0.10000000000000E+01
 p    1 1.00
 0.80000000000000E+00 0.10000000000000E+01
 p    1 1.00
 0.95774129632000E-01 0.10000000000000E+01
 
   11 0
 s    6 1.00
 0.19730800647000E+05 0.58626402628763E-03
 0.29578958745000E+04 0.45428820586397E-02
 0.67322133595000E+03 0.23558413450084E-01
 0.19068249494000E+03 0.94709193292923E-01
 0.62295441898000E+02 0.29719784913376E+00
 0.22654161182000E+02 0.66916246895232E+00
 s    2 1.00
 0.89791477428000E+01 0.64596683630063E+00
 0.36863002370000E+01 0.38700574393705E+00
 s    1 1.00
 0.84660076805000E+00 0.10000000000000E+01
 s    1 1.00
 0.33647133771000E+00 0.10000000000000E+01
 s    1 1.00
 0.13647653675000E+00 0.10000000000000E+01
 s    1 1.00
 0.68441605847000E-01 0.10000000000000E+01
 p    4 1.00
 0.49200380510000E+02 0.11448825101764E-01
 0.11346790537000E+02 0.78422337970864E-01
 0.34273972411000E+01 0.30818094738830E+00
 0.11785525134000E+01 0.72027196368413E+00
 p    1 1.00
 0.41642204972000E+00 0.10000000000000E+01
 p    1 1.00
 0.14260826011000E+00 0.10000000000000E+01
 d    1 1.00
 0.16540000000000E+01 0.10000000000000E+01
 d    1 1.00
 0.46900000000000E+00 0.10000000000000E+01
 d    1 1.00
 0.12829642058000E+00 0.10000000000000E+01
 f    1 1.00
 0.10930000000000E+01 0.10000000000000E+01
 
   12 0
 s    6 1.00
 0.27032382631000E+05 0.57227335211155E-03
 0.40523871392000E+04 0.44353233492995E-02
 0.92232722710000E+03 0.23020107706038E-01
 0.26124070989000E+03 0.92822490667928E-01
 0.85354641351000E+02 0.29378500009671E+00
 0.31035035245000E+02 0.67401604501641E+00
 s    2 1.00
 0.12260860728000E+02 0.63839937025506E+00
 0.49987076005000E+01 0.39534587125718E+00
 s    1 1.00
 0.11703108158000E+01 0.10000000000000E+01
 s    1 1.00
 0.46474740994000E+00 0.10000000000000E+01
 s    1 1.00
 0.18504536357000E+00 0.10000000000000E+01
 s    1 1.00
 0.70288026270000E-01 0.10000000000000E+01
 p    4 1.00
 0.63274954801000E+02 0.12018332222616E-01
 0.14627049379000E+02 0.83005421790056E-01
 0.44501223456000E+01 0.31991743925964E+00
 0.15275799647000E+01 0.70715542916104E+00
 p    1 1.00
 0.52935117943000E+00 0.10000000000000E+01
 p    1 1.00
 0.17478421270000E+00 0.10000000000000E+01
 p    1 1.00
 0.51112745706000E-01 0.10000000000000E+01
 d    1 1.00
 0.23140000000000E+01 0.10000000000000E+01
 d    1 1.00
 0.64500000000000E+00 0.10000000000000E+01
 d    1 1.00
 0.14696477366000E+00 0.10000000000000E+01
 f    1 1.00
 0.14280000000000E+01 0.10000000000000E+01
 
   13 0
 s    6 1.00
 0.27032382631000E+05 0.57227335211155E-03
 0.40523871392000E+04 0.44353233492995E-02
 0.92232722710000E+03 0.23020107706038E-01
 0.26124070989000E+03 0.92822490667928E-01
 0.85354641351000E+02 0.29378500009671E+00
 0.31035035245000E+02 0.67401604501641E+00
 s    2 1.00
 0.12260860728000E+02 0.63839937025506E+00
 0.49987076005000E+01 0.39534587125718E+00
 s    1 1.00
 0.11703108158000E+01 0.10000000000000E+01
 s    1 1.00
 0.46474740994000E+00 0.10000000000000E+01
 s    1 1.00
 0.18504536357000E+00 0.10000000000000E+01
 s    1 1.00
 0.70288026270000E-01 0.10000000000000E+01
 p    4 1.00
 0.63274954801000E+02 0.12018332222616E-01
 0.14627049379000E+02 0.83005421790056E-01
 0.44501223456000E+01 0.31991743925964E+00
 0.15275799647000E+01 0.70715542916104E+00
 p    1 1.00
 0.52935117943000E+00 0.10000000000000E+01
 p    1 1.00
 0.17478421270000E+00 0.10000000000000E+01
 p    1 1.00
 0.51112745706000E-01 0.10000000000000E+01
 d    1 1.00
 0.23140000000000E+01 0.10000000000000E+01
 d    1 1.00
 0.64500000000000E+00 0.10000000000000E+01
 d    1 1.00
 0.14696477366000E+00 0.10000000000000E+01
 f    1 1.00
 0.14280000000000E+01 0.10000000000000E+01
 
   14 0
 s    6 1.00
 0.19730800647000E+05 0.58626402628763E-03
 0.29578958745000E+04 0.45428820586397E-02
 0.67322133595000E+03 0.23558413450084E-01
 0.19068249494000E+03 0.94709193292923E-01
 0.62295441898000E+02 0.29719784913376E+00
 0.22654161182000E+02 0.66916246895232E+00
 s    2 1.00
 0.89791477428000E+01 0.64596683630063E+00
 0.36863002370000E+01 0.38700574393705E+00
 s    1 1.00
 0.84660076805000E+00 0.10000000000000E+01
 s    1 1.00
 0.33647133771000E+00 0.10000000000000E+01
 s    1 1.00
 0.13647653675000E+00 0.10000000000000E+01
 s    1 1.00
 0.68441605847000E-01 0.10000000000000E+01
 p    4 1.00
 0.49200380510000E+02 0.11448825101764E-01
 0.11346790537000E+02 0.78422337970864E-01
 0.34273972411000E+01 0.30818094738830E+00
 0.11785525134000E+01 0.72027196368413E+00
 p    1 1.00
 0.41642204972000E+00 0.10000000000000E+01
 p    1 1.00
 0.14260826011000E+00 0.10000000000000E+01
 d    1 1.00
 0.16540000000000E+01 0.10000000000000E+01
 d    1 1.00
 0.46900000000000E+00 0.10000000000000E+01
 d    1 1.00
 0.12829642058000E+00 0.10000000000000E+01
 f    1 1.00
 0.10930000000000E+01 0.10000000000000E+01
 
   15 0
 s    3 1.00
 0.34061341000000E+02 0.25439307208879E-01
 0.51235746000000E+01 0.19008594890375E+00
 0.11646626000000E+01 0.85244113011042E+00
 s    1 1.00
 0.32723041000000E+00 0.10000000000000E+01
 s    1 1.00
 0.10307241000000E+00 0.10000000000000E+01
 p    1 1.00
 0.80000000000000E+00 0.10000000000000E+01
 p    1 1.00
 0.95774129632000E-01 0.10000000000000E+01
 
   16 0
 s    3 1.00
 0.34061341000000E+02 0.25439307208879E-01
 0.51235746000000E+01 0.19008594890375E+00
 0.11646626000000E+01 0.85244113011042E+00
 s    1 1.00
 0.32723041000000E+00 0.10000000000000E+01
 s    1 1.00
 0.10307241000000E+00 0.10000000000000E+01
 p    1 1.00
 0.80000000000000E+00 0.10000000000000E+01
 p    1 1.00
 0.95774129632000E-01 0.10000000000000E+01
 
[MO]
 Sym= X
 Ene= -0.079681
 Spin= Alpha
 Occup= -0.079681
         1   -1.327254E-04
         2   -3.047334E-04
         3    8.880456E-04
         4   -2.076185E-03
         5   -1.082776E-02
         6   -9.143991E-03
         7    3.725355E-04
         8   -6.419077E-04
         9    2.876825E-02
        10   -2.631852E-03
        11   -3.471060E-04
        12    2.679502E-02
        13   -2.898721E-02
        14    8.019479E-03
        15    5.915530E-03
        16   -1.774876E-05
        17    5.299400E-06
        18    1.244936E-05
        19    2.324356E-05
        20   -6.550573E-03
        21    4.085973E-03
        22   -5.360158E-04
        23    3.149937E-04
        24    2.210221E-04
        25   -5.172653E-04
        26   -1.472306E-02
        27    7.680242E-03
        28   -4.468399E-03
        29    4.229817E-03
        30    2.385818E-04
        31    8.871783E-04
        32    1.130453E-03
        33   -9.264532E-03
        34   -1.881142E-05
        35    1.898744E-07
        36   -1.473598E-04
        37    7.355306E-06
        38   -1.901519E-06
        39   -6.926782E-04
        40    1.788286E-05
        41    1.646776E-06
        42    8.903820E-04
        43   -7.435795E-04
        44    9.704199E-05
        45    2.203198E-04
        46   -1.979592E-04
        47   -2.231359E-03
        48   -4.285931E-02
        49    4.248868E-03
        50   -1.002875E-04
        51    1.582703E-06
        52    2.179299E-01
        53   -5.697023E-04
        54    2.413781E-05
        55    2.255540E-01
        56   -1.467202E-02
        57   -1.571806E-03
        58    2.032574E-01
        59    1.319990E-05
        60   -1.622829E-05
        61    3.028393E-06
        62    1.974685E-07
        63   -1.088379E-03
        64    1.874617E-06
        65    2.617070E-04
        66   -4.575568E-04
        67    1.958499E-04
        68    4.716378E-06
        69   -4.171349E-03
        70    3.720408E-06
        71    6.565785E-03
        72   -7.480340E-03
        73    9.145554E-04
        74   -2.716142E-04
        75    5.397097E-03
        76   -2.364909E-05
        77    6.287686E-06
        78    9.114978E-08
        79   -1.290006E-03
        80   -7.277230E-06
        81   -5.372244E-09
        82    8.386010E-04
        83   -1.158586E-06
        84   -1.169180E-07
        85    8.921240E-04
        86    2.472095E-07
        87   -1.334724E-04
        88   -3.065845E-04
        89    9.007611E-04
        90   -2.161973E-03
        91   -8.285654E-03
        92   -9.058365E-03
        93    3.669593E-04
        94    6.436592E-04
        95    2.886231E-02
        96   -2.624146E-03
        97    3.659481E-04
        98    2.688673E-02
        99   -3.009748E-02
       100   -9.669311E-03
       101    6.059602E-03
       102   -1.817373E-05
       103    5.549273E-06
       104    1.262446E-05
       105   -2.321439E-05
       106   -6.548899E-03
       107   -4.086342E-03
       108   -5.337101E-04
       109    3.106373E-04
       110    2.230728E-04
       111    5.124971E-04
       112   -1.471705E-02
       113   -7.679530E-03
       114   -4.781697E-03
       115    4.575002E-03
       116    2.066953E-04
       117   -6.565456E-04
       118    1.125159E-03
       119    9.224770E-03
       120   -1.902251E-05
       121   -1.612036E-07
       122   -1.478934E-04
       123    7.681004E-06
       124    1.918172E-06
       125   -6.920586E-04
       126    1.784037E-05
       127   -1.701895E-06
       128    8.904784E-04
       129    7.434988E-04
       130    6.919616E-06
       131    6.868576E-06
       132    7.576837E-04
       133   -7.997824E-03
       134    2.737865E-02
       135    1.022384E-02
       136   -6.276449E-05
       137    1.256884E-04
       138   -1.574005E-01
       139   -6.484985E-03
       140    4.633833E-03
       141   -1.600757E-01
       142   -2.095063E-02
       143   -5.869379E-03
       144   -9.737522E-02
       145    7.037353E-05
       146   -8.608909E-05
       147    1.571556E-05
       148   -2.667111E-05
       149   -1.056640E-03
       150    3.172780E-03
       151    4.383654E-04
       152   -5.289585E-04
       153    9.059319E-05
       154    1.316897E-03
       155   -4.408680E-03
       156    5.430180E-03
       157    6.869891E-03
       158   -5.454234E-03
       159   -1.415657E-03
       160   -6.740346E-03
       161    3.150937E-03
       162   -1.053971E-02
       163   -1.276935E-05
       164    9.966500E-07
       165    8.999965E-04
       166   -1.052791E-05
       167    2.126947E-05
       168   -2.254159E-04
       169    2.765979E-05
       170   -2.260662E-05
       171   -9.820561E-04
       172    3.817070E-04
       173   -9.067321E-04
       174   -2.067392E-03
       175    2.131695E-03
       176    1.790509E-02
       177   -9.355484E-03
       178    7.853143E-03
       179    5.137283E-03
       180    8.826759E-06
       181   -1.269280E-01
       182   -9.789448E-04
       183   -6.657463E-06
       184   -1.289886E-01
       185   -1.821804E-02
       186    1.656425E-03
       187   -1.288693E-01
       188    2.755194E-04
       189   -1.207517E-04
       190   -1.547677E-04
       191   -2.114452E-07
       192    9.331025E-03
       193    1.746747E-06
       194   -1.578944E-03
       195    3.372506E-03
       196   -1.793563E-03
       197    2.806564E-06
       198    2.345129E-02
       199    1.935767E-07
       200   -3.953049E-03
       201    5.040091E-03
       202   -1.087042E-03
       203   -3.297892E-04
       204    1.896127E-02
       205    3.693216E-06
       206    8.237051E-05
       207    5.763365E-08
       208    4.781693E-04
       209   -6.245808E-05
       210   -1.177750E-07
       211    8.552043E-04
       212   -4.805355E-05
       213    4.045130E-08
       214   -1.496736E-03
       215   -1.084288E-07
       216    7.807582E-06
       217    8.675001E-06
       218    7.623115E-04
       219   -8.085815E-03
       220    3.027358E-02
       221    1.026580E-02
       222   -7.113782E-05
       223   -1.299077E-04
       224   -1.574824E-01
       225   -6.490058E-03
       226   -4.654550E-03
       227   -1.601678E-01
       228   -1.972334E-02
       229    7.797967E-03
       230   -9.734192E-02
       231    7.020907E-05
       232   -8.678284E-05
       233    1.657377E-05
       234    2.623345E-05
       235   -1.054467E-03
       236   -3.173100E-03
       237    4.394254E-04
       238   -5.311097E-04
       239    9.168431E-05
       240   -1.319737E-03
       241   -4.403291E-03
       242   -5.430346E-03
       243    6.542898E-03
       244   -5.109972E-03
       245   -1.432926E-03
       246    7.007981E-03
       247    3.159287E-03
       248    1.059045E-02
       249   -1.267923E-05
       250   -1.068746E-06
       251    9.008010E-04
       252   -1.080922E-05
       253   -2.121629E-05
       254   -2.262725E-04
       255    2.782018E-05
       256    2.265016E-05
       257   -9.822788E-04
       258   -3.817056E-04
       259    3.012322E-04
       260    6.947074E-04
       261   -1.395820E-02
       262    2.238106E-05
       263    8.020457E-05
       264    1.125941E-03
       265   -4.365329E-03
       266   -9.704052E-05
       267   -5.956190E-03
       268    3.036454E-04
       269    7.065731E-04
       270   -1.374165E-02
       271    2.389911E-05
       272   -8.141520E-05
       273    1.130107E-03
       274   -4.533446E-03
       275   -3.889350E-05
       276   -5.926661E-03
       277   -1.561927E-04
       278   -1.649570E-03
       279    2.742371E-02
       280    2.131536E-06
       281    4.620302E-05
       282   -6.412936E-03
       283   -1.236995E-03
       284   -2.214678E-03
       285    4.108148E-04
       286   -1.573091E-04
       287   -1.645741E-03
       288    2.785311E-02
       289    1.975913E-06
       290   -4.592159E-05
       291   -6.416869E-03
       292   -1.098439E-03
       293    2.377706E-03
       294    4.394385E-04
       295   -1.702117E-05
       296   -3.947595E-05
       297   -8.988776E-06
       298    3.259792E-04
       299   -4.935150E-03
       300    1.774552E-03
       301    6.253809E-04
       302    1.420680E-06
       303    4.595178E-02
       304    3.251736E-04
       305    1.910740E-06
       306    4.698161E-02
       307   -2.531814E-03
       308    2.475978E-05
       309    1.686738E-02
       310    2.441338E-05
       311   -1.276325E-05
       312   -1.165013E-05
       313   -5.388746E-07
       314    4.359611E-03
       315   -1.853257E-07
       316    2.828724E-05
       317    3.991074E-05
       318   -6.819797E-05
       319   -2.043204E-06
       320    1.352978E-02
       321   -7.339067E-07
       322   -9.217302E-04
       323    2.345470E-03
       324   -1.423740E-03
       325    4.588907E-05
       326    4.163439E-03
       327    3.746960E-06
       328    6.108100E-06
       329   -1.151411E-07
       330   -1.605012E-04
       331   -2.345129E-06
       332    1.879810E-07
       333    7.837996E-04
       334   -5.849747E-06
       335   -3.350299E-08
       336   -5.684645E-04
       337    8.133528E-08
       338    5.429626E-05
       339    1.343280E-04
       340   -2.265403E-04
       341    8.693077E-05
       342   -4.891807E-03
       343   -8.583024E-04
       344   -1.860696E-04
       345    1.022500E-04
       346   -6.614407E-02
       347   -2.539262E-04
       348    2.198804E-04
       349   -6.174304E-02
       350   -1.265537E-03
       351    3.503924E-04
       352   -5.473519E-02
       353   -1.334267E-04
       354    1.925257E-04
       355   -7.374112E-03
       356    5.155045E-06
       357   -5.856803E-06
       358    7.017574E-07
       359    1.593049E-06
       360    1.936502E-04
       361    1.589013E-04
       362   -2.244080E-06
       363   -1.701635E-05
       364    1.926043E-05
       365    1.581286E-05
       366    3.601157E-05
       367    6.930346E-04
       368   -6.474304E-05
       369    5.300999E-05
       370    1.173305E-05
       371    8.036468E-05
       372    5.585568E-06
       373   -1.479110E-04
       374    1.327695E-06
       375    1.825210E-06
       376    1.048609E-06
       377   -1.940856E-06
       378   -5.637953E-07
       379    8.368595E-05
       380    1.595664E-07
       381   -1.884980E-06
       382   -8.509281E-05
       383    5.424703E-05
       384    5.448583E-05
       385    1.347699E-04
       386   -2.267338E-04
       387    8.337785E-05
       388   -4.915836E-03
       389   -8.161360E-04
       390   -1.520725E-04
       391   -1.290538E-04
       392   -6.612877E-02
       393   -2.237126E-04
       394   -2.426511E-04
       395   -6.172912E-02
       396   -1.200223E-03
       397   -3.751545E-04
       398   -5.471986E-02
       399   -1.108844E-04
       400   -1.999766E-04
       401   -7.378891E-03
       402    5.354189E-06
       403   -6.163819E-06
       404    8.096299E-07
       405   -1.642846E-06
       406    1.936589E-04
       407   -1.587813E-04
       408   -1.022245E-06
       409   -1.786161E-05
       410    1.888386E-05
       411   -1.513599E-05
       412    3.627339E-05
       413   -6.926012E-04
       414   -6.348754E-05
       415    5.301123E-05
       416    1.047631E-05
       417   -7.904119E-05
       418    4.446940E-06
       419    1.485720E-04
       420    1.353618E-06
       421   -1.914422E-06
       422    1.038904E-06
       423   -1.974824E-06
       424    6.747447E-07
       425    8.366915E-05
       426    1.587553E-07
       427    1.893722E-06
       428   -8.506299E-05
       429   -5.421498E-05
       430    4.044855E-03
       431    9.606060E-03
       432   -1.493818E-02
       433   -2.292941E-02
       434   -2.015852E-02
       435   -5.912287E-02
       436   -1.201408E-02
       437    7.737289E-06
       438    2.228147E-01
       439   -1.416893E-02
       440   -5.430632E-06
       441    2.208307E-01
       442   -1.264935E-02
       443   -1.375862E-04
       444    1.849996E-01
       445   -1.091819E-04
       446    3.734962E-05
       447    7.183228E-05
       448    1.210947E-07
       449    1.040737E-03
       450    3.554363E-07
       451   -2.560232E-04
       452   -1.113610E-03
       453    1.369633E-03
       454   -5.626879E-06
       455    4.241932E-03
       456    1.100406E-06
       457   -1.677551E-03
       458   -2.070912E-03
       459    3.748463E-03
       460   -2.093585E-05
       461    2.293065E-03
       462    1.052759E-05
       463   -1.124202E-04
       464   -9.663364E-09
       465   -8.410133E-04
       466   -6.628563E-05
       467   -1.040219E-08
       468    3.948614E-04
       469    2.171131E-04
       470    2.336695E-08
       471    7.334763E-04
       472   -1.237491E-08
       473    8.201838E-03
       474    1.511880E-02
       475    2.435326E-02
       476   -1.781121E-03
       477   -1.576788E-03
       478    1.148539E-02
       479    1.558802E-03
       480   -2.851717E-03
       481    1.432605E-02
       482    8.197903E-03
       483    1.502260E-02
       484    2.388412E-02
       485   -1.776245E-03
       486    1.567464E-03
       487    1.148974E-02
       488    1.615784E-03
       489    2.781641E-03
       490    1.434545E-02
 Sym= X
 Ene= -0.761638
 Spin= Alpha
 Occup= -0.761638
         1   -3.308912E-04
         2   -7.564523E-04
         3    1.544824E-03
         4   -8.699776E-04
         5    4.228421E-03
         6   -9.864217E-03
         7    5.764579E-03
         8    8.800654E-04
         9   -1.388127E-01
        10    1.367850E-03
        11    1.103833E-03
        12   -1.367355E-01
        13   -1.922013E-02
        14    1.328700E-03
        15   -5.195126E-02
        16    1.511973E-04
        17   -1.412382E-04
        18   -9.959148E-06
        19   -7.397021E-05
        20    3.841428E-04
        21   -4.309524E-03
        22   -2.984208E-04
        23    1.832616E-04
        24    1.151592E-04
        25   -7.555401E-04
        26    1.413337E-03
        27   -7.175160E-03
        28   -1.862752E-03
        29    1.644956E-03
        30    2.177956E-04
        31    1.637641E-03
        32    6.991805E-03
        33   -4.923201E-03
        34   -9.363878E-07
        35    1.355216E-05
        36    1.163057E-03
        37   -2.977611E-07
        38   -1.254631E-05
        39   -6.421433E-04
        40    1.554057E-06
        41   -5.635823E-06
        42   -9.182620E-04
        43    4.903066E-04
        44    1.865447E-04
        45    4.158185E-04
        46   -2.678339E-04
        47   -4.612466E-03
        48   -1.305645E-02
        49    9.036187E-03
        50   -1.036476E-03
        51    8.532745E-06
        52   -2.052054E-01
        53   -1.727452E-03
        54    2.391174E-06
        55   -2.070703E-01
        56   -8.088778E-03
        57   -1.286952E-03
        58   -6.681339E-02
        59    1.838671E-04
        60   -1.875324E-04
        61    3.665256E-06
        62    4.026718E-07