[Molden Format]
[Title]
ADC(2) - opt by CAM-B3LYP gaussian                                              
[Atoms] AU
 c     1    6 -.12588573623097E+01 -.22835126974190E+01 -.24083260376910E-01
 c     2    6 -.25578815622211E+01 0.23621577000000E-06 -.22837930855340E-01
 c     3    6 -.12588573623097E+01 0.22835131698505E+01 -.24090819281440E-01
 c     4    6 0.13318248850473E+01 0.22853065199506E+01 -.26003222127920E-01
 c     5    6 0.26868737956204E+01 0.23621577000000E-06 -.25389061134730E-01
 c     6    6 0.13318248850473E+01 -.22853060475191E+01 -.25993773497260E-01
 h     7    1 -.22974546243959E+01 -.40385977330627E+01 -.21598270512170E-01
 h     8    1 -.22974527346698E+01 0.40385982054942E+01 -.21613388321230E-01
 h     9    1 0.23510089905703E+01 0.40574312161345E+01 -.28191524989800E-01
 h    10    1 0.23510071008442E+01 -.40574307437030E+01 -.28172627728480E-01
 n    11    7 -.52726375582849E+01 0.23621577000000E-06 -.17238672323600E-01
 o    12    8 -.63813946825068E+01 0.20269261555273E+01 -.14842499587100E-01
 o    13    8 -.63813927927806E+01 -.20269275728219E+01 -.14865176300690E-01
 n    14    7 0.52430742102305E+01 0.23621577000000E-06 -.67376886081320E-01
 h    15    1 0.62051583509223E+01 0.16177513148781E+01 0.18115044628513E+00
 h    16    1 0.62051564611962E+01 -.16177527321727E+01 0.18114666683287E+00
[GTO]
    1 0
 s    6 1.00
 0.13575349682000E+05 0.60645503603591E-03
 0.20352333680000E+04 0.46979088884982E-02
 0.46322562359000E+03 0.24332477647552E-01
 0.13120019598000E+03 0.97399968307759E-01
 0.42853015891000E+02 0.30195584253780E+00
 0.15584185766000E+02 0.66233609137875E+00
 s    2 1.00
 0.62067138508000E+01 0.65595308539952E+00
 0.25764896527000E+01 0.37585633285142E+00
 s    1 1.00
 0.57696339419000E+00 0.10000000000000E+01
 s    1 1.00
 0.22972831358000E+00 0.10000000000000E+01
 s    1 1.00
 0.95164440028000E-01 0.10000000000000E+01
 s    1 1.00
 0.48475401370000E-01 0.10000000000000E+01
 p    4 1.00
 0.34697232244000E+02 0.11327220003114E-01
 0.79582622826000E+01 0.76169659202087E-01
 0.23780826883000E+01 0.30192252202676E+00
 0.81433208183000E+00 0.72785027349547E+00
 p    1 1.00
 0.28887547253000E+00 0.10000000000000E+01
 p    1 1.00
 0.10056823671000E+00 0.10000000000000E+01
 d    1 1.00
 0.10970000000000E+01 0.10000000000000E+01
 d    1 1.00
 0.31800000000000E+00 0.10000000000000E+01
 d    1 1.00
 0.90985336424000E-01 0.10000000000000E+01
 f    1 1.00
 0.76100000000000E+00 0.10000000000000E+01
 
    2 0
 s    6 1.00
 0.13575349682000E+05 0.60645503603591E-03
 0.20352333680000E+04 0.46979088884982E-02
 0.46322562359000E+03 0.24332477647552E-01
 0.13120019598000E+03 0.97399968307759E-01
 0.42853015891000E+02 0.30195584253780E+00
 0.15584185766000E+02 0.66233609137875E+00
 s    2 1.00
 0.62067138508000E+01 0.65595308539952E+00
 0.25764896527000E+01 0.37585633285142E+00
 s    1 1.00
 0.57696339419000E+00 0.10000000000000E+01
 s    1 1.00
 0.22972831358000E+00 0.10000000000000E+01
 s    1 1.00
 0.95164440028000E-01 0.10000000000000E+01
 s    1 1.00
 0.48475401370000E-01 0.10000000000000E+01
 p    4 1.00
 0.34697232244000E+02 0.11327220003114E-01
 0.79582622826000E+01 0.76169659202087E-01
 0.23780826883000E+01 0.30192252202676E+00
 0.81433208183000E+00 0.72785027349547E+00
 p    1 1.00
 0.28887547253000E+00 0.10000000000000E+01
 p    1 1.00
 0.10056823671000E+00 0.10000000000000E+01
 d    1 1.00
 0.10970000000000E+01 0.10000000000000E+01
 d    1 1.00
 0.31800000000000E+00 0.10000000000000E+01
 d    1 1.00
 0.90985336424000E-01 0.10000000000000E+01
 f    1 1.00
 0.76100000000000E+00 0.10000000000000E+01
 
    3 0
 s    6 1.00
 0.13575349682000E+05 0.60645503603591E-03
 0.20352333680000E+04 0.46979088884982E-02
 0.46322562359000E+03 0.24332477647552E-01
 0.13120019598000E+03 0.97399968307759E-01
 0.42853015891000E+02 0.30195584253780E+00
 0.15584185766000E+02 0.66233609137875E+00
 s    2 1.00
 0.62067138508000E+01 0.65595308539952E+00
 0.25764896527000E+01 0.37585633285142E+00
 s    1 1.00
 0.57696339419000E+00 0.10000000000000E+01
 s    1 1.00
 0.22972831358000E+00 0.10000000000000E+01
 s    1 1.00
 0.95164440028000E-01 0.10000000000000E+01
 s    1 1.00
 0.48475401370000E-01 0.10000000000000E+01
 p    4 1.00
 0.34697232244000E+02 0.11327220003114E-01
 0.79582622826000E+01 0.76169659202087E-01
 0.23780826883000E+01 0.30192252202676E+00
 0.81433208183000E+00 0.72785027349547E+00
 p    1 1.00
 0.28887547253000E+00 0.10000000000000E+01
 p    1 1.00
 0.10056823671000E+00 0.10000000000000E+01
 d    1 1.00
 0.10970000000000E+01 0.10000000000000E+01
 d    1 1.00
 0.31800000000000E+00 0.10000000000000E+01
 d    1 1.00
 0.90985336424000E-01 0.10000000000000E+01
 f    1 1.00
 0.76100000000000E+00 0.10000000000000E+01
 
    4 0
 s    6 1.00
 0.13575349682000E+05 0.60645503603591E-03
 0.20352333680000E+04 0.46979088884982E-02
 0.46322562359000E+03 0.24332477647552E-01
 0.13120019598000E+03 0.97399968307759E-01
 0.42853015891000E+02 0.30195584253780E+00
 0.15584185766000E+02 0.66233609137875E+00
 s    2 1.00
 0.62067138508000E+01 0.65595308539952E+00
 0.25764896527000E+01 0.37585633285142E+00
 s    1 1.00
 0.57696339419000E+00 0.10000000000000E+01
 s    1 1.00
 0.22972831358000E+00 0.10000000000000E+01
 s    1 1.00
 0.95164440028000E-01 0.10000000000000E+01
 s    1 1.00
 0.48475401370000E-01 0.10000000000000E+01
 p    4 1.00
 0.34697232244000E+02 0.11327220003114E-01
 0.79582622826000E+01 0.76169659202087E-01
 0.23780826883000E+01 0.30192252202676E+00
 0.81433208183000E+00 0.72785027349547E+00
 p    1 1.00
 0.28887547253000E+00 0.10000000000000E+01
 p    1 1.00
 0.10056823671000E+00 0.10000000000000E+01
 d    1 1.00
 0.10970000000000E+01 0.10000000000000E+01
 d    1 1.00
 0.31800000000000E+00 0.10000000000000E+01
 d    1 1.00
 0.90985336424000E-01 0.10000000000000E+01
 f    1 1.00
 0.76100000000000E+00 0.10000000000000E+01
 
    5 0
 s    6 1.00
 0.13575349682000E+05 0.60645503603591E-03
 0.20352333680000E+04 0.46979088884982E-02
 0.46322562359000E+03 0.24332477647552E-01
 0.13120019598000E+03 0.97399968307759E-01
 0.42853015891000E+02 0.30195584253780E+00
 0.15584185766000E+02 0.66233609137875E+00
 s    2 1.00
 0.62067138508000E+01 0.65595308539952E+00
 0.25764896527000E+01 0.37585633285142E+00
 s    1 1.00
 0.57696339419000E+00 0.10000000000000E+01
 s    1 1.00
 0.22972831358000E+00 0.10000000000000E+01
 s    1 1.00
 0.95164440028000E-01 0.10000000000000E+01
 s    1 1.00
 0.48475401370000E-01 0.10000000000000E+01
 p    4 1.00
 0.34697232244000E+02 0.11327220003114E-01
 0.79582622826000E+01 0.76169659202087E-01
 0.23780826883000E+01 0.30192252202676E+00
 0.81433208183000E+00 0.72785027349547E+00
 p    1 1.00
 0.28887547253000E+00 0.10000000000000E+01
 p    1 1.00
 0.10056823671000E+00 0.10000000000000E+01
 d    1 1.00
 0.10970000000000E+01 0.10000000000000E+01
 d    1 1.00
 0.31800000000000E+00 0.10000000000000E+01
 d    1 1.00
 0.90985336424000E-01 0.10000000000000E+01
 f    1 1.00
 0.76100000000000E+00 0.10000000000000E+01
 
    6 0
 s    6 1.00
 0.13575349682000E+05 0.60645503603591E-03
 0.20352333680000E+04 0.46979088884982E-02
 0.46322562359000E+03 0.24332477647552E-01
 0.13120019598000E+03 0.97399968307759E-01
 0.42853015891000E+02 0.30195584253780E+00
 0.15584185766000E+02 0.66233609137875E+00
 s    2 1.00
 0.62067138508000E+01 0.65595308539952E+00
 0.25764896527000E+01 0.37585633285142E+00
 s    1 1.00
 0.57696339419000E+00 0.10000000000000E+01
 s    1 1.00
 0.22972831358000E+00 0.10000000000000E+01
 s    1 1.00
 0.95164440028000E-01 0.10000000000000E+01
 s    1 1.00
 0.48475401370000E-01 0.10000000000000E+01
 p    4 1.00
 0.34697232244000E+02 0.11327220003114E-01
 0.79582622826000E+01 0.76169659202087E-01
 0.23780826883000E+01 0.30192252202676E+00
 0.81433208183000E+00 0.72785027349547E+00
 p    1 1.00
 0.28887547253000E+00 0.10000000000000E+01
 p    1 1.00
 0.10056823671000E+00 0.10000000000000E+01
 d    1 1.00
 0.10970000000000E+01 0.10000000000000E+01
 d    1 1.00
 0.31800000000000E+00 0.10000000000000E+01
 d    1 1.00
 0.90985336424000E-01 0.10000000000000E+01
 f    1 1.00
 0.76100000000000E+00 0.10000000000000E+01
 
    7 0
 s    3 1.00
 0.34061341000000E+02 0.25439307208879E-01
 0.51235746000000E+01 0.19008594890375E+00
 0.11646626000000E+01 0.85244113011042E+00
 s    1 1.00
 0.32723041000000E+00 0.10000000000000E+01
 s    1 1.00
 0.10307241000000E+00 0.10000000000000E+01
 p    1 1.00
 0.80000000000000E+00 0.10000000000000E+01
 p    1 1.00
 0.95774129632000E-01 0.10000000000000E+01
 
    8 0
 s    3 1.00
 0.34061341000000E+02 0.25439307208879E-01
 0.51235746000000E+01 0.19008594890375E+00
 0.11646626000000E+01 0.85244113011042E+00
 s    1 1.00
 0.32723041000000E+00 0.10000000000000E+01
 s    1 1.00
 0.10307241000000E+00 0.10000000000000E+01
 p    1 1.00
 0.80000000000000E+00 0.10000000000000E+01
 p    1 1.00
 0.95774129632000E-01 0.10000000000000E+01
 
    9 0
 s    3 1.00
 0.34061341000000E+02 0.25439307208879E-01
 0.51235746000000E+01 0.19008594890375E+00
 0.11646626000000E+01 0.85244113011042E+00
 s    1 1.00
 0.32723041000000E+00 0.10000000000000E+01
 s    1 1.00
 0.10307241000000E+00 0.10000000000000E+01
 p    1 1.00
 0.80000000000000E+00 0.10000000000000E+01
 p    1 1.00
 0.95774129632000E-01 0.10000000000000E+01
 
   10 0
 s    3 1.00
 0.34061341000000E+02 0.25439307208879E-01
 0.51235746000000E+01 0.19008594890375E+00
 0.11646626000000E+01 0.85244113011042E+00
 s    1 1.00
 0.32723041000000E+00 0.10000000000000E+01
 s    1 1.00
 0.10307241000000E+00 0.10000000000000E+01
 p    1 1.00
 0.80000000000000E+00 0.10000000000000E+01
 p    1 1.00
 0.95774129632000E-01 0.10000000000000E+01
 
   11 0
 s    6 1.00
 0.19730800647000E+05 0.58626402628763E-03
 0.29578958745000E+04 0.45428820586397E-02
 0.67322133595000E+03 0.23558413450084E-01
 0.19068249494000E+03 0.94709193292923E-01
 0.62295441898000E+02 0.29719784913376E+00
 0.22654161182000E+02 0.66916246895232E+00
 s    2 1.00
 0.89791477428000E+01 0.64596683630063E+00
 0.36863002370000E+01 0.38700574393705E+00
 s    1 1.00
 0.84660076805000E+00 0.10000000000000E+01
 s    1 1.00
 0.33647133771000E+00 0.10000000000000E+01
 s    1 1.00
 0.13647653675000E+00 0.10000000000000E+01
 s    1 1.00
 0.68441605847000E-01 0.10000000000000E+01
 p    4 1.00
 0.49200380510000E+02 0.11448825101764E-01
 0.11346790537000E+02 0.78422337970864E-01
 0.34273972411000E+01 0.30818094738830E+00
 0.11785525134000E+01 0.72027196368413E+00
 p    1 1.00
 0.41642204972000E+00 0.10000000000000E+01
 p    1 1.00
 0.14260826011000E+00 0.10000000000000E+01
 d    1 1.00
 0.16540000000000E+01 0.10000000000000E+01
 d    1 1.00
 0.46900000000000E+00 0.10000000000000E+01
 d    1 1.00
 0.12829642058000E+00 0.10000000000000E+01
 f    1 1.00
 0.10930000000000E+01 0.10000000000000E+01
 
   12 0
 s    6 1.00
 0.27032382631000E+05 0.57227335211155E-03
 0.40523871392000E+04 0.44353233492995E-02
 0.92232722710000E+03 0.23020107706038E-01
 0.26124070989000E+03 0.92822490667928E-01
 0.85354641351000E+02 0.29378500009671E+00
 0.31035035245000E+02 0.67401604501641E+00
 s    2 1.00
 0.12260860728000E+02 0.63839937025506E+00
 0.49987076005000E+01 0.39534587125718E+00
 s    1 1.00
 0.11703108158000E+01 0.10000000000000E+01
 s    1 1.00
 0.46474740994000E+00 0.10000000000000E+01
 s    1 1.00
 0.18504536357000E+00 0.10000000000000E+01
 s    1 1.00
 0.70288026270000E-01 0.10000000000000E+01
 p    4 1.00
 0.63274954801000E+02 0.12018332222616E-01
 0.14627049379000E+02 0.83005421790056E-01
 0.44501223456000E+01 0.31991743925964E+00
 0.15275799647000E+01 0.70715542916104E+00
 p    1 1.00
 0.52935117943000E+00 0.10000000000000E+01
 p    1 1.00
 0.17478421270000E+00 0.10000000000000E+01
 p    1 1.00
 0.51112745706000E-01 0.10000000000000E+01
 d    1 1.00
 0.23140000000000E+01 0.10000000000000E+01
 d    1 1.00
 0.64500000000000E+00 0.10000000000000E+01
 d    1 1.00
 0.14696477366000E+00 0.10000000000000E+01
 f    1 1.00
 0.14280000000000E+01 0.10000000000000E+01
 
   13 0
 s    6 1.00
 0.27032382631000E+05 0.57227335211155E-03
 0.40523871392000E+04 0.44353233492995E-02
 0.92232722710000E+03 0.23020107706038E-01
 0.26124070989000E+03 0.92822490667928E-01
 0.85354641351000E+02 0.29378500009671E+00
 0.31035035245000E+02 0.67401604501641E+00
 s    2 1.00
 0.12260860728000E+02 0.63839937025506E+00
 0.49987076005000E+01 0.39534587125718E+00
 s    1 1.00
 0.11703108158000E+01 0.10000000000000E+01
 s    1 1.00
 0.46474740994000E+00 0.10000000000000E+01
 s    1 1.00
 0.18504536357000E+00 0.10000000000000E+01
 s    1 1.00
 0.70288026270000E-01 0.10000000000000E+01
 p    4 1.00
 0.63274954801000E+02 0.12018332222616E-01
 0.14627049379000E+02 0.83005421790056E-01
 0.44501223456000E+01 0.31991743925964E+00
 0.15275799647000E+01 0.70715542916104E+00
 p    1 1.00
 0.52935117943000E+00 0.10000000000000E+01
 p    1 1.00
 0.17478421270000E+00 0.10000000000000E+01
 p    1 1.00
 0.51112745706000E-01 0.10000000000000E+01
 d    1 1.00
 0.23140000000000E+01 0.10000000000000E+01
 d    1 1.00
 0.64500000000000E+00 0.10000000000000E+01
 d    1 1.00
 0.14696477366000E+00 0.10000000000000E+01
 f    1 1.00
 0.14280000000000E+01 0.10000000000000E+01
 
   14 0
 s    6 1.00
 0.19730800647000E+05 0.58626402628763E-03
 0.29578958745000E+04 0.45428820586397E-02
 0.67322133595000E+03 0.23558413450084E-01
 0.19068249494000E+03 0.94709193292923E-01
 0.62295441898000E+02 0.29719784913376E+00
 0.22654161182000E+02 0.66916246895232E+00
 s    2 1.00
 0.89791477428000E+01 0.64596683630063E+00
 0.36863002370000E+01 0.38700574393705E+00
 s    1 1.00
 0.84660076805000E+00 0.10000000000000E+01
 s    1 1.00
 0.33647133771000E+00 0.10000000000000E+01
 s    1 1.00
 0.13647653675000E+00 0.10000000000000E+01
 s    1 1.00
 0.68441605847000E-01 0.10000000000000E+01
 p    4 1.00
 0.49200380510000E+02 0.11448825101764E-01
 0.11346790537000E+02 0.78422337970864E-01
 0.34273972411000E+01 0.30818094738830E+00
 0.11785525134000E+01 0.72027196368413E+00
 p    1 1.00
 0.41642204972000E+00 0.10000000000000E+01
 p    1 1.00
 0.14260826011000E+00 0.10000000000000E+01
 d    1 1.00
 0.16540000000000E+01 0.10000000000000E+01
 d    1 1.00
 0.46900000000000E+00 0.10000000000000E+01
 d    1 1.00
 0.12829642058000E+00 0.10000000000000E+01
 f    1 1.00
 0.10930000000000E+01 0.10000000000000E+01
 
   15 0
 s    3 1.00
 0.34061341000000E+02 0.25439307208879E-01
 0.51235746000000E+01 0.19008594890375E+00
 0.11646626000000E+01 0.85244113011042E+00
 s    1 1.00
 0.32723041000000E+00 0.10000000000000E+01
 s    1 1.00
 0.10307241000000E+00 0.10000000000000E+01
 p    1 1.00
 0.80000000000000E+00 0.10000000000000E+01
 p    1 1.00
 0.95774129632000E-01 0.10000000000000E+01
 
   16 0
 s    3 1.00
 0.34061341000000E+02 0.25439307208879E-01
 0.51235746000000E+01 0.19008594890375E+00
 0.11646626000000E+01 0.85244113011042E+00
 s    1 1.00
 0.32723041000000E+00 0.10000000000000E+01
 s    1 1.00
 0.10307241000000E+00 0.10000000000000E+01
 p    1 1.00
 0.80000000000000E+00 0.10000000000000E+01
 p    1 1.00
 0.95774129632000E-01 0.10000000000000E+01
 
[MO]
 Sym= X
 Ene= -0.228780
 Spin= Alpha
 Occup= -0.228780
         1   -2.048012E-04
         2   -4.738796E-04
         3    1.240233E-03
         4   -2.293245E-03
         5   -1.004145E-02
         6   -1.110307E-02
         7    1.987648E-03
         8    2.567011E-04
         9    1.215689E-02
        10   -2.081677E-03
        11    4.735305E-04
        12    1.043648E-02
        13   -3.465304E-02
        14    8.921461E-03
        15   -2.237565E-03
        16    1.547632E-05
        17   -2.413566E-05
        18    8.659338E-06
        19   -1.895862E-05
        20   -6.129403E-03
        21    3.403174E-03
        22   -6.248354E-04
        23    3.807386E-04
        24    2.440968E-04
        25   -7.263096E-04
        26   -1.378903E-02
        27    6.499668E-03
        28   -4.879296E-03
        29    4.537732E-03
        30    3.415633E-04
        31    1.268459E-03
        32    2.121490E-03
        33   -1.135397E-02
        34   -1.729894E-05
        35    7.879610E-06
        36   -1.029177E-05
        37    6.458893E-06
        38   -8.101668E-06
        39   -7.353529E-04
        40    1.675007E-05
        41   -2.469939E-06
        42    7.491608E-04
        43   -6.379062E-04
        44    3.626073E-05
        45    7.959741E-05
        46    1.235998E-04
        47   -2.953020E-03
        48   -4.756664E-02
        49    5.883100E-03
        50    3.314760E-04
        51    2.772060E-06
        52    1.819438E-01
        53   -5.117750E-04
        54    2.276954E-05
        55    1.893008E-01
        56   -1.628276E-02
        57   -1.736430E-03
        58    1.959972E-01
        59    4.759817E-05
        60   -4.572394E-05
        61   -1.874229E-06
        62    2.303329E-07
        63   -9.945584E-04
        64    7.566863E-07
        65    3.982548E-04
        66   -6.504701E-04
        67    2.522153E-04
        68    4.609617E-06
        69   -3.837486E-03
        70    1.490089E-06
        71    9.308159E-03
        72   -1.034426E-02
        73    1.036106E-03
        74   -2.922398E-04
        75    4.310485E-03
        76   -2.756821E-05
        77    7.368122E-06
        78    2.666707E-08
        79   -9.768050E-04
        80   -7.527153E-06
        81    6.331267E-08
        82    6.033239E-04
        83   -2.358220E-06
        84   -9.909030E-08
        85    7.071975E-04
        86    1.457873E-07
        87   -2.040995E-04
        88   -4.724818E-04
        89    1.248238E-03
        90   -2.390021E-03
        91   -7.237537E-03
        92   -1.103104E-02
        93    1.990468E-03
        94   -2.645691E-04
        95    1.220080E-02
        96   -2.073143E-03
        97   -4.650853E-04
        98    1.047813E-02
        99   -3.586762E-02
       100   -1.073140E-02
       101   -2.127715E-03
       102    1.520677E-05
       103   -2.417489E-05
       104    8.968122E-06
       105    1.949480E-05
       106   -6.128888E-03
       107   -3.403354E-03
       108   -6.225740E-04
       109    3.761664E-04
       110    2.464075E-04
       111    7.229458E-04
       112   -1.378490E-02
       113   -6.499116E-03
       114   -5.215333E-03
       115    4.907287E-03
       116    3.080463E-04
       117   -1.008867E-03
       118    2.109256E-03
       119    1.130751E-02
       120   -1.755513E-05
       121   -7.862574E-06
       122   -1.047937E-05
       123    6.828084E-06
       124    8.088739E-06
       125   -7.351459E-04
       126    1.672459E-05
       127    2.460012E-06
       128    7.492055E-04
       129    6.378176E-04
       130    1.240486E-04
       131    2.681038E-04
       132    5.823028E-04
       133   -1.056277E-02
       134    2.730561E-02
       135    1.233135E-02
       136   -1.656052E-03
       137    8.222462E-04
       138   -1.530693E-01
       139   -9.303306E-03
       140    6.287410E-03
       141   -1.560187E-01
       142   -2.502311E-02
       143   -7.012053E-03
       144   -9.205345E-02
       145    1.656259E-04
       146   -1.973002E-04
       147    3.167428E-05
       148   -1.883629E-06
       149   -4.007810E-04
       150    2.761650E-03
       151    6.063104E-04
       152   -7.597828E-04
       153    1.534724E-04
       154    1.705212E-03
       155   -3.253809E-03
       156    4.603768E-03
       157    8.314059E-03
       158   -6.608689E-03
       159   -1.705370E-03
       160   -8.349285E-03
       161    3.813888E-03
       162   -1.381305E-02
       163   -1.472692E-05
       164    1.149945E-05
       165    8.558684E-04
       166   -2.052209E-05
       167    1.493818E-05
       168   -2.493917E-04
       169    4.028033E-05
       170   -3.036631E-05
       171   -8.988762E-04
       172    2.856654E-04
       173   -1.153010E-03
       174   -2.623564E-03
       175    2.759326E-03
       176    2.128364E-02
       177   -1.605980E-02
       178    8.963120E-03
       179    9.799240E-03
       180   -8.613746E-07
       181   -9.683383E-02
       182    8.854410E-04
       183   -1.996089E-05
       184   -9.997249E-02
       185   -2.557969E-02
       186    1.740958E-03
       187   -1.331878E-01
       188    5.062551E-04
       189   -2.938170E-04
       190   -2.124381E-04
       191    1.949057E-07
       192    1.054910E-02
       193    8.144339E-07
       194   -1.862956E-03
       195    4.073264E-03
       196   -2.210307E-03
       197    4.778622E-06
       198    2.570228E-02
       199   -1.484620E-06
       200   -5.931473E-03
       201    7.157112E-03
       202   -1.225638E-03
       203   -3.672840E-04
       204    1.967037E-02
       205    1.340170E-05
       206    1.195808E-04
       207    1.416143E-08
       208    1.814310E-04
       209   -8.252353E-05
       210   -1.335344E-07
       211    1.214422E-03
       212   -7.791090E-05
       213    1.145349E-07
       214   -1.457837E-03
       215    3.237001E-08
       216    1.239484E-04
       217    2.677118E-04
       218    5.917233E-04
       219   -1.065942E-02
       220    3.039983E-02
       221    1.235335E-02
       222   -1.656356E-03
       223   -8.149409E-04
       224   -1.531004E-01
       225   -9.300524E-03
       226   -6.305147E-03
       227   -1.560587E-01
       228   -2.374634E-02
       229    9.062983E-03
       230   -9.197509E-02
       231    1.653946E-04
       232   -1.978170E-04
       233    3.242245E-05
       234    2.122830E-06
       235   -3.997914E-04
       236   -2.761847E-03
       237    6.067606E-04
       238   -7.625051E-04
       239    1.557446E-04
       240   -1.708251E-03
       241   -3.251018E-03
       242   -4.603651E-03
       243    7.952997E-03
       244   -6.231693E-03
       245   -1.721304E-03
       246    8.629916E-03
       247    3.835200E-03
       248    1.386890E-02
       249   -1.456645E-05
       250   -1.157466E-05
       251    8.563166E-04
       252   -2.085355E-05
       253   -1.486073E-05
       254   -2.498459E-04
       255    4.039649E-05
       256    3.038977E-05
       257   -8.990234E-04
       258   -2.856589E-04
       259   -4.602838E-04
       260   -3.877625E-04
       261   -1.773884E-02
       262   -1.483384E-05
       263   -1.692508E-05
       264    4.928980E-04
       265   -5.152814E-03
       266   -4.254717E-04
       267   -7.227430E-03
       268   -4.659743E-04
       269   -3.871368E-04
       270   -1.748770E-02
       271   -1.392553E-05
       272    1.668959E-05
       273    4.948667E-04
       274   -5.336531E-03
       275    2.785942E-04
       276   -7.196494E-03
       277   -4.845536E-04
       278   -2.441768E-03
       279    3.377678E-02
       280   -1.370267E-05
       281    1.091775E-04
       282   -6.168149E-03
       283   -2.103690E-03
       284   -2.592358E-03
       285    3.089291E-03
       286   -4.888387E-04
       287   -2.440878E-03
       288    3.421606E-02
       289   -1.328076E-05
       290   -1.088826E-04
       291   -6.169938E-03
       292   -1.948994E-03
       293    2.767214E-03
       294    3.117046E-03
       295   -5.344911E-05
       296   -1.242517E-04
       297    1.167014E-04
       298    5.027619E-04
       299   -7.230706E-03
       300    2.928251E-04
       301    5.122271E-04
       302   -1.703688E-07
       303    1.961925E-02
       304    2.014244E-04
       305    4.158824E-07
       306    2.213281E-02
       307   -3.135197E-03
       308    3.038151E-05
       309    8.693803E-03
       310    1.725626E-05
       311   -4.433132E-06
       312   -1.282312E-05
       313   -2.894997E-08
       314    4.114608E-03
       315   -3.052069E-06
       316   -8.162051E-06
       317    6.758298E-05
       318   -5.942093E-05
       319   -6.580596E-07
       320    1.239023E-02
       321   -9.060658E-06
       322   -9.707968E-04
       323    2.785188E-03
       324   -1.814391E-03
       325    4.909625E-05
       326    2.511936E-03
       327    3.926244E-06
       328    6.698379E-06
       329    4.336848E-09
       330    1.919428E-05
       331   -4.812575E-06
       332    2.328931E-08
       333    6.389867E-04
       334   -4.174244E-06
       335   -2.910780E-08
       336   -6.647385E-04
       337    5.617912E-07
       338   -1.700853E-05
       339   -3.798829E-05
       340    1.275216E-05
       341    5.290670E-04
       342   -5.754135E-03
       343   -8.354041E-04
       344   -1.502032E-04
       345    1.549233E-04
       346   -7.502512E-02
       347   -2.424677E-04
       348    2.798080E-04
       349   -6.957756E-02
       350   -1.390032E-03
       351    5.148468E-04
       352   -5.703471E-02
       353   -1.687188E-04
       354    1.892585E-04
       355   -7.232809E-03
       356    4.174849E-06
       357   -5.072703E-06
       358    8.978539E-07
       359   -2.815794E-07
       360    1.184461E-05
       361    4.381544E-04
       362   -1.085528E-05
       363   -1.276706E-05
       364    2.362235E-05
       365    9.219951E-06
       366   -4.813734E-04
       367    1.467395E-03
       368   -7.776965E-05
       369    5.057998E-05
       370    2.718966E-05
       371    7.831860E-05
       372   -1.278153E-05
       373    2.549869E-04
       374    7.169110E-07
       375    1.948837E-06
       376    6.146516E-05
       377   -1.364582E-06
       378   -7.951259E-07
       379    7.774601E-05
       380    4.027452E-07
       381   -1.819513E-06
       382   -1.602102E-04
       383    1.271592E-04
       384   -1.662647E-05
       385   -3.708682E-05
       386    1.178857E-05
       387    5.240119E-04
       388   -5.779120E-03
       389   -7.944242E-04
       390   -1.434923E-04
       391   -1.567248E-04
       392   -7.485440E-02
       393   -2.368405E-04
       394   -2.807266E-04
       395   -6.942111E-02
       396   -1.342386E-03
       397   -5.238059E-04
       398   -5.691350E-02
       399   -1.502518E-04
       400   -1.941794E-04
       401   -7.222233E-03
       402    4.154557E-06
       403   -5.078318E-06
       404    9.237610E-07
       405    2.411493E-07
       406    1.270067E-05
       407   -4.367678E-04
       408   -1.025734E-05
       409   -1.289703E-05
       410    2.315436E-05
       411   -8.725150E-06
       412   -4.784209E-04
       413   -1.462639E-03
       414   -7.780060E-05
       415    5.186671E-05
       416    2.593389E-05
       417   -7.722132E-05
       418   -1.127422E-05
       419   -2.510500E-04
       420    7.186623E-07
       421   -1.951183E-06
       422    6.121545E-05
       423   -1.350228E-06
       424    8.089243E-07
       425    7.770062E-05
       426    3.860416E-07
       427    1.808863E-06
       428   -1.598298E-04
       429   -1.267033E-04
       430    4.934152E-03
       431    1.170161E-02
       432   -1.816913E-02
       433   -2.808037E-02
       434   -2.154890E-02
       435   -6.587904E-02
       436   -1.784269E-02
       437    1.504512E-05
       438    2.781102E-01
       439   -2.029906E-02
       440   -1.818040E-06
       441    2.744349E-01
       442   -1.915053E-02
       443   -1.614184E-04
       444    2.212956E-01
       445   -9.383592E-05
       446   -2.923461E-05
       447    1.230705E-04
       448    4.015749E-07
       449    4.970753E-04
       450    4.417482E-07
       451   -1.872844E-04
       452   -1.596784E-03
       453    1.784068E-03
       454   -6.615117E-06
       455    3.037886E-03
       456    1.258199E-06
       457   -1.472095E-03
       458   -3.223484E-03
       459    4.695579E-03
       460   -2.758111E-05
       461    1.991489E-03
       462    1.139280E-05
       463   -1.357087E-04
       464    1.940306E-08
       465   -1.150937E-03
       466   -9.092383E-05
       467   -2.810795E-08
       468    6.711263E-04
       469    2.729961E-04
       470    2.076017E-09
       471    8.730171E-04
       472    1.099630E-08
       473    9.050877E-03
       474    1.747019E-02
       475    2.944585E-02
       476   -2.297820E-03
       477   -1.879183E-03
       478    1.400650E-02
       479    1.001690E-03
       480   -3.421604E-03
       481    1.529951E-02
       482    9.040540E-03
       483    1.734309E-02
       484    2.887148E-02
       485   -2.291102E-03
       486    1.867089E-03
       487    1.401185E-02
       488    1.070155E-03
       489    3.333009E-03
       490    1.532413E-02
 Sym= X
 Ene= -0.638650
 Spin= Alpha
 Occup= -0.638650
         1    2.232638E-05
         2    5.079434E-05
         3   -1.198028E-04
         4    1.406937E-04
         5    8.918026E-03
         6    3.382827E-04
         7    9.590545E-05
         8    1.653285E-04
         9    1.656748E-01
        10    4.933273E-04
        11    4.406064E-05
        12    1.660812E-01
        13   -3.524097E-03
        14    5.761988E-03
        15    9.337373E-02
        16    6.463666E-06
        17   -1.845666E-06
        18   -4.618000E-06
        19   -2.882660E-06
        20    4.456585E-03
        21    4.602741E-04
        22    9.181350E-05
        23   -5.545888E-05
        24   -3.635462E-05
        25   -1.663959E-05
        26    9.000833E-03
        27   -4.971337E-04
        28   -8.467494E-04
        29    9.849331E-04
        30   -1.381837E-04
        31   -4.356764E-04
        32    3.652404E-03
        33   -6.129924E-04
        34    3.484870E-06
        35    7.001925E-07
        36   -9.957693E-04
        37   -7.216968E-07
        38    2.392725E-09
        39    1.211883E-03
        40   -3.953747E-06
        41   -9.417996E-07
        42    1.240817E-04
        43    2.471438E-05
        44   -5.446746E-07
        45   -1.237023E-06
        46    3.091389E-07
        47    3.211398E-05
        48   -1.915455E-03
        49   -8.284043E-05
        50   -3.262877E-06
        51   -1.301778E-04
        52    3.501245E-05
        53   -3.891318E-07
        54   -2.215173E-04
        55    2.950181E-05
        56   -9.384638E-04
        57    8.830563E-03
        58   -1.502521E-05
        59    1.829596E-07
        60   -5.345090E-08
        61   -1.295087E-07
        62   -9.095495E-06