[Molden Format]
[Title]
ADC(2) - opt by CAM-B3LYP gaussian                                              
[Atoms] AU
 c     1    6 -.12588573623097E+01 -.22835126974190E+01 -.24083260376910E-01
 c     2    6 -.25578815622211E+01 0.23621577000000E-06 -.22837930855340E-01
 c     3    6 -.12588573623097E+01 0.22835131698505E+01 -.24090819281440E-01
 c     4    6 0.13318248850473E+01 0.22853065199506E+01 -.26003222127920E-01
 c     5    6 0.26868737956204E+01 0.23621577000000E-06 -.25389061134730E-01
 c     6    6 0.13318248850473E+01 -.22853060475191E+01 -.25993773497260E-01
 h     7    1 -.22974546243959E+01 -.40385977330627E+01 -.21598270512170E-01
 h     8    1 -.22974527346698E+01 0.40385982054942E+01 -.21613388321230E-01
 h     9    1 0.23510089905703E+01 0.40574312161345E+01 -.28191524989800E-01
 h    10    1 0.23510071008442E+01 -.40574307437030E+01 -.28172627728480E-01
 n    11    7 -.52726375582849E+01 0.23621577000000E-06 -.17238672323600E-01
 o    12    8 -.63813946825068E+01 0.20269261555273E+01 -.14842499587100E-01
 o    13    8 -.63813927927806E+01 -.20269275728219E+01 -.14865176300690E-01
 n    14    7 0.52430742102305E+01 0.23621577000000E-06 -.67376886081320E-01
 h    15    1 0.62051583509223E+01 0.16177513148781E+01 0.18115044628513E+00
 h    16    1 0.62051564611962E+01 -.16177527321727E+01 0.18114666683287E+00
[GTO]
    1 0
 s    6 1.00
 0.13575349682000E+05 0.60645503603591E-03
 0.20352333680000E+04 0.46979088884982E-02
 0.46322562359000E+03 0.24332477647552E-01
 0.13120019598000E+03 0.97399968307759E-01
 0.42853015891000E+02 0.30195584253780E+00
 0.15584185766000E+02 0.66233609137875E+00
 s    2 1.00
 0.62067138508000E+01 0.65595308539952E+00
 0.25764896527000E+01 0.37585633285142E+00
 s    1 1.00
 0.57696339419000E+00 0.10000000000000E+01
 s    1 1.00
 0.22972831358000E+00 0.10000000000000E+01
 s    1 1.00
 0.95164440028000E-01 0.10000000000000E+01
 s    1 1.00
 0.48475401370000E-01 0.10000000000000E+01
 p    4 1.00
 0.34697232244000E+02 0.11327220003114E-01
 0.79582622826000E+01 0.76169659202087E-01
 0.23780826883000E+01 0.30192252202676E+00
 0.81433208183000E+00 0.72785027349547E+00
 p    1 1.00
 0.28887547253000E+00 0.10000000000000E+01
 p    1 1.00
 0.10056823671000E+00 0.10000000000000E+01
 d    1 1.00
 0.10970000000000E+01 0.10000000000000E+01
 d    1 1.00
 0.31800000000000E+00 0.10000000000000E+01
 d    1 1.00
 0.90985336424000E-01 0.10000000000000E+01
 f    1 1.00
 0.76100000000000E+00 0.10000000000000E+01
 
    2 0
 s    6 1.00
 0.13575349682000E+05 0.60645503603591E-03
 0.20352333680000E+04 0.46979088884982E-02
 0.46322562359000E+03 0.24332477647552E-01
 0.13120019598000E+03 0.97399968307759E-01
 0.42853015891000E+02 0.30195584253780E+00
 0.15584185766000E+02 0.66233609137875E+00
 s    2 1.00
 0.62067138508000E+01 0.65595308539952E+00
 0.25764896527000E+01 0.37585633285142E+00
 s    1 1.00
 0.57696339419000E+00 0.10000000000000E+01
 s    1 1.00
 0.22972831358000E+00 0.10000000000000E+01
 s    1 1.00
 0.95164440028000E-01 0.10000000000000E+01
 s    1 1.00
 0.48475401370000E-01 0.10000000000000E+01
 p    4 1.00
 0.34697232244000E+02 0.11327220003114E-01
 0.79582622826000E+01 0.76169659202087E-01
 0.23780826883000E+01 0.30192252202676E+00
 0.81433208183000E+00 0.72785027349547E+00
 p    1 1.00
 0.28887547253000E+00 0.10000000000000E+01
 p    1 1.00
 0.10056823671000E+00 0.10000000000000E+01
 d    1 1.00
 0.10970000000000E+01 0.10000000000000E+01
 d    1 1.00
 0.31800000000000E+00 0.10000000000000E+01
 d    1 1.00
 0.90985336424000E-01 0.10000000000000E+01
 f    1 1.00
 0.76100000000000E+00 0.10000000000000E+01
 
    3 0
 s    6 1.00
 0.13575349682000E+05 0.60645503603591E-03
 0.20352333680000E+04 0.46979088884982E-02
 0.46322562359000E+03 0.24332477647552E-01
 0.13120019598000E+03 0.97399968307759E-01
 0.42853015891000E+02 0.30195584253780E+00
 0.15584185766000E+02 0.66233609137875E+00
 s    2 1.00
 0.62067138508000E+01 0.65595308539952E+00
 0.25764896527000E+01 0.37585633285142E+00
 s    1 1.00
 0.57696339419000E+00 0.10000000000000E+01
 s    1 1.00
 0.22972831358000E+00 0.10000000000000E+01
 s    1 1.00
 0.95164440028000E-01 0.10000000000000E+01
 s    1 1.00
 0.48475401370000E-01 0.10000000000000E+01
 p    4 1.00
 0.34697232244000E+02 0.11327220003114E-01
 0.79582622826000E+01 0.76169659202087E-01
 0.23780826883000E+01 0.30192252202676E+00
 0.81433208183000E+00 0.72785027349547E+00
 p    1 1.00
 0.28887547253000E+00 0.10000000000000E+01
 p    1 1.00
 0.10056823671000E+00 0.10000000000000E+01
 d    1 1.00
 0.10970000000000E+01 0.10000000000000E+01
 d    1 1.00
 0.31800000000000E+00 0.10000000000000E+01
 d    1 1.00
 0.90985336424000E-01 0.10000000000000E+01
 f    1 1.00
 0.76100000000000E+00 0.10000000000000E+01
 
    4 0
 s    6 1.00
 0.13575349682000E+05 0.60645503603591E-03
 0.20352333680000E+04 0.46979088884982E-02
 0.46322562359000E+03 0.24332477647552E-01
 0.13120019598000E+03 0.97399968307759E-01
 0.42853015891000E+02 0.30195584253780E+00
 0.15584185766000E+02 0.66233609137875E+00
 s    2 1.00
 0.62067138508000E+01 0.65595308539952E+00
 0.25764896527000E+01 0.37585633285142E+00
 s    1 1.00
 0.57696339419000E+00 0.10000000000000E+01
 s    1 1.00
 0.22972831358000E+00 0.10000000000000E+01
 s    1 1.00
 0.95164440028000E-01 0.10000000000000E+01
 s    1 1.00
 0.48475401370000E-01 0.10000000000000E+01
 p    4 1.00
 0.34697232244000E+02 0.11327220003114E-01
 0.79582622826000E+01 0.76169659202087E-01
 0.23780826883000E+01 0.30192252202676E+00
 0.81433208183000E+00 0.72785027349547E+00
 p    1 1.00
 0.28887547253000E+00 0.10000000000000E+01
 p    1 1.00
 0.10056823671000E+00 0.10000000000000E+01
 d    1 1.00
 0.10970000000000E+01 0.10000000000000E+01
 d    1 1.00
 0.31800000000000E+00 0.10000000000000E+01
 d    1 1.00
 0.90985336424000E-01 0.10000000000000E+01
 f    1 1.00
 0.76100000000000E+00 0.10000000000000E+01
 
    5 0
 s    6 1.00
 0.13575349682000E+05 0.60645503603591E-03
 0.20352333680000E+04 0.46979088884982E-02
 0.46322562359000E+03 0.24332477647552E-01
 0.13120019598000E+03 0.97399968307759E-01
 0.42853015891000E+02 0.30195584253780E+00
 0.15584185766000E+02 0.66233609137875E+00
 s    2 1.00
 0.62067138508000E+01 0.65595308539952E+00
 0.25764896527000E+01 0.37585633285142E+00
 s    1 1.00
 0.57696339419000E+00 0.10000000000000E+01
 s    1 1.00
 0.22972831358000E+00 0.10000000000000E+01
 s    1 1.00
 0.95164440028000E-01 0.10000000000000E+01
 s    1 1.00
 0.48475401370000E-01 0.10000000000000E+01
 p    4 1.00
 0.34697232244000E+02 0.11327220003114E-01
 0.79582622826000E+01 0.76169659202087E-01
 0.23780826883000E+01 0.30192252202676E+00
 0.81433208183000E+00 0.72785027349547E+00
 p    1 1.00
 0.28887547253000E+00 0.10000000000000E+01
 p    1 1.00
 0.10056823671000E+00 0.10000000000000E+01
 d    1 1.00
 0.10970000000000E+01 0.10000000000000E+01
 d    1 1.00
 0.31800000000000E+00 0.10000000000000E+01
 d    1 1.00
 0.90985336424000E-01 0.10000000000000E+01
 f    1 1.00
 0.76100000000000E+00 0.10000000000000E+01
 
    6 0
 s    6 1.00
 0.13575349682000E+05 0.60645503603591E-03
 0.20352333680000E+04 0.46979088884982E-02
 0.46322562359000E+03 0.24332477647552E-01
 0.13120019598000E+03 0.97399968307759E-01
 0.42853015891000E+02 0.30195584253780E+00
 0.15584185766000E+02 0.66233609137875E+00
 s    2 1.00
 0.62067138508000E+01 0.65595308539952E+00
 0.25764896527000E+01 0.37585633285142E+00
 s    1 1.00
 0.57696339419000E+00 0.10000000000000E+01
 s    1 1.00
 0.22972831358000E+00 0.10000000000000E+01
 s    1 1.00
 0.95164440028000E-01 0.10000000000000E+01
 s    1 1.00
 0.48475401370000E-01 0.10000000000000E+01
 p    4 1.00
 0.34697232244000E+02 0.11327220003114E-01
 0.79582622826000E+01 0.76169659202087E-01
 0.23780826883000E+01 0.30192252202676E+00
 0.81433208183000E+00 0.72785027349547E+00
 p    1 1.00
 0.28887547253000E+00 0.10000000000000E+01
 p    1 1.00
 0.10056823671000E+00 0.10000000000000E+01
 d    1 1.00
 0.10970000000000E+01 0.10000000000000E+01
 d    1 1.00
 0.31800000000000E+00 0.10000000000000E+01
 d    1 1.00
 0.90985336424000E-01 0.10000000000000E+01
 f    1 1.00
 0.76100000000000E+00 0.10000000000000E+01
 
    7 0
 s    3 1.00
 0.34061341000000E+02 0.25439307208879E-01
 0.51235746000000E+01 0.19008594890375E+00
 0.11646626000000E+01 0.85244113011042E+00
 s    1 1.00
 0.32723041000000E+00 0.10000000000000E+01
 s    1 1.00
 0.10307241000000E+00 0.10000000000000E+01
 p    1 1.00
 0.80000000000000E+00 0.10000000000000E+01
 p    1 1.00
 0.95774129632000E-01 0.10000000000000E+01
 
    8 0
 s    3 1.00
 0.34061341000000E+02 0.25439307208879E-01
 0.51235746000000E+01 0.19008594890375E+00
 0.11646626000000E+01 0.85244113011042E+00
 s    1 1.00
 0.32723041000000E+00 0.10000000000000E+01
 s    1 1.00
 0.10307241000000E+00 0.10000000000000E+01
 p    1 1.00
 0.80000000000000E+00 0.10000000000000E+01
 p    1 1.00
 0.95774129632000E-01 0.10000000000000E+01
 
    9 0
 s    3 1.00
 0.34061341000000E+02 0.25439307208879E-01
 0.51235746000000E+01 0.19008594890375E+00
 0.11646626000000E+01 0.85244113011042E+00
 s    1 1.00
 0.32723041000000E+00 0.10000000000000E+01
 s    1 1.00
 0.10307241000000E+00 0.10000000000000E+01
 p    1 1.00
 0.80000000000000E+00 0.10000000000000E+01
 p    1 1.00
 0.95774129632000E-01 0.10000000000000E+01
 
   10 0
 s    3 1.00
 0.34061341000000E+02 0.25439307208879E-01
 0.51235746000000E+01 0.19008594890375E+00
 0.11646626000000E+01 0.85244113011042E+00
 s    1 1.00
 0.32723041000000E+00 0.10000000000000E+01
 s    1 1.00
 0.10307241000000E+00 0.10000000000000E+01
 p    1 1.00
 0.80000000000000E+00 0.10000000000000E+01
 p    1 1.00
 0.95774129632000E-01 0.10000000000000E+01
 
   11 0
 s    6 1.00
 0.19730800647000E+05 0.58626402628763E-03
 0.29578958745000E+04 0.45428820586397E-02
 0.67322133595000E+03 0.23558413450084E-01
 0.19068249494000E+03 0.94709193292923E-01
 0.62295441898000E+02 0.29719784913376E+00
 0.22654161182000E+02 0.66916246895232E+00
 s    2 1.00
 0.89791477428000E+01 0.64596683630063E+00
 0.36863002370000E+01 0.38700574393705E+00
 s    1 1.00
 0.84660076805000E+00 0.10000000000000E+01
 s    1 1.00
 0.33647133771000E+00 0.10000000000000E+01
 s    1 1.00
 0.13647653675000E+00 0.10000000000000E+01
 s    1 1.00
 0.68441605847000E-01 0.10000000000000E+01
 p    4 1.00
 0.49200380510000E+02 0.11448825101764E-01
 0.11346790537000E+02 0.78422337970864E-01
 0.34273972411000E+01 0.30818094738830E+00
 0.11785525134000E+01 0.72027196368413E+00
 p    1 1.00
 0.41642204972000E+00 0.10000000000000E+01
 p    1 1.00
 0.14260826011000E+00 0.10000000000000E+01
 d    1 1.00
 0.16540000000000E+01 0.10000000000000E+01
 d    1 1.00
 0.46900000000000E+00 0.10000000000000E+01
 d    1 1.00
 0.12829642058000E+00 0.10000000000000E+01
 f    1 1.00
 0.10930000000000E+01 0.10000000000000E+01
 
   12 0
 s    6 1.00
 0.27032382631000E+05 0.57227335211155E-03
 0.40523871392000E+04 0.44353233492995E-02
 0.92232722710000E+03 0.23020107706038E-01
 0.26124070989000E+03 0.92822490667928E-01
 0.85354641351000E+02 0.29378500009671E+00
 0.31035035245000E+02 0.67401604501641E+00
 s    2 1.00
 0.12260860728000E+02 0.63839937025506E+00
 0.49987076005000E+01 0.39534587125718E+00
 s    1 1.00
 0.11703108158000E+01 0.10000000000000E+01
 s    1 1.00
 0.46474740994000E+00 0.10000000000000E+01
 s    1 1.00
 0.18504536357000E+00 0.10000000000000E+01
 s    1 1.00
 0.70288026270000E-01 0.10000000000000E+01
 p    4 1.00
 0.63274954801000E+02 0.12018332222616E-01
 0.14627049379000E+02 0.83005421790056E-01
 0.44501223456000E+01 0.31991743925964E+00
 0.15275799647000E+01 0.70715542916104E+00
 p    1 1.00
 0.52935117943000E+00 0.10000000000000E+01
 p    1 1.00
 0.17478421270000E+00 0.10000000000000E+01
 p    1 1.00
 0.51112745706000E-01 0.10000000000000E+01
 d    1 1.00
 0.23140000000000E+01 0.10000000000000E+01
 d    1 1.00
 0.64500000000000E+00 0.10000000000000E+01
 d    1 1.00
 0.14696477366000E+00 0.10000000000000E+01
 f    1 1.00
 0.14280000000000E+01 0.10000000000000E+01
 
   13 0
 s    6 1.00
 0.27032382631000E+05 0.57227335211155E-03
 0.40523871392000E+04 0.44353233492995E-02
 0.92232722710000E+03 0.23020107706038E-01
 0.26124070989000E+03 0.92822490667928E-01
 0.85354641351000E+02 0.29378500009671E+00
 0.31035035245000E+02 0.67401604501641E+00
 s    2 1.00
 0.12260860728000E+02 0.63839937025506E+00
 0.49987076005000E+01 0.39534587125718E+00
 s    1 1.00
 0.11703108158000E+01 0.10000000000000E+01
 s    1 1.00
 0.46474740994000E+00 0.10000000000000E+01
 s    1 1.00
 0.18504536357000E+00 0.10000000000000E+01
 s    1 1.00
 0.70288026270000E-01 0.10000000000000E+01
 p    4 1.00
 0.63274954801000E+02 0.12018332222616E-01
 0.14627049379000E+02 0.83005421790056E-01
 0.44501223456000E+01 0.31991743925964E+00
 0.15275799647000E+01 0.70715542916104E+00
 p    1 1.00
 0.52935117943000E+00 0.10000000000000E+01
 p    1 1.00
 0.17478421270000E+00 0.10000000000000E+01
 p    1 1.00
 0.51112745706000E-01 0.10000000000000E+01
 d    1 1.00
 0.23140000000000E+01 0.10000000000000E+01
 d    1 1.00
 0.64500000000000E+00 0.10000000000000E+01
 d    1 1.00
 0.14696477366000E+00 0.10000000000000E+01
 f    1 1.00
 0.14280000000000E+01 0.10000000000000E+01
 
   14 0
 s    6 1.00
 0.19730800647000E+05 0.58626402628763E-03
 0.29578958745000E+04 0.45428820586397E-02
 0.67322133595000E+03 0.23558413450084E-01
 0.19068249494000E+03 0.94709193292923E-01
 0.62295441898000E+02 0.29719784913376E+00
 0.22654161182000E+02 0.66916246895232E+00
 s    2 1.00
 0.89791477428000E+01 0.64596683630063E+00
 0.36863002370000E+01 0.38700574393705E+00
 s    1 1.00
 0.84660076805000E+00 0.10000000000000E+01
 s    1 1.00
 0.33647133771000E+00 0.10000000000000E+01
 s    1 1.00
 0.13647653675000E+00 0.10000000000000E+01
 s    1 1.00
 0.68441605847000E-01 0.10000000000000E+01
 p    4 1.00
 0.49200380510000E+02 0.11448825101764E-01
 0.11346790537000E+02 0.78422337970864E-01
 0.34273972411000E+01 0.30818094738830E+00
 0.11785525134000E+01 0.72027196368413E+00
 p    1 1.00
 0.41642204972000E+00 0.10000000000000E+01
 p    1 1.00
 0.14260826011000E+00 0.10000000000000E+01
 d    1 1.00
 0.16540000000000E+01 0.10000000000000E+01
 d    1 1.00
 0.46900000000000E+00 0.10000000000000E+01
 d    1 1.00
 0.12829642058000E+00 0.10000000000000E+01
 f    1 1.00
 0.10930000000000E+01 0.10000000000000E+01
 
   15 0
 s    3 1.00
 0.34061341000000E+02 0.25439307208879E-01
 0.51235746000000E+01 0.19008594890375E+00
 0.11646626000000E+01 0.85244113011042E+00
 s    1 1.00
 0.32723041000000E+00 0.10000000000000E+01
 s    1 1.00
 0.10307241000000E+00 0.10000000000000E+01
 p    1 1.00
 0.80000000000000E+00 0.10000000000000E+01
 p    1 1.00
 0.95774129632000E-01 0.10000000000000E+01
 
   16 0
 s    3 1.00
 0.34061341000000E+02 0.25439307208879E-01
 0.51235746000000E+01 0.19008594890375E+00
 0.11646626000000E+01 0.85244113011042E+00
 s    1 1.00
 0.32723041000000E+00 0.10000000000000E+01
 s    1 1.00
 0.10307241000000E+00 0.10000000000000E+01
 p    1 1.00
 0.80000000000000E+00 0.10000000000000E+01
 p    1 1.00
 0.95774129632000E-01 0.10000000000000E+01
 
[MO]
 Sym= X
 Ene= -0.899630
 Spin= Alpha
 Occup= -0.899630
         1   -1.395224E-04
         2   -3.265969E-04
         3    9.655052E-04
         4   -2.293810E-03
         5   -1.122170E-02
         6   -9.836698E-03
         7    1.573543E-03
         8    3.423687E-04
         9    2.574948E-02
        10   -2.005948E-03
        11    4.979250E-04
        12    2.383757E-02
        13   -3.218079E-02
        14    8.855390E-03
        15    3.329976E-03
        16    3.775105E-06
        17   -1.523625E-05
        18    1.146115E-05
        19   -1.681834E-05
        20   -6.343114E-03
        21    3.902160E-03
        22   -5.802026E-04
        23    3.502731E-04
        24    2.299296E-04
        25   -6.339788E-04
        26   -1.429687E-02
        27    7.348500E-03
        28   -4.663845E-03
        29    4.350236E-03
        30    3.136095E-04
        31    9.987121E-04
        32    1.338590E-03
        33   -1.051176E-02
        34   -1.679151E-05
        35    7.118540E-06
        36   -1.207848E-04
        37    7.217544E-06
        38   -7.017066E-06
        39   -6.933397E-04
        40    1.531063E-05
        41   -2.533458E-06
        42    8.553895E-04
        43   -7.055817E-04
        44    1.935449E-05
        45    4.087063E-05
        46    1.443189E-04
        47   -2.404080E-03
        48   -4.619913E-02
        49    4.716814E-03
        50    4.887216E-04
        51    1.683889E-06
        52    2.066427E-01
        53   -2.627990E-04
        54    2.281078E-05
        55    2.143576E-01
        56   -1.522563E-02
        57   -1.618793E-03
        58    2.044412E-01
        59    3.489296E-05
        60   -3.237381E-05
        61   -2.519154E-06
        62    1.690172E-07
        63   -7.891326E-04
        64    3.402379E-07
        65    3.344889E-04
        66   -5.573799E-04
        67    2.228910E-04
        68    4.732926E-06
        69   -3.585995E-03
        70    2.515533E-07
        71    7.919217E-03
        72   -8.906019E-03
        73    9.868019E-04
        74   -2.784441E-04
        75    5.166871E-03
        76   -2.649558E-05
        77    7.708488E-06
        78    4.824585E-08
        79   -1.166051E-03
        80   -6.149653E-06
        81    4.110004E-08
        82    7.108726E-04
        83   -4.192368E-06
        84   -1.058286E-07
        85    8.535485E-04
        86    2.950733E-08
        87   -1.397736E-04
        88   -3.273176E-04
        89    9.763750E-04
        90   -2.383095E-03
        91   -8.622751E-03
        92   -9.758254E-03
        93    1.574801E-03
        94   -3.448448E-04
        95    2.576172E-02
        96   -1.995755E-03
        97   -4.836790E-04
        98    2.384741E-02
        99   -3.332848E-02
       100   -1.055175E-02
       101    3.423157E-03
       102    3.540910E-06
       103   -1.521264E-05
       104    1.167173E-05
       105    1.714434E-05
       106   -6.343567E-03
       107   -3.902290E-03
       108   -5.776295E-04
       109    3.456484E-04
       110    2.319811E-04
       111    6.300041E-04
       112   -1.429503E-02
       113   -7.347979E-03
       114   -4.987087E-03
       115    4.705601E-03
       116    2.814862E-04
       117   -7.569372E-04
       118    1.327818E-03
       119    1.047001E-02
       120   -1.701694E-05
       121   -7.094232E-06
       122   -1.208110E-04
       123    7.558786E-06
       124    7.023441E-06
       125   -6.933337E-04
       126    1.527184E-05
       127    2.494470E-06
       128    8.554187E-04
       129    7.055063E-04
       130    7.267176E-05
       131    1.544848E-04
       132    6.343921E-04
       133   -9.162724E-03
       134    2.781199E-02
       135    1.090427E-02
       136   -1.153138E-03
       137    6.476807E-04
       138   -1.529708E-01
       139   -8.014616E-03
       140    5.518017E-03
       141   -1.558655E-01
       142   -2.372050E-02
       143   -5.833522E-03
       144   -9.352880E-02
       145    1.309758E-04
       146   -1.551712E-04
       147    2.419545E-05
       148    1.435870E-06
       149   -8.617984E-04
       150    2.952319E-03
       151    5.424010E-04
       152   -6.636851E-04
       153    1.212840E-04
       154    1.508564E-03
       155   -4.076140E-03
       156    5.006180E-03
       157    7.522902E-03
       158   -5.955316E-03
       159   -1.567586E-03
       160   -7.383988E-03
       161    3.383664E-03
       162   -1.215246E-02
       163   -1.345453E-05
       164    9.093631E-06
       165    8.555901E-04
       166   -1.643879E-05
       167    1.429990E-05
       168   -2.100746E-04
       169    3.448994E-05
       170   -2.650029E-05
       171   -9.378199E-04
       172    3.407300E-04
       173   -9.793424E-04
       174   -2.231060E-03
       175    2.274807E-03
       176    1.927256E-02
       177   -1.007923E-02
       178    8.798766E-03
       179    7.983562E-03
       180    7.015374E-07
       181   -1.123729E-01
       182    4.525668E-04
       183   -1.606407E-05
       184   -1.149883E-01
       185   -2.134719E-02
       186    1.674688E-03
       187   -1.316088E-01
       188    4.177381E-04
       189   -2.336692E-04
       190   -1.840689E-04
       191    1.152298E-07
       192    9.795201E-03
       193    1.490585E-07
       194   -1.647796E-03
       195    3.626262E-03
       196   -1.978467E-03
       197    4.063508E-06
       198    2.425328E-02
       199   -3.000480E-06
       200   -4.990727E-03
       201    6.167974E-03
       202   -1.177247E-03
       203   -3.438965E-04
       204    1.925760E-02
       205    8.485633E-06
       206    1.021400E-04
       207    2.528181E-08
       208    3.301128E-04
       209   -7.182861E-05
       210   -1.240223E-07
       211    1.021998E-03
       212   -6.520664E-05
       213    9.010321E-08
       214   -1.464891E-03
       215    1.413243E-07
       216    7.314040E-05
       217    1.553555E-04
       218    6.410926E-04
       219   -9.254293E-03
       220    3.074182E-02
       221    1.093701E-02
       222   -1.154191E-03
       223   -6.416422E-04
       224   -1.529668E-01
       225   -8.013663E-03
       226   -5.533964E-03
       227   -1.558703E-01
       228   -2.247658E-02
       229    7.794938E-03
       230   -9.343784E-02
       231    1.307060E-04
       232   -1.557058E-04
       233    2.499979E-05
       234   -1.354266E-06
       235   -8.616507E-04
       236   -2.952424E-03
       237    5.431495E-04
       238   -6.661105E-04
       239    1.229610E-04
       240   -1.511324E-03
       241   -4.074429E-03
       242   -5.006014E-03
       243    7.182746E-03
       244   -5.598938E-03
       245   -1.583809E-03
       246    7.656398E-03
       247    3.398166E-03
       248    1.220569E-02
       249   -1.332138E-05
       250   -9.167766E-06
       251    8.558210E-04
       252   -1.673718E-05
       253   -1.421543E-05
       254   -2.102916E-04
       255    3.460969E-05
       256    2.651528E-05
       257   -9.379127E-04
       258   -3.407105E-04
       259   -4.333507E-04
       260   -3.620272E-04
       261   -1.551630E-02
       262   -2.056795E-05
       263   -1.573986E-05
       264    9.896529E-04
       265   -4.667497E-03
       266   -2.347762E-04
       267   -6.807689E-03
       268   -4.352674E-04
       269   -3.565443E-04
       270   -1.529018E-02
       271   -1.938596E-05
       272    1.509805E-05
       273    9.904700E-04
       274   -4.843975E-03
       275    9.376791E-05
       276   -6.781275E-03
       277   -3.128212E-04
       278   -1.996912E-03
       279    2.981750E-02
       280   -1.257045E-05
       281    7.961518E-05
       282   -6.224440E-03
       283   -1.540834E-03
       284   -2.327104E-03
       285    1.688054E-03
       286   -3.169367E-04
       287   -1.996973E-03
       288    3.024725E-02
       289   -1.222443E-05
       290   -7.945379E-05
       291   -6.224705E-03
       292   -1.395271E-03
       293    2.494343E-03
       294    1.718792E-03
       295   -4.080062E-05
       296   -9.431080E-05
       297    8.123805E-05
       298    3.852572E-04
       299   -6.050803E-03
       300    9.687070E-04
       301    3.436654E-04
       302   -1.201150E-07
       303    2.091693E-02
       304    8.550179E-05
       305    8.815797E-07
       306    2.335997E-02
       307   -2.691363E-03
       308    2.680033E-05
       309    1.048019E-02
       310    1.428628E-05
       311    1.272132E-06
       312   -1.555841E-05
       313   -6.392750E-08
       314    4.561822E-03
       315   -2.341351E-08
       316   -8.595936E-06
       317    7.218111E-05
       318   -6.358518E-05
       319   -8.239504E-07
       320    1.372059E-02
       321   -3.114168E-07
       322   -9.459870E-04
       323    2.530664E-03
       324   -1.584677E-03
       325    4.560126E-05
       326    3.263857E-03
       327    4.697757E-06
       328    6.504751E-06
       329   -4.195231E-09
       330    1.194444E-05
       331   -4.753811E-06
       332    3.652475E-08
       333    7.145199E-04
       334   -3.973228E-06
       335   -3.089626E-08
       336   -7.305450E-04
       337    1.523116E-08
       338   -1.299015E-05
       339   -2.859241E-05
       340    2.900178E-06
       341    4.529902E-04
       342   -5.124547E-03
       343   -7.694529E-04
       344   -6.136288E-05
       345    1.261159E-04
       346   -8.183464E-02
       347   -1.496540E-04
       348    2.410872E-04
       349   -7.588482E-02
       350   -1.244915E-03
       351    4.268889E-04
       352   -6.197963E-02
       353   -1.307457E-04
       354    1.899262E-04
       355   -7.713666E-03
       356    3.556406E-06
       357   -3.794509E-06
       358    2.381034E-07
       359   -9.470180E-07
       360    9.796932E-06
       361    4.881660E-04
       362   -1.052433E-05
       363   -9.199091E-06
       364    1.972343E-05
       365    6.971648E-06
       366   -5.326651E-04
       367    1.632423E-03
       368   -7.546481E-05
       369    5.598764E-05
       370    1.947717E-05
       371    8.297025E-05
       372   -1.648246E-04
       373    2.530784E-04
       374    5.506348E-07
       375    1.634444E-06
       376    6.745463E-05
       377   -9.685124E-07
       378   -7.043964E-07
       379    8.582052E-05
       380    2.297583E-07
       381   -1.488440E-06
       382   -1.763204E-04
       383    1.403082E-04
       384   -1.280407E-05
       385   -2.817294E-05
       386    2.708652E-06
       387    4.485425E-04
       388   -5.144765E-03
       389   -7.260504E-04
       390   -5.305215E-05
       391   -1.299677E-04
       392   -8.183121E-02
       393   -1.424545E-04
       394   -2.435733E-04
       395   -7.588209E-02
       396   -1.198139E-03
       397   -4.359965E-04
       398   -6.197122E-02
       399   -1.114544E-04
       400   -1.950994E-04
       401   -7.718173E-03
       402    3.556134E-06
       403   -3.829548E-06
       404    2.734141E-07
       405    9.020350E-07
       406    9.777710E-06
       407   -4.881402E-04
       408   -9.943071E-06
       409   -9.304602E-06
       410    1.924767E-05
       411   -6.422463E-06
       412   -5.325107E-04
       413   -1.632336E-03
       414   -7.519137E-05
       415    5.695640E-05
       416    1.823497E-05
       417   -8.231217E-05
       418   -1.656471E-04
       419   -2.523062E-04
       420    5.541683E-07
       421   -1.641810E-06
       422    6.745515E-05
       423   -9.537803E-07
       424    7.240870E-07
       425    8.581583E-05
       426    2.102856E-07
       427    1.478633E-06
       428   -1.763164E-04
       429   -1.403062E-04
       430    4.400491E-03
       431    1.043819E-02
       432   -1.622069E-02
       433   -2.497374E-02
       434   -2.082794E-02
       435   -6.243532E-02
       436   -1.532564E-02
       437    1.231780E-05
       438    2.468384E-01
       439   -1.750648E-02
       440   -2.676263E-06
       441    2.441013E-01
       442   -1.560275E-02
       443   -1.465825E-04
       444    2.008195E-01
       445   -8.651734E-05
       446   -6.463039E-06
       447    9.298038E-05
       448    3.086412E-07
       449    7.890669E-04
       450    3.565636E-07
       451   -2.043081E-04
       452   -1.341516E-03
       453    1.545824E-03
       454   -5.913710E-06
       455    3.674965E-03
       456    1.073372E-06
       457   -1.651778E-03
       458   -2.534172E-03
       459    4.185950E-03
       460   -2.408539E-05
       461    2.113522E-03
       462    1.102074E-05
       463   -1.250964E-04
       464    1.244480E-08
       465   -9.771606E-04
       466   -7.702257E-05
       467   -2.400595E-08
       468    5.174903E-04
       469    2.448570E-04
       470    7.309505E-09
       471    7.935082E-04
       472    2.143302E-08
       473    8.403674E-03
       474    1.589128E-02
       475    2.657781E-02
       476   -2.009987E-03
       477   -1.677841E-03
       478    1.258110E-02
       479    1.365543E-03
       480   -3.153231E-03
       481    1.475626E-02
       482    8.395614E-03
       483    1.577974E-02
       484    2.606191E-02
       485   -2.004195E-03
       486    1.667191E-03
       487    1.258603E-02
       488    1.427483E-03
       489    3.074925E-03
       490    1.477848E-02
 Sym= X
 Ene= 0.899630
 Spin= Alpha
 Occup= 0.899630
         1   -4.618703E-03
         2   -1.057474E-02
         3    1.829366E-02
         4    8.965947E-03
         5    2.895824E+00
         6   -5.079290E-01
         7   -2.870888E-02
         8   -4.335195E-02
         9    1.657892E-03
        10   -5.968032E-03
        11   -1.184470E-01
        12    9.372871E-04
        13   -3.723195E-01
        14    1.719856E+00
        15    1.367753E-02
        16    2.534971E-03
        17   -6.023233E-03
        18    3.488262E-03
        19   -3.143637E-03
        20    5.187583E-05
        21   -1.203950E-04
        22   -6.514052E-03
        23   -5.251081E-03
        24    1.176513E-02
        25   -9.680567E-04
        26    6.810619E-05
        27   -1.225127E-04
        28   -2.551072E-01
        29    5.789417E-02
        30    1.972130E-01
        31   -6.282913E-01
        32    7.218591E-03
        33   -1.511596E-02
        34    6.547720E-05
        35   -3.723159E-04
        36    1.379681E-05
        37   -5.595758E-04
        38   -2.489483E-04
        39   -2.432489E-05
        40    4.717289E-04
        41    7.484625E-04
        42    5.814536E-06
        43    1.842256E-05
        44   -1.004573E-03
        45   -2.426314E-03
        46    3.770420E-04
        47   -6.816823E-02
        48   -5.331705E+00
        49    5.640861E+00
        50   -7.017805E-02
        51    3.606980E-06
        52   -3.063387E-03
        53   -7.825175E-02
        54    4.987980E-05
        55   -4.450740E-03
        56   -3.323213E+00
        57    1.912901E-04
        58    5.137151E-02
        59   -7.014758E-03
        60    2.526442E-03
        61    4.488316E-03
        62   -6.446962E-07