[Molden Format]
[Title]
ADC(2) - opt by CAM-B3LYP gaussian                                              
[Atoms] AU
 c     1    6 -.12588573623097E+01 -.22835126974190E+01 -.24083260376910E-01
 c     2    6 -.25578815622211E+01 0.23621577000000E-06 -.22837930855340E-01
 c     3    6 -.12588573623097E+01 0.22835131698505E+01 -.24090819281440E-01
 c     4    6 0.13318248850473E+01 0.22853065199506E+01 -.26003222127920E-01
 c     5    6 0.26868737956204E+01 0.23621577000000E-06 -.25389061134730E-01
 c     6    6 0.13318248850473E+01 -.22853060475191E+01 -.25993773497260E-01
 h     7    1 -.22974546243959E+01 -.40385977330627E+01 -.21598270512170E-01
 h     8    1 -.22974527346698E+01 0.40385982054942E+01 -.21613388321230E-01
 h     9    1 0.23510089905703E+01 0.40574312161345E+01 -.28191524989800E-01
 h    10    1 0.23510071008442E+01 -.40574307437030E+01 -.28172627728480E-01
 n    11    7 -.52726375582849E+01 0.23621577000000E-06 -.17238672323600E-01
 o    12    8 -.63813946825068E+01 0.20269261555273E+01 -.14842499587100E-01
 o    13    8 -.63813927927806E+01 -.20269275728219E+01 -.14865176300690E-01
 n    14    7 0.52430742102305E+01 0.23621577000000E-06 -.67376886081320E-01
 h    15    1 0.62051583509223E+01 0.16177513148781E+01 0.18115044628513E+00
 h    16    1 0.62051564611962E+01 -.16177527321727E+01 0.18114666683287E+00
[GTO]
    1 0
 s    6 1.00
 0.13575349682000E+05 0.60645503603591E-03
 0.20352333680000E+04 0.46979088884982E-02
 0.46322562359000E+03 0.24332477647552E-01
 0.13120019598000E+03 0.97399968307759E-01
 0.42853015891000E+02 0.30195584253780E+00
 0.15584185766000E+02 0.66233609137875E+00
 s    2 1.00
 0.62067138508000E+01 0.65595308539952E+00
 0.25764896527000E+01 0.37585633285142E+00
 s    1 1.00
 0.57696339419000E+00 0.10000000000000E+01
 s    1 1.00
 0.22972831358000E+00 0.10000000000000E+01
 s    1 1.00
 0.95164440028000E-01 0.10000000000000E+01
 s    1 1.00
 0.48475401370000E-01 0.10000000000000E+01
 p    4 1.00
 0.34697232244000E+02 0.11327220003114E-01
 0.79582622826000E+01 0.76169659202087E-01
 0.23780826883000E+01 0.30192252202676E+00
 0.81433208183000E+00 0.72785027349547E+00
 p    1 1.00
 0.28887547253000E+00 0.10000000000000E+01
 p    1 1.00
 0.10056823671000E+00 0.10000000000000E+01
 d    1 1.00
 0.10970000000000E+01 0.10000000000000E+01
 d    1 1.00
 0.31800000000000E+00 0.10000000000000E+01
 d    1 1.00
 0.90985336424000E-01 0.10000000000000E+01
 f    1 1.00
 0.76100000000000E+00 0.10000000000000E+01
 
    2 0
 s    6 1.00
 0.13575349682000E+05 0.60645503603591E-03
 0.20352333680000E+04 0.46979088884982E-02
 0.46322562359000E+03 0.24332477647552E-01
 0.13120019598000E+03 0.97399968307759E-01
 0.42853015891000E+02 0.30195584253780E+00
 0.15584185766000E+02 0.66233609137875E+00
 s    2 1.00
 0.62067138508000E+01 0.65595308539952E+00
 0.25764896527000E+01 0.37585633285142E+00
 s    1 1.00
 0.57696339419000E+00 0.10000000000000E+01
 s    1 1.00
 0.22972831358000E+00 0.10000000000000E+01
 s    1 1.00
 0.95164440028000E-01 0.10000000000000E+01
 s    1 1.00
 0.48475401370000E-01 0.10000000000000E+01
 p    4 1.00
 0.34697232244000E+02 0.11327220003114E-01
 0.79582622826000E+01 0.76169659202087E-01
 0.23780826883000E+01 0.30192252202676E+00
 0.81433208183000E+00 0.72785027349547E+00
 p    1 1.00
 0.28887547253000E+00 0.10000000000000E+01
 p    1 1.00
 0.10056823671000E+00 0.10000000000000E+01
 d    1 1.00
 0.10970000000000E+01 0.10000000000000E+01
 d    1 1.00
 0.31800000000000E+00 0.10000000000000E+01
 d    1 1.00
 0.90985336424000E-01 0.10000000000000E+01
 f    1 1.00
 0.76100000000000E+00 0.10000000000000E+01
 
    3 0
 s    6 1.00
 0.13575349682000E+05 0.60645503603591E-03
 0.20352333680000E+04 0.46979088884982E-02
 0.46322562359000E+03 0.24332477647552E-01
 0.13120019598000E+03 0.97399968307759E-01
 0.42853015891000E+02 0.30195584253780E+00
 0.15584185766000E+02 0.66233609137875E+00
 s    2 1.00
 0.62067138508000E+01 0.65595308539952E+00
 0.25764896527000E+01 0.37585633285142E+00
 s    1 1.00
 0.57696339419000E+00 0.10000000000000E+01
 s    1 1.00
 0.22972831358000E+00 0.10000000000000E+01
 s    1 1.00
 0.95164440028000E-01 0.10000000000000E+01
 s    1 1.00
 0.48475401370000E-01 0.10000000000000E+01
 p    4 1.00
 0.34697232244000E+02 0.11327220003114E-01
 0.79582622826000E+01 0.76169659202087E-01
 0.23780826883000E+01 0.30192252202676E+00
 0.81433208183000E+00 0.72785027349547E+00
 p    1 1.00
 0.28887547253000E+00 0.10000000000000E+01
 p    1 1.00
 0.10056823671000E+00 0.10000000000000E+01
 d    1 1.00
 0.10970000000000E+01 0.10000000000000E+01
 d    1 1.00
 0.31800000000000E+00 0.10000000000000E+01
 d    1 1.00
 0.90985336424000E-01 0.10000000000000E+01
 f    1 1.00
 0.76100000000000E+00 0.10000000000000E+01
 
    4 0
 s    6 1.00
 0.13575349682000E+05 0.60645503603591E-03
 0.20352333680000E+04 0.46979088884982E-02
 0.46322562359000E+03 0.24332477647552E-01
 0.13120019598000E+03 0.97399968307759E-01
 0.42853015891000E+02 0.30195584253780E+00
 0.15584185766000E+02 0.66233609137875E+00
 s    2 1.00
 0.62067138508000E+01 0.65595308539952E+00
 0.25764896527000E+01 0.37585633285142E+00
 s    1 1.00
 0.57696339419000E+00 0.10000000000000E+01
 s    1 1.00
 0.22972831358000E+00 0.10000000000000E+01
 s    1 1.00
 0.95164440028000E-01 0.10000000000000E+01
 s    1 1.00
 0.48475401370000E-01 0.10000000000000E+01
 p    4 1.00
 0.34697232244000E+02 0.11327220003114E-01
 0.79582622826000E+01 0.76169659202087E-01
 0.23780826883000E+01 0.30192252202676E+00
 0.81433208183000E+00 0.72785027349547E+00
 p    1 1.00
 0.28887547253000E+00 0.10000000000000E+01
 p    1 1.00
 0.10056823671000E+00 0.10000000000000E+01
 d    1 1.00
 0.10970000000000E+01 0.10000000000000E+01
 d    1 1.00
 0.31800000000000E+00 0.10000000000000E+01
 d    1 1.00
 0.90985336424000E-01 0.10000000000000E+01
 f    1 1.00
 0.76100000000000E+00 0.10000000000000E+01
 
    5 0
 s    6 1.00
 0.13575349682000E+05 0.60645503603591E-03
 0.20352333680000E+04 0.46979088884982E-02
 0.46322562359000E+03 0.24332477647552E-01
 0.13120019598000E+03 0.97399968307759E-01
 0.42853015891000E+02 0.30195584253780E+00
 0.15584185766000E+02 0.66233609137875E+00
 s    2 1.00
 0.62067138508000E+01 0.65595308539952E+00
 0.25764896527000E+01 0.37585633285142E+00
 s    1 1.00
 0.57696339419000E+00 0.10000000000000E+01
 s    1 1.00
 0.22972831358000E+00 0.10000000000000E+01
 s    1 1.00
 0.95164440028000E-01 0.10000000000000E+01
 s    1 1.00
 0.48475401370000E-01 0.10000000000000E+01
 p    4 1.00
 0.34697232244000E+02 0.11327220003114E-01
 0.79582622826000E+01 0.76169659202087E-01
 0.23780826883000E+01 0.30192252202676E+00
 0.81433208183000E+00 0.72785027349547E+00
 p    1 1.00
 0.28887547253000E+00 0.10000000000000E+01
 p    1 1.00
 0.10056823671000E+00 0.10000000000000E+01
 d    1 1.00
 0.10970000000000E+01 0.10000000000000E+01
 d    1 1.00
 0.31800000000000E+00 0.10000000000000E+01
 d    1 1.00
 0.90985336424000E-01 0.10000000000000E+01
 f    1 1.00
 0.76100000000000E+00 0.10000000000000E+01
 
    6 0
 s    6 1.00
 0.13575349682000E+05 0.60645503603591E-03
 0.20352333680000E+04 0.46979088884982E-02
 0.46322562359000E+03 0.24332477647552E-01
 0.13120019598000E+03 0.97399968307759E-01
 0.42853015891000E+02 0.30195584253780E+00
 0.15584185766000E+02 0.66233609137875E+00
 s    2 1.00
 0.62067138508000E+01 0.65595308539952E+00
 0.25764896527000E+01 0.37585633285142E+00
 s    1 1.00
 0.57696339419000E+00 0.10000000000000E+01
 s    1 1.00
 0.22972831358000E+00 0.10000000000000E+01
 s    1 1.00
 0.95164440028000E-01 0.10000000000000E+01
 s    1 1.00
 0.48475401370000E-01 0.10000000000000E+01
 p    4 1.00
 0.34697232244000E+02 0.11327220003114E-01
 0.79582622826000E+01 0.76169659202087E-01
 0.23780826883000E+01 0.30192252202676E+00
 0.81433208183000E+00 0.72785027349547E+00
 p    1 1.00
 0.28887547253000E+00 0.10000000000000E+01
 p    1 1.00
 0.10056823671000E+00 0.10000000000000E+01
 d    1 1.00
 0.10970000000000E+01 0.10000000000000E+01
 d    1 1.00
 0.31800000000000E+00 0.10000000000000E+01
 d    1 1.00
 0.90985336424000E-01 0.10000000000000E+01
 f    1 1.00
 0.76100000000000E+00 0.10000000000000E+01
 
    7 0
 s    3 1.00
 0.34061341000000E+02 0.25439307208879E-01
 0.51235746000000E+01 0.19008594890375E+00
 0.11646626000000E+01 0.85244113011042E+00
 s    1 1.00
 0.32723041000000E+00 0.10000000000000E+01
 s    1 1.00
 0.10307241000000E+00 0.10000000000000E+01
 p    1 1.00
 0.80000000000000E+00 0.10000000000000E+01
 p    1 1.00
 0.95774129632000E-01 0.10000000000000E+01
 
    8 0
 s    3 1.00
 0.34061341000000E+02 0.25439307208879E-01
 0.51235746000000E+01 0.19008594890375E+00
 0.11646626000000E+01 0.85244113011042E+00
 s    1 1.00
 0.32723041000000E+00 0.10000000000000E+01
 s    1 1.00
 0.10307241000000E+00 0.10000000000000E+01
 p    1 1.00
 0.80000000000000E+00 0.10000000000000E+01
 p    1 1.00
 0.95774129632000E-01 0.10000000000000E+01
 
    9 0
 s    3 1.00
 0.34061341000000E+02 0.25439307208879E-01
 0.51235746000000E+01 0.19008594890375E+00
 0.11646626000000E+01 0.85244113011042E+00
 s    1 1.00
 0.32723041000000E+00 0.10000000000000E+01
 s    1 1.00
 0.10307241000000E+00 0.10000000000000E+01
 p    1 1.00
 0.80000000000000E+00 0.10000000000000E+01
 p    1 1.00
 0.95774129632000E-01 0.10000000000000E+01
 
   10 0
 s    3 1.00
 0.34061341000000E+02 0.25439307208879E-01
 0.51235746000000E+01 0.19008594890375E+00
 0.11646626000000E+01 0.85244113011042E+00
 s    1 1.00
 0.32723041000000E+00 0.10000000000000E+01
 s    1 1.00
 0.10307241000000E+00 0.10000000000000E+01
 p    1 1.00
 0.80000000000000E+00 0.10000000000000E+01
 p    1 1.00
 0.95774129632000E-01 0.10000000000000E+01
 
   11 0
 s    6 1.00
 0.19730800647000E+05 0.58626402628763E-03
 0.29578958745000E+04 0.45428820586397E-02
 0.67322133595000E+03 0.23558413450084E-01
 0.19068249494000E+03 0.94709193292923E-01
 0.62295441898000E+02 0.29719784913376E+00
 0.22654161182000E+02 0.66916246895232E+00
 s    2 1.00
 0.89791477428000E+01 0.64596683630063E+00
 0.36863002370000E+01 0.38700574393705E+00
 s    1 1.00
 0.84660076805000E+00 0.10000000000000E+01
 s    1 1.00
 0.33647133771000E+00 0.10000000000000E+01
 s    1 1.00
 0.13647653675000E+00 0.10000000000000E+01
 s    1 1.00
 0.68441605847000E-01 0.10000000000000E+01
 p    4 1.00
 0.49200380510000E+02 0.11448825101764E-01
 0.11346790537000E+02 0.78422337970864E-01
 0.34273972411000E+01 0.30818094738830E+00
 0.11785525134000E+01 0.72027196368413E+00
 p    1 1.00
 0.41642204972000E+00 0.10000000000000E+01
 p    1 1.00
 0.14260826011000E+00 0.10000000000000E+01
 d    1 1.00
 0.16540000000000E+01 0.10000000000000E+01
 d    1 1.00
 0.46900000000000E+00 0.10000000000000E+01
 d    1 1.00
 0.12829642058000E+00 0.10000000000000E+01
 f    1 1.00
 0.10930000000000E+01 0.10000000000000E+01
 
   12 0
 s    6 1.00
 0.27032382631000E+05 0.57227335211155E-03
 0.40523871392000E+04 0.44353233492995E-02
 0.92232722710000E+03 0.23020107706038E-01
 0.26124070989000E+03 0.92822490667928E-01
 0.85354641351000E+02 0.29378500009671E+00
 0.31035035245000E+02 0.67401604501641E+00
 s    2 1.00
 0.12260860728000E+02 0.63839937025506E+00
 0.49987076005000E+01 0.39534587125718E+00
 s    1 1.00
 0.11703108158000E+01 0.10000000000000E+01
 s    1 1.00
 0.46474740994000E+00 0.10000000000000E+01
 s    1 1.00
 0.18504536357000E+00 0.10000000000000E+01
 s    1 1.00
 0.70288026270000E-01 0.10000000000000E+01
 p    4 1.00
 0.63274954801000E+02 0.12018332222616E-01
 0.14627049379000E+02 0.83005421790056E-01
 0.44501223456000E+01 0.31991743925964E+00
 0.15275799647000E+01 0.70715542916104E+00
 p    1 1.00
 0.52935117943000E+00 0.10000000000000E+01
 p    1 1.00
 0.17478421270000E+00 0.10000000000000E+01
 p    1 1.00
 0.51112745706000E-01 0.10000000000000E+01
 d    1 1.00
 0.23140000000000E+01 0.10000000000000E+01
 d    1 1.00
 0.64500000000000E+00 0.10000000000000E+01
 d    1 1.00
 0.14696477366000E+00 0.10000000000000E+01
 f    1 1.00
 0.14280000000000E+01 0.10000000000000E+01
 
   13 0
 s    6 1.00
 0.27032382631000E+05 0.57227335211155E-03
 0.40523871392000E+04 0.44353233492995E-02
 0.92232722710000E+03 0.23020107706038E-01
 0.26124070989000E+03 0.92822490667928E-01
 0.85354641351000E+02 0.29378500009671E+00
 0.31035035245000E+02 0.67401604501641E+00
 s    2 1.00
 0.12260860728000E+02 0.63839937025506E+00
 0.49987076005000E+01 0.39534587125718E+00
 s    1 1.00
 0.11703108158000E+01 0.10000000000000E+01
 s    1 1.00
 0.46474740994000E+00 0.10000000000000E+01
 s    1 1.00
 0.18504536357000E+00 0.10000000000000E+01
 s    1 1.00
 0.70288026270000E-01 0.10000000000000E+01
 p    4 1.00
 0.63274954801000E+02 0.12018332222616E-01
 0.14627049379000E+02 0.83005421790056E-01
 0.44501223456000E+01 0.31991743925964E+00
 0.15275799647000E+01 0.70715542916104E+00
 p    1 1.00
 0.52935117943000E+00 0.10000000000000E+01
 p    1 1.00
 0.17478421270000E+00 0.10000000000000E+01
 p    1 1.00
 0.51112745706000E-01 0.10000000000000E+01
 d    1 1.00
 0.23140000000000E+01 0.10000000000000E+01
 d    1 1.00
 0.64500000000000E+00 0.10000000000000E+01
 d    1 1.00
 0.14696477366000E+00 0.10000000000000E+01
 f    1 1.00
 0.14280000000000E+01 0.10000000000000E+01
 
   14 0
 s    6 1.00
 0.19730800647000E+05 0.58626402628763E-03
 0.29578958745000E+04 0.45428820586397E-02
 0.67322133595000E+03 0.23558413450084E-01
 0.19068249494000E+03 0.94709193292923E-01
 0.62295441898000E+02 0.29719784913376E+00
 0.22654161182000E+02 0.66916246895232E+00
 s    2 1.00
 0.89791477428000E+01 0.64596683630063E+00
 0.36863002370000E+01 0.38700574393705E+00
 s    1 1.00
 0.84660076805000E+00 0.10000000000000E+01
 s    1 1.00
 0.33647133771000E+00 0.10000000000000E+01
 s    1 1.00
 0.13647653675000E+00 0.10000000000000E+01
 s    1 1.00
 0.68441605847000E-01 0.10000000000000E+01
 p    4 1.00
 0.49200380510000E+02 0.11448825101764E-01
 0.11346790537000E+02 0.78422337970864E-01
 0.34273972411000E+01 0.30818094738830E+00
 0.11785525134000E+01 0.72027196368413E+00
 p    1 1.00
 0.41642204972000E+00 0.10000000000000E+01
 p    1 1.00
 0.14260826011000E+00 0.10000000000000E+01
 d    1 1.00
 0.16540000000000E+01 0.10000000000000E+01
 d    1 1.00
 0.46900000000000E+00 0.10000000000000E+01
 d    1 1.00
 0.12829642058000E+00 0.10000000000000E+01
 f    1 1.00
 0.10930000000000E+01 0.10000000000000E+01
 
   15 0
 s    3 1.00
 0.34061341000000E+02 0.25439307208879E-01
 0.51235746000000E+01 0.19008594890375E+00
 0.11646626000000E+01 0.85244113011042E+00
 s    1 1.00
 0.32723041000000E+00 0.10000000000000E+01
 s    1 1.00
 0.10307241000000E+00 0.10000000000000E+01
 p    1 1.00
 0.80000000000000E+00 0.10000000000000E+01
 p    1 1.00
 0.95774129632000E-01 0.10000000000000E+01
 
   16 0
 s    3 1.00
 0.34061341000000E+02 0.25439307208879E-01
 0.51235746000000E+01 0.19008594890375E+00
 0.11646626000000E+01 0.85244113011042E+00
 s    1 1.00
 0.32723041000000E+00 0.10000000000000E+01
 s    1 1.00
 0.10307241000000E+00 0.10000000000000E+01
 p    1 1.00
 0.80000000000000E+00 0.10000000000000E+01
 p    1 1.00
 0.95774129632000E-01 0.10000000000000E+01
 
[MO]
 Sym= X
 Ene= -0.810097
 Spin= Alpha
 Occup= -0.810097
         1    1.042401E-05
         2    2.377598E-05
         3   -5.323149E-05
         4    2.924638E-05
         5    2.313954E-03
         6    2.737707E-04
         7    5.448900E-05
         8    1.062058E-04
         9    7.082717E-02
        10    1.290454E-04
        11    7.787816E-05
        12    7.099417E-02
        13   -5.262812E-04
        14    1.476625E-03
        15    5.019810E-02
        16    2.580499E-06
        17   -1.190130E-06
        18   -1.390369E-06
        19   -2.886966E-06
        20    1.632560E-03
        21    2.459423E-04
        22    1.847101E-05
        23   -1.049399E-05
        24   -7.977024E-06
        25   -1.199879E-05
        26    1.951458E-03
        27    1.947045E-04
        28    4.181324E-05
        29   -3.291233E-05
        30   -8.900913E-06
        31   -6.173613E-05
        32   -2.225079E-03
        33    3.148822E-03
        34    1.574387E-06
        35    3.219312E-07
        36   -5.038544E-04
        37   -2.953693E-07
        38    8.496121E-08
        39    5.892830E-04
        40   -1.816893E-06
        41   -5.168773E-07
        42    8.670850E-05
        43   -5.632236E-05
        44   -2.756396E-07
        45   -6.244684E-07
        46    1.800753E-06
        47    1.089411E-05
        48   -8.389625E-04
        49   -9.026852E-05
        50    2.380292E-06
        51   -7.714520E-05
        52   -5.700862E-06
        53    3.714318E-06
        54   -5.176191E-05
        55   -9.564066E-06
        56   -3.374744E-04
        57    1.944802E-03
        58   -4.120160E-05
        59   -8.693470E-08
        60    1.779962E-07
        61   -9.106149E-08
        62   -6.427907E-06
        63    3.742452E-08
        64   -3.347325E-03
        65   -7.254679E-07
        66   -1.186558E-06
        67    1.912026E-06
        68   -1.869219E-05
        69   -3.942325E-07
        70   -5.920622E-03
        71    1.013431E-05
        72   -2.305383E-05
        73    1.291953E-05
        74    1.982367E-05
        75   -6.302952E-06
        76    5.328478E-03
        77    8.935057E-08
        78    2.014854E-07
        79    8.607296E-08
        80   -4.930066E-08
        81   -4.266613E-07
        82   -6.356290E-08
        83   -7.057570E-08
        84    1.563403E-07
        85   -5.191609E-08
        86   -2.350082E-04
        87   -1.039366E-05
        88   -2.371547E-05
        89    5.164662E-05
        90   -3.081205E-05
        91   -7.925092E-04
        92   -1.762153E-04
        93   -5.765496E-05
        94    1.037566E-04
        95   -7.082848E-02
        96   -1.192958E-04
        97    7.037472E-05
        98   -7.099473E-02
        99    9.088566E-04
       100    7.761454E-04
       101   -5.012863E-02
       102   -2.936189E-06
       103    1.462568E-06
       104    1.473621E-06
       105   -2.705639E-06
       106   -1.632465E-03
       107    2.462912E-04
       108   -1.296492E-05
       109    7.141598E-06
       110    5.823325E-06
       111   -1.005546E-05
       112   -1.950849E-03
       113    1.936763E-04
       114   -4.603813E-05
       115    5.118659E-05
       116   -5.148464E-06
       117   -9.569612E-05
       118    2.238316E-03
       119    3.129051E-03
       120   -1.511624E-06
       121    2.886816E-07
       122    5.038757E-04
       123    3.220153E-07
       124    4.009859E-09
       125   -5.893006E-04
       126    1.706042E-06
       127   -3.913169E-07
       128   -8.671959E-05
       129   -5.630486E-05
       130    7.354600E-06
       131    1.701302E-05
       132   -4.758563E-05
       133    1.467712E-04
       134    5.682017E-04
       135    2.533002E-04
       136   -4.863691E-05
       137   -4.788445E-05
       138   -7.136105E-02
       139   -6.662447E-05
       140   -8.750721E-05
       141   -7.288582E-02
       142    1.075274E-03
       143   -8.364267E-04
       144   -4.702434E-02
       145    4.752865E-06
       146   -2.433490E-07
       147   -4.509516E-06
       148   -4.454832E-06
       149    1.699991E-03
       150    1.792591E-04
       151    2.996612E-05
       152   -4.046942E-06
       153   -2.591917E-05
       154   -2.623258E-05
       155    3.530206E-03
       156    1.948288E-04
       157    2.595589E-04
       158   -2.298438E-04
       159   -2.971510E-05
       160   -1.166246E-04
       161    1.051539E-04
       162   -1.325876E-03
       163   -1.497659E-06
       164   -3.943680E-07
       165    4.752291E-04
       166    9.813313E-07
       167   -2.271369E-07
       168   -5.461245E-04
       169    1.027988E-06
       170    7.562370E-07
       171   -9.146231E-05
       172    7.561163E-06
       173    8.300104E-08
       174    2.378377E-07
       175   -2.737144E-06
       176    2.208199E-06
       177    1.156486E-03
       178    9.358941E-05
       179   -7.738212E-07
       180    6.335678E-05
       181    4.145310E-06
       182   -4.491595E-06
       183    3.467703E-05
       184    6.690520E-06
       185   -4.264391E-04
       186   -2.517790E-03
       187    1.323484E-05
       188   -1.841214E-07
       189    9.103689E-08
       190    9.308452E-08
       191    7.970360E-06
       192    2.789375E-07
       193   -2.642270E-03
       194    4.215769E-07
       195    2.093528E-06
       196   -2.515105E-06
       197    4.367192E-05
       198   -4.480013E-07
       199   -5.766723E-03
       200   -2.274247E-06
       201    2.613801E-05
       202   -2.386376E-05
       203    6.061895E-05
       204   -1.675881E-06
       205    5.858622E-04
       206    3.996904E-08
       207   -1.954828E-06
       208   -7.700003E-08
       209   -7.733107E-08
       210    1.935811E-06
       211    8.385301E-08
       212    2.370697E-08
       213    6.868669E-07
       214    1.945337E-08
       215    4.277721E-04
       216   -7.404214E-06
       217   -1.706950E-05
       218    4.986245E-05
       219   -1.509638E-04
       220   -2.442516E-03
       221   -3.548107E-04
       222    5.289669E-05
       223   -4.959180E-05
       224    7.136225E-02
       225    8.246027E-05
       226   -9.943430E-05
       227    7.288587E-02
       228   -7.970144E-04
       229   -1.639860E-03
       230    4.696161E-02
       231   -4.829376E-06
       232    4.605447E-07
       233    4.368832E-06
       234   -4.612973E-06
       235   -1.700031E-03
       236    1.794721E-04
       237   -3.387939E-05
       238    5.083517E-06
       239    2.879588E-05
       240   -2.885299E-05
       241   -3.529960E-03
       242    1.935949E-04
       243   -2.361055E-04
       244    1.834729E-04
       245    5.263265E-05
       246   -8.596284E-05
       247   -9.738111E-05
       248   -1.336466E-03
       249    1.591643E-06
       250   -4.622725E-07
       251   -4.752621E-04
       252   -1.041439E-06
       253   -2.599626E-07
       254    5.461676E-04
       255   -1.093974E-06
       256    8.801663E-07
       257    9.146332E-05
       258    7.531341E-06
       259   -3.628602E-05
       260   -5.325054E-05
       261    6.271336E-04
       262   -9.060309E-08
       263   -2.397188E-06
       264    3.204030E-03
       265    1.865357E-04
       266    2.555490E-05
       267    3.039950E-03
       268    3.585783E-05
       269    6.423064E-05
       270   -3.611139E-04
       271    3.680442E-07
       272   -3.223355E-06
       273   -3.203921E-03
       274   -1.597569E-04
       275   -2.599276E-05
       276   -3.022333E-03
       277   -1.947269E-05
       278   -3.993330E-05
       279    6.250548E-04
       280   -1.830298E-06
       281   -3.346664E-07
       282   -3.033035E-03
       283   -4.054573E-04
       284    8.432448E-05
       285   -1.191529E-03
       286    2.184382E-05
       287    3.830360E-05
       288   -8.453074E-04
       289    2.093608E-06
       290   -7.441322E-07
       291    3.033080E-03
       292    4.200374E-04
       293    1.708207E-05
       294    1.187935E-03
       295   -3.243864E-07
       296   -7.738578E-07
       297    1.636596E-06
       298   -3.365898E-06
       299   -7.193222E-05
       300    7.037260E-05
       301   -2.835150E-06
       302    1.551634E-05
       303   -5.676402E-07
       304   -1.212431E-06
       305    1.359372E-05
       306   -8.801299E-07
       307    1.119979E-05
       308   -2.660691E-04
       309    1.672549E-07
       310   -1.804502E-07
       311    2.230621E-07
       312   -4.261191E-08
       313   -2.526422E-05
       314   -1.334478E-07
       315   -1.102865E-02
       316    7.048023E-07
       317   -1.431512E-07
       318   -5.616511E-07
       319   -7.681178E-05
       320   -3.058399E-07
       321   -3.221911E-02
       322   -6.025789E-06
       323    1.065238E-05
       324   -4.626596E-06
       325   -3.111054E-05
       326    2.294965E-06
       327   -7.933903E-04
       328    1.622972E-08
       329    1.915934E-07
       330   -5.967094E-09
       331   -2.340803E-08
       332    6.802233E-06
       333   -1.753565E-08
       334    1.633577E-09
       335   -7.059283E-06
       336    2.554135E-08
       337    1.876191E-03
       338    4.821419E-07
       339    1.089274E-06
       340   -3.804157E-07
       341   -1.421448E-05
       342    7.760520E-05
       343   -2.952676E-05
       344   -6.444350E-04
       345   -2.084257E-05
       346   -3.002569E-01
       347   -5.914961E-04
       348   -1.661274E-05
       349   -2.753624E-01
       350   -4.031215E-04
       351   -4.215335E-05
       352   -2.039911E-01
       353   -6.552789E-05
       354    3.461273E-07
       355   -2.883449E-02
       356   -6.284196E-06
       357    4.060693E-07
       358    5.878127E-06
       359    5.035054E-06
       360   -1.620675E-03
       361    2.458874E-03
       362   -1.915221E-05
       363    7.029232E-07
       364    1.844929E-05
       365    1.653183E-05
       366   -5.194054E-03
       367    8.276434E-03
       368   -1.314055E-05
       369   -1.064037E-06
       370    1.420459E-05
       371    6.614898E-06
       372   -4.585663E-03
       373    6.619531E-03
       374    1.973065E-07
       375   -3.300186E-08
       376    4.591885E-04
       377   -1.335439E-06
       378    3.030877E-06
       379    5.925908E-05
       380    1.070725E-06
       381   -2.986601E-06
       382   -6.753251E-04
       383    8.155176E-04
       384   -4.116221E-08
       385   -3.106026E-08
       386   -9.310325E-07
       387    1.064377E-05
       388   -8.957968E-05
       389    6.646962E-06
       390    6.497701E-04
       391   -2.325804E-05
       392    3.002617E-01
       393    5.963755E-04
       394   -1.905837E-05
       395    2.753666E-01
       396    4.031280E-04
       397   -2.873890E-05
       398    2.039971E-01
       399    6.496947E-05
       400   -1.812106E-06
       401    2.883597E-02
       402    6.224596E-06
       403   -4.170470E-07
       404   -5.807549E-06
       405    5.094145E-06
       406    1.620686E-03
       407    2.458893E-03
       408    1.885698E-05
       409   -1.633606E-07
       410   -1.869362E-05
       411    1.738702E-05
       412    5.194206E-03
       413    8.276588E-03
       414    1.055245E-05
       415    5.042142E-06
       416   -1.559459E-05
       417    9.596892E-06
       418    4.585873E-03
       419    6.620208E-03
       420   -2.772643E-07
       421   -3.034082E-08
       422   -4.591946E-04
       423    1.345823E-06
       424    3.060970E-06
       425   -5.926082E-05
       426   -9.738336E-07
       427   -3.020263E-06
       428    6.753350E-04
       429    8.155310E-04
       430    7.319533E-08
       431    1.698372E-07
       432   -1.638158E-07
       433    7.892180E-08
       434    2.872296E-05
       435   -3.729072E-05
       436    1.814419E-06
       437    3.225287E-04
       438    9.590613E-06
       439    1.265171E-06
       440    4.505230E-04
       441    9.193354E-06
       442    1.283884E-05
       443    6.420807E-04
       444    7.490186E-06
       445   -5.368343E-08
       446    4.753566E-08
       447    6.147773E-09
       448   -6.891609E-06
       449   -6.230453E-08
       450   -1.074028E-04
       451   -2.264136E-07
       452   -1.896444E-08
       453    2.453780E-07
       454    4.247616E-05
       455   -2.465130E-07
       456   -1.834936E-04
       457   -5.796100E-06
       458    4.952565E-07
       459    5.300844E-06
       460    2.426529E-04
       461   -6.459292E-07
       462    4.120982E-04
       463    8.999143E-09
       464    1.818868E-06
       465   -5.318067E-08
       466   -3.097817E-09
       467    5.009461E-06
       468    5.106764E-08
       469   -8.975800E-09
       470   -7.449728E-06
       471    2.028172E-08
       472    4.578649E-05
       473   -4.909648E-06
       474   -2.874644E-04
       475   -9.658919E-04
       476    2.691594E-05
       477    4.421689E-05
       478   -1.388867E-04
       479   -6.090158E-05
       480    3.104989E-04
       481   -5.709086E-04
       482    6.827966E-06
       483    2.919210E-04
       484    9.793146E-04
       485   -2.733431E-05
       486    4.475961E-05
       487    1.396394E-04
       488    6.647150E-05
       489    3.172835E-04
       490    5.698188E-04
 Sym= X
 Ene= 0.810097
 Spin= Alpha
 Occup= 0.810097
         1   -2.414714E-05
         2   -5.696500E-05
         3    1.487853E-04
         4    1.029864E-04
         5   -4.090806E-02
         6    2.625704E-03
         7    2.403317E-04
         8    6.299319E-05
         9    1.072945E-01
        10    5.240385E-04
        11   -1.527461E-05
        12    1.071479E-01
        13   -2.246732E-02
        14    2.011271E-02
        15    4.975950E-02
        16    1.074939E-05
        17   -3.355063E-06
        18   -7.394329E-06
        19    1.808817E-06
        20    3.215002E-05
        21    4.667327E-05
        22   -8.497159E-05
        23    1.941412E-05
        24    6.555746E-05
        25    1.792118E-05
        26   -4.685665E-03
        27   -1.209744E-03
        28   -8.907565E-03
        29    9.606315E-03
        30   -6.987501E-04
        31   -1.078627E-03
        32   -9.100862E-03
        33   -2.448130E-02
        34   -2.476762E-06
        35    1.120570E-06
        36   -1.662443E-04
        37    3.909953E-06
        38    3.189882E-07
        39   -1.490460E-04
        40   -5.870283E-07
        41   -1.822391E-06
        42    3.720861E-04
        43    1.140792E-04
        44   -9.170840E-06
        45   -1.604839E-05
        46   -1.319053E-04
        47    2.519619E-03
        48   -7.902464E-02
        49   -1.061811E-02
        50   -2.754714E-05
        51   -7.521225E-07
        52   -2.732832E-02
        53    2.673732E-04
        54   -1.044676E-07
        55   -2.522935E-02
        56   -2.781735E-02
        57    6.364640E-04
        58    6.174432E-02
        59    3.513593E-05
        60    5.723144E-06
        61   -4.085907E-05
        62   -1.052655E-07