[Molden Format]
[Title]
ADC(2) - opt by CAM-B3LYP gaussian                                              
[Atoms] AU
 c     1    6 -.12588573623097E+01 -.22835126974190E+01 -.24083260376910E-01
 c     2    6 -.25578815622211E+01 0.23621577000000E-06 -.22837930855340E-01
 c     3    6 -.12588573623097E+01 0.22835131698505E+01 -.24090819281440E-01
 c     4    6 0.13318248850473E+01 0.22853065199506E+01 -.26003222127920E-01
 c     5    6 0.26868737956204E+01 0.23621577000000E-06 -.25389061134730E-01
 c     6    6 0.13318248850473E+01 -.22853060475191E+01 -.25993773497260E-01
 h     7    1 -.22974546243959E+01 -.40385977330627E+01 -.21598270512170E-01
 h     8    1 -.22974527346698E+01 0.40385982054942E+01 -.21613388321230E-01
 h     9    1 0.23510089905703E+01 0.40574312161345E+01 -.28191524989800E-01
 h    10    1 0.23510071008442E+01 -.40574307437030E+01 -.28172627728480E-01
 n    11    7 -.52726375582849E+01 0.23621577000000E-06 -.17238672323600E-01
 o    12    8 -.63813946825068E+01 0.20269261555273E+01 -.14842499587100E-01
 o    13    8 -.63813927927806E+01 -.20269275728219E+01 -.14865176300690E-01
 n    14    7 0.52430742102305E+01 0.23621577000000E-06 -.67376886081320E-01
 h    15    1 0.62051583509223E+01 0.16177513148781E+01 0.18115044628513E+00
 h    16    1 0.62051564611962E+01 -.16177527321727E+01 0.18114666683287E+00
[GTO]
    1 0
 s    6 1.00
 0.13575349682000E+05 0.60645503603591E-03
 0.20352333680000E+04 0.46979088884982E-02
 0.46322562359000E+03 0.24332477647552E-01
 0.13120019598000E+03 0.97399968307759E-01
 0.42853015891000E+02 0.30195584253780E+00
 0.15584185766000E+02 0.66233609137875E+00
 s    2 1.00
 0.62067138508000E+01 0.65595308539952E+00
 0.25764896527000E+01 0.37585633285142E+00
 s    1 1.00
 0.57696339419000E+00 0.10000000000000E+01
 s    1 1.00
 0.22972831358000E+00 0.10000000000000E+01
 s    1 1.00
 0.95164440028000E-01 0.10000000000000E+01
 s    1 1.00
 0.48475401370000E-01 0.10000000000000E+01
 p    4 1.00
 0.34697232244000E+02 0.11327220003114E-01
 0.79582622826000E+01 0.76169659202087E-01
 0.23780826883000E+01 0.30192252202676E+00
 0.81433208183000E+00 0.72785027349547E+00
 p    1 1.00
 0.28887547253000E+00 0.10000000000000E+01
 p    1 1.00
 0.10056823671000E+00 0.10000000000000E+01
 d    1 1.00
 0.10970000000000E+01 0.10000000000000E+01
 d    1 1.00
 0.31800000000000E+00 0.10000000000000E+01
 d    1 1.00
 0.90985336424000E-01 0.10000000000000E+01
 f    1 1.00
 0.76100000000000E+00 0.10000000000000E+01
 
    2 0
 s    6 1.00
 0.13575349682000E+05 0.60645503603591E-03
 0.20352333680000E+04 0.46979088884982E-02
 0.46322562359000E+03 0.24332477647552E-01
 0.13120019598000E+03 0.97399968307759E-01
 0.42853015891000E+02 0.30195584253780E+00
 0.15584185766000E+02 0.66233609137875E+00
 s    2 1.00
 0.62067138508000E+01 0.65595308539952E+00
 0.25764896527000E+01 0.37585633285142E+00
 s    1 1.00
 0.57696339419000E+00 0.10000000000000E+01
 s    1 1.00
 0.22972831358000E+00 0.10000000000000E+01
 s    1 1.00
 0.95164440028000E-01 0.10000000000000E+01
 s    1 1.00
 0.48475401370000E-01 0.10000000000000E+01
 p    4 1.00
 0.34697232244000E+02 0.11327220003114E-01
 0.79582622826000E+01 0.76169659202087E-01
 0.23780826883000E+01 0.30192252202676E+00
 0.81433208183000E+00 0.72785027349547E+00
 p    1 1.00
 0.28887547253000E+00 0.10000000000000E+01
 p    1 1.00
 0.10056823671000E+00 0.10000000000000E+01
 d    1 1.00
 0.10970000000000E+01 0.10000000000000E+01
 d    1 1.00
 0.31800000000000E+00 0.10000000000000E+01
 d    1 1.00
 0.90985336424000E-01 0.10000000000000E+01
 f    1 1.00
 0.76100000000000E+00 0.10000000000000E+01
 
    3 0
 s    6 1.00
 0.13575349682000E+05 0.60645503603591E-03
 0.20352333680000E+04 0.46979088884982E-02
 0.46322562359000E+03 0.24332477647552E-01
 0.13120019598000E+03 0.97399968307759E-01
 0.42853015891000E+02 0.30195584253780E+00
 0.15584185766000E+02 0.66233609137875E+00
 s    2 1.00
 0.62067138508000E+01 0.65595308539952E+00
 0.25764896527000E+01 0.37585633285142E+00
 s    1 1.00
 0.57696339419000E+00 0.10000000000000E+01
 s    1 1.00
 0.22972831358000E+00 0.10000000000000E+01
 s    1 1.00
 0.95164440028000E-01 0.10000000000000E+01
 s    1 1.00
 0.48475401370000E-01 0.10000000000000E+01
 p    4 1.00
 0.34697232244000E+02 0.11327220003114E-01
 0.79582622826000E+01 0.76169659202087E-01
 0.23780826883000E+01 0.30192252202676E+00
 0.81433208183000E+00 0.72785027349547E+00
 p    1 1.00
 0.28887547253000E+00 0.10000000000000E+01
 p    1 1.00
 0.10056823671000E+00 0.10000000000000E+01
 d    1 1.00
 0.10970000000000E+01 0.10000000000000E+01
 d    1 1.00
 0.31800000000000E+00 0.10000000000000E+01
 d    1 1.00
 0.90985336424000E-01 0.10000000000000E+01
 f    1 1.00
 0.76100000000000E+00 0.10000000000000E+01
 
    4 0
 s    6 1.00
 0.13575349682000E+05 0.60645503603591E-03
 0.20352333680000E+04 0.46979088884982E-02
 0.46322562359000E+03 0.24332477647552E-01
 0.13120019598000E+03 0.97399968307759E-01
 0.42853015891000E+02 0.30195584253780E+00
 0.15584185766000E+02 0.66233609137875E+00
 s    2 1.00
 0.62067138508000E+01 0.65595308539952E+00
 0.25764896527000E+01 0.37585633285142E+00
 s    1 1.00
 0.57696339419000E+00 0.10000000000000E+01
 s    1 1.00
 0.22972831358000E+00 0.10000000000000E+01
 s    1 1.00
 0.95164440028000E-01 0.10000000000000E+01
 s    1 1.00
 0.48475401370000E-01 0.10000000000000E+01
 p    4 1.00
 0.34697232244000E+02 0.11327220003114E-01
 0.79582622826000E+01 0.76169659202087E-01
 0.23780826883000E+01 0.30192252202676E+00
 0.81433208183000E+00 0.72785027349547E+00
 p    1 1.00
 0.28887547253000E+00 0.10000000000000E+01
 p    1 1.00
 0.10056823671000E+00 0.10000000000000E+01
 d    1 1.00
 0.10970000000000E+01 0.10000000000000E+01
 d    1 1.00
 0.31800000000000E+00 0.10000000000000E+01
 d    1 1.00
 0.90985336424000E-01 0.10000000000000E+01
 f    1 1.00
 0.76100000000000E+00 0.10000000000000E+01
 
    5 0
 s    6 1.00
 0.13575349682000E+05 0.60645503603591E-03
 0.20352333680000E+04 0.46979088884982E-02
 0.46322562359000E+03 0.24332477647552E-01
 0.13120019598000E+03 0.97399968307759E-01
 0.42853015891000E+02 0.30195584253780E+00
 0.15584185766000E+02 0.66233609137875E+00
 s    2 1.00
 0.62067138508000E+01 0.65595308539952E+00
 0.25764896527000E+01 0.37585633285142E+00
 s    1 1.00
 0.57696339419000E+00 0.10000000000000E+01
 s    1 1.00
 0.22972831358000E+00 0.10000000000000E+01
 s    1 1.00
 0.95164440028000E-01 0.10000000000000E+01
 s    1 1.00
 0.48475401370000E-01 0.10000000000000E+01
 p    4 1.00
 0.34697232244000E+02 0.11327220003114E-01
 0.79582622826000E+01 0.76169659202087E-01
 0.23780826883000E+01 0.30192252202676E+00
 0.81433208183000E+00 0.72785027349547E+00
 p    1 1.00
 0.28887547253000E+00 0.10000000000000E+01
 p    1 1.00
 0.10056823671000E+00 0.10000000000000E+01
 d    1 1.00
 0.10970000000000E+01 0.10000000000000E+01
 d    1 1.00
 0.31800000000000E+00 0.10000000000000E+01
 d    1 1.00
 0.90985336424000E-01 0.10000000000000E+01
 f    1 1.00
 0.76100000000000E+00 0.10000000000000E+01
 
    6 0
 s    6 1.00
 0.13575349682000E+05 0.60645503603591E-03
 0.20352333680000E+04 0.46979088884982E-02
 0.46322562359000E+03 0.24332477647552E-01
 0.13120019598000E+03 0.97399968307759E-01
 0.42853015891000E+02 0.30195584253780E+00
 0.15584185766000E+02 0.66233609137875E+00
 s    2 1.00
 0.62067138508000E+01 0.65595308539952E+00
 0.25764896527000E+01 0.37585633285142E+00
 s    1 1.00
 0.57696339419000E+00 0.10000000000000E+01
 s    1 1.00
 0.22972831358000E+00 0.10000000000000E+01
 s    1 1.00
 0.95164440028000E-01 0.10000000000000E+01
 s    1 1.00
 0.48475401370000E-01 0.10000000000000E+01
 p    4 1.00
 0.34697232244000E+02 0.11327220003114E-01
 0.79582622826000E+01 0.76169659202087E-01
 0.23780826883000E+01 0.30192252202676E+00
 0.81433208183000E+00 0.72785027349547E+00
 p    1 1.00
 0.28887547253000E+00 0.10000000000000E+01
 p    1 1.00
 0.10056823671000E+00 0.10000000000000E+01
 d    1 1.00
 0.10970000000000E+01 0.10000000000000E+01
 d    1 1.00
 0.31800000000000E+00 0.10000000000000E+01
 d    1 1.00
 0.90985336424000E-01 0.10000000000000E+01
 f    1 1.00
 0.76100000000000E+00 0.10000000000000E+01
 
    7 0
 s    3 1.00
 0.34061341000000E+02 0.25439307208879E-01
 0.51235746000000E+01 0.19008594890375E+00
 0.11646626000000E+01 0.85244113011042E+00
 s    1 1.00
 0.32723041000000E+00 0.10000000000000E+01
 s    1 1.00
 0.10307241000000E+00 0.10000000000000E+01
 p    1 1.00
 0.80000000000000E+00 0.10000000000000E+01
 p    1 1.00
 0.95774129632000E-01 0.10000000000000E+01
 
    8 0
 s    3 1.00
 0.34061341000000E+02 0.25439307208879E-01
 0.51235746000000E+01 0.19008594890375E+00
 0.11646626000000E+01 0.85244113011042E+00
 s    1 1.00
 0.32723041000000E+00 0.10000000000000E+01
 s    1 1.00
 0.10307241000000E+00 0.10000000000000E+01
 p    1 1.00
 0.80000000000000E+00 0.10000000000000E+01
 p    1 1.00
 0.95774129632000E-01 0.10000000000000E+01
 
    9 0
 s    3 1.00
 0.34061341000000E+02 0.25439307208879E-01
 0.51235746000000E+01 0.19008594890375E+00
 0.11646626000000E+01 0.85244113011042E+00
 s    1 1.00
 0.32723041000000E+00 0.10000000000000E+01
 s    1 1.00
 0.10307241000000E+00 0.10000000000000E+01
 p    1 1.00
 0.80000000000000E+00 0.10000000000000E+01
 p    1 1.00
 0.95774129632000E-01 0.10000000000000E+01
 
   10 0
 s    3 1.00
 0.34061341000000E+02 0.25439307208879E-01
 0.51235746000000E+01 0.19008594890375E+00
 0.11646626000000E+01 0.85244113011042E+00
 s    1 1.00
 0.32723041000000E+00 0.10000000000000E+01
 s    1 1.00
 0.10307241000000E+00 0.10000000000000E+01
 p    1 1.00
 0.80000000000000E+00 0.10000000000000E+01
 p    1 1.00
 0.95774129632000E-01 0.10000000000000E+01
 
   11 0
 s    6 1.00
 0.19730800647000E+05 0.58626402628763E-03
 0.29578958745000E+04 0.45428820586397E-02
 0.67322133595000E+03 0.23558413450084E-01
 0.19068249494000E+03 0.94709193292923E-01
 0.62295441898000E+02 0.29719784913376E+00
 0.22654161182000E+02 0.66916246895232E+00
 s    2 1.00
 0.89791477428000E+01 0.64596683630063E+00
 0.36863002370000E+01 0.38700574393705E+00
 s    1 1.00
 0.84660076805000E+00 0.10000000000000E+01
 s    1 1.00
 0.33647133771000E+00 0.10000000000000E+01
 s    1 1.00
 0.13647653675000E+00 0.10000000000000E+01
 s    1 1.00
 0.68441605847000E-01 0.10000000000000E+01
 p    4 1.00
 0.49200380510000E+02 0.11448825101764E-01
 0.11346790537000E+02 0.78422337970864E-01
 0.34273972411000E+01 0.30818094738830E+00
 0.11785525134000E+01 0.72027196368413E+00
 p    1 1.00
 0.41642204972000E+00 0.10000000000000E+01
 p    1 1.00
 0.14260826011000E+00 0.10000000000000E+01
 d    1 1.00
 0.16540000000000E+01 0.10000000000000E+01
 d    1 1.00
 0.46900000000000E+00 0.10000000000000E+01
 d    1 1.00
 0.12829642058000E+00 0.10000000000000E+01
 f    1 1.00
 0.10930000000000E+01 0.10000000000000E+01
 
   12 0
 s    6 1.00
 0.27032382631000E+05 0.57227335211155E-03
 0.40523871392000E+04 0.44353233492995E-02
 0.92232722710000E+03 0.23020107706038E-01
 0.26124070989000E+03 0.92822490667928E-01
 0.85354641351000E+02 0.29378500009671E+00
 0.31035035245000E+02 0.67401604501641E+00
 s    2 1.00
 0.12260860728000E+02 0.63839937025506E+00
 0.49987076005000E+01 0.39534587125718E+00
 s    1 1.00
 0.11703108158000E+01 0.10000000000000E+01
 s    1 1.00
 0.46474740994000E+00 0.10000000000000E+01
 s    1 1.00
 0.18504536357000E+00 0.10000000000000E+01
 s    1 1.00
 0.70288026270000E-01 0.10000000000000E+01
 p    4 1.00
 0.63274954801000E+02 0.12018332222616E-01
 0.14627049379000E+02 0.83005421790056E-01
 0.44501223456000E+01 0.31991743925964E+00
 0.15275799647000E+01 0.70715542916104E+00
 p    1 1.00
 0.52935117943000E+00 0.10000000000000E+01
 p    1 1.00
 0.17478421270000E+00 0.10000000000000E+01
 p    1 1.00
 0.51112745706000E-01 0.10000000000000E+01
 d    1 1.00
 0.23140000000000E+01 0.10000000000000E+01
 d    1 1.00
 0.64500000000000E+00 0.10000000000000E+01
 d    1 1.00
 0.14696477366000E+00 0.10000000000000E+01
 f    1 1.00
 0.14280000000000E+01 0.10000000000000E+01
 
   13 0
 s    6 1.00
 0.27032382631000E+05 0.57227335211155E-03
 0.40523871392000E+04 0.44353233492995E-02
 0.92232722710000E+03 0.23020107706038E-01
 0.26124070989000E+03 0.92822490667928E-01
 0.85354641351000E+02 0.29378500009671E+00
 0.31035035245000E+02 0.67401604501641E+00
 s    2 1.00
 0.12260860728000E+02 0.63839937025506E+00
 0.49987076005000E+01 0.39534587125718E+00
 s    1 1.00
 0.11703108158000E+01 0.10000000000000E+01
 s    1 1.00
 0.46474740994000E+00 0.10000000000000E+01
 s    1 1.00
 0.18504536357000E+00 0.10000000000000E+01
 s    1 1.00
 0.70288026270000E-01 0.10000000000000E+01
 p    4 1.00
 0.63274954801000E+02 0.12018332222616E-01
 0.14627049379000E+02 0.83005421790056E-01
 0.44501223456000E+01 0.31991743925964E+00
 0.15275799647000E+01 0.70715542916104E+00
 p    1 1.00
 0.52935117943000E+00 0.10000000000000E+01
 p    1 1.00
 0.17478421270000E+00 0.10000000000000E+01
 p    1 1.00
 0.51112745706000E-01 0.10000000000000E+01
 d    1 1.00
 0.23140000000000E+01 0.10000000000000E+01
 d    1 1.00
 0.64500000000000E+00 0.10000000000000E+01
 d    1 1.00
 0.14696477366000E+00 0.10000000000000E+01
 f    1 1.00
 0.14280000000000E+01 0.10000000000000E+01
 
   14 0
 s    6 1.00
 0.19730800647000E+05 0.58626402628763E-03
 0.29578958745000E+04 0.45428820586397E-02
 0.67322133595000E+03 0.23558413450084E-01
 0.19068249494000E+03 0.94709193292923E-01
 0.62295441898000E+02 0.29719784913376E+00
 0.22654161182000E+02 0.66916246895232E+00
 s    2 1.00
 0.89791477428000E+01 0.64596683630063E+00
 0.36863002370000E+01 0.38700574393705E+00
 s    1 1.00
 0.84660076805000E+00 0.10000000000000E+01
 s    1 1.00
 0.33647133771000E+00 0.10000000000000E+01
 s    1 1.00
 0.13647653675000E+00 0.10000000000000E+01
 s    1 1.00
 0.68441605847000E-01 0.10000000000000E+01
 p    4 1.00
 0.49200380510000E+02 0.11448825101764E-01
 0.11346790537000E+02 0.78422337970864E-01
 0.34273972411000E+01 0.30818094738830E+00
 0.11785525134000E+01 0.72027196368413E+00
 p    1 1.00
 0.41642204972000E+00 0.10000000000000E+01
 p    1 1.00
 0.14260826011000E+00 0.10000000000000E+01
 d    1 1.00
 0.16540000000000E+01 0.10000000000000E+01
 d    1 1.00
 0.46900000000000E+00 0.10000000000000E+01
 d    1 1.00
 0.12829642058000E+00 0.10000000000000E+01
 f    1 1.00
 0.10930000000000E+01 0.10000000000000E+01
 
   15 0
 s    3 1.00
 0.34061341000000E+02 0.25439307208879E-01
 0.51235746000000E+01 0.19008594890375E+00
 0.11646626000000E+01 0.85244113011042E+00
 s    1 1.00
 0.32723041000000E+00 0.10000000000000E+01
 s    1 1.00
 0.10307241000000E+00 0.10000000000000E+01
 p    1 1.00
 0.80000000000000E+00 0.10000000000000E+01
 p    1 1.00
 0.95774129632000E-01 0.10000000000000E+01
 
   16 0
 s    3 1.00
 0.34061341000000E+02 0.25439307208879E-01
 0.51235746000000E+01 0.19008594890375E+00
 0.11646626000000E+01 0.85244113011042E+00
 s    1 1.00
 0.32723041000000E+00 0.10000000000000E+01
 s    1 1.00
 0.10307241000000E+00 0.10000000000000E+01
 p    1 1.00
 0.80000000000000E+00 0.10000000000000E+01
 p    1 1.00
 0.95774129632000E-01 0.10000000000000E+01
 
[MO]
 Sym= X
 Ene= -0.907793
 Spin= Alpha
 Occup= -0.907793
         1    1.803072E-04
         2    4.187182E-04
         3   -1.139511E-03
         4    2.296098E-03
         5    1.030201E-02
         6    1.063726E-02
         7   -1.510916E-03
         8   -1.758336E-04
         9   -1.953115E-02
        10    2.304598E-03
        11   -3.832965E-04
        12   -1.768007E-02
        13    3.372142E-02
        14   -8.874654E-03
        15   -6.411365E-04
        16   -2.144583E-06
        17    1.202930E-05
        18   -9.884722E-06
        19    1.470392E-05
        20    6.213987E-03
        21   -3.664031E-03
        22    6.180679E-04
        23   -3.772117E-04
        24   -2.408562E-04
        25    6.889732E-04
        26    1.400292E-02
        27   -6.943497E-03
        28    4.805140E-03
        29   -4.478670E-03
        30   -3.264700E-04
        31   -1.186120E-03
        32   -1.789006E-03
        33    1.106692E-02
        34    1.792579E-05
        35   -6.935469E-06
        36    7.198576E-05
        37   -6.593381E-06
        38    7.307127E-06
        39    7.076256E-04
        40   -1.745659E-05
        41    1.997781E-06
        42   -8.042046E-04
        43    6.712143E-04
        44   -7.512980E-06
        45   -1.524551E-05
        46   -1.985289E-04
        47    2.620015E-03
        48    4.703738E-02
        49   -5.435419E-03
        50   -3.880950E-04
        51   -6.724183E-06
        52   -1.948613E-01
        53    4.236479E-04
        54   -2.743914E-05
        55   -2.023303E-01
        56    1.596343E-02
        57    1.699169E-03
        58   -2.005803E-01
        59   -3.309528E-05
        60    3.026039E-05
        61    2.834890E-06
        62   -3.762886E-07
        63    9.041858E-04
        64   -4.577544E-07
        65   -3.614238E-04
        66    5.988308E-04
        67   -2.374070E-04
        68   -4.607040E-06
        69    3.735651E-03
        70   -4.450861E-07
        71   -8.761952E-03
        72    9.782820E-03
        73   -1.020868E-03
        74    2.895910E-04
        75   -4.746479E-03
        76    2.848781E-05
        77   -7.179030E-06
        78   -9.063122E-08
        79    1.081343E-03
        80    6.605729E-06
        81   -1.058375E-08
        82   -6.668386E-04
        83    3.025951E-06
        84    1.321783E-07
        85   -7.839354E-04
        86   -3.939933E-08
        87    1.817626E-04
        88    4.221479E-04
        89   -1.155527E-03
        90    2.388039E-03
        91    7.571881E-03
        92    1.055862E-02
        93   -1.504523E-03
        94    1.809516E-04
        95   -1.954895E-02
        96    2.304694E-03
        97    3.714327E-04
        98   -1.769552E-02
        99    3.492581E-02
       100    1.064490E-02
       101   -7.380231E-04
       102   -1.710856E-06
       103    1.173435E-05
       104   -1.002349E-05
       105   -1.528250E-05
       106    6.214290E-03
       107    3.664172E-03
       108    6.168969E-04
       109   -3.735294E-04
       110   -2.433675E-04
       111   -6.853094E-04
       112    1.400093E-02
       113    6.943061E-03
       114    5.137822E-03
       115   -4.844618E-03
       116   -2.932042E-04
       117    9.303926E-04
       118   -1.775233E-03
       119   -1.102188E-02
       120    1.816612E-05
       121    6.935962E-06
       122    7.204819E-05
       123   -6.916731E-06
       124   -7.335290E-06
       125    7.075785E-04
       126   -1.745568E-05
       127   -1.970280E-06
       128   -8.042412E-04
       129   -6.711483E-04
       130   -1.153398E-04
       131   -2.493206E-04
       132   -5.635946E-04
       133    1.006400E-02
       134   -2.760567E-02
       135   -1.181554E-02
       136    1.184031E-03
       137   -7.273659E-04
       138    1.517793E-01
       139    8.617383E-03
       140   -5.982039E-03
       141    1.547467E-01
       142    2.440666E-02
       143    6.674719E-03
       144    9.218253E-02
       145   -1.413267E-04
       146    1.712563E-04
       147   -2.992961E-05
       148    3.994333E-06
       149    6.187583E-04
       150   -2.811707E-03
       151   -5.708760E-04
       152    7.127209E-04
       153   -1.418449E-04
       154   -1.625941E-03
       155    3.647427E-03
       156   -4.722533E-03
       157   -7.990746E-03
       158    6.336456E-03
       159    1.654290E-03
       160    7.998569E-03
       161   -3.674754E-03
       162    1.318081E-02
       163    1.352456E-05
       164   -9.951612E-06
       165   -8.428655E-04
       166    1.886886E-05
       167   -1.557793E-05
       168    2.215066E-04
       169   -3.701397E-05
       170    2.892942E-05
       171    9.093161E-04
       172   -3.072401E-04
       173    1.102490E-03
       174    2.510927E-03
       175   -2.629858E-03
       176   -2.064260E-02
       177    1.408166E-02
       178   -8.916202E-03
       179   -8.881627E-03
       180   -1.579964E-06
       181    1.018619E-01
       182   -5.689056E-04
       183    1.661439E-05
       184    1.048513E-01
       185    2.376219E-02
       186   -1.709828E-03
       187    1.326891E-01
       188   -4.568019E-04
       189    2.557379E-04
       190    2.010640E-04
       191   -1.003364E-07
       192   -1.024151E-02
       193   -2.595710E-07
       194    1.797220E-03
       195   -3.923602E-03
       196    2.126382E-03
       197   -4.177111E-06
       198   -2.508804E-02
       199    2.647450E-06
       200    5.556431E-03
       201   -6.771646E-03
       202    1.215215E-03
       203    3.585227E-04
       204   -1.947883E-02
       205   -1.183004E-05
       206   -1.125145E-04
       207   -5.963329E-08
       208   -2.267377E-04
       209    7.869652E-05
       210    1.746032E-07
       211   -1.148880E-03
       212    7.225751E-05
       213   -9.459675E-08
       214    1.453080E-03
       215   -1.200988E-07
       216   -1.167864E-04
       217   -2.523404E-04
       218   -5.681236E-04
       219    1.016661E-02
       220   -3.060369E-02
       221   -1.184351E-02
       222    1.192249E-03
       223    7.164793E-04
       224    1.517810E-01
       225    8.617994E-03
       226    5.994929E-03
       227    1.547573E-01
       228    2.313849E-02
       229   -8.683929E-03
       230    9.209119E-02
       231   -1.412334E-04
       232    1.720455E-04
       233   -3.081217E-05
       234   -4.271947E-06
       235    6.184643E-04
       236    2.811828E-03
       237   -5.707008E-04
       238    7.150278E-04
       239   -1.443271E-04
       240    1.628808E-03
       241    3.645508E-03
       242    4.722339E-03
       243   -7.635640E-03
       244    5.965575E-03
       245    1.670065E-03
       246   -8.276881E-03
       247   -3.693957E-03
       248   -1.323624E-02
       249    1.335193E-05
       250    1.002304E-05
       251   -8.431284E-04
       252    1.923231E-05
       253    1.548686E-05
       254    2.217616E-04
       255   -3.714580E-05
       256   -2.893418E-05
       257    9.094139E-04
       258    3.072221E-04
       259    3.177952E-04
       260    1.829269E-04
       261    1.689803E-02
       262    1.202276E-05
       263   -3.344797E-06
       264   -7.589089E-04
       265    4.970568E-03
       266    3.495777E-04
       267    7.084519E-03
       268    3.184309E-04
       269    1.757554E-04
       270    1.665563E-02
       271    1.070870E-05
       272    4.344858E-06
       273   -7.599635E-04
       274    5.152732E-03
       275   -2.046180E-04
       276    7.056615E-03
       277    3.714566E-04
       278    2.199787E-03
       279   -3.234859E-02
       280    1.067000E-05
       281   -8.925374E-05
       282    6.149541E-03
       283    1.873279E-03
       284    2.515862E-03
       285   -2.535484E-03
       286    3.807334E-04
       287    2.206614E-03
       288   -3.278010E-02
       289    9.972020E-06
       290    8.971108E-05
       291    6.150065E-03
       292    1.720984E-03
       293   -2.688150E-03
       294   -2.565401E-03
       295    4.133386E-05
       296    9.538759E-05
       297   -7.507026E-05
       298   -4.096193E-04
       299    6.819447E-03
       300   -5.908982E-04
       301   -3.909800E-04
       302   -2.061158E-06
       303   -2.209124E-02
       304   -9.838738E-05
       305   -2.007575E-06
       306   -2.446903E-02
       307    2.989678E-03
       308   -2.657994E-05
       309   -9.907545E-03
       310   -1.978367E-05
       311    5.572438E-06
       312    1.421123E-05
       313    5.974852E-07
       314   -4.315144E-03
       315   -1.871193E-07
       316   -1.660739E-07
       317   -6.155508E-05
       318    6.172115E-05
       319    2.176458E-06
       320   -1.301717E-02
       321   -3.138299E-07
       322    9.617238E-04
       323   -2.691402E-03
       324    1.729678E-03
       325   -4.811150E-05
       326   -2.927090E-03
       327   -4.674751E-06
       328   -6.470807E-06
       329    1.342031E-07
       330   -2.685898E-06
       331    4.706818E-06
       332   -2.191659E-07
       333   -6.806538E-04
       334    3.974680E-06
       335    3.911353E-08
       336    6.842573E-04
       337    1.977677E-08
       338    8.475803E-06
       339    1.724006E-05
       340    1.705979E-05
       341   -4.630038E-04
       342    5.545691E-03
       343    8.269318E-04
       344    2.215565E-04
       345   -6.937631E-05
       346    7.706389E-02
       347    3.006486E-04
       348   -2.004842E-04
       349    7.149853E-02
       350    1.398265E-03
       351   -4.391652E-04
       352    5.879910E-02
       353    1.615254E-04
       354   -1.880743E-04
       355    7.427217E-03
       356   -2.990688E-06
       357    3.372791E-06
       358   -3.821028E-07
       359   -3.227418E-07
       360   -2.480869E-05
       361   -4.375240E-04
       362    1.288626E-05
       363    8.411336E-06
       364   -2.129760E-05
       365   -1.130733E-05
       366    4.632912E-04
       367   -1.475025E-03
       368    7.797939E-05
       369   -5.392091E-05
       370   -2.405848E-05
       371   -8.055470E-05
       372    6.569589E-05
       373   -2.217639E-04
       374   -7.025489E-07
       375   -1.291460E-06
       376   -5.931808E-05
       377    1.285230E-06
       378    1.041135E-07
       379   -8.147100E-05
       380   -3.426620E-07
       381    1.628562E-06
       382    1.610546E-04
       383   -1.269595E-04
       384    6.706642E-06
       385    1.296326E-05
       386    2.283085E-05
       387   -4.519141E-04
       388    5.574978E-03
       389    7.831816E-04
       390    1.827813E-04
       391    9.714048E-05
       392    7.707188E-02
       393    2.660316E-04
       394    2.243233E-04
       395    7.150623E-02
       396    1.329788E-03
       397    4.650887E-04
       398    5.879866E-02
       399    1.391626E-04
       400    1.948877E-04
       401    7.432817E-03
       402   -3.212420E-06
       403    3.696649E-06
       404   -4.842291E-07
       405    3.578457E-07
       406   -2.472856E-05
       407    4.375929E-04
       408    1.157074E-05
       409    9.365767E-06
       410   -2.093650E-05
       411    1.065158E-05
       412    4.633462E-04
       413    1.475240E-03
       414    7.710454E-05
       415   -5.436029E-05
       416   -2.274425E-05
       417    7.947037E-05
       418    6.663839E-05
       419    2.213639E-04
       420   -7.341795E-07
       421    1.388792E-06
       422   -5.933602E-05
       423    1.326254E-06
       424   -2.224358E-07
       425   -8.146838E-05
       426   -3.412491E-07
       427   -1.640825E-06
       428    1.610760E-04
       429    1.269883E-04
       430   -4.767976E-03
       431   -1.130783E-02
       432    1.755311E-02
       433    2.709576E-02
       434    2.146566E-02
       435    6.460803E-02
       436    1.668904E-02
       437   -1.018603E-05
       438   -2.666166E-01
       439    1.905690E-02
       440    5.437610E-06
       441   -2.632721E-01
       442    1.768960E-02
       443    1.567482E-04
       444   -2.137688E-01
       445    9.619246E-05
       446    1.712836E-05
       447   -1.133208E-04
       448   -2.592490E-07
       449   -5.994244E-04
       450   -3.688943E-07
       451    2.052647E-04
       452    1.495449E-03
       453   -1.700714E-03
       454    6.557090E-06
       455   -3.257165E-03
       456   -1.110798E-06
       457    1.541400E-03
       458    2.957594E-03
       459   -4.498994E-03
       460    2.636547E-05
       461   -2.021520E-03
       462   -1.128363E-05
       463    1.305058E-04
       464   -1.763390E-09
       465    1.087912E-03
       466    8.632109E-05
       467    2.094855E-08
       468   -6.160448E-04
       469   -2.614130E-04
       470   -1.858271E-08
       471   -8.435423E-04
       472   -1.625694E-08
       473   -8.840220E-03
       474   -1.692694E-02
       475   -2.834449E-02
       476    2.188106E-03
       477    1.810365E-03
       478   -1.347901E-02
       479   -1.152011E-03
       480    3.319348E-03
       481   -1.510457E-02
       482   -8.834133E-03
       483   -1.681034E-02
       484   -2.779335E-02
       485    2.182086E-03
       486   -1.799187E-03
       487   -1.348414E-02
       488   -1.217906E-03
       489   -3.234591E-03
       490   -1.512842E-02
 Sym= X
 Ene= 0.907793
 Spin= Alpha
 Occup= 0.907793
         1    7.249944E-03
         2    1.607466E-02
         3   -1.992279E-02
         4   -1.501461E-01
         5    2.187594E+00
         6    1.876989E-01
         7    1.943763E-02
         8    9.944320E-03
         9   -1.413836E-03
        10    1.215161E-01
        11    1.082012E-02
        12   -2.642861E-03
        13    1.055280E+00
        14    7.189238E-01
        15   -2.410607E-02
        16   -1.674304E-03
        17   -3.255394E-04
        18    1.999844E-03
        19    1.675132E-03
        20   -9.117302E-05
        21    1.115922E-04
        22    1.192074E-02
        23   -1.819670E-02
        24    6.275965E-03
        25    3.734882E-03
        26   -6.973651E-04
        27    2.800056E-04
        28    5.577993E-01
        29   -3.433360E-01
        30   -2.144633E-01
        31    3.684846E-01
        32    4.504099E-03
        33   -1.430578E-02
        34    8.288929E-05
        35    1.147000E-04
        36   -9.516444E-06
        37    5.879810E-04
        38    3.358650E-05
        39   -1.617442E-05
        40   -6.991887E-04
        41   -1.874727E-04
        42    2.894207E-05
        43   -1.494422E-05
        44    7.770291E-03
        45    1.700700E-02
        46   -9.891820E-03
        47   -2.454128E-01
        48   -2.223627E-01
        49    1.272063E+00
        50    6.991165E-03
        51   -2.359216E-06
        52    4.108035E-03
        53    8.852014E-02
        54    8.942364E-05
        55    2.255702E-03
        56    1.118992E+00
        57    7.258224E-03
        58    6.059556E-02
        59    1.498560E-03
        60   -3.869923E-03
        61    2.371364E-03
        62    1.955749E-07