[Molden Format]
[Title]
ADC(2) - opt by CAM-B3LYP gaussian                                              
[Atoms] AU
 c     1    6 -.12588573623097E+01 -.22835126974190E+01 -.24083260376910E-01
 c     2    6 -.25578815622211E+01 0.23621577000000E-06 -.22837930855340E-01
 c     3    6 -.12588573623097E+01 0.22835131698505E+01 -.24090819281440E-01
 c     4    6 0.13318248850473E+01 0.22853065199506E+01 -.26003222127920E-01
 c     5    6 0.26868737956204E+01 0.23621577000000E-06 -.25389061134730E-01
 c     6    6 0.13318248850473E+01 -.22853060475191E+01 -.25993773497260E-01
 h     7    1 -.22974546243959E+01 -.40385977330627E+01 -.21598270512170E-01
 h     8    1 -.22974527346698E+01 0.40385982054942E+01 -.21613388321230E-01
 h     9    1 0.23510089905703E+01 0.40574312161345E+01 -.28191524989800E-01
 h    10    1 0.23510071008442E+01 -.40574307437030E+01 -.28172627728480E-01
 n    11    7 -.52726375582849E+01 0.23621577000000E-06 -.17238672323600E-01
 o    12    8 -.63813946825068E+01 0.20269261555273E+01 -.14842499587100E-01
 o    13    8 -.63813927927806E+01 -.20269275728219E+01 -.14865176300690E-01
 n    14    7 0.52430742102305E+01 0.23621577000000E-06 -.67376886081320E-01
 h    15    1 0.62051583509223E+01 0.16177513148781E+01 0.18115044628513E+00
 h    16    1 0.62051564611962E+01 -.16177527321727E+01 0.18114666683287E+00
[GTO]
    1 0
 s    6 1.00
 0.13575349682000E+05 0.60645503603591E-03
 0.20352333680000E+04 0.46979088884982E-02
 0.46322562359000E+03 0.24332477647552E-01
 0.13120019598000E+03 0.97399968307759E-01
 0.42853015891000E+02 0.30195584253780E+00
 0.15584185766000E+02 0.66233609137875E+00
 s    2 1.00
 0.62067138508000E+01 0.65595308539952E+00
 0.25764896527000E+01 0.37585633285142E+00
 s    1 1.00
 0.57696339419000E+00 0.10000000000000E+01
 s    1 1.00
 0.22972831358000E+00 0.10000000000000E+01
 s    1 1.00
 0.95164440028000E-01 0.10000000000000E+01
 s    1 1.00
 0.48475401370000E-01 0.10000000000000E+01
 p    4 1.00
 0.34697232244000E+02 0.11327220003114E-01
 0.79582622826000E+01 0.76169659202087E-01
 0.23780826883000E+01 0.30192252202676E+00
 0.81433208183000E+00 0.72785027349547E+00
 p    1 1.00
 0.28887547253000E+00 0.10000000000000E+01
 p    1 1.00
 0.10056823671000E+00 0.10000000000000E+01
 d    1 1.00
 0.10970000000000E+01 0.10000000000000E+01
 d    1 1.00
 0.31800000000000E+00 0.10000000000000E+01
 d    1 1.00
 0.90985336424000E-01 0.10000000000000E+01
 f    1 1.00
 0.76100000000000E+00 0.10000000000000E+01
 
    2 0
 s    6 1.00
 0.13575349682000E+05 0.60645503603591E-03
 0.20352333680000E+04 0.46979088884982E-02
 0.46322562359000E+03 0.24332477647552E-01
 0.13120019598000E+03 0.97399968307759E-01
 0.42853015891000E+02 0.30195584253780E+00
 0.15584185766000E+02 0.66233609137875E+00
 s    2 1.00
 0.62067138508000E+01 0.65595308539952E+00
 0.25764896527000E+01 0.37585633285142E+00
 s    1 1.00
 0.57696339419000E+00 0.10000000000000E+01
 s    1 1.00
 0.22972831358000E+00 0.10000000000000E+01
 s    1 1.00
 0.95164440028000E-01 0.10000000000000E+01
 s    1 1.00
 0.48475401370000E-01 0.10000000000000E+01
 p    4 1.00
 0.34697232244000E+02 0.11327220003114E-01
 0.79582622826000E+01 0.76169659202087E-01
 0.23780826883000E+01 0.30192252202676E+00
 0.81433208183000E+00 0.72785027349547E+00
 p    1 1.00
 0.28887547253000E+00 0.10000000000000E+01
 p    1 1.00
 0.10056823671000E+00 0.10000000000000E+01
 d    1 1.00
 0.10970000000000E+01 0.10000000000000E+01
 d    1 1.00
 0.31800000000000E+00 0.10000000000000E+01
 d    1 1.00
 0.90985336424000E-01 0.10000000000000E+01
 f    1 1.00
 0.76100000000000E+00 0.10000000000000E+01
 
    3 0
 s    6 1.00
 0.13575349682000E+05 0.60645503603591E-03
 0.20352333680000E+04 0.46979088884982E-02
 0.46322562359000E+03 0.24332477647552E-01
 0.13120019598000E+03 0.97399968307759E-01
 0.42853015891000E+02 0.30195584253780E+00
 0.15584185766000E+02 0.66233609137875E+00
 s    2 1.00
 0.62067138508000E+01 0.65595308539952E+00
 0.25764896527000E+01 0.37585633285142E+00
 s    1 1.00
 0.57696339419000E+00 0.10000000000000E+01
 s    1 1.00
 0.22972831358000E+00 0.10000000000000E+01
 s    1 1.00
 0.95164440028000E-01 0.10000000000000E+01
 s    1 1.00
 0.48475401370000E-01 0.10000000000000E+01
 p    4 1.00
 0.34697232244000E+02 0.11327220003114E-01
 0.79582622826000E+01 0.76169659202087E-01
 0.23780826883000E+01 0.30192252202676E+00
 0.81433208183000E+00 0.72785027349547E+00
 p    1 1.00
 0.28887547253000E+00 0.10000000000000E+01
 p    1 1.00
 0.10056823671000E+00 0.10000000000000E+01
 d    1 1.00
 0.10970000000000E+01 0.10000000000000E+01
 d    1 1.00
 0.31800000000000E+00 0.10000000000000E+01
 d    1 1.00
 0.90985336424000E-01 0.10000000000000E+01
 f    1 1.00
 0.76100000000000E+00 0.10000000000000E+01
 
    4 0
 s    6 1.00
 0.13575349682000E+05 0.60645503603591E-03
 0.20352333680000E+04 0.46979088884982E-02
 0.46322562359000E+03 0.24332477647552E-01
 0.13120019598000E+03 0.97399968307759E-01
 0.42853015891000E+02 0.30195584253780E+00
 0.15584185766000E+02 0.66233609137875E+00
 s    2 1.00
 0.62067138508000E+01 0.65595308539952E+00
 0.25764896527000E+01 0.37585633285142E+00
 s    1 1.00
 0.57696339419000E+00 0.10000000000000E+01
 s    1 1.00
 0.22972831358000E+00 0.10000000000000E+01
 s    1 1.00
 0.95164440028000E-01 0.10000000000000E+01
 s    1 1.00
 0.48475401370000E-01 0.10000000000000E+01
 p    4 1.00
 0.34697232244000E+02 0.11327220003114E-01
 0.79582622826000E+01 0.76169659202087E-01
 0.23780826883000E+01 0.30192252202676E+00
 0.81433208183000E+00 0.72785027349547E+00
 p    1 1.00
 0.28887547253000E+00 0.10000000000000E+01
 p    1 1.00
 0.10056823671000E+00 0.10000000000000E+01
 d    1 1.00
 0.10970000000000E+01 0.10000000000000E+01
 d    1 1.00
 0.31800000000000E+00 0.10000000000000E+01
 d    1 1.00
 0.90985336424000E-01 0.10000000000000E+01
 f    1 1.00
 0.76100000000000E+00 0.10000000000000E+01
 
    5 0
 s    6 1.00
 0.13575349682000E+05 0.60645503603591E-03
 0.20352333680000E+04 0.46979088884982E-02
 0.46322562359000E+03 0.24332477647552E-01
 0.13120019598000E+03 0.97399968307759E-01
 0.42853015891000E+02 0.30195584253780E+00
 0.15584185766000E+02 0.66233609137875E+00
 s    2 1.00
 0.62067138508000E+01 0.65595308539952E+00
 0.25764896527000E+01 0.37585633285142E+00
 s    1 1.00
 0.57696339419000E+00 0.10000000000000E+01
 s    1 1.00
 0.22972831358000E+00 0.10000000000000E+01
 s    1 1.00
 0.95164440028000E-01 0.10000000000000E+01
 s    1 1.00
 0.48475401370000E-01 0.10000000000000E+01
 p    4 1.00
 0.34697232244000E+02 0.11327220003114E-01
 0.79582622826000E+01 0.76169659202087E-01
 0.23780826883000E+01 0.30192252202676E+00
 0.81433208183000E+00 0.72785027349547E+00
 p    1 1.00
 0.28887547253000E+00 0.10000000000000E+01
 p    1 1.00
 0.10056823671000E+00 0.10000000000000E+01
 d    1 1.00
 0.10970000000000E+01 0.10000000000000E+01
 d    1 1.00
 0.31800000000000E+00 0.10000000000000E+01
 d    1 1.00
 0.90985336424000E-01 0.10000000000000E+01
 f    1 1.00
 0.76100000000000E+00 0.10000000000000E+01
 
    6 0
 s    6 1.00
 0.13575349682000E+05 0.60645503603591E-03
 0.20352333680000E+04 0.46979088884982E-02
 0.46322562359000E+03 0.24332477647552E-01
 0.13120019598000E+03 0.97399968307759E-01
 0.42853015891000E+02 0.30195584253780E+00
 0.15584185766000E+02 0.66233609137875E+00
 s    2 1.00
 0.62067138508000E+01 0.65595308539952E+00
 0.25764896527000E+01 0.37585633285142E+00
 s    1 1.00
 0.57696339419000E+00 0.10000000000000E+01
 s    1 1.00
 0.22972831358000E+00 0.10000000000000E+01
 s    1 1.00
 0.95164440028000E-01 0.10000000000000E+01
 s    1 1.00
 0.48475401370000E-01 0.10000000000000E+01
 p    4 1.00
 0.34697232244000E+02 0.11327220003114E-01
 0.79582622826000E+01 0.76169659202087E-01
 0.23780826883000E+01 0.30192252202676E+00
 0.81433208183000E+00 0.72785027349547E+00
 p    1 1.00
 0.28887547253000E+00 0.10000000000000E+01
 p    1 1.00
 0.10056823671000E+00 0.10000000000000E+01
 d    1 1.00
 0.10970000000000E+01 0.10000000000000E+01
 d    1 1.00
 0.31800000000000E+00 0.10000000000000E+01
 d    1 1.00
 0.90985336424000E-01 0.10000000000000E+01
 f    1 1.00
 0.76100000000000E+00 0.10000000000000E+01
 
    7 0
 s    3 1.00
 0.34061341000000E+02 0.25439307208879E-01
 0.51235746000000E+01 0.19008594890375E+00
 0.11646626000000E+01 0.85244113011042E+00
 s    1 1.00
 0.32723041000000E+00 0.10000000000000E+01
 s    1 1.00
 0.10307241000000E+00 0.10000000000000E+01
 p    1 1.00
 0.80000000000000E+00 0.10000000000000E+01
 p    1 1.00
 0.95774129632000E-01 0.10000000000000E+01
 
    8 0
 s    3 1.00
 0.34061341000000E+02 0.25439307208879E-01
 0.51235746000000E+01 0.19008594890375E+00
 0.11646626000000E+01 0.85244113011042E+00
 s    1 1.00
 0.32723041000000E+00 0.10000000000000E+01
 s    1 1.00
 0.10307241000000E+00 0.10000000000000E+01
 p    1 1.00
 0.80000000000000E+00 0.10000000000000E+01
 p    1 1.00
 0.95774129632000E-01 0.10000000000000E+01
 
    9 0
 s    3 1.00
 0.34061341000000E+02 0.25439307208879E-01
 0.51235746000000E+01 0.19008594890375E+00
 0.11646626000000E+01 0.85244113011042E+00
 s    1 1.00
 0.32723041000000E+00 0.10000000000000E+01
 s    1 1.00
 0.10307241000000E+00 0.10000000000000E+01
 p    1 1.00
 0.80000000000000E+00 0.10000000000000E+01
 p    1 1.00
 0.95774129632000E-01 0.10000000000000E+01
 
   10 0
 s    3 1.00
 0.34061341000000E+02 0.25439307208879E-01
 0.51235746000000E+01 0.19008594890375E+00
 0.11646626000000E+01 0.85244113011042E+00
 s    1 1.00
 0.32723041000000E+00 0.10000000000000E+01
 s    1 1.00
 0.10307241000000E+00 0.10000000000000E+01
 p    1 1.00
 0.80000000000000E+00 0.10000000000000E+01
 p    1 1.00
 0.95774129632000E-01 0.10000000000000E+01
 
   11 0
 s    6 1.00
 0.19730800647000E+05 0.58626402628763E-03
 0.29578958745000E+04 0.45428820586397E-02
 0.67322133595000E+03 0.23558413450084E-01
 0.19068249494000E+03 0.94709193292923E-01
 0.62295441898000E+02 0.29719784913376E+00
 0.22654161182000E+02 0.66916246895232E+00
 s    2 1.00
 0.89791477428000E+01 0.64596683630063E+00
 0.36863002370000E+01 0.38700574393705E+00
 s    1 1.00
 0.84660076805000E+00 0.10000000000000E+01
 s    1 1.00
 0.33647133771000E+00 0.10000000000000E+01
 s    1 1.00
 0.13647653675000E+00 0.10000000000000E+01
 s    1 1.00
 0.68441605847000E-01 0.10000000000000E+01
 p    4 1.00
 0.49200380510000E+02 0.11448825101764E-01
 0.11346790537000E+02 0.78422337970864E-01
 0.34273972411000E+01 0.30818094738830E+00
 0.11785525134000E+01 0.72027196368413E+00
 p    1 1.00
 0.41642204972000E+00 0.10000000000000E+01
 p    1 1.00
 0.14260826011000E+00 0.10000000000000E+01
 d    1 1.00
 0.16540000000000E+01 0.10000000000000E+01
 d    1 1.00
 0.46900000000000E+00 0.10000000000000E+01
 d    1 1.00
 0.12829642058000E+00 0.10000000000000E+01
 f    1 1.00
 0.10930000000000E+01 0.10000000000000E+01
 
   12 0
 s    6 1.00
 0.27032382631000E+05 0.57227335211155E-03
 0.40523871392000E+04 0.44353233492995E-02
 0.92232722710000E+03 0.23020107706038E-01
 0.26124070989000E+03 0.92822490667928E-01
 0.85354641351000E+02 0.29378500009671E+00
 0.31035035245000E+02 0.67401604501641E+00
 s    2 1.00
 0.12260860728000E+02 0.63839937025506E+00
 0.49987076005000E+01 0.39534587125718E+00
 s    1 1.00
 0.11703108158000E+01 0.10000000000000E+01
 s    1 1.00
 0.46474740994000E+00 0.10000000000000E+01
 s    1 1.00
 0.18504536357000E+00 0.10000000000000E+01
 s    1 1.00
 0.70288026270000E-01 0.10000000000000E+01
 p    4 1.00
 0.63274954801000E+02 0.12018332222616E-01
 0.14627049379000E+02 0.83005421790056E-01
 0.44501223456000E+01 0.31991743925964E+00
 0.15275799647000E+01 0.70715542916104E+00
 p    1 1.00
 0.52935117943000E+00 0.10000000000000E+01
 p    1 1.00
 0.17478421270000E+00 0.10000000000000E+01
 p    1 1.00
 0.51112745706000E-01 0.10000000000000E+01
 d    1 1.00
 0.23140000000000E+01 0.10000000000000E+01
 d    1 1.00
 0.64500000000000E+00 0.10000000000000E+01
 d    1 1.00
 0.14696477366000E+00 0.10000000000000E+01
 f    1 1.00
 0.14280000000000E+01 0.10000000000000E+01
 
   13 0
 s    6 1.00
 0.27032382631000E+05 0.57227335211155E-03
 0.40523871392000E+04 0.44353233492995E-02
 0.92232722710000E+03 0.23020107706038E-01
 0.26124070989000E+03 0.92822490667928E-01
 0.85354641351000E+02 0.29378500009671E+00
 0.31035035245000E+02 0.67401604501641E+00
 s    2 1.00
 0.12260860728000E+02 0.63839937025506E+00
 0.49987076005000E+01 0.39534587125718E+00
 s    1 1.00
 0.11703108158000E+01 0.10000000000000E+01
 s    1 1.00
 0.46474740994000E+00 0.10000000000000E+01
 s    1 1.00
 0.18504536357000E+00 0.10000000000000E+01
 s    1 1.00
 0.70288026270000E-01 0.10000000000000E+01
 p    4 1.00
 0.63274954801000E+02 0.12018332222616E-01
 0.14627049379000E+02 0.83005421790056E-01
 0.44501223456000E+01 0.31991743925964E+00
 0.15275799647000E+01 0.70715542916104E+00
 p    1 1.00
 0.52935117943000E+00 0.10000000000000E+01
 p    1 1.00
 0.17478421270000E+00 0.10000000000000E+01
 p    1 1.00
 0.51112745706000E-01 0.10000000000000E+01
 d    1 1.00
 0.23140000000000E+01 0.10000000000000E+01
 d    1 1.00
 0.64500000000000E+00 0.10000000000000E+01
 d    1 1.00
 0.14696477366000E+00 0.10000000000000E+01
 f    1 1.00
 0.14280000000000E+01 0.10000000000000E+01
 
   14 0
 s    6 1.00
 0.19730800647000E+05 0.58626402628763E-03
 0.29578958745000E+04 0.45428820586397E-02
 0.67322133595000E+03 0.23558413450084E-01
 0.19068249494000E+03 0.94709193292923E-01
 0.62295441898000E+02 0.29719784913376E+00
 0.22654161182000E+02 0.66916246895232E+00
 s    2 1.00
 0.89791477428000E+01 0.64596683630063E+00
 0.36863002370000E+01 0.38700574393705E+00
 s    1 1.00
 0.84660076805000E+00 0.10000000000000E+01
 s    1 1.00
 0.33647133771000E+00 0.10000000000000E+01
 s    1 1.00
 0.13647653675000E+00 0.10000000000000E+01
 s    1 1.00
 0.68441605847000E-01 0.10000000000000E+01
 p    4 1.00
 0.49200380510000E+02 0.11448825101764E-01
 0.11346790537000E+02 0.78422337970864E-01
 0.34273972411000E+01 0.30818094738830E+00
 0.11785525134000E+01 0.72027196368413E+00
 p    1 1.00
 0.41642204972000E+00 0.10000000000000E+01
 p    1 1.00
 0.14260826011000E+00 0.10000000000000E+01
 d    1 1.00
 0.16540000000000E+01 0.10000000000000E+01
 d    1 1.00
 0.46900000000000E+00 0.10000000000000E+01
 d    1 1.00
 0.12829642058000E+00 0.10000000000000E+01
 f    1 1.00
 0.10930000000000E+01 0.10000000000000E+01
 
   15 0
 s    3 1.00
 0.34061341000000E+02 0.25439307208879E-01
 0.51235746000000E+01 0.19008594890375E+00
 0.11646626000000E+01 0.85244113011042E+00
 s    1 1.00
 0.32723041000000E+00 0.10000000000000E+01
 s    1 1.00
 0.10307241000000E+00 0.10000000000000E+01
 p    1 1.00
 0.80000000000000E+00 0.10000000000000E+01
 p    1 1.00
 0.95774129632000E-01 0.10000000000000E+01
 
   16 0
 s    3 1.00
 0.34061341000000E+02 0.25439307208879E-01
 0.51235746000000E+01 0.19008594890375E+00
 0.11646626000000E+01 0.85244113011042E+00
 s    1 1.00
 0.32723041000000E+00 0.10000000000000E+01
 s    1 1.00
 0.10307241000000E+00 0.10000000000000E+01
 p    1 1.00
 0.80000000000000E+00 0.10000000000000E+01
 p    1 1.00
 0.95774129632000E-01 0.10000000000000E+01
 
[MO]
 Sym= X
 Ene= -0.277587
 Spin= Alpha
 Occup= -0.277587
         1    1.558749E-04
         2    3.628058E-04
         3   -1.015756E-03
         4    2.173689E-03
         5    1.125109E-02
         6    9.678672E-03
         7   -1.475796E-03
         8   -2.210439E-04
         9   -3.461436E-02
        10    2.036368E-03
        11   -3.940444E-04
        12   -3.253053E-02
        13    3.218034E-02
        14   -8.881496E-03
        15   -6.073212E-03
        16   -2.549089E-06
        17    1.295885E-05
        18   -1.040976E-05
        19    1.271706E-05
        20    6.256485E-03
        21   -4.134343E-03
        22    5.746081E-04
        23   -3.476943E-04
        24   -2.269137E-04
        25    6.239338E-04
        26    1.416489E-02
        27   -7.727216E-03
        28    4.650192E-03
        29   -4.324753E-03
        30   -3.254389E-04
        31   -1.023055E-03
        32   -1.054674E-03
        33    1.073058E-02
        34    1.651155E-05
        35   -6.567196E-06
        36    1.979947E-04
        37   -6.731826E-06
        38    6.816981E-06
        39    6.393257E-04
        40   -1.542074E-05
        41    1.993836E-06
        42   -9.049634E-04
        43    7.236327E-04
        44   -1.939377E-05
        45   -4.201668E-05
        46   -1.347597E-04
        47    2.367263E-03
        48    4.608330E-02
        49   -4.520331E-03
        50   -4.232043E-04
        51    3.397589E-06
        52   -2.170457E-01
        53    2.977182E-04
        54   -1.850686E-05
        55   -2.247569E-01
        56    1.513212E-02
        57    1.554966E-03
        58   -2.089764E-01
        59   -3.371618E-05
        60    3.077841E-05
        61    2.937763E-06
        62    2.178613E-08
        63    5.486725E-04
        64   -6.527814E-07
        65   -3.258429E-04
        66    5.464453E-04
        67   -2.206023E-04
        68   -4.021866E-06
        69    3.188738E-03
        70   -1.181775E-06
        71   -7.853626E-03
        72    8.841012E-03
        73   -9.873869E-04
        74    2.723984E-04
        75   -5.588921E-03
        76    2.676679E-05
        77   -7.389549E-06
        78   -8.485520E-08
        79    1.249973E-03
        80    5.929660E-06
        81    2.359548E-08
        82   -7.444875E-04
        83    3.984460E-06
        84    9.024971E-08
        85   -9.325271E-04
        86   -9.506663E-08
        87    1.576917E-04
        88    3.669927E-04
        89   -1.032310E-03
        90    2.257360E-03
        91    8.789452E-03
        92    9.598367E-03
        93   -1.472160E-03
        94    2.070181E-04
        95   -3.464569E-02
        96    2.033995E-03
        97    3.671951E-04
        98   -3.255957E-02
        99    3.330422E-02
       100    1.050604E-02
       101   -6.169590E-03
       102   -2.150501E-06
       103    1.266206E-05
       104   -1.051156E-05
       105   -1.239272E-05
       106    6.256390E-03
       107    4.134538E-03
       108    5.734824E-04
       109   -3.442925E-04
       110   -2.291899E-04
       111   -6.190921E-04
       112    1.416193E-02
       113    7.726432E-03
       114    4.969211E-03
       115   -4.675033E-03
       116   -2.941781E-04
       117    7.874457E-04
       118   -1.041652E-03
       119   -1.069219E-02
       120    1.673944E-05
       121    6.537781E-06
       122    1.981306E-04
       123   -7.051455E-06
       124   -6.880901E-06
       125    6.391814E-04
       126   -1.540686E-05
       127   -1.890453E-06
       128   -9.050014E-04
       129   -7.235417E-04
       130   -1.061501E-04
       131   -2.286468E-04
       132   -5.212033E-04
       133    9.240360E-03
       134   -2.767503E-02
       135   -1.061910E-02
       136    1.147761E-03
       137   -6.139419E-04
       138    1.456471E-01
       139    7.937690E-03
       140   -5.443414E-03
       141    1.486888E-01
       142    2.401950E-02
       143    5.615788E-03
       144    8.997926E-02
       145   -1.296130E-04
       146    1.566782E-04
       147   -2.706522E-05
       148    3.097128E-06
       149    1.037750E-03
       150   -2.822109E-03
       151   -5.355561E-04
       152    6.615726E-04
       153   -1.260165E-04
       154   -1.487294E-03
       155    4.378058E-03
       156   -4.800235E-03
       157   -7.390892E-03
       158    5.826885E-03
       159    1.564007E-03
       160    7.290906E-03
       161   -3.364638E-03
       162    1.215019E-02
       163    1.254684E-05
       164   -8.971250E-06
       165   -7.900501E-04
       166    1.725816E-05
       167   -1.426281E-05
       168    1.520090E-04
       169   -3.409151E-05
       170    2.629900E-05
       171    9.079544E-04
       172   -3.387707E-04
       173    9.898112E-04
       174    2.255221E-03
       175   -2.310023E-03
       176   -1.928321E-02
       177    8.488764E-03
       178   -9.238224E-03
       179   -8.050283E-03
       180   -3.817088E-06
       181    1.074279E-01
       182   -6.261951E-04
       183    1.290921E-05
       184    1.102132E-01
       185    2.065209E-02
       186   -1.615358E-03
       187    1.309220E-01
       188   -4.210897E-04
       189    2.362519E-04
       190    1.848378E-04
       191   -8.889014E-08
       192   -9.567707E-03
       193   -5.482080E-07
       194    1.606469E-03
       195   -3.575729E-03
       196    1.969260E-03
       197   -3.772300E-06
       198   -2.364711E-02
       199    2.164178E-06
       200    5.064905E-03
       201   -6.289748E-03
       202    1.224843E-03
       203    3.355767E-04
       204   -1.892012E-02
       205   -8.886956E-06
       206   -1.034494E-04
       207   -3.462275E-08
       208   -2.805491E-04
       209    7.259389E-05
       210    1.223536E-07
       211   -1.038574E-03
       212    6.619805E-05
       213   -7.590230E-08
       214    1.414970E-03
       215   -7.883073E-08
       216   -1.064330E-04
       217   -2.290673E-04
       218   -5.289747E-04
       219    9.330881E-03
       220   -3.045935E-02
       221   -1.065256E-02
       222    1.151031E-03
       223    6.108387E-04
       224    1.456642E-01
       225    7.934404E-03
       226    5.460541E-03
       227    1.487148E-01
       228    2.280206E-02
       229   -7.503050E-03
       230    8.990961E-02
       231   -1.293602E-04
       232    1.572175E-04
       233   -2.785736E-05
       234   -2.761023E-06
       235    1.037142E-03
       236    2.822250E-03
       237   -5.352479E-04
       238    6.633451E-04
       239   -1.280972E-04
       240    1.490641E-03
       241    4.375465E-03
       242    4.800281E-03
       243   -7.057149E-03
       244    5.477901E-03
       245    1.579249E-03
       246   -7.557087E-03
       247   -3.381459E-03
       248   -1.220034E-02
       249    1.239838E-05
       250    9.072207E-06
       251   -7.904141E-04
       252    1.756829E-05
       253    1.414877E-05
       254    1.523751E-04
       255   -3.420246E-05
       256   -2.632041E-05
       257    9.080767E-04
       258    3.387593E-04
       259    3.375684E-04
       260    2.282009E-04
       261    1.537109E-02
       262    1.260923E-05
       263    3.170492E-06
       264   -1.292221E-03
       265    4.583870E-03
       266    2.409893E-04
       267    6.999395E-03
       268    3.291689E-04
       269    2.083721E-04
       270    1.515517E-02
       271    1.053393E-05
       272   -1.357315E-06
       273   -1.293751E-03
       274    4.759611E-03
       275   -1.015317E-04
       276    6.975916E-03
       277    3.697317E-04
       278    2.053488E-03
       279   -2.929655E-02
       280    8.436569E-06
       281   -8.616726E-05
       282    5.972772E-03
       283    1.430481E-03
       284    2.309795E-03
       285   -1.703782E-03
       286    3.719797E-04
       287    2.050757E-03
       288   -2.971123E-02
       289    8.191826E-06
       290    8.586446E-05
       291    5.973968E-03
       292    1.286789E-03
       293   -2.473134E-03
       294   -1.730622E-03
       295    3.799727E-05
       296    8.769860E-05
       297   -6.877628E-05
       298   -3.809341E-04
       299    5.966220E-03
       300   -9.942871E-04
       301   -3.658658E-04
       302   -1.412778E-08
       303   -1.569657E-02
       304   -1.071538E-04
       305   -1.122460E-06
       306   -1.839791E-02
       307    2.579046E-03
       308   -2.207565E-05
       309   -9.647785E-03
       310   -2.010178E-05
       311    4.094698E-06
       312    1.600708E-05
       313    3.839307E-07
       314   -4.824245E-03
       315    6.368661E-07
       316   -8.398083E-06
       317   -5.747039E-05
       318    6.586847E-05
       319    1.860097E-06
       320   -1.440521E-02
       321    2.079012E-06
       322    9.506220E-04
       323   -2.515747E-03
       324    1.565125E-03
       325   -4.350352E-05
       326   -3.438166E-03
       327   -5.008665E-06
       328   -6.482874E-06
       329    6.828540E-08
       330   -4.619968E-05
       331    4.648326E-06
       332   -1.262710E-07
       333   -7.362208E-04
       334    4.049362E-06
       335    3.465649E-08
       336    7.982042E-04
       337   -1.312660E-07
       338    1.158861E-05
       339    2.517928E-05
       340    1.461789E-06
       341   -4.447633E-04
       342    5.065268E-03
       343    7.392668E-04
       344    2.133099E-04
       345   -9.151832E-05
       346    8.854900E-02
       347    2.823643E-04
       348   -2.085217E-04
       349    8.202149E-02
       350    1.340310E-03
       351   -3.824432E-04
       352    6.579963E-02
       353    1.351560E-04
       354   -1.844255E-04
       355    7.974220E-03
       356   -2.925262E-06
       357    3.604020E-06
       358   -6.787577E-07
       359   -5.457872E-07
       360    3.381304E-05
       361   -5.887105E-04
       362    1.240297E-05
       363    8.441455E-06
       364   -2.084443E-05
       365   -1.089516E-05
       366    6.890939E-04
       367   -1.927206E-03
       368    7.938638E-05
       369   -6.088725E-05
       370   -1.849913E-05
       371   -8.718378E-05
       372    2.760363E-04
       373   -3.374910E-04
       374   -7.153024E-07
       375   -1.348908E-06
       376   -8.546206E-05
       377    1.304136E-06
       378    1.114965E-07
       379   -9.019769E-05
       380   -3.444575E-07
       381    1.698253E-06
       382    2.048571E-04
       383   -1.664007E-04
       384    1.111128E-05
       385    2.404195E-05
       386    2.712001E-06
       387   -4.392724E-04
       388    5.086306E-03
       389    6.936822E-04
       390    1.882638E-04
       391    1.085094E-04
       392    8.851114E-02
       393    2.599588E-04
       394    2.223629E-04
       395    8.198722E-02
       396    1.284570E-03
       397    4.002366E-04
       398    6.576679E-02
       399    1.141660E-04
       400    1.902884E-04
       401    7.975328E-03
       402   -3.063722E-06
       403    3.798041E-06
       404   -7.343193E-07
       405    5.564939E-07
       406    3.365997E-05
       407    5.884061E-04
       408    1.148843E-05
       409    8.883837E-06
       410   -2.037227E-05
       411    1.015890E-05
       412    6.883700E-04
       413    1.926152E-03
       414    7.866119E-05
       415   -6.144499E-05
       416   -1.721620E-05
       417    8.686121E-05
       418    2.763001E-04
       419    3.359459E-04
       420   -7.306831E-07
       421    1.404563E-06
       422   -8.541211E-05
       423    1.306878E-06
       424   -1.910194E-07
       425   -9.018307E-05
       426   -3.265640E-07
       427   -1.693399E-06
       428    2.047754E-04
       429    1.663056E-04
       430   -4.369973E-03
       431   -1.036478E-02
       432    1.610111E-02
       433    2.480365E-02
       434    2.104037E-02
       435    6.221230E-02
       436    1.535807E-02
       437   -1.429978E-05
       438   -2.449103E-01
       439    1.746290E-02
       440    8.386778E-07
       441   -2.421229E-01
       442    1.527645E-02
       443    1.428165E-04
       444   -1.991019E-01
       445    8.311921E-05
       446    1.078873E-05
       447   -9.390793E-05
       448   -3.152983E-07
       449   -7.430971E-04
       450   -3.827102E-07
       451    2.090376E-04
       452    1.332445E-03
       453   -1.541482E-03
       454    5.978951E-06
       455   -3.531410E-03
       456   -1.128339E-06
       457    1.694541E-03
       458    2.474023E-03
       459   -4.168564E-03
       460    2.460800E-05
       461   -2.004373E-03
       462   -1.072960E-05
       463    1.235015E-04
       464   -1.091866E-08
       465    9.748275E-04
       466    7.705489E-05
       467    1.133910E-08
       468   -5.223464E-04
       469   -2.427495E-04
       470    3.309825E-09
       471   -7.855220E-04
       472   -1.451061E-08
       473   -8.275126E-03
       474   -1.566188E-02
       475   -2.629908E-02
       476    1.993017E-03
       477    1.657479E-03
       478   -1.246710E-02
       479   -1.418803E-03
       480    3.168001E-03
       481   -1.460761E-02
       482   -8.265609E-03
       483   -1.554933E-02
       484   -2.578739E-02
       485    1.987067E-03
       486   -1.646676E-03
       487   -1.247199E-02
       488   -1.479636E-03
       489   -3.089682E-03
       490   -1.462908E-02
 Sym= X
 Ene= -0.628870
 Spin= Alpha
 Occup= -0.628870
         1   -1.822902E-05
         2   -4.111073E-05
         3    9.979890E-05
         4   -1.390672E-04
         5   -9.949207E-03
         6   -4.890212E-04
         7   -4.012242E-05
         8   -1.605856E-04
         9   -1.883788E-01
        10   -4.431556E-04
        11   -3.973402E-05
        12   -1.888389E-01
        13    3.769741E-03
        14   -6.335437E-03
        15   -1.100338E-01
        16   -4.526059E-06
        17   -7.882302E-07
        18    5.314289E-06
        19    2.752240E-06
        20   -4.965935E-03
        21   -5.411519E-04
        22   -8.036916E-05
        23    4.650349E-05
        24    3.386567E-05
        25    1.728570E-05
        26   -9.524348E-03
        27    4.136084E-04
        28    8.139858E-04
        29   -9.590498E-04
        30    1.450640E-04
        31    4.743233E-04
        32   -2.731023E-03
        33   -5.857545E-04
        34   -3.902581E-06
        35   -1.030742E-06
        36    1.161568E-03
        37    8.910286E-07
        38    4.386075E-07
        39   -1.404819E-03
        40    4.344833E-06
        41    9.442779E-07
        42   -1.535873E-04
        43   -3.087041E-06
        44   -3.100897E-07
        45   -6.683802E-07
        46    1.972518E-06
        47   -3.037285E-05
        48    2.196710E-03
        49    1.143602E-04
        50   -6.977787E-06
        51    1.686872E-04
        52    3.188526E-06
        53   -8.016307E-06
        54    2.677056E-04
        55    1.095253E-05
        56    1.046793E-03
        57   -9.730958E-03
        58    6.083367E-05
        59    1.167032E-07
        60   -2.186449E-07
        61    1.019418E-07
        62    1.284342E-05