[Molden Format]
[Title]
ADC(2) - opt by CAM-B3LYP gaussian                                              
[Atoms] AU
 c     1    6 -.12588573623097E+01 -.22835126974190E+01 -.24083260376910E-01
 c     2    6 -.25578815622211E+01 0.23621577000000E-06 -.22837930855340E-01
 c     3    6 -.12588573623097E+01 0.22835131698505E+01 -.24090819281440E-01
 c     4    6 0.13318248850473E+01 0.22853065199506E+01 -.26003222127920E-01
 c     5    6 0.26868737956204E+01 0.23621577000000E-06 -.25389061134730E-01
 c     6    6 0.13318248850473E+01 -.22853060475191E+01 -.25993773497260E-01
 h     7    1 -.22974546243959E+01 -.40385977330627E+01 -.21598270512170E-01
 h     8    1 -.22974527346698E+01 0.40385982054942E+01 -.21613388321230E-01
 h     9    1 0.23510089905703E+01 0.40574312161345E+01 -.28191524989800E-01
 h    10    1 0.23510071008442E+01 -.40574307437030E+01 -.28172627728480E-01
 n    11    7 -.52726375582849E+01 0.23621577000000E-06 -.17238672323600E-01
 o    12    8 -.63813946825068E+01 0.20269261555273E+01 -.14842499587100E-01
 o    13    8 -.63813927927806E+01 -.20269275728219E+01 -.14865176300690E-01
 n    14    7 0.52430742102305E+01 0.23621577000000E-06 -.67376886081320E-01
 h    15    1 0.62051583509223E+01 0.16177513148781E+01 0.18115044628513E+00
 h    16    1 0.62051564611962E+01 -.16177527321727E+01 0.18114666683287E+00
[GTO]
    1 0
 s    6 1.00
 0.13575349682000E+05 0.60645503603591E-03
 0.20352333680000E+04 0.46979088884982E-02
 0.46322562359000E+03 0.24332477647552E-01
 0.13120019598000E+03 0.97399968307759E-01
 0.42853015891000E+02 0.30195584253780E+00
 0.15584185766000E+02 0.66233609137875E+00
 s    2 1.00
 0.62067138508000E+01 0.65595308539952E+00
 0.25764896527000E+01 0.37585633285142E+00
 s    1 1.00
 0.57696339419000E+00 0.10000000000000E+01
 s    1 1.00
 0.22972831358000E+00 0.10000000000000E+01
 s    1 1.00
 0.95164440028000E-01 0.10000000000000E+01
 s    1 1.00
 0.48475401370000E-01 0.10000000000000E+01
 p    4 1.00
 0.34697232244000E+02 0.11327220003114E-01
 0.79582622826000E+01 0.76169659202087E-01
 0.23780826883000E+01 0.30192252202676E+00
 0.81433208183000E+00 0.72785027349547E+00
 p    1 1.00
 0.28887547253000E+00 0.10000000000000E+01
 p    1 1.00
 0.10056823671000E+00 0.10000000000000E+01
 d    1 1.00
 0.10970000000000E+01 0.10000000000000E+01
 d    1 1.00
 0.31800000000000E+00 0.10000000000000E+01
 d    1 1.00
 0.90985336424000E-01 0.10000000000000E+01
 f    1 1.00
 0.76100000000000E+00 0.10000000000000E+01
 
    2 0
 s    6 1.00
 0.13575349682000E+05 0.60645503603591E-03
 0.20352333680000E+04 0.46979088884982E-02
 0.46322562359000E+03 0.24332477647552E-01
 0.13120019598000E+03 0.97399968307759E-01
 0.42853015891000E+02 0.30195584253780E+00
 0.15584185766000E+02 0.66233609137875E+00
 s    2 1.00
 0.62067138508000E+01 0.65595308539952E+00
 0.25764896527000E+01 0.37585633285142E+00
 s    1 1.00
 0.57696339419000E+00 0.10000000000000E+01
 s    1 1.00
 0.22972831358000E+00 0.10000000000000E+01
 s    1 1.00
 0.95164440028000E-01 0.10000000000000E+01
 s    1 1.00
 0.48475401370000E-01 0.10000000000000E+01
 p    4 1.00
 0.34697232244000E+02 0.11327220003114E-01
 0.79582622826000E+01 0.76169659202087E-01
 0.23780826883000E+01 0.30192252202676E+00
 0.81433208183000E+00 0.72785027349547E+00
 p    1 1.00
 0.28887547253000E+00 0.10000000000000E+01
 p    1 1.00
 0.10056823671000E+00 0.10000000000000E+01
 d    1 1.00
 0.10970000000000E+01 0.10000000000000E+01
 d    1 1.00
 0.31800000000000E+00 0.10000000000000E+01
 d    1 1.00
 0.90985336424000E-01 0.10000000000000E+01
 f    1 1.00
 0.76100000000000E+00 0.10000000000000E+01
 
    3 0
 s    6 1.00
 0.13575349682000E+05 0.60645503603591E-03
 0.20352333680000E+04 0.46979088884982E-02
 0.46322562359000E+03 0.24332477647552E-01
 0.13120019598000E+03 0.97399968307759E-01
 0.42853015891000E+02 0.30195584253780E+00
 0.15584185766000E+02 0.66233609137875E+00
 s    2 1.00
 0.62067138508000E+01 0.65595308539952E+00
 0.25764896527000E+01 0.37585633285142E+00
 s    1 1.00
 0.57696339419000E+00 0.10000000000000E+01
 s    1 1.00
 0.22972831358000E+00 0.10000000000000E+01
 s    1 1.00
 0.95164440028000E-01 0.10000000000000E+01
 s    1 1.00
 0.48475401370000E-01 0.10000000000000E+01
 p    4 1.00
 0.34697232244000E+02 0.11327220003114E-01
 0.79582622826000E+01 0.76169659202087E-01
 0.23780826883000E+01 0.30192252202676E+00
 0.81433208183000E+00 0.72785027349547E+00
 p    1 1.00
 0.28887547253000E+00 0.10000000000000E+01
 p    1 1.00
 0.10056823671000E+00 0.10000000000000E+01
 d    1 1.00
 0.10970000000000E+01 0.10000000000000E+01
 d    1 1.00
 0.31800000000000E+00 0.10000000000000E+01
 d    1 1.00
 0.90985336424000E-01 0.10000000000000E+01
 f    1 1.00
 0.76100000000000E+00 0.10000000000000E+01
 
    4 0
 s    6 1.00
 0.13575349682000E+05 0.60645503603591E-03
 0.20352333680000E+04 0.46979088884982E-02
 0.46322562359000E+03 0.24332477647552E-01
 0.13120019598000E+03 0.97399968307759E-01
 0.42853015891000E+02 0.30195584253780E+00
 0.15584185766000E+02 0.66233609137875E+00
 s    2 1.00
 0.62067138508000E+01 0.65595308539952E+00
 0.25764896527000E+01 0.37585633285142E+00
 s    1 1.00
 0.57696339419000E+00 0.10000000000000E+01
 s    1 1.00
 0.22972831358000E+00 0.10000000000000E+01
 s    1 1.00
 0.95164440028000E-01 0.10000000000000E+01
 s    1 1.00
 0.48475401370000E-01 0.10000000000000E+01
 p    4 1.00
 0.34697232244000E+02 0.11327220003114E-01
 0.79582622826000E+01 0.76169659202087E-01
 0.23780826883000E+01 0.30192252202676E+00
 0.81433208183000E+00 0.72785027349547E+00
 p    1 1.00
 0.28887547253000E+00 0.10000000000000E+01
 p    1 1.00
 0.10056823671000E+00 0.10000000000000E+01
 d    1 1.00
 0.10970000000000E+01 0.10000000000000E+01
 d    1 1.00
 0.31800000000000E+00 0.10000000000000E+01
 d    1 1.00
 0.90985336424000E-01 0.10000000000000E+01
 f    1 1.00
 0.76100000000000E+00 0.10000000000000E+01
 
    5 0
 s    6 1.00
 0.13575349682000E+05 0.60645503603591E-03
 0.20352333680000E+04 0.46979088884982E-02
 0.46322562359000E+03 0.24332477647552E-01
 0.13120019598000E+03 0.97399968307759E-01
 0.42853015891000E+02 0.30195584253780E+00
 0.15584185766000E+02 0.66233609137875E+00
 s    2 1.00
 0.62067138508000E+01 0.65595308539952E+00
 0.25764896527000E+01 0.37585633285142E+00
 s    1 1.00
 0.57696339419000E+00 0.10000000000000E+01
 s    1 1.00
 0.22972831358000E+00 0.10000000000000E+01
 s    1 1.00
 0.95164440028000E-01 0.10000000000000E+01
 s    1 1.00
 0.48475401370000E-01 0.10000000000000E+01
 p    4 1.00
 0.34697232244000E+02 0.11327220003114E-01
 0.79582622826000E+01 0.76169659202087E-01
 0.23780826883000E+01 0.30192252202676E+00
 0.81433208183000E+00 0.72785027349547E+00
 p    1 1.00
 0.28887547253000E+00 0.10000000000000E+01
 p    1 1.00
 0.10056823671000E+00 0.10000000000000E+01
 d    1 1.00
 0.10970000000000E+01 0.10000000000000E+01
 d    1 1.00
 0.31800000000000E+00 0.10000000000000E+01
 d    1 1.00
 0.90985336424000E-01 0.10000000000000E+01
 f    1 1.00
 0.76100000000000E+00 0.10000000000000E+01
 
    6 0
 s    6 1.00
 0.13575349682000E+05 0.60645503603591E-03
 0.20352333680000E+04 0.46979088884982E-02
 0.46322562359000E+03 0.24332477647552E-01
 0.13120019598000E+03 0.97399968307759E-01
 0.42853015891000E+02 0.30195584253780E+00
 0.15584185766000E+02 0.66233609137875E+00
 s    2 1.00
 0.62067138508000E+01 0.65595308539952E+00
 0.25764896527000E+01 0.37585633285142E+00
 s    1 1.00
 0.57696339419000E+00 0.10000000000000E+01
 s    1 1.00
 0.22972831358000E+00 0.10000000000000E+01
 s    1 1.00
 0.95164440028000E-01 0.10000000000000E+01
 s    1 1.00
 0.48475401370000E-01 0.10000000000000E+01
 p    4 1.00
 0.34697232244000E+02 0.11327220003114E-01
 0.79582622826000E+01 0.76169659202087E-01
 0.23780826883000E+01 0.30192252202676E+00
 0.81433208183000E+00 0.72785027349547E+00
 p    1 1.00
 0.28887547253000E+00 0.10000000000000E+01
 p    1 1.00
 0.10056823671000E+00 0.10000000000000E+01
 d    1 1.00
 0.10970000000000E+01 0.10000000000000E+01
 d    1 1.00
 0.31800000000000E+00 0.10000000000000E+01
 d    1 1.00
 0.90985336424000E-01 0.10000000000000E+01
 f    1 1.00
 0.76100000000000E+00 0.10000000000000E+01
 
    7 0
 s    3 1.00
 0.34061341000000E+02 0.25439307208879E-01
 0.51235746000000E+01 0.19008594890375E+00
 0.11646626000000E+01 0.85244113011042E+00
 s    1 1.00
 0.32723041000000E+00 0.10000000000000E+01
 s    1 1.00
 0.10307241000000E+00 0.10000000000000E+01
 p    1 1.00
 0.80000000000000E+00 0.10000000000000E+01
 p    1 1.00
 0.95774129632000E-01 0.10000000000000E+01
 
    8 0
 s    3 1.00
 0.34061341000000E+02 0.25439307208879E-01
 0.51235746000000E+01 0.19008594890375E+00
 0.11646626000000E+01 0.85244113011042E+00
 s    1 1.00
 0.32723041000000E+00 0.10000000000000E+01
 s    1 1.00
 0.10307241000000E+00 0.10000000000000E+01
 p    1 1.00
 0.80000000000000E+00 0.10000000000000E+01
 p    1 1.00
 0.95774129632000E-01 0.10000000000000E+01
 
    9 0
 s    3 1.00
 0.34061341000000E+02 0.25439307208879E-01
 0.51235746000000E+01 0.19008594890375E+00
 0.11646626000000E+01 0.85244113011042E+00
 s    1 1.00
 0.32723041000000E+00 0.10000000000000E+01
 s    1 1.00
 0.10307241000000E+00 0.10000000000000E+01
 p    1 1.00
 0.80000000000000E+00 0.10000000000000E+01
 p    1 1.00
 0.95774129632000E-01 0.10000000000000E+01
 
   10 0
 s    3 1.00
 0.34061341000000E+02 0.25439307208879E-01
 0.51235746000000E+01 0.19008594890375E+00
 0.11646626000000E+01 0.85244113011042E+00
 s    1 1.00
 0.32723041000000E+00 0.10000000000000E+01
 s    1 1.00
 0.10307241000000E+00 0.10000000000000E+01
 p    1 1.00
 0.80000000000000E+00 0.10000000000000E+01
 p    1 1.00
 0.95774129632000E-01 0.10000000000000E+01
 
   11 0
 s    6 1.00
 0.19730800647000E+05 0.58626402628763E-03
 0.29578958745000E+04 0.45428820586397E-02
 0.67322133595000E+03 0.23558413450084E-01
 0.19068249494000E+03 0.94709193292923E-01
 0.62295441898000E+02 0.29719784913376E+00
 0.22654161182000E+02 0.66916246895232E+00
 s    2 1.00
 0.89791477428000E+01 0.64596683630063E+00
 0.36863002370000E+01 0.38700574393705E+00
 s    1 1.00
 0.84660076805000E+00 0.10000000000000E+01
 s    1 1.00
 0.33647133771000E+00 0.10000000000000E+01
 s    1 1.00
 0.13647653675000E+00 0.10000000000000E+01
 s    1 1.00
 0.68441605847000E-01 0.10000000000000E+01
 p    4 1.00
 0.49200380510000E+02 0.11448825101764E-01
 0.11346790537000E+02 0.78422337970864E-01
 0.34273972411000E+01 0.30818094738830E+00
 0.11785525134000E+01 0.72027196368413E+00
 p    1 1.00
 0.41642204972000E+00 0.10000000000000E+01
 p    1 1.00
 0.14260826011000E+00 0.10000000000000E+01
 d    1 1.00
 0.16540000000000E+01 0.10000000000000E+01
 d    1 1.00
 0.46900000000000E+00 0.10000000000000E+01
 d    1 1.00
 0.12829642058000E+00 0.10000000000000E+01
 f    1 1.00
 0.10930000000000E+01 0.10000000000000E+01
 
   12 0
 s    6 1.00
 0.27032382631000E+05 0.57227335211155E-03
 0.40523871392000E+04 0.44353233492995E-02
 0.92232722710000E+03 0.23020107706038E-01
 0.26124070989000E+03 0.92822490667928E-01
 0.85354641351000E+02 0.29378500009671E+00
 0.31035035245000E+02 0.67401604501641E+00
 s    2 1.00
 0.12260860728000E+02 0.63839937025506E+00
 0.49987076005000E+01 0.39534587125718E+00
 s    1 1.00
 0.11703108158000E+01 0.10000000000000E+01
 s    1 1.00
 0.46474740994000E+00 0.10000000000000E+01
 s    1 1.00
 0.18504536357000E+00 0.10000000000000E+01
 s    1 1.00
 0.70288026270000E-01 0.10000000000000E+01
 p    4 1.00
 0.63274954801000E+02 0.12018332222616E-01
 0.14627049379000E+02 0.83005421790056E-01
 0.44501223456000E+01 0.31991743925964E+00
 0.15275799647000E+01 0.70715542916104E+00
 p    1 1.00
 0.52935117943000E+00 0.10000000000000E+01
 p    1 1.00
 0.17478421270000E+00 0.10000000000000E+01
 p    1 1.00
 0.51112745706000E-01 0.10000000000000E+01
 d    1 1.00
 0.23140000000000E+01 0.10000000000000E+01
 d    1 1.00
 0.64500000000000E+00 0.10000000000000E+01
 d    1 1.00
 0.14696477366000E+00 0.10000000000000E+01
 f    1 1.00
 0.14280000000000E+01 0.10000000000000E+01
 
   13 0
 s    6 1.00
 0.27032382631000E+05 0.57227335211155E-03
 0.40523871392000E+04 0.44353233492995E-02
 0.92232722710000E+03 0.23020107706038E-01
 0.26124070989000E+03 0.92822490667928E-01
 0.85354641351000E+02 0.29378500009671E+00
 0.31035035245000E+02 0.67401604501641E+00
 s    2 1.00
 0.12260860728000E+02 0.63839937025506E+00
 0.49987076005000E+01 0.39534587125718E+00
 s    1 1.00
 0.11703108158000E+01 0.10000000000000E+01
 s    1 1.00
 0.46474740994000E+00 0.10000000000000E+01
 s    1 1.00
 0.18504536357000E+00 0.10000000000000E+01
 s    1 1.00
 0.70288026270000E-01 0.10000000000000E+01
 p    4 1.00
 0.63274954801000E+02 0.12018332222616E-01
 0.14627049379000E+02 0.83005421790056E-01
 0.44501223456000E+01 0.31991743925964E+00
 0.15275799647000E+01 0.70715542916104E+00
 p    1 1.00
 0.52935117943000E+00 0.10000000000000E+01
 p    1 1.00
 0.17478421270000E+00 0.10000000000000E+01
 p    1 1.00
 0.51112745706000E-01 0.10000000000000E+01
 d    1 1.00
 0.23140000000000E+01 0.10000000000000E+01
 d    1 1.00
 0.64500000000000E+00 0.10000000000000E+01
 d    1 1.00
 0.14696477366000E+00 0.10000000000000E+01
 f    1 1.00
 0.14280000000000E+01 0.10000000000000E+01
 
   14 0
 s    6 1.00
 0.19730800647000E+05 0.58626402628763E-03
 0.29578958745000E+04 0.45428820586397E-02
 0.67322133595000E+03 0.23558413450084E-01
 0.19068249494000E+03 0.94709193292923E-01
 0.62295441898000E+02 0.29719784913376E+00
 0.22654161182000E+02 0.66916246895232E+00
 s    2 1.00
 0.89791477428000E+01 0.64596683630063E+00
 0.36863002370000E+01 0.38700574393705E+00
 s    1 1.00
 0.84660076805000E+00 0.10000000000000E+01
 s    1 1.00
 0.33647133771000E+00 0.10000000000000E+01
 s    1 1.00
 0.13647653675000E+00 0.10000000000000E+01
 s    1 1.00
 0.68441605847000E-01 0.10000000000000E+01
 p    4 1.00
 0.49200380510000E+02 0.11448825101764E-01
 0.11346790537000E+02 0.78422337970864E-01
 0.34273972411000E+01 0.30818094738830E+00
 0.11785525134000E+01 0.72027196368413E+00
 p    1 1.00
 0.41642204972000E+00 0.10000000000000E+01
 p    1 1.00
 0.14260826011000E+00 0.10000000000000E+01
 d    1 1.00
 0.16540000000000E+01 0.10000000000000E+01
 d    1 1.00
 0.46900000000000E+00 0.10000000000000E+01
 d    1 1.00
 0.12829642058000E+00 0.10000000000000E+01
 f    1 1.00
 0.10930000000000E+01 0.10000000000000E+01
 
   15 0
 s    3 1.00
 0.34061341000000E+02 0.25439307208879E-01
 0.51235746000000E+01 0.19008594890375E+00
 0.11646626000000E+01 0.85244113011042E+00
 s    1 1.00
 0.32723041000000E+00 0.10000000000000E+01
 s    1 1.00
 0.10307241000000E+00 0.10000000000000E+01
 p    1 1.00
 0.80000000000000E+00 0.10000000000000E+01
 p    1 1.00
 0.95774129632000E-01 0.10000000000000E+01
 
   16 0
 s    3 1.00
 0.34061341000000E+02 0.25439307208879E-01
 0.51235746000000E+01 0.19008594890375E+00
 0.11646626000000E+01 0.85244113011042E+00
 s    1 1.00
 0.32723041000000E+00 0.10000000000000E+01
 s    1 1.00
 0.10307241000000E+00 0.10000000000000E+01
 p    1 1.00
 0.80000000000000E+00 0.10000000000000E+01
 p    1 1.00
 0.95774129632000E-01 0.10000000000000E+01
 
[MO]
 Sym= X
 Ene= -0.289653
 Spin= Alpha
 Occup= -0.289653
         1    2.054959E-05
         2    4.648700E-05
         3   -1.186081E-04
         4    1.768792E-04
         5    9.477029E-03
         6    4.386818E-04
         7    1.058784E-04
         8    1.406825E-04
         9    1.896189E-01
        10    5.182739E-04
        11    2.752835E-05
        12    1.900820E-01
        13   -3.500803E-03
        14    6.061095E-03
        15    1.113877E-01
        16    7.370027E-06
        17   -1.845093E-06
        18   -5.524935E-06
        19   -1.560270E-06
        20    4.983766E-03
        21    5.467968E-04
        22    9.622986E-05
        23   -5.702318E-05
        24   -3.920668E-05
        25   -1.851838E-05
        26    9.475565E-03
        27   -3.932753E-04
        28   -7.767425E-04
        29    9.115529E-04
        30   -1.348104E-04
        31   -4.250593E-04
        32    2.518108E-03
        33    7.995156E-04
        34    4.060523E-06
        35    6.521607E-07
        36   -1.173986E-03
        37   -9.223064E-07
        38    4.393458E-08
        39    1.418618E-03
        40   -4.525457E-06
        41   -9.188999E-07
        42    1.564488E-04
        43   -7.875274E-07
        44   -2.654525E-06
        45   -6.009267E-06
        46    7.657640E-06
        47    4.900919E-05
        48   -2.154709E-03
        49   -1.277530E-04
        50   -2.470473E-05
        51   -1.253340E-04
        52   -5.379106E-05
        53   -1.507498E-05
        54   -1.993426E-04
        55   -6.359809E-05
        56   -1.025136E-03
        57    9.152996E-03
        58   -1.132710E-04
        59    9.936164E-07
        60   -7.198126E-07
        61   -2.738038E-07
        62   -9.545061E-06
        63    5.168055E-07
        64   -7.117009E-03
        65    1.103693E-06
        66   -2.639650E-06
        67    1.535957E-06
        68   -6.858539E-05
        69   -1.292696E-06
        70   -1.601613E-02
        71   -3.137637E-05
        72   -4.666937E-06
        73    3.604330E-05
        74    1.324623E-03
        75   -1.147213E-05
        76   -1.297576E-03
        77   -2.530298E-07
        78   -3.138061E-07
        79    4.300699E-07
        80    2.364486E-07
        81   -1.591502E-06
        82   -2.667785E-07
        83    1.030264E-07
        84    2.012517E-06
        85   -3.102208E-07
        86   -1.012764E-03
        87   -1.940910E-05
        88   -4.404847E-05
        89    1.152342E-04
        90   -2.152786E-04
        91   -5.761607E-03
        92   -2.670546E-04
        93   -9.928588E-05
        94    1.518750E-04
        95   -1.896292E-01
        96   -4.719487E-04
        97    3.346845E-05
        98   -1.900892E-01
        99    4.536134E-03
       100    4.238484E-03
       101   -1.112277E-01
       102   -7.054272E-06
       103    1.082300E-06
       104    5.971971E-06
       105   -1.388633E-06
       106   -4.981088E-03
       107    5.491119E-04
       108   -8.263038E-05
       109    4.768604E-05
       110    3.494434E-05
       111   -1.617378E-05
       112   -9.468603E-03
       113   -3.933483E-04
       114    7.297863E-04
       115   -8.109951E-04
       116    8.120878E-05
       117   -5.218338E-04
       118   -2.487816E-03
       119    7.562965E-04
       120   -3.865143E-06
       121    7.988669E-07
       122    1.174074E-03
       123    9.941277E-07
       124   -2.927586E-07
       125   -1.418437E-03
       126    4.191505E-06
       127   -7.790338E-07
       128   -1.567485E-04
       129   -1.019456E-06
       130    1.586145E-05
       131    3.758507E-05
       132   -1.365515E-04
       133    5.185598E-04
       134    9.032704E-03
       135    4.181700E-04
       136   -1.675752E-04
       137   -7.428185E-05
       138   -2.000875E-01
       139   -3.475530E-04
       140   -1.532603E-04
       141   -2.027828E-01
       142    5.056575E-03
       143   -6.370030E-03
       144   -1.293670E-01
       145    1.244261E-05
       146   -4.417709E-07
       147   -1.200084E-05
       148   -6.708782E-06
       149    4.706291E-03
       150    4.894695E-04
       151    1.279442E-04
       152   -4.055237E-05
       153   -8.739178E-05
       154   -6.642788E-05
       155    8.421195E-03
       156    7.717400E-04
       157   -2.115798E-04
       158    4.007245E-04
       159   -1.891447E-04
       160   -8.382213E-04
       161    6.675716E-04
       162    2.561212E-03
       163   -4.931509E-06
       164   -1.239766E-06
       165    1.312673E-03
       166    2.959651E-06
       167   -4.134435E-07
       168   -1.467900E-03
       169    3.656662E-06
       170    2.076764E-06
       171   -2.932353E-04
       172    4.660397E-05
       173   -8.478216E-07
       174   -1.784306E-06
       175   -2.580660E-06
       176    6.558495E-06
       177    2.747719E-03
       178    1.707607E-04
       179   -3.521775E-06
       180    7.229203E-05
       181    2.771752E-05
       182   -1.329512E-05
       183    7.106175E-05
       184    3.587137E-05
       185   -9.587948E-04
       186   -1.340441E-02
       187    4.917218E-05
       188   -2.732642E-07
       189    1.247296E-07
       190    1.485347E-07
       191    2.281401E-05
       192   -1.412856E-06
       193   -7.476526E-03
       194    5.998161E-07
       195    5.078977E-06
       196   -5.678793E-06
       197    9.021391E-05
       198   -6.402754E-06
       199   -1.554672E-02
       200    2.575824E-05
       201    3.523438E-05
       202   -6.099263E-05
       203    2.495862E-03
       204   -8.205925E-06
       205    2.790196E-03
       206    9.380924E-08
       207   -4.699323E-06
       208   -2.184431E-07
       209   -2.227500E-07
       210    3.404110E-06
       211   -4.878582E-08
       212    9.689166E-08
       213    2.900693E-06
       214    3.418579E-07
       215    1.181580E-03
       216   -1.752401E-05
       217   -4.127151E-05
       218    1.492075E-04
       219   -5.323355E-04
       220   -1.343018E-02
       221   -5.934415E-04
       222    1.652040E-04
       223   -7.232340E-05
       224    2.001487E-01
       225    3.816640E-04
       226   -1.792183E-04
       227    2.028426E-01
       228   -4.406257E-03
       229   -8.242152E-03
       230    1.292506E-01
       231   -1.237097E-05
       232    7.924628E-07
       233    1.157850E-05
       234   -6.444886E-06
       235   -4.706189E-03
       236    4.910446E-04
       237   -1.374709E-04
       238    4.369860E-05
       239    9.377228E-05
       240   -7.192196E-05
       241   -8.419891E-03
       242    7.700615E-04
       243    2.708009E-04
       244   -5.238144E-04
       245    2.530136E-04
       246   -7.601603E-04
       247   -6.478550E-04
       248    2.533942E-03
       249    5.128035E-06
       250   -1.308920E-06
       251   -1.313092E-03
       252   -3.074607E-06
       253   -6.155109E-07
       254    1.468130E-03
       255   -3.805374E-06
       256    2.371612E-06
       257    2.935677E-04
       258    4.661871E-05
       259   -1.560875E-05
       260   -3.691991E-06
       261    7.518093E-04
       262    9.685755E-06
       263    3.599628E-06
       264    7.767287E-03
       265   -5.406464E-05
       266    2.969206E-04
       267    7.601678E-03
       268    1.482332E-05
       269    2.377849E-05
       270   -1.282190E-04
       271   -8.055047E-06
       272    2.076003E-06
       273   -7.767320E-03
       274    9.624833E-05
       275    1.408328E-04
       276   -7.564888E-03
       277   -2.206442E-05
       278   -3.003323E-05
       279    1.755076E-03
       280   -1.304532E-05
       281   -1.638056E-06
       282   -8.584638E-03
       283   -4.727082E-04
       284   -1.420288E-04
       285   -9.472203E-03
       286    2.239165E-05
       287    1.720832E-05
       288   -2.178803E-03
       289    1.380236E-05
       290   -3.576789E-06
       291    8.587164E-03
       292    4.988313E-04
       293   -2.842831E-04
       294    9.464654E-03
       295   -4.807535E-07
       296   -1.139916E-06
       297    1.666715E-06
       298    3.723777E-06
       299   -1.097065E-04
       300    6.736326E-05
       301    2.084758E-05
       302    3.828693E-05
       303   -1.208106E-05
       304    1.800081E-05
       305    1.592076E-05
       306   -1.256605E-05
       307   -1.093128E-05
       308   -2.316338E-04
       309   -3.097449E-06
       310    2.144986E-06
       311   -2.376970E-06
       312    2.319839E-07
       313   -4.950716E-06
       314   -1.141081E-06
       315    6.157594E-04
       316    6.133011E-06
       317   -6.681167E-06
       318    5.481558E-07
       319   -2.409184E-05
       320   -3.652086E-06
       321    1.380531E-03
       322    4.114757E-06
       323    6.443839E-06
       324   -1.055860E-05
       325   -1.366179E-04
       326   -1.762785E-06
       327    2.072338E-03
       328   -3.574640E-08
       329   -2.737004E-07
       330    3.908817E-08
       331    1.004393E-07
       332   -5.716893E-07
       333   -2.064184E-07
       334   -5.248048E-08
       335    9.388970E-07
       336    1.539761E-07
       337   -2.785630E-04
       338   -1.244224E-06
       339   -3.163356E-06
       340    5.450640E-06
       341   -5.258905E-06
       342    1.831044E-05
       343    2.221358E-05
       344   -9.475519E-05
       345   -1.288744E-04
       346    2.366669E-02
       347   -8.690381E-05
       348   -1.161540E-04
       349    2.229015E-02
       350    2.133477E-05
       351   -4.088951E-05
       352    1.552860E-02
       353    1.145289E-06
       354   -1.734825E-06
       355   -2.342150E-04
       356   -1.378206E-06
       357    1.750483E-06
       358   -3.722767E-07
       359   -2.948899E-07
       360    4.211380E-05
       361   -1.752369E-04
       362   -1.403407E-06
       363    3.551622E-06
       364   -2.148216E-06
       365   -2.254670E-06
       366    1.849277E-04
       367   -7.608514E-04
       368    1.417620E-06
       369   -1.179513E-05
       370    1.037751E-05
       371   -4.609579E-06
       372   -4.204812E-04
       373    3.287667E-04
       374   -2.868087E-07
       375   -4.375839E-07
       376   -1.977232E-05
       377    4.332699E-07
       378    2.120165E-07
       379   -2.668622E-05
       380   -4.847567E-08
       381    3.750640E-07
       382    5.321357E-05
       383   -6.115996E-05
       384    1.599259E-06
       385    4.089300E-06
       386   -7.005359E-06
       387    1.064360E-05
       388   -5.185256E-05
       389   -5.479610E-05
       390   -1.942964E-05
       391   -1.055571E-04
       392   -2.363020E-02
       393   -1.436177E-05
       394   -9.289135E-05
       395   -2.225592E-02
       396   -9.461142E-05
       397   -3.049672E-05
       398   -1.549988E-02
       399   -1.180704E-05
       400   -3.280397E-06
       401    2.392816E-04
       402    9.982519E-07
       403   -1.666775E-06
       404    6.685230E-07
       405   -1.236014E-06
       406   -4.220363E-05
       407   -1.751444E-04
       408    1.633861E-07
       409   -2.916452E-06
       410    2.753066E-06
       411   -4.402068E-06
       412   -1.849152E-04
       413   -7.604745E-04
       414   -2.449735E-06
       415    1.165486E-05
       416   -9.205124E-06
       417   -5.060662E-06
       418    4.211997E-04
       419    3.278969E-04
       420    3.934607E-07
       421   -2.517662E-07
       422    1.976891E-05
       423   -6.384002E-07
       424   -1.366605E-07
       425    2.664690E-05
       426    1.105173E-07
       427    4.744403E-07
       428   -5.316968E-05
       429   -6.112749E-05
       430   -3.594485E-07
       431   -8.173799E-07
       432    1.015593E-06
       433    8.092319E-06
       434    1.545329E-05
       435   -6.137358E-05
       436    3.171805E-06
       437    8.201197E-04
       438   -3.334799E-05
       439    1.864394E-06
       440    1.080872E-03
       441   -3.361933E-05
       442    4.405933E-05
       443    1.381883E-03
       444   -2.411616E-05
       445   -4.408335E-09
       446    1.412744E-08
       447   -9.719109E-09
       448   -1.753859E-05
       449   -2.447850E-07
       450   -2.979245E-04
       451   -2.129626E-07
       452   -9.366116E-08
       453    3.066238E-07
       454    5.387170E-05
       455   -1.261313E-06
       456   -6.528633E-04
       457   -1.191887E-05
       458    3.617870E-06
       459    8.301004E-06
       460    6.512550E-04
       461   -2.071398E-06
       462    1.080908E-03
       463    3.091637E-08
       464    3.886625E-06
       465    1.125703E-07
       466    7.337307E-09
       467    1.350693E-05
       468   -1.897847E-08
       469   -4.881597E-08
       470   -1.872139E-05
       471   -1.320505E-07
       472    1.337228E-04
       473   -5.669359E-05
       474   -5.927777E-04
       475   -4.025143E-03
       476    6.305210E-05
       477    8.161396E-05
       478   -3.764404E-04
       479    3.100150E-04
       480    8.579826E-04
       481   -1.933641E-03
       482    5.434974E-05
       483    5.911815E-04
       484    4.001589E-03
       485   -6.292659E-05
       486    8.160799E-05
       487    3.727076E-04
       488   -2.911994E-04
       489    8.661084E-04
       490    1.926733E-03
 Sym= X
 Ene= -0.604258
 Spin= Alpha
 Occup= -0.604258
         1    1.498182E-04
         2    3.478133E-04
         3   -9.734230E-04
         4    2.114407E-03
         5    1.171215E-02
         6    9.248874E-03
         7   -1.370035E-03
         8   -1.805789E-04
         9   -3.535027E-02
        10    1.973227E-03
        11   -3.433373E-04
        12   -3.327044E-02
        13    3.102193E-02
        14   -8.720692E-03
        15   -7.057677E-03
        16   -1.263406E-06
        17    1.144658E-05
        18   -1.018318E-05
        19    9.518006E-06
        20    6.381139E-03
        21   -4.208448E-03
        22    5.533197E-04
        23   -3.327302E-04
        24   -2.205895E-04
        25    5.848735E-04
        26    1.441906E-02
        27   -7.862880E-03
        28    4.551977E-03
        29   -4.242833E-03
        30   -3.091443E-04
        31   -9.177258E-04
        32   -9.241963E-04
        33    1.012822E-02
        34    1.596937E-05
        35   -5.990141E-06
        36    2.026826E-04
        37   -6.703401E-06
        38    6.313605E-06
        39    6.476649E-04
        40   -1.472176E-05
        41    1.723013E-06
        42   -9.195920E-04
        43    7.416395E-04
        44   -2.565722E-05
        45   -5.632904E-05
        46   -9.506752E-05
        47    2.207385E-03
        48    4.512524E-02
        49   -4.177729E-03
        50   -4.246086E-04
        51   -1.018181E-06
        52   -2.216469E-01
        53    2.450338E-04
        54   -2.260715E-05
        55   -2.294079E-01
        56    1.463724E-02
        57    1.529107E-03
        58   -2.087492E-01
        59   -3.048810E-05
        60    2.839453E-05
        61    2.093571E-06
        62   -1.386256E-07