[Molden Format]
[Title]
ADC(2) - opt by CAM-B3LYP gaussian                                              
[Atoms] AU
 c     1    6 -.12588573623097E+01 -.22835126974190E+01 -.24083260376910E-01
 c     2    6 -.25578815622211E+01 0.23621577000000E-06 -.22837930855340E-01
 c     3    6 -.12588573623097E+01 0.22835131698505E+01 -.24090819281440E-01
 c     4    6 0.13318248850473E+01 0.22853065199506E+01 -.26003222127920E-01
 c     5    6 0.26868737956204E+01 0.23621577000000E-06 -.25389061134730E-01
 c     6    6 0.13318248850473E+01 -.22853060475191E+01 -.25993773497260E-01
 h     7    1 -.22974546243959E+01 -.40385977330627E+01 -.21598270512170E-01
 h     8    1 -.22974527346698E+01 0.40385982054942E+01 -.21613388321230E-01
 h     9    1 0.23510089905703E+01 0.40574312161345E+01 -.28191524989800E-01
 h    10    1 0.23510071008442E+01 -.40574307437030E+01 -.28172627728480E-01
 n    11    7 -.52726375582849E+01 0.23621577000000E-06 -.17238672323600E-01
 o    12    8 -.63813946825068E+01 0.20269261555273E+01 -.14842499587100E-01
 o    13    8 -.63813927927806E+01 -.20269275728219E+01 -.14865176300690E-01
 n    14    7 0.52430742102305E+01 0.23621577000000E-06 -.67376886081320E-01
 h    15    1 0.62051583509223E+01 0.16177513148781E+01 0.18115044628513E+00
 h    16    1 0.62051564611962E+01 -.16177527321727E+01 0.18114666683287E+00
[GTO]
    1 0
 s    6 1.00
 0.13575349682000E+05 0.60645503603591E-03
 0.20352333680000E+04 0.46979088884982E-02
 0.46322562359000E+03 0.24332477647552E-01
 0.13120019598000E+03 0.97399968307759E-01
 0.42853015891000E+02 0.30195584253780E+00
 0.15584185766000E+02 0.66233609137875E+00
 s    2 1.00
 0.62067138508000E+01 0.65595308539952E+00
 0.25764896527000E+01 0.37585633285142E+00
 s    1 1.00
 0.57696339419000E+00 0.10000000000000E+01
 s    1 1.00
 0.22972831358000E+00 0.10000000000000E+01
 s    1 1.00
 0.95164440028000E-01 0.10000000000000E+01
 s    1 1.00
 0.48475401370000E-01 0.10000000000000E+01
 p    4 1.00
 0.34697232244000E+02 0.11327220003114E-01
 0.79582622826000E+01 0.76169659202087E-01
 0.23780826883000E+01 0.30192252202676E+00
 0.81433208183000E+00 0.72785027349547E+00
 p    1 1.00
 0.28887547253000E+00 0.10000000000000E+01
 p    1 1.00
 0.10056823671000E+00 0.10000000000000E+01
 d    1 1.00
 0.10970000000000E+01 0.10000000000000E+01
 d    1 1.00
 0.31800000000000E+00 0.10000000000000E+01
 d    1 1.00
 0.90985336424000E-01 0.10000000000000E+01
 f    1 1.00
 0.76100000000000E+00 0.10000000000000E+01
 
    2 0
 s    6 1.00
 0.13575349682000E+05 0.60645503603591E-03
 0.20352333680000E+04 0.46979088884982E-02
 0.46322562359000E+03 0.24332477647552E-01
 0.13120019598000E+03 0.97399968307759E-01
 0.42853015891000E+02 0.30195584253780E+00
 0.15584185766000E+02 0.66233609137875E+00
 s    2 1.00
 0.62067138508000E+01 0.65595308539952E+00
 0.25764896527000E+01 0.37585633285142E+00
 s    1 1.00
 0.57696339419000E+00 0.10000000000000E+01
 s    1 1.00
 0.22972831358000E+00 0.10000000000000E+01
 s    1 1.00
 0.95164440028000E-01 0.10000000000000E+01
 s    1 1.00
 0.48475401370000E-01 0.10000000000000E+01
 p    4 1.00
 0.34697232244000E+02 0.11327220003114E-01
 0.79582622826000E+01 0.76169659202087E-01
 0.23780826883000E+01 0.30192252202676E+00
 0.81433208183000E+00 0.72785027349547E+00
 p    1 1.00
 0.28887547253000E+00 0.10000000000000E+01
 p    1 1.00
 0.10056823671000E+00 0.10000000000000E+01
 d    1 1.00
 0.10970000000000E+01 0.10000000000000E+01
 d    1 1.00
 0.31800000000000E+00 0.10000000000000E+01
 d    1 1.00
 0.90985336424000E-01 0.10000000000000E+01
 f    1 1.00
 0.76100000000000E+00 0.10000000000000E+01
 
    3 0
 s    6 1.00
 0.13575349682000E+05 0.60645503603591E-03
 0.20352333680000E+04 0.46979088884982E-02
 0.46322562359000E+03 0.24332477647552E-01
 0.13120019598000E+03 0.97399968307759E-01
 0.42853015891000E+02 0.30195584253780E+00
 0.15584185766000E+02 0.66233609137875E+00
 s    2 1.00
 0.62067138508000E+01 0.65595308539952E+00
 0.25764896527000E+01 0.37585633285142E+00
 s    1 1.00
 0.57696339419000E+00 0.10000000000000E+01
 s    1 1.00
 0.22972831358000E+00 0.10000000000000E+01
 s    1 1.00
 0.95164440028000E-01 0.10000000000000E+01
 s    1 1.00
 0.48475401370000E-01 0.10000000000000E+01
 p    4 1.00
 0.34697232244000E+02 0.11327220003114E-01
 0.79582622826000E+01 0.76169659202087E-01
 0.23780826883000E+01 0.30192252202676E+00
 0.81433208183000E+00 0.72785027349547E+00
 p    1 1.00
 0.28887547253000E+00 0.10000000000000E+01
 p    1 1.00
 0.10056823671000E+00 0.10000000000000E+01
 d    1 1.00
 0.10970000000000E+01 0.10000000000000E+01
 d    1 1.00
 0.31800000000000E+00 0.10000000000000E+01
 d    1 1.00
 0.90985336424000E-01 0.10000000000000E+01
 f    1 1.00
 0.76100000000000E+00 0.10000000000000E+01
 
    4 0
 s    6 1.00
 0.13575349682000E+05 0.60645503603591E-03
 0.20352333680000E+04 0.46979088884982E-02
 0.46322562359000E+03 0.24332477647552E-01
 0.13120019598000E+03 0.97399968307759E-01
 0.42853015891000E+02 0.30195584253780E+00
 0.15584185766000E+02 0.66233609137875E+00
 s    2 1.00
 0.62067138508000E+01 0.65595308539952E+00
 0.25764896527000E+01 0.37585633285142E+00
 s    1 1.00
 0.57696339419000E+00 0.10000000000000E+01
 s    1 1.00
 0.22972831358000E+00 0.10000000000000E+01
 s    1 1.00
 0.95164440028000E-01 0.10000000000000E+01
 s    1 1.00
 0.48475401370000E-01 0.10000000000000E+01
 p    4 1.00
 0.34697232244000E+02 0.11327220003114E-01
 0.79582622826000E+01 0.76169659202087E-01
 0.23780826883000E+01 0.30192252202676E+00
 0.81433208183000E+00 0.72785027349547E+00
 p    1 1.00
 0.28887547253000E+00 0.10000000000000E+01
 p    1 1.00
 0.10056823671000E+00 0.10000000000000E+01
 d    1 1.00
 0.10970000000000E+01 0.10000000000000E+01
 d    1 1.00
 0.31800000000000E+00 0.10000000000000E+01
 d    1 1.00
 0.90985336424000E-01 0.10000000000000E+01
 f    1 1.00
 0.76100000000000E+00 0.10000000000000E+01
 
    5 0
 s    6 1.00
 0.13575349682000E+05 0.60645503603591E-03
 0.20352333680000E+04 0.46979088884982E-02
 0.46322562359000E+03 0.24332477647552E-01
 0.13120019598000E+03 0.97399968307759E-01
 0.42853015891000E+02 0.30195584253780E+00
 0.15584185766000E+02 0.66233609137875E+00
 s    2 1.00
 0.62067138508000E+01 0.65595308539952E+00
 0.25764896527000E+01 0.37585633285142E+00
 s    1 1.00
 0.57696339419000E+00 0.10000000000000E+01
 s    1 1.00
 0.22972831358000E+00 0.10000000000000E+01
 s    1 1.00
 0.95164440028000E-01 0.10000000000000E+01
 s    1 1.00
 0.48475401370000E-01 0.10000000000000E+01
 p    4 1.00
 0.34697232244000E+02 0.11327220003114E-01
 0.79582622826000E+01 0.76169659202087E-01
 0.23780826883000E+01 0.30192252202676E+00
 0.81433208183000E+00 0.72785027349547E+00
 p    1 1.00
 0.28887547253000E+00 0.10000000000000E+01
 p    1 1.00
 0.10056823671000E+00 0.10000000000000E+01
 d    1 1.00
 0.10970000000000E+01 0.10000000000000E+01
 d    1 1.00
 0.31800000000000E+00 0.10000000000000E+01
 d    1 1.00
 0.90985336424000E-01 0.10000000000000E+01
 f    1 1.00
 0.76100000000000E+00 0.10000000000000E+01
 
    6 0
 s    6 1.00
 0.13575349682000E+05 0.60645503603591E-03
 0.20352333680000E+04 0.46979088884982E-02
 0.46322562359000E+03 0.24332477647552E-01
 0.13120019598000E+03 0.97399968307759E-01
 0.42853015891000E+02 0.30195584253780E+00
 0.15584185766000E+02 0.66233609137875E+00
 s    2 1.00
 0.62067138508000E+01 0.65595308539952E+00
 0.25764896527000E+01 0.37585633285142E+00
 s    1 1.00
 0.57696339419000E+00 0.10000000000000E+01
 s    1 1.00
 0.22972831358000E+00 0.10000000000000E+01
 s    1 1.00
 0.95164440028000E-01 0.10000000000000E+01
 s    1 1.00
 0.48475401370000E-01 0.10000000000000E+01
 p    4 1.00
 0.34697232244000E+02 0.11327220003114E-01
 0.79582622826000E+01 0.76169659202087E-01
 0.23780826883000E+01 0.30192252202676E+00
 0.81433208183000E+00 0.72785027349547E+00
 p    1 1.00
 0.28887547253000E+00 0.10000000000000E+01
 p    1 1.00
 0.10056823671000E+00 0.10000000000000E+01
 d    1 1.00
 0.10970000000000E+01 0.10000000000000E+01
 d    1 1.00
 0.31800000000000E+00 0.10000000000000E+01
 d    1 1.00
 0.90985336424000E-01 0.10000000000000E+01
 f    1 1.00
 0.76100000000000E+00 0.10000000000000E+01
 
    7 0
 s    3 1.00
 0.34061341000000E+02 0.25439307208879E-01
 0.51235746000000E+01 0.19008594890375E+00
 0.11646626000000E+01 0.85244113011042E+00
 s    1 1.00
 0.32723041000000E+00 0.10000000000000E+01
 s    1 1.00
 0.10307241000000E+00 0.10000000000000E+01
 p    1 1.00
 0.80000000000000E+00 0.10000000000000E+01
 p    1 1.00
 0.95774129632000E-01 0.10000000000000E+01
 
    8 0
 s    3 1.00
 0.34061341000000E+02 0.25439307208879E-01
 0.51235746000000E+01 0.19008594890375E+00
 0.11646626000000E+01 0.85244113011042E+00
 s    1 1.00
 0.32723041000000E+00 0.10000000000000E+01
 s    1 1.00
 0.10307241000000E+00 0.10000000000000E+01
 p    1 1.00
 0.80000000000000E+00 0.10000000000000E+01
 p    1 1.00
 0.95774129632000E-01 0.10000000000000E+01
 
    9 0
 s    3 1.00
 0.34061341000000E+02 0.25439307208879E-01
 0.51235746000000E+01 0.19008594890375E+00
 0.11646626000000E+01 0.85244113011042E+00
 s    1 1.00
 0.32723041000000E+00 0.10000000000000E+01
 s    1 1.00
 0.10307241000000E+00 0.10000000000000E+01
 p    1 1.00
 0.80000000000000E+00 0.10000000000000E+01
 p    1 1.00
 0.95774129632000E-01 0.10000000000000E+01
 
   10 0
 s    3 1.00
 0.34061341000000E+02 0.25439307208879E-01
 0.51235746000000E+01 0.19008594890375E+00
 0.11646626000000E+01 0.85244113011042E+00
 s    1 1.00
 0.32723041000000E+00 0.10000000000000E+01
 s    1 1.00
 0.10307241000000E+00 0.10000000000000E+01
 p    1 1.00
 0.80000000000000E+00 0.10000000000000E+01
 p    1 1.00
 0.95774129632000E-01 0.10000000000000E+01
 
   11 0
 s    6 1.00
 0.19730800647000E+05 0.58626402628763E-03
 0.29578958745000E+04 0.45428820586397E-02
 0.67322133595000E+03 0.23558413450084E-01
 0.19068249494000E+03 0.94709193292923E-01
 0.62295441898000E+02 0.29719784913376E+00
 0.22654161182000E+02 0.66916246895232E+00
 s    2 1.00
 0.89791477428000E+01 0.64596683630063E+00
 0.36863002370000E+01 0.38700574393705E+00
 s    1 1.00
 0.84660076805000E+00 0.10000000000000E+01
 s    1 1.00
 0.33647133771000E+00 0.10000000000000E+01
 s    1 1.00
 0.13647653675000E+00 0.10000000000000E+01
 s    1 1.00
 0.68441605847000E-01 0.10000000000000E+01
 p    4 1.00
 0.49200380510000E+02 0.11448825101764E-01
 0.11346790537000E+02 0.78422337970864E-01
 0.34273972411000E+01 0.30818094738830E+00
 0.11785525134000E+01 0.72027196368413E+00
 p    1 1.00
 0.41642204972000E+00 0.10000000000000E+01
 p    1 1.00
 0.14260826011000E+00 0.10000000000000E+01
 d    1 1.00
 0.16540000000000E+01 0.10000000000000E+01
 d    1 1.00
 0.46900000000000E+00 0.10000000000000E+01
 d    1 1.00
 0.12829642058000E+00 0.10000000000000E+01
 f    1 1.00
 0.10930000000000E+01 0.10000000000000E+01
 
   12 0
 s    6 1.00
 0.27032382631000E+05 0.57227335211155E-03
 0.40523871392000E+04 0.44353233492995E-02
 0.92232722710000E+03 0.23020107706038E-01
 0.26124070989000E+03 0.92822490667928E-01
 0.85354641351000E+02 0.29378500009671E+00
 0.31035035245000E+02 0.67401604501641E+00
 s    2 1.00
 0.12260860728000E+02 0.63839937025506E+00
 0.49987076005000E+01 0.39534587125718E+00
 s    1 1.00
 0.11703108158000E+01 0.10000000000000E+01
 s    1 1.00
 0.46474740994000E+00 0.10000000000000E+01
 s    1 1.00
 0.18504536357000E+00 0.10000000000000E+01
 s    1 1.00
 0.70288026270000E-01 0.10000000000000E+01
 p    4 1.00
 0.63274954801000E+02 0.12018332222616E-01
 0.14627049379000E+02 0.83005421790056E-01
 0.44501223456000E+01 0.31991743925964E+00
 0.15275799647000E+01 0.70715542916104E+00
 p    1 1.00
 0.52935117943000E+00 0.10000000000000E+01
 p    1 1.00
 0.17478421270000E+00 0.10000000000000E+01
 p    1 1.00
 0.51112745706000E-01 0.10000000000000E+01
 d    1 1.00
 0.23140000000000E+01 0.10000000000000E+01
 d    1 1.00
 0.64500000000000E+00 0.10000000000000E+01
 d    1 1.00
 0.14696477366000E+00 0.10000000000000E+01
 f    1 1.00
 0.14280000000000E+01 0.10000000000000E+01
 
   13 0
 s    6 1.00
 0.27032382631000E+05 0.57227335211155E-03
 0.40523871392000E+04 0.44353233492995E-02
 0.92232722710000E+03 0.23020107706038E-01
 0.26124070989000E+03 0.92822490667928E-01
 0.85354641351000E+02 0.29378500009671E+00
 0.31035035245000E+02 0.67401604501641E+00
 s    2 1.00
 0.12260860728000E+02 0.63839937025506E+00
 0.49987076005000E+01 0.39534587125718E+00
 s    1 1.00
 0.11703108158000E+01 0.10000000000000E+01
 s    1 1.00
 0.46474740994000E+00 0.10000000000000E+01
 s    1 1.00
 0.18504536357000E+00 0.10000000000000E+01
 s    1 1.00
 0.70288026270000E-01 0.10000000000000E+01
 p    4 1.00
 0.63274954801000E+02 0.12018332222616E-01
 0.14627049379000E+02 0.83005421790056E-01
 0.44501223456000E+01 0.31991743925964E+00
 0.15275799647000E+01 0.70715542916104E+00
 p    1 1.00
 0.52935117943000E+00 0.10000000000000E+01
 p    1 1.00
 0.17478421270000E+00 0.10000000000000E+01
 p    1 1.00
 0.51112745706000E-01 0.10000000000000E+01
 d    1 1.00
 0.23140000000000E+01 0.10000000000000E+01
 d    1 1.00
 0.64500000000000E+00 0.10000000000000E+01
 d    1 1.00
 0.14696477366000E+00 0.10000000000000E+01
 f    1 1.00
 0.14280000000000E+01 0.10000000000000E+01
 
   14 0
 s    6 1.00
 0.19730800647000E+05 0.58626402628763E-03
 0.29578958745000E+04 0.45428820586397E-02
 0.67322133595000E+03 0.23558413450084E-01
 0.19068249494000E+03 0.94709193292923E-01
 0.62295441898000E+02 0.29719784913376E+00
 0.22654161182000E+02 0.66916246895232E+00
 s    2 1.00
 0.89791477428000E+01 0.64596683630063E+00
 0.36863002370000E+01 0.38700574393705E+00
 s    1 1.00
 0.84660076805000E+00 0.10000000000000E+01
 s    1 1.00
 0.33647133771000E+00 0.10000000000000E+01
 s    1 1.00
 0.13647653675000E+00 0.10000000000000E+01
 s    1 1.00
 0.68441605847000E-01 0.10000000000000E+01
 p    4 1.00
 0.49200380510000E+02 0.11448825101764E-01
 0.11346790537000E+02 0.78422337970864E-01
 0.34273972411000E+01 0.30818094738830E+00
 0.11785525134000E+01 0.72027196368413E+00
 p    1 1.00
 0.41642204972000E+00 0.10000000000000E+01
 p    1 1.00
 0.14260826011000E+00 0.10000000000000E+01
 d    1 1.00
 0.16540000000000E+01 0.10000000000000E+01
 d    1 1.00
 0.46900000000000E+00 0.10000000000000E+01
 d    1 1.00
 0.12829642058000E+00 0.10000000000000E+01
 f    1 1.00
 0.10930000000000E+01 0.10000000000000E+01
 
   15 0
 s    3 1.00
 0.34061341000000E+02 0.25439307208879E-01
 0.51235746000000E+01 0.19008594890375E+00
 0.11646626000000E+01 0.85244113011042E+00
 s    1 1.00
 0.32723041000000E+00 0.10000000000000E+01
 s    1 1.00
 0.10307241000000E+00 0.10000000000000E+01
 p    1 1.00
 0.80000000000000E+00 0.10000000000000E+01
 p    1 1.00
 0.95774129632000E-01 0.10000000000000E+01
 
   16 0
 s    3 1.00
 0.34061341000000E+02 0.25439307208879E-01
 0.51235746000000E+01 0.19008594890375E+00
 0.11646626000000E+01 0.85244113011042E+00
 s    1 1.00
 0.32723041000000E+00 0.10000000000000E+01
 s    1 1.00
 0.10307241000000E+00 0.10000000000000E+01
 p    1 1.00
 0.80000000000000E+00 0.10000000000000E+01
 p    1 1.00
 0.95774129632000E-01 0.10000000000000E+01
 
[MO]
 Sym= X
 Ene= -0.852672
 Spin= Alpha
 Occup= -0.852672
         1   -1.458519E-04
         2   -3.390523E-04
         3    9.548292E-04
         4   -2.093930E-03
         5   -1.185078E-02
         6   -9.117442E-03
         7    1.394628E-03
         8    2.030678E-04
         9    3.784702E-02
        10   -1.913086E-03
        11    3.593821E-04
        12    3.576844E-02
        13   -3.082583E-02
        14    8.713622E-03
        15    7.481552E-03
        16    2.042309E-06
        17   -1.225909E-05
        18    1.021678E-05
        19   -1.042203E-05
        20   -6.317036E-03
        21    4.249422E-03
        22   -5.462855E-04
        23    3.283602E-04
        24    2.179253E-04
        25   -5.786874E-04
        26   -1.429875E-02
        27    7.917930E-03
        28   -4.533877E-03
        29    4.224143E-03
        30    3.097339E-04
        31    9.050887E-04
        32    7.133318E-04
        33   -1.034233E-02
        34   -1.573857E-05
        35    6.084510E-06
        36   -2.215123E-04
        37    6.718028E-06
        38   -6.352683E-06
        39   -6.334912E-04
        40    1.439749E-05
        41   -1.810543E-06
        42    9.306811E-04
        43   -7.403226E-04
        44    2.248410E-05
        45    4.928732E-05
        46    1.037569E-04
        47   -2.166349E-03
        48   -4.496871E-02
        49    4.049473E-03
        50    4.243277E-04
        51    3.678491E-06
        52    2.224172E-01
        53   -2.336553E-04
        54    2.558147E-05
        55    2.303419E-01
        56   -1.454523E-02
        57   -1.527926E-03
        58    2.106809E-01
        59    3.248940E-05
        60   -2.925545E-05
        61   -3.233948E-06
        62    2.868577E-07
        63   -4.189383E-04
        64    8.001209E-07
        65    3.020558E-04
        66   -5.078475E-04
        67    2.057917E-04
        68    4.579998E-06
        69   -2.979257E-03
        70    1.434686E-06
        71    7.166386E-03
        72   -8.121375E-03
        73    9.549893E-04
        74   -2.687883E-04
        75    5.821646E-03
        76   -2.542865E-05
        77    7.123426E-06
        78    9.002860E-08
        79   -1.279023E-03
        80   -5.365389E-06
        81    3.409026E-09
        82    7.471257E-04
        83   -4.191690E-06
        84   -1.241951E-07
        85    9.688641E-04
        86    1.036967E-07
        87   -1.468872E-04
        88   -3.415544E-04
        89    9.691333E-04
        90   -2.181980E-03
        91   -9.437758E-03
        92   -9.031411E-03
        93    1.390413E-03
        94   -2.048441E-04
        95    3.788418E-02
        96   -1.909721E-03
        97   -3.436372E-04
        98    3.580333E-02
        99   -3.193492E-02
       100   -1.031785E-02
       101    7.582456E-03
       102    1.663584E-06
       103   -1.204086E-05
       104    1.037727E-05
       105    1.076762E-05
       106   -6.316818E-03
       107   -4.249642E-03
       108   -5.452032E-04
       109    3.248281E-04
       110    2.203751E-04
       111    5.743703E-04
       112   -1.429562E-02
       113   -7.917140E-03
       114   -4.847196E-03
       115    4.568540E-03
       116    2.786565E-04
       117   -6.733543E-04
       118    7.026176E-04
       119    1.030576E-02
       120   -1.596617E-05
       121   -6.073207E-06
       122   -2.216926E-04
       123    7.044441E-06
       124    6.388405E-06
       125   -6.332943E-04
       126    1.437642E-05
       127    1.759658E-06
       128    9.307262E-04
       129    7.402344E-04
       130    8.778490E-05
       131    1.876351E-04
       132    5.254176E-04
       133   -8.579213E-03
       134    2.768437E-02
       135    9.979038E-03
       136   -1.070442E-03
       137    5.703273E-04
       138   -1.465145E-01
       139   -7.439481E-03
       140    5.096382E-03
       141   -1.494809E-01
       142   -2.330032E-02
       143   -5.085303E-03
       144   -9.065165E-02
       145    1.192191E-04
       146   -1.430928E-04
       147    2.387363E-05
       148   -7.453796E-07
       149   -1.187967E-03
       150    2.922197E-03
       151    5.116092E-04
       152   -6.214878E-04
       153    1.098786E-04
       154    1.395022E-03
       155   -4.631189E-03
       156    4.999728E-03
       157    7.026679E-03
       158   -5.535527E-03
       159   -1.491151E-03
       160   -6.834817E-03
       161    3.110789E-03
       162   -1.141759E-02
       163   -1.226916E-05
       164    7.951090E-06
       165    8.020839E-04
       166   -1.557965E-05
       167    1.397933E-05
       168   -1.491589E-04
       169    3.204045E-05
       170   -2.464684E-05
       171   -9.269495E-04
       172    3.608332E-04
       173   -8.810447E-04
       174   -2.007207E-03
       175    1.989465E-03
       176    1.812786E-02
       177   -6.017396E-03
       178    9.041503E-03
       179    7.312263E-03
       180    1.728692E-06
       181   -1.149340E-01
       182    4.890948E-04
       183   -1.339641E-05
       184   -1.174202E-01
       185   -1.883467E-02
       186    1.603043E-03
       187   -1.297658E-01
       188    3.864439E-04
       189   -2.169532E-04
       190   -1.694907E-04
       191    9.615928E-08
       192    9.222427E-03
       193    6.518755E-07
       194   -1.500570E-03
       195    3.350546E-03
       196   -1.849976E-03
       197    3.489539E-06
       198    2.299015E-02
       199   -2.008057E-06
       200   -4.600573E-03
       201    5.790183E-03
       202   -1.189610E-03
       203   -3.271830E-04
       204    1.872457E-02
       205    6.249607E-06
       206    9.471659E-05
       207    3.794878E-08
       208    3.583796E-04
       209   -6.650145E-05
       210   -1.270704E-07
       211    9.408187E-04
       212   -6.057420E-05
       213    7.615681E-08
       214   -1.421635E-03
       215    6.360350E-08
       216    8.807162E-05
       217    1.880927E-04
       218    5.327625E-04
       219   -8.668839E-03
       220    3.043237E-02
       221    1.001824E-02
       222   -1.075248E-03
       223   -5.644157E-04
       224   -1.465374E-01
       225   -7.437457E-03
       226   -5.109911E-03
       227   -1.495129E-01
       228   -2.208395E-02
       229    6.952574E-03
       230   -9.058858E-02
       231    1.190439E-04
       232   -1.437020E-04
       233    2.465806E-05
       234    7.953685E-07
       235   -1.187224E-03
       236   -2.922354E-03
       237    5.114816E-04
       238   -6.231419E-04
       239    1.116603E-04
       240   -1.397563E-03
       241   -4.628274E-03
       242   -4.999810E-03
       243    6.699883E-03
       244   -5.193104E-03
       245   -1.506779E-03
       246    7.099595E-03
       247    3.123885E-03
       248    1.146631E-02
       249   -1.214094E-05
       250   -8.016898E-06
       251    8.024900E-04
       252   -1.586719E-05
       253   -1.390141E-05
       254   -1.495724E-04
       255    3.215597E-05
       256    2.465720E-05
       257   -9.270809E-04
       258   -3.608218E-04
       259   -3.125983E-04
       260   -2.042293E-04
       261   -1.437446E-02
       262   -1.114991E-05
       263   -2.336771E-06
       264    1.412434E-03
       265   -4.356633E-03
       266   -1.632786E-04
       267   -6.827886E-03
       268   -3.124490E-04
       269   -1.966014E-04
       270   -1.416351E-02
       271   -9.819135E-06
       272    1.402631E-06
       273    1.414240E-03
       274   -4.528441E-03
       275    2.618413E-05
       276   -6.804758E-03
       277   -3.213101E-04
       278   -1.895218E-03
       279    2.747141E-02
       280   -9.289619E-06
       281    7.855026E-05
       282   -6.021496E-03
       283   -1.200525E-03
       284   -2.180948E-03
       285    1.138846E-03
       286   -3.260252E-04
       287   -1.897123E-03
       288    2.788161E-02
       289   -8.985051E-06
       290   -7.855108E-05
       291   -6.022926E-03
       292   -1.060125E-03
       293    2.341442E-03
       294    1.166243E-03
       295   -3.437584E-05
       296   -7.902756E-05
       297    5.879065E-05
       298    3.474930E-04
       299   -5.347643E-03
       300    1.284786E-03
       301    3.566940E-04
       302    2.042758E-06
       303    1.003097E-02
       304    1.157264E-04
       305    2.948997E-06
       306    1.303615E-02
       307   -2.361824E-03
       308    2.282494E-05
       309    8.914685E-03
       310    1.935666E-05
       311   -2.626209E-06
       312   -1.673046E-05
       313   -6.631860E-07
       314    5.022574E-03
       315   -4.441237E-08
       316    1.071446E-05
       317    5.653485E-05
       318   -6.724931E-05
       319   -2.591030E-06
       320    1.489493E-02
       321   -3.456977E-07
       322   -9.400020E-04
       323    2.390154E-03
       324   -1.450152E-03
       325    4.231743E-05
       326    3.508860E-03
       327    5.034331E-06
       328    6.324293E-06
       329   -1.470271E-07
       330    8.576783E-05
       331   -4.469233E-06
       332    2.417089E-07
       333    7.445700E-04
       334   -4.015697E-06
       335   -4.445142E-08
       336   -8.596396E-04
       337    2.947707E-08
       338   -1.374352E-05
       339   -3.065489E-05
       340    9.153101E-06
       341    4.330592E-04
       342   -4.744974E-03
       343   -7.041731E-04
       344   -1.959776E-04
       345    1.090436E-04
       346   -9.465562E-02
       347   -2.597185E-04
       348    2.157091E-04
       349   -8.757705E-02
       350   -1.287851E-03
       351    3.529917E-04
       352   -6.925761E-02
       353   -1.200014E-04
       354    1.831764E-04
       355   -8.220785E-03
       356    2.997551E-06
       357   -3.916067E-06
       358    9.185157E-07
       359    6.478308E-07
       360   -7.947806E-05
       361    6.855153E-04
       362   -1.151420E-05
       363   -8.989940E-06
       364    2.050414E-05
       365    1.059809E-05
       366   -8.443597E-04
       367    2.212692E-03
       368   -7.745903E-05
       369    6.232486E-05
       370    1.513417E-05
       371    8.997254E-05
       372   -3.847477E-04
       373    4.361229E-04
       374    7.261990E-07
       375    1.447758E-06
       376    1.036624E-04
       377   -1.311098E-06
       378   -1.890400E-07
       379    9.339707E-05
       380    3.367996E-07
       381   -1.753331E-06
       382   -2.324748E-04
       383    1.917644E-04
       384   -1.344237E-05
       385   -2.994063E-05
       386    8.562505E-06
       387    4.287623E-04
       388   -4.761696E-03
       389   -6.561041E-04
       390   -1.539612E-04
       391   -1.419324E-04
       392   -9.465008E-02
       393   -2.216478E-04
       394   -2.434023E-04
       395   -8.757244E-02
       396   -1.220894E-03
       397   -3.794924E-04
       398   -6.924664E-02
       399   -9.681312E-05
       400   -1.900343E-04
       401   -8.225014E-03
       402    3.275831E-06
       403   -4.300684E-06
       404    1.024853E-06
       405   -6.925039E-07
       406   -7.950026E-05
       407   -6.854745E-04
       408   -1.017940E-05
       409   -9.904491E-06
       410    2.008389E-05
       411   -9.852913E-06
       412   -8.441867E-04
       413   -2.212532E-03
       414   -7.618972E-05
       415    6.236762E-05
       416    1.382211E-05
       417   -8.981174E-05
       418   -3.855546E-04
       419   -4.352136E-04
       420    7.620597E-07
       421   -1.552494E-06
       422    1.036616E-04
       423   -1.347607E-06
       424    3.200774E-07
       425    9.338885E-05
       426    3.251962E-07
       427    1.762812E-06
       428   -2.324654E-04
       429   -1.917570E-04
       430    4.062178E-03
       431    9.637428E-03
       432   -1.499205E-02
       433   -2.305769E-02
       434   -2.044749E-02
       435   -6.036506E-02
       436   -1.416436E-02
       437    1.069013E-05
       438    2.296953E-01
       439   -1.615086E-02
       440   -3.242521E-06
       441    2.273620E-01
       442   -1.369285E-02
       443   -1.369703E-04
       444    1.889982E-01
       445   -7.831532E-05
       446    5.886920E-07
       447    7.772662E-05
       448    2.560691E-07
       449    8.810114E-04
       450    3.435732E-07
       451   -2.097868E-04
       452   -1.211553E-03
       453    1.421340E-03
       454   -5.597929E-06
       455    3.829688E-03
       456    1.051612E-06
       457   -1.757914E-03
       458   -2.165650E-03
       459    3.923565E-03
       460   -2.265272E-05
       461    2.070400E-03
       462    1.049181E-05
       463   -1.191505E-04
       464    6.472093E-09
       465   -8.908849E-04
       466   -6.932974E-05
       467   -1.992067E-08
       468    4.485867E-04
       469    2.291868E-04
       470    1.123744E-08
       471    7.466608E-04
       472    1.060377E-08
       473    7.987774E-03
       474    1.492630E-02
       475    2.492883E-02
       476   -1.858632E-03
       477   -1.565716E-03
       478    1.177067E-02
       479    1.560326E-03
       480   -3.028692E-03
       481    1.430143E-02
       482    7.980995E-03
       483    1.482339E-02
       484    2.444493E-02
       485   -1.853329E-03
       486    1.555838E-03
       487    1.177525E-02
       488    1.618316E-03
       489    2.955518E-03
       490    1.432158E-02
 Sym= X
 Ene= 0.852672
 Spin= Alpha
 Occup= 0.852672
         1    3.614002E-05
         2    8.756614E-05
         3   -3.669164E-04
         4    8.016559E-04
         5    9.258286E-02
         6   -5.194522E-03
         7   -2.556809E-04
         8   -6.078454E-05
         9   -1.364524E-01
        10   -4.609809E-07
        11    1.274841E-04
        12   -1.393573E-01
        13    4.580009E-02
        14   -3.143546E-02
        15   -9.005564E-02
        16   -1.876715E-05
        17    3.196293E-06
        18    1.557085E-05
        19   -9.349617E-07
        20   -1.242188E-03
        21    1.110415E-03
        22    2.819837E-04
        23   -1.237751E-04
        24   -1.582086E-04
        25   -9.597608E-06
        26    1.791396E-03
        27    4.738801E-03
        28    1.726335E-02
        29   -1.789062E-02
        30    6.272713E-04
        31    3.575624E-03
        32    3.950695E-03
        33    1.810939E-02
        34    8.520374E-06
        35   -8.048550E-07
        36    1.327694E-04
        37   -8.462706E-06
        38   -1.037219E-06
        39    2.001356E-05
        40   -2.968575E-06
        41    2.117045E-06
        42   -1.981424E-04
        43   -1.788756E-04
        44    2.215428E-05
        45    4.236711E-05
        46    2.262069E-04
        47   -4.527891E-03
        48    1.409246E-01
        49    2.037922E-02
        50    6.249266E-05
        51   -2.161796E-07
        52    6.637961E-02
        53   -3.263518E-04
        54    9.450752E-06
        55    7.273220E-02
        56    5.239854E-02
        57    6.477300E-04
        58    4.716533E-02
        59   -3.587242E-05
        60   -1.521759E-05
        61    5.109001E-05
        62    1.305464E-07