[Molden Format]
[Title]
ADC(2) - opt by CAM-B3LYP gaussian                                              
[Atoms] AU
 c     1    6 -.12588573623097E+01 -.22835126974190E+01 -.24083260376910E-01
 c     2    6 -.25578815622211E+01 0.23621577000000E-06 -.22837930855340E-01
 c     3    6 -.12588573623097E+01 0.22835131698505E+01 -.24090819281440E-01
 c     4    6 0.13318248850473E+01 0.22853065199506E+01 -.26003222127920E-01
 c     5    6 0.26868737956204E+01 0.23621577000000E-06 -.25389061134730E-01
 c     6    6 0.13318248850473E+01 -.22853060475191E+01 -.25993773497260E-01
 h     7    1 -.22974546243959E+01 -.40385977330627E+01 -.21598270512170E-01
 h     8    1 -.22974527346698E+01 0.40385982054942E+01 -.21613388321230E-01
 h     9    1 0.23510089905703E+01 0.40574312161345E+01 -.28191524989800E-01
 h    10    1 0.23510071008442E+01 -.40574307437030E+01 -.28172627728480E-01
 n    11    7 -.52726375582849E+01 0.23621577000000E-06 -.17238672323600E-01
 o    12    8 -.63813946825068E+01 0.20269261555273E+01 -.14842499587100E-01
 o    13    8 -.63813927927806E+01 -.20269275728219E+01 -.14865176300690E-01
 n    14    7 0.52430742102305E+01 0.23621577000000E-06 -.67376886081320E-01
 h    15    1 0.62051583509223E+01 0.16177513148781E+01 0.18115044628513E+00
 h    16    1 0.62051564611962E+01 -.16177527321727E+01 0.18114666683287E+00
[GTO]
    1 0
 s    6 1.00
 0.13575349682000E+05 0.60645503603591E-03
 0.20352333680000E+04 0.46979088884982E-02
 0.46322562359000E+03 0.24332477647552E-01
 0.13120019598000E+03 0.97399968307759E-01
 0.42853015891000E+02 0.30195584253780E+00
 0.15584185766000E+02 0.66233609137875E+00
 s    2 1.00
 0.62067138508000E+01 0.65595308539952E+00
 0.25764896527000E+01 0.37585633285142E+00
 s    1 1.00
 0.57696339419000E+00 0.10000000000000E+01
 s    1 1.00
 0.22972831358000E+00 0.10000000000000E+01
 s    1 1.00
 0.95164440028000E-01 0.10000000000000E+01
 s    1 1.00
 0.48475401370000E-01 0.10000000000000E+01
 p    4 1.00
 0.34697232244000E+02 0.11327220003114E-01
 0.79582622826000E+01 0.76169659202087E-01
 0.23780826883000E+01 0.30192252202676E+00
 0.81433208183000E+00 0.72785027349547E+00
 p    1 1.00
 0.28887547253000E+00 0.10000000000000E+01
 p    1 1.00
 0.10056823671000E+00 0.10000000000000E+01
 d    1 1.00
 0.10970000000000E+01 0.10000000000000E+01
 d    1 1.00
 0.31800000000000E+00 0.10000000000000E+01
 d    1 1.00
 0.90985336424000E-01 0.10000000000000E+01
 f    1 1.00
 0.76100000000000E+00 0.10000000000000E+01
 
    2 0
 s    6 1.00
 0.13575349682000E+05 0.60645503603591E-03
 0.20352333680000E+04 0.46979088884982E-02
 0.46322562359000E+03 0.24332477647552E-01
 0.13120019598000E+03 0.97399968307759E-01
 0.42853015891000E+02 0.30195584253780E+00
 0.15584185766000E+02 0.66233609137875E+00
 s    2 1.00
 0.62067138508000E+01 0.65595308539952E+00
 0.25764896527000E+01 0.37585633285142E+00
 s    1 1.00
 0.57696339419000E+00 0.10000000000000E+01
 s    1 1.00
 0.22972831358000E+00 0.10000000000000E+01
 s    1 1.00
 0.95164440028000E-01 0.10000000000000E+01
 s    1 1.00
 0.48475401370000E-01 0.10000000000000E+01
 p    4 1.00
 0.34697232244000E+02 0.11327220003114E-01
 0.79582622826000E+01 0.76169659202087E-01
 0.23780826883000E+01 0.30192252202676E+00
 0.81433208183000E+00 0.72785027349547E+00
 p    1 1.00
 0.28887547253000E+00 0.10000000000000E+01
 p    1 1.00
 0.10056823671000E+00 0.10000000000000E+01
 d    1 1.00
 0.10970000000000E+01 0.10000000000000E+01
 d    1 1.00
 0.31800000000000E+00 0.10000000000000E+01
 d    1 1.00
 0.90985336424000E-01 0.10000000000000E+01
 f    1 1.00
 0.76100000000000E+00 0.10000000000000E+01
 
    3 0
 s    6 1.00
 0.13575349682000E+05 0.60645503603591E-03
 0.20352333680000E+04 0.46979088884982E-02
 0.46322562359000E+03 0.24332477647552E-01
 0.13120019598000E+03 0.97399968307759E-01
 0.42853015891000E+02 0.30195584253780E+00
 0.15584185766000E+02 0.66233609137875E+00
 s    2 1.00
 0.62067138508000E+01 0.65595308539952E+00
 0.25764896527000E+01 0.37585633285142E+00
 s    1 1.00
 0.57696339419000E+00 0.10000000000000E+01
 s    1 1.00
 0.22972831358000E+00 0.10000000000000E+01
 s    1 1.00
 0.95164440028000E-01 0.10000000000000E+01
 s    1 1.00
 0.48475401370000E-01 0.10000000000000E+01
 p    4 1.00
 0.34697232244000E+02 0.11327220003114E-01
 0.79582622826000E+01 0.76169659202087E-01
 0.23780826883000E+01 0.30192252202676E+00
 0.81433208183000E+00 0.72785027349547E+00
 p    1 1.00
 0.28887547253000E+00 0.10000000000000E+01
 p    1 1.00
 0.10056823671000E+00 0.10000000000000E+01
 d    1 1.00
 0.10970000000000E+01 0.10000000000000E+01
 d    1 1.00
 0.31800000000000E+00 0.10000000000000E+01
 d    1 1.00
 0.90985336424000E-01 0.10000000000000E+01
 f    1 1.00
 0.76100000000000E+00 0.10000000000000E+01
 
    4 0
 s    6 1.00
 0.13575349682000E+05 0.60645503603591E-03
 0.20352333680000E+04 0.46979088884982E-02
 0.46322562359000E+03 0.24332477647552E-01
 0.13120019598000E+03 0.97399968307759E-01
 0.42853015891000E+02 0.30195584253780E+00
 0.15584185766000E+02 0.66233609137875E+00
 s    2 1.00
 0.62067138508000E+01 0.65595308539952E+00
 0.25764896527000E+01 0.37585633285142E+00
 s    1 1.00
 0.57696339419000E+00 0.10000000000000E+01
 s    1 1.00
 0.22972831358000E+00 0.10000000000000E+01
 s    1 1.00
 0.95164440028000E-01 0.10000000000000E+01
 s    1 1.00
 0.48475401370000E-01 0.10000000000000E+01
 p    4 1.00
 0.34697232244000E+02 0.11327220003114E-01
 0.79582622826000E+01 0.76169659202087E-01
 0.23780826883000E+01 0.30192252202676E+00
 0.81433208183000E+00 0.72785027349547E+00
 p    1 1.00
 0.28887547253000E+00 0.10000000000000E+01
 p    1 1.00
 0.10056823671000E+00 0.10000000000000E+01
 d    1 1.00
 0.10970000000000E+01 0.10000000000000E+01
 d    1 1.00
 0.31800000000000E+00 0.10000000000000E+01
 d    1 1.00
 0.90985336424000E-01 0.10000000000000E+01
 f    1 1.00
 0.76100000000000E+00 0.10000000000000E+01
 
    5 0
 s    6 1.00
 0.13575349682000E+05 0.60645503603591E-03
 0.20352333680000E+04 0.46979088884982E-02
 0.46322562359000E+03 0.24332477647552E-01
 0.13120019598000E+03 0.97399968307759E-01
 0.42853015891000E+02 0.30195584253780E+00
 0.15584185766000E+02 0.66233609137875E+00
 s    2 1.00
 0.62067138508000E+01 0.65595308539952E+00
 0.25764896527000E+01 0.37585633285142E+00
 s    1 1.00
 0.57696339419000E+00 0.10000000000000E+01
 s    1 1.00
 0.22972831358000E+00 0.10000000000000E+01
 s    1 1.00
 0.95164440028000E-01 0.10000000000000E+01
 s    1 1.00
 0.48475401370000E-01 0.10000000000000E+01
 p    4 1.00
 0.34697232244000E+02 0.11327220003114E-01
 0.79582622826000E+01 0.76169659202087E-01
 0.23780826883000E+01 0.30192252202676E+00
 0.81433208183000E+00 0.72785027349547E+00
 p    1 1.00
 0.28887547253000E+00 0.10000000000000E+01
 p    1 1.00
 0.10056823671000E+00 0.10000000000000E+01
 d    1 1.00
 0.10970000000000E+01 0.10000000000000E+01
 d    1 1.00
 0.31800000000000E+00 0.10000000000000E+01
 d    1 1.00
 0.90985336424000E-01 0.10000000000000E+01
 f    1 1.00
 0.76100000000000E+00 0.10000000000000E+01
 
    6 0
 s    6 1.00
 0.13575349682000E+05 0.60645503603591E-03
 0.20352333680000E+04 0.46979088884982E-02
 0.46322562359000E+03 0.24332477647552E-01
 0.13120019598000E+03 0.97399968307759E-01
 0.42853015891000E+02 0.30195584253780E+00
 0.15584185766000E+02 0.66233609137875E+00
 s    2 1.00
 0.62067138508000E+01 0.65595308539952E+00
 0.25764896527000E+01 0.37585633285142E+00
 s    1 1.00
 0.57696339419000E+00 0.10000000000000E+01
 s    1 1.00
 0.22972831358000E+00 0.10000000000000E+01
 s    1 1.00
 0.95164440028000E-01 0.10000000000000E+01
 s    1 1.00
 0.48475401370000E-01 0.10000000000000E+01
 p    4 1.00
 0.34697232244000E+02 0.11327220003114E-01
 0.79582622826000E+01 0.76169659202087E-01
 0.23780826883000E+01 0.30192252202676E+00
 0.81433208183000E+00 0.72785027349547E+00
 p    1 1.00
 0.28887547253000E+00 0.10000000000000E+01
 p    1 1.00
 0.10056823671000E+00 0.10000000000000E+01
 d    1 1.00
 0.10970000000000E+01 0.10000000000000E+01
 d    1 1.00
 0.31800000000000E+00 0.10000000000000E+01
 d    1 1.00
 0.90985336424000E-01 0.10000000000000E+01
 f    1 1.00
 0.76100000000000E+00 0.10000000000000E+01
 
    7 0
 s    3 1.00
 0.34061341000000E+02 0.25439307208879E-01
 0.51235746000000E+01 0.19008594890375E+00
 0.11646626000000E+01 0.85244113011042E+00
 s    1 1.00
 0.32723041000000E+00 0.10000000000000E+01
 s    1 1.00
 0.10307241000000E+00 0.10000000000000E+01
 p    1 1.00
 0.80000000000000E+00 0.10000000000000E+01
 p    1 1.00
 0.95774129632000E-01 0.10000000000000E+01
 
    8 0
 s    3 1.00
 0.34061341000000E+02 0.25439307208879E-01
 0.51235746000000E+01 0.19008594890375E+00
 0.11646626000000E+01 0.85244113011042E+00
 s    1 1.00
 0.32723041000000E+00 0.10000000000000E+01
 s    1 1.00
 0.10307241000000E+00 0.10000000000000E+01
 p    1 1.00
 0.80000000000000E+00 0.10000000000000E+01
 p    1 1.00
 0.95774129632000E-01 0.10000000000000E+01
 
    9 0
 s    3 1.00
 0.34061341000000E+02 0.25439307208879E-01
 0.51235746000000E+01 0.19008594890375E+00
 0.11646626000000E+01 0.85244113011042E+00
 s    1 1.00
 0.32723041000000E+00 0.10000000000000E+01
 s    1 1.00
 0.10307241000000E+00 0.10000000000000E+01
 p    1 1.00
 0.80000000000000E+00 0.10000000000000E+01
 p    1 1.00
 0.95774129632000E-01 0.10000000000000E+01
 
   10 0
 s    3 1.00
 0.34061341000000E+02 0.25439307208879E-01
 0.51235746000000E+01 0.19008594890375E+00
 0.11646626000000E+01 0.85244113011042E+00
 s    1 1.00
 0.32723041000000E+00 0.10000000000000E+01
 s    1 1.00
 0.10307241000000E+00 0.10000000000000E+01
 p    1 1.00
 0.80000000000000E+00 0.10000000000000E+01
 p    1 1.00
 0.95774129632000E-01 0.10000000000000E+01
 
   11 0
 s    6 1.00
 0.19730800647000E+05 0.58626402628763E-03
 0.29578958745000E+04 0.45428820586397E-02
 0.67322133595000E+03 0.23558413450084E-01
 0.19068249494000E+03 0.94709193292923E-01
 0.62295441898000E+02 0.29719784913376E+00
 0.22654161182000E+02 0.66916246895232E+00
 s    2 1.00
 0.89791477428000E+01 0.64596683630063E+00
 0.36863002370000E+01 0.38700574393705E+00
 s    1 1.00
 0.84660076805000E+00 0.10000000000000E+01
 s    1 1.00
 0.33647133771000E+00 0.10000000000000E+01
 s    1 1.00
 0.13647653675000E+00 0.10000000000000E+01
 s    1 1.00
 0.68441605847000E-01 0.10000000000000E+01
 p    4 1.00
 0.49200380510000E+02 0.11448825101764E-01
 0.11346790537000E+02 0.78422337970864E-01
 0.34273972411000E+01 0.30818094738830E+00
 0.11785525134000E+01 0.72027196368413E+00
 p    1 1.00
 0.41642204972000E+00 0.10000000000000E+01
 p    1 1.00
 0.14260826011000E+00 0.10000000000000E+01
 d    1 1.00
 0.16540000000000E+01 0.10000000000000E+01
 d    1 1.00
 0.46900000000000E+00 0.10000000000000E+01
 d    1 1.00
 0.12829642058000E+00 0.10000000000000E+01
 f    1 1.00
 0.10930000000000E+01 0.10000000000000E+01
 
   12 0
 s    6 1.00
 0.27032382631000E+05 0.57227335211155E-03
 0.40523871392000E+04 0.44353233492995E-02
 0.92232722710000E+03 0.23020107706038E-01
 0.26124070989000E+03 0.92822490667928E-01
 0.85354641351000E+02 0.29378500009671E+00
 0.31035035245000E+02 0.67401604501641E+00
 s    2 1.00
 0.12260860728000E+02 0.63839937025506E+00
 0.49987076005000E+01 0.39534587125718E+00
 s    1 1.00
 0.11703108158000E+01 0.10000000000000E+01
 s    1 1.00
 0.46474740994000E+00 0.10000000000000E+01
 s    1 1.00
 0.18504536357000E+00 0.10000000000000E+01
 s    1 1.00
 0.70288026270000E-01 0.10000000000000E+01
 p    4 1.00
 0.63274954801000E+02 0.12018332222616E-01
 0.14627049379000E+02 0.83005421790056E-01
 0.44501223456000E+01 0.31991743925964E+00
 0.15275799647000E+01 0.70715542916104E+00
 p    1 1.00
 0.52935117943000E+00 0.10000000000000E+01
 p    1 1.00
 0.17478421270000E+00 0.10000000000000E+01
 p    1 1.00
 0.51112745706000E-01 0.10000000000000E+01
 d    1 1.00
 0.23140000000000E+01 0.10000000000000E+01
 d    1 1.00
 0.64500000000000E+00 0.10000000000000E+01
 d    1 1.00
 0.14696477366000E+00 0.10000000000000E+01
 f    1 1.00
 0.14280000000000E+01 0.10000000000000E+01
 
   13 0
 s    6 1.00
 0.27032382631000E+05 0.57227335211155E-03
 0.40523871392000E+04 0.44353233492995E-02
 0.92232722710000E+03 0.23020107706038E-01
 0.26124070989000E+03 0.92822490667928E-01
 0.85354641351000E+02 0.29378500009671E+00
 0.31035035245000E+02 0.67401604501641E+00
 s    2 1.00
 0.12260860728000E+02 0.63839937025506E+00
 0.49987076005000E+01 0.39534587125718E+00
 s    1 1.00
 0.11703108158000E+01 0.10000000000000E+01
 s    1 1.00
 0.46474740994000E+00 0.10000000000000E+01
 s    1 1.00
 0.18504536357000E+00 0.10000000000000E+01
 s    1 1.00
 0.70288026270000E-01 0.10000000000000E+01
 p    4 1.00
 0.63274954801000E+02 0.12018332222616E-01
 0.14627049379000E+02 0.83005421790056E-01
 0.44501223456000E+01 0.31991743925964E+00
 0.15275799647000E+01 0.70715542916104E+00
 p    1 1.00
 0.52935117943000E+00 0.10000000000000E+01
 p    1 1.00
 0.17478421270000E+00 0.10000000000000E+01
 p    1 1.00
 0.51112745706000E-01 0.10000000000000E+01
 d    1 1.00
 0.23140000000000E+01 0.10000000000000E+01
 d    1 1.00
 0.64500000000000E+00 0.10000000000000E+01
 d    1 1.00
 0.14696477366000E+00 0.10000000000000E+01
 f    1 1.00
 0.14280000000000E+01 0.10000000000000E+01
 
   14 0
 s    6 1.00
 0.19730800647000E+05 0.58626402628763E-03
 0.29578958745000E+04 0.45428820586397E-02
 0.67322133595000E+03 0.23558413450084E-01
 0.19068249494000E+03 0.94709193292923E-01
 0.62295441898000E+02 0.29719784913376E+00
 0.22654161182000E+02 0.66916246895232E+00
 s    2 1.00
 0.89791477428000E+01 0.64596683630063E+00
 0.36863002370000E+01 0.38700574393705E+00
 s    1 1.00
 0.84660076805000E+00 0.10000000000000E+01
 s    1 1.00
 0.33647133771000E+00 0.10000000000000E+01
 s    1 1.00
 0.13647653675000E+00 0.10000000000000E+01
 s    1 1.00
 0.68441605847000E-01 0.10000000000000E+01
 p    4 1.00
 0.49200380510000E+02 0.11448825101764E-01
 0.11346790537000E+02 0.78422337970864E-01
 0.34273972411000E+01 0.30818094738830E+00
 0.11785525134000E+01 0.72027196368413E+00
 p    1 1.00
 0.41642204972000E+00 0.10000000000000E+01
 p    1 1.00
 0.14260826011000E+00 0.10000000000000E+01
 d    1 1.00
 0.16540000000000E+01 0.10000000000000E+01
 d    1 1.00
 0.46900000000000E+00 0.10000000000000E+01
 d    1 1.00
 0.12829642058000E+00 0.10000000000000E+01
 f    1 1.00
 0.10930000000000E+01 0.10000000000000E+01
 
   15 0
 s    3 1.00
 0.34061341000000E+02 0.25439307208879E-01
 0.51235746000000E+01 0.19008594890375E+00
 0.11646626000000E+01 0.85244113011042E+00
 s    1 1.00
 0.32723041000000E+00 0.10000000000000E+01
 s    1 1.00
 0.10307241000000E+00 0.10000000000000E+01
 p    1 1.00
 0.80000000000000E+00 0.10000000000000E+01
 p    1 1.00
 0.95774129632000E-01 0.10000000000000E+01
 
   16 0
 s    3 1.00
 0.34061341000000E+02 0.25439307208879E-01
 0.51235746000000E+01 0.19008594890375E+00
 0.11646626000000E+01 0.85244113011042E+00
 s    1 1.00
 0.32723041000000E+00 0.10000000000000E+01
 s    1 1.00
 0.10307241000000E+00 0.10000000000000E+01
 p    1 1.00
 0.80000000000000E+00 0.10000000000000E+01
 p    1 1.00
 0.95774129632000E-01 0.10000000000000E+01
 
[MO]
 Sym= X
 Ene= -0.072437
 Spin= Alpha
 Occup= -0.072437
         1    3.280633E-04
         2    7.506928E-04
         3   -1.533412E-03
         4    7.850758E-04
         5   -8.258400E-03
         6    9.827266E-03
         7   -4.434441E-03
         8   -6.187339E-04
         9    1.289761E-01
        10   -3.358185E-04
        11   -8.936556E-04
        12    1.270975E-01
        13    1.870650E-02
        14   -8.383843E-04
        15    4.931102E-02
        16   -1.110651E-04
        17    1.002337E-04
        18    1.083145E-05
        19    6.265775E-05
        20   -1.280421E-03
        21    4.412333E-03
        22    3.340162E-04
        23   -2.213067E-04
        24   -1.127095E-04
        25    7.575028E-04
        26   -3.295861E-03
        27    7.440319E-03
        28    1.615882E-03
        29   -1.421421E-03
        30   -1.944612E-04
        31   -1.832880E-03
        32   -6.946471E-03
        33    5.158007E-03
        34    3.467279E-06
        35   -1.197202E-05
        36   -1.058058E-03
        37    1.685468E-06
        38    1.128689E-05
        39    4.748055E-04
        40   -6.337310E-06
        41    4.775256E-06
        42    9.447276E-04
        43   -5.513910E-04
        44   -1.201725E-04
        45   -2.676088E-04
        46    5.196518E-05
        47    4.361313E-03
        48    1.132710E-02
        49   -9.246091E-03
        50    6.727761E-04
        51   -2.117400E-06
        52    2.131658E-01
        53    1.533680E-03
        54    5.226074E-06
        55    2.161958E-01
        56    8.054784E-03
        57    1.078060E-03
        58    7.987233E-02
        59   -1.283197E-04
        60    1.329815E-04
        61   -4.661770E-06
        62   -1.665172E-07
        63    2.627243E-03
        64   -4.906686E-06
        65   -5.478393E-04
        66    7.878652E-04
        67   -2.400260E-04
        68    1.643715E-06
        69    3.742327E-03
        70   -8.880921E-06
        71   -1.079651E-02
        72    1.115096E-02
        73   -3.544500E-04
        74    1.248989E-04
        75    7.748432E-03
        76    2.033095E-05
        77    5.065821E-07
        78    7.434547E-08
        79   -1.599326E-03
        80    1.044851E-05
        81   -3.667720E-08
        82    8.056904E-04
        83   -1.112816E-05
        84   -6.306772E-08
        85    1.340031E-03
        86   -4.992251E-07
        87    3.282748E-04
        88    7.512131E-04
        89   -1.536477E-03
        90    8.112584E-04
        91   -1.031001E-02
        92    9.878428E-03
        93   -4.434180E-03
        94    6.225603E-04
        95    1.287364E-01
        96   -3.183546E-04
        97    9.092569E-04
        98    1.268571E-01
        99    1.926282E-02
       100    1.878436E-03
       101    4.911972E-02
       102   -1.106684E-04
       103    9.998380E-05
       104    1.068463E-05
       105   -6.296037E-05
       106   -1.286524E-03
       107   -4.411791E-03
       108    3.352297E-04
       109   -2.216721E-04
       110   -1.135577E-04
       111   -7.610216E-04
       112   -3.305278E-03
       113   -7.438312E-03
       114    1.721847E-03
       115   -1.541461E-03
       116   -1.803857E-04
       117    1.689088E-03
       118   -6.928818E-03
       119   -5.098751E-03
       120    3.558781E-06
       121    1.202751E-05
       122   -1.056504E-03
       123    1.644288E-06
       124   -1.125566E-05
       125    4.729933E-04
       126   -6.418894E-06
       127   -4.880932E-06
       128    9.444560E-04
       129    5.511835E-04
       130   -2.611707E-04
       131   -5.789379E-04
       132   -2.526369E-05
       133    1.006753E-02
       134    3.413747E-03
       135   -1.138870E-02
       136    4.480793E-03
       137   -1.900423E-03
       138    2.380217E-02
       139    1.036213E-02
       140   -6.345534E-03
       141    2.370067E-02
       142    9.266379E-03
       143    8.888169E-03
       144    1.102796E-03
       145   -2.911809E-04
       146    3.385793E-04
       147   -4.739844E-05
       148   -2.508766E-05
       149   -3.993160E-03
       150    1.011629E-03
       151   -5.400312E-04
       152    7.671583E-04
       153   -2.271271E-04
       154   -1.579399E-03
       155   -7.087874E-03
       156    2.347183E-03
       157   -6.406419E-03
       158    5.353974E-03
       159    1.052445E-03
       160    7.452232E-03
       161   -3.404301E-03
       162    1.204769E-02
       163    1.369216E-05
       164   -2.264119E-05
       165   -2.083841E-04
       166    2.891994E-05
       167   -1.251211E-06
       168    4.764928E-04
       169   -4.728990E-05
       170    3.162756E-05
       171   -1.969162E-04
       172    4.025873E-04
       173    9.753142E-04
       174    2.204580E-03
       175   -2.495028E-03
       176   -1.377099E-02
       177    4.819655E-02
       178   -5.097245E-06
       179   -1.395622E-02
       180    4.047145E-06
       181   -1.002643E-01
       182   -3.143941E-03
       183    2.206011E-05
       184   -9.691127E-02
       185    3.437077E-02
       186   -6.463936E-04
       187    1.276506E-02
       188   -6.736978E-04
       189    4.835028E-04
       190    1.901950E-04
       191   -2.768387E-07
       192   -6.332330E-03
       193   -4.604253E-06
       194    1.689506E-03
       195   -3.422206E-03
       196    1.732700E-03
       197   -4.699746E-06
       198   -1.270365E-02
       199   -1.119416E-05
       200    6.836762E-03
       201   -7.051576E-03
       202    2.148134E-04
       203    1.942540E-04
       204   -4.015158E-03
       205   -3.590404E-05
       206   -1.216328E-04
       207   -3.931225E-09
       208    9.512064E-04
       209    6.965754E-05
       210    1.503503E-07
       211   -1.379488E-03
       212    9.352995E-05
       213   -1.450760E-07
       214    1.033104E-04
       215    7.824191E-07
       216   -2.606880E-04
       217   -5.777837E-04
       218   -3.326247E-05
       219    1.012043E-02
       220    1.772523E-03
       221   -1.130952E-02
       222    4.481210E-03
       223    1.890519E-03
       224    2.404913E-02
       225    1.035834E-02
       226    6.358637E-03
       227    2.395079E-02
       228    8.988863E-03
       229   -9.747982E-03
       230    1.167107E-03
       231   -2.913275E-04
       232    3.387098E-04
       233   -4.738229E-05
       234    2.461440E-05
       235   -3.999296E-03
       236   -1.010918E-03
       237   -5.389402E-04
       238    7.701034E-04
       239   -2.311632E-04
       240    1.582283E-03
       241   -7.097786E-03
       242   -2.347665E-03
       243   -6.238282E-03
       244    5.184266E-03
       245    1.054016E-03
       246   -7.522597E-03
       247   -3.447206E-03
       248   -1.208664E-02
       249    1.346439E-05
       250    2.271435E-05
       251   -2.099556E-04
       252    2.923496E-05
       253    1.188027E-06
       254    4.782749E-04
       255   -4.729934E-05
       256   -3.166253E-05
       257   -1.965899E-04
       258   -4.025476E-04
       259    1.251741E-03
       260    1.697771E-03
       261    1.692125E-02
       262    3.061985E-05
       263    1.518639E-04
       264    4.634517E-03
       265    3.879000E-03
       266    1.389990E-03
       267    2.117413E-03
       268    1.253336E-03
       269    1.694556E-03
       270    1.670342E-02
       271    2.999627E-05
       272   -1.514788E-04
       273    4.624180E-03
       274    3.931966E-03
       275   -1.344550E-03
       276    2.070869E-03
       277    1.024907E-03
       278    3.028004E-03
       279   -3.094338E-02
       280    4.324201E-05
       281   -2.018101E-04
       282    3.738418E-04
       283    4.566997E-03
       284    1.946809E-03
       285   -1.013728E-02
       286    1.029732E-03
       287    3.023868E-03
       288   -3.106052E-02
       289    4.233671E-05
       290    2.014012E-04
       291    3.843516E-04
       292    4.499535E-03
       293   -2.013525E-03
       294   -1.013510E-02
       295    1.378463E-04
       296    3.256224E-04
       297   -4.352221E-04
       298   -1.072034E-03
       299    9.340907E-03
       300    5.385743E-03
       301   -1.456836E-03
       302   -9.042110E-07
       303   -3.221193E-02
       304   -1.055923E-03
       305    3.205360E-06
       306   -3.048791E-02
       307    3.732578E-03
       308   -3.538607E-05
       309    5.024506E-03
       310    2.123579E-05
       311    8.876192E-07
       312   -2.212341E-05
       313    1.158818E-07
       314    4.524308E-03
       315   -5.313763E-06
       316    1.113483E-04
       317   -7.057467E-05
       318   -4.077367E-05
       319   -4.041490E-07
       320    1.273139E-02
       321   -1.585392E-05
       322    1.430006E-04
       323   -1.930254E-03
       324    1.787253E-03
       325   -3.418632E-05
       326    5.515231E-03
       327    3.683755E-06
       328   -2.949671E-06
       329    3.121837E-08
       330    2.307408E-04
       331    8.352519E-07
       332   -6.038040E-09
       333    5.853353E-04
       334    3.122147E-06
       335   -3.584580E-08
       336   -8.949065E-04
       337    8.281002E-07
       338    5.074052E-05
       339    1.211442E-04
       340   -1.488970E-04
       341   -6.776669E-04
       342    4.779438E-03
       343    5.263404E-04
       344   -5.313114E-04
       345   -6.167189E-04
       346   -9.136480E-02
       347   -3.594557E-04
       348   -6.467322E-04
       349   -8.394587E-02
       350    3.315846E-04
       351   -9.630467E-04
       352   -5.876535E-02
       353    2.301290E-04
       354   -1.789285E-05
       355   -5.018364E-03
       356   -1.201692E-05
       357    1.490780E-05
       358   -2.890880E-06
       359    6.787515E-06
       360   -3.478080E-04
       361    1.053638E-03
       362   -1.775397E-05
       363    4.191734E-05
       364   -2.416337E-05
       365    1.719653E-05
       366   -1.493931E-03
       367    3.211718E-03
       368   -1.707299E-06
       369    6.161468E-05
       370   -5.990738E-05
       371    5.956007E-05
       372   -1.740974E-03
       373    6.865846E-04
       374   -2.147367E-07
       375   -5.957112E-06
       376    1.734523E-04
       377    6.574628E-07
       378    6.591907E-06
       379    7.914447E-05
       380   -3.693634E-07
       381    1.400397E-06
       382   -3.118552E-04
       383    2.759687E-04
       384    5.075306E-05
       385    1.211168E-04
       386   -1.483605E-04
       387   -6.820059E-04
       388    4.821392E-03
       389    5.488495E-04
       390   -5.372838E-04
       391    6.246783E-04
       392   -9.108043E-02
       393   -3.632619E-04
       394    6.557228E-04
       395   -8.368664E-02
       396    3.049084E-04
       397    9.797400E-04
       398   -5.856283E-02
       399    2.336850E-04
       400    1.835761E-05
       401   -4.986873E-03
       402   -1.199165E-05
       403    1.493656E-05
       404   -2.944914E-06
       405   -6.779168E-06
       406   -3.462306E-04
       407   -1.051280E-03
       408   -1.840621E-05
       409    4.291350E-05
       410   -2.450730E-05
       411   -1.684109E-05
       412   -1.488681E-03
       413   -3.204088E-03
       414    6.118905E-08
       415    5.987319E-05
       416   -5.993438E-05
       417   -6.479854E-05
       418   -1.735912E-03
       419   -6.775098E-04
       420   -2.193254E-07
       421    6.001239E-06
       422    1.730051E-04
       423    7.225875E-07
       424   -6.623848E-06
       425    7.910487E-05
       426   -4.283315E-07
       427   -1.427659E-06
       428   -3.112156E-04
       429   -2.751971E-04
       430   -4.032337E-03
       431   -9.536763E-03
       432    1.470097E-02
       433    2.340543E-02
       434    4.196971E-03
       435    2.632443E-02
       436    1.873649E-02
       437   -1.217515E-05
       438   -2.389134E-01
       439    2.102945E-02
       440    8.079374E-07
       441   -2.320821E-01
       442    2.765167E-02
       443    1.235562E-04
       444   -1.577607E-01
       445    6.575314E-05
       446    1.555718E-04
       447   -2.213250E-04
       448   -4.245088E-07
       449    2.032601E-03
       450   -5.721911E-07
       451   -1.393680E-04
       452    1.923349E-03
       453   -1.783981E-03
       454    5.789994E-06
       455    4.299165E-03
       456   -1.143513E-06
       457   -1.469599E-03
       458    5.327332E-03
       459   -3.857732E-03
       460    2.443829E-05
       461    5.595051E-04
       462   -3.520841E-06
       463    8.459328E-05
       464   -1.490247E-08
       465    1.301741E-03
       466    1.026564E-04
       467    1.670882E-08
       468   -1.129282E-03
       469   -2.161502E-04
       470    3.284942E-09
       471   -6.171875E-04
       472    7.541715E-08
       473   -5.236322E-03
       474   -1.246869E-02
       475   -2.224462E-02
       476    2.202656E-03
       477    1.566074E-03
       478   -1.097104E-02
       479    2.890882E-03
       480    1.966025E-03
       481   -4.490981E-03
       482   -5.226972E-03
       483   -1.236039E-02
       484   -2.180432E-02
       485    2.196389E-03
       486   -1.555919E-03
       487   -1.097415E-02
       488    2.840221E-03
       489   -1.889558E-03
       490   -4.511164E-03
 Sym= X
 Ene= -0.779132
 Spin= Alpha
 Occup= -0.779132
         1   -1.979838E-04
         2   -4.589058E-04
         3    1.200026E-03
         4   -2.191389E-03
         5   -1.037764E-02
         6   -1.063663E-02
         7    1.825979E-03
         8    2.163996E-04
         9    2.185949E-02
        10   -2.049972E-03
        11    4.262150E-04
        12    1.997397E-02
        13   -3.380421E-02
        14    8.894420E-03
        15    1.263215E-03
        16    1.163707E-05
        17   -2.010013E-05
        18    8.463066E-06
        19   -1.344610E-05
        20   -6.187028E-03
        21    3.721746E-03
        22   -6.055167E-04
        23    3.687294E-04
        24    2.367873E-04
        25   -6.855975E-04
        26   -1.396059E-02
        27    7.035565E-03
        28   -4.801584E-03
        29    4.468222E-03
        30    3.333616E-04
        31    1.206516E-03
        32    1.684529E-03
        33   -1.117505E-02
        34   -1.681098E-05
        35    7.132189E-06
        36   -9.143991E-05
        37    6.333932E-06
        38   -7.265265E-06
        39   -6.944573E-04
        40    1.622036E-05
        41   -2.303571E-06
        42    8.171369E-04
        43   -6.749009E-04
        44    4.282528E-05
        45    9.455313E-05
        46    8.404940E-05
        47   -2.805915E-03
        48   -4.703036E-02
        49    5.419569E-03
        50    3.778939E-04
        51    1.370875E-06
        52    1.972056E-01
        53   -4.263409E-04
        54    2.195039E-05
        55    2.047221E-01
        56   -1.588744E-02
        57   -1.663819E-03
        58    2.021235E-01
        59    4.233945E-05
        60   -4.065095E-05
        61   -1.688499E-06
        62    1.500827E-07