[Molden Format]
[Title]
ADC(2) - opt by CAM-B3LYP gaussian                                              
[Atoms] AU
 c     1    6 -.12588573623097E+01 -.22835126974190E+01 -.24083260376910E-01
 c     2    6 -.25578815622211E+01 0.23621577000000E-06 -.22837930855340E-01
 c     3    6 -.12588573623097E+01 0.22835131698505E+01 -.24090819281440E-01
 c     4    6 0.13318248850473E+01 0.22853065199506E+01 -.26003222127920E-01
 c     5    6 0.26868737956204E+01 0.23621577000000E-06 -.25389061134730E-01
 c     6    6 0.13318248850473E+01 -.22853060475191E+01 -.25993773497260E-01
 h     7    1 -.22974546243959E+01 -.40385977330627E+01 -.21598270512170E-01
 h     8    1 -.22974527346698E+01 0.40385982054942E+01 -.21613388321230E-01
 h     9    1 0.23510089905703E+01 0.40574312161345E+01 -.28191524989800E-01
 h    10    1 0.23510071008442E+01 -.40574307437030E+01 -.28172627728480E-01
 n    11    7 -.52726375582849E+01 0.23621577000000E-06 -.17238672323600E-01
 o    12    8 -.63813946825068E+01 0.20269261555273E+01 -.14842499587100E-01
 o    13    8 -.63813927927806E+01 -.20269275728219E+01 -.14865176300690E-01
 n    14    7 0.52430742102305E+01 0.23621577000000E-06 -.67376886081320E-01
 h    15    1 0.62051583509223E+01 0.16177513148781E+01 0.18115044628513E+00
 h    16    1 0.62051564611962E+01 -.16177527321727E+01 0.18114666683287E+00
[GTO]
    1 0
 s    6 1.00
 0.13575349682000E+05 0.60645503603591E-03
 0.20352333680000E+04 0.46979088884982E-02
 0.46322562359000E+03 0.24332477647552E-01
 0.13120019598000E+03 0.97399968307759E-01
 0.42853015891000E+02 0.30195584253780E+00
 0.15584185766000E+02 0.66233609137875E+00
 s    2 1.00
 0.62067138508000E+01 0.65595308539952E+00
 0.25764896527000E+01 0.37585633285142E+00
 s    1 1.00
 0.57696339419000E+00 0.10000000000000E+01
 s    1 1.00
 0.22972831358000E+00 0.10000000000000E+01
 s    1 1.00
 0.95164440028000E-01 0.10000000000000E+01
 s    1 1.00
 0.48475401370000E-01 0.10000000000000E+01
 p    4 1.00
 0.34697232244000E+02 0.11327220003114E-01
 0.79582622826000E+01 0.76169659202087E-01
 0.23780826883000E+01 0.30192252202676E+00
 0.81433208183000E+00 0.72785027349547E+00
 p    1 1.00
 0.28887547253000E+00 0.10000000000000E+01
 p    1 1.00
 0.10056823671000E+00 0.10000000000000E+01
 d    1 1.00
 0.10970000000000E+01 0.10000000000000E+01
 d    1 1.00
 0.31800000000000E+00 0.10000000000000E+01
 d    1 1.00
 0.90985336424000E-01 0.10000000000000E+01
 f    1 1.00
 0.76100000000000E+00 0.10000000000000E+01
 
    2 0
 s    6 1.00
 0.13575349682000E+05 0.60645503603591E-03
 0.20352333680000E+04 0.46979088884982E-02
 0.46322562359000E+03 0.24332477647552E-01
 0.13120019598000E+03 0.97399968307759E-01
 0.42853015891000E+02 0.30195584253780E+00
 0.15584185766000E+02 0.66233609137875E+00
 s    2 1.00
 0.62067138508000E+01 0.65595308539952E+00
 0.25764896527000E+01 0.37585633285142E+00
 s    1 1.00
 0.57696339419000E+00 0.10000000000000E+01
 s    1 1.00
 0.22972831358000E+00 0.10000000000000E+01
 s    1 1.00
 0.95164440028000E-01 0.10000000000000E+01
 s    1 1.00
 0.48475401370000E-01 0.10000000000000E+01
 p    4 1.00
 0.34697232244000E+02 0.11327220003114E-01
 0.79582622826000E+01 0.76169659202087E-01
 0.23780826883000E+01 0.30192252202676E+00
 0.81433208183000E+00 0.72785027349547E+00
 p    1 1.00
 0.28887547253000E+00 0.10000000000000E+01
 p    1 1.00
 0.10056823671000E+00 0.10000000000000E+01
 d    1 1.00
 0.10970000000000E+01 0.10000000000000E+01
 d    1 1.00
 0.31800000000000E+00 0.10000000000000E+01
 d    1 1.00
 0.90985336424000E-01 0.10000000000000E+01
 f    1 1.00
 0.76100000000000E+00 0.10000000000000E+01
 
    3 0
 s    6 1.00
 0.13575349682000E+05 0.60645503603591E-03
 0.20352333680000E+04 0.46979088884982E-02
 0.46322562359000E+03 0.24332477647552E-01
 0.13120019598000E+03 0.97399968307759E-01
 0.42853015891000E+02 0.30195584253780E+00
 0.15584185766000E+02 0.66233609137875E+00
 s    2 1.00
 0.62067138508000E+01 0.65595308539952E+00
 0.25764896527000E+01 0.37585633285142E+00
 s    1 1.00
 0.57696339419000E+00 0.10000000000000E+01
 s    1 1.00
 0.22972831358000E+00 0.10000000000000E+01
 s    1 1.00
 0.95164440028000E-01 0.10000000000000E+01
 s    1 1.00
 0.48475401370000E-01 0.10000000000000E+01
 p    4 1.00
 0.34697232244000E+02 0.11327220003114E-01
 0.79582622826000E+01 0.76169659202087E-01
 0.23780826883000E+01 0.30192252202676E+00
 0.81433208183000E+00 0.72785027349547E+00
 p    1 1.00
 0.28887547253000E+00 0.10000000000000E+01
 p    1 1.00
 0.10056823671000E+00 0.10000000000000E+01
 d    1 1.00
 0.10970000000000E+01 0.10000000000000E+01
 d    1 1.00
 0.31800000000000E+00 0.10000000000000E+01
 d    1 1.00
 0.90985336424000E-01 0.10000000000000E+01
 f    1 1.00
 0.76100000000000E+00 0.10000000000000E+01
 
    4 0
 s    6 1.00
 0.13575349682000E+05 0.60645503603591E-03
 0.20352333680000E+04 0.46979088884982E-02
 0.46322562359000E+03 0.24332477647552E-01
 0.13120019598000E+03 0.97399968307759E-01
 0.42853015891000E+02 0.30195584253780E+00
 0.15584185766000E+02 0.66233609137875E+00
 s    2 1.00
 0.62067138508000E+01 0.65595308539952E+00
 0.25764896527000E+01 0.37585633285142E+00
 s    1 1.00
 0.57696339419000E+00 0.10000000000000E+01
 s    1 1.00
 0.22972831358000E+00 0.10000000000000E+01
 s    1 1.00
 0.95164440028000E-01 0.10000000000000E+01
 s    1 1.00
 0.48475401370000E-01 0.10000000000000E+01
 p    4 1.00
 0.34697232244000E+02 0.11327220003114E-01
 0.79582622826000E+01 0.76169659202087E-01
 0.23780826883000E+01 0.30192252202676E+00
 0.81433208183000E+00 0.72785027349547E+00
 p    1 1.00
 0.28887547253000E+00 0.10000000000000E+01
 p    1 1.00
 0.10056823671000E+00 0.10000000000000E+01
 d    1 1.00
 0.10970000000000E+01 0.10000000000000E+01
 d    1 1.00
 0.31800000000000E+00 0.10000000000000E+01
 d    1 1.00
 0.90985336424000E-01 0.10000000000000E+01
 f    1 1.00
 0.76100000000000E+00 0.10000000000000E+01
 
    5 0
 s    6 1.00
 0.13575349682000E+05 0.60645503603591E-03
 0.20352333680000E+04 0.46979088884982E-02
 0.46322562359000E+03 0.24332477647552E-01
 0.13120019598000E+03 0.97399968307759E-01
 0.42853015891000E+02 0.30195584253780E+00
 0.15584185766000E+02 0.66233609137875E+00
 s    2 1.00
 0.62067138508000E+01 0.65595308539952E+00
 0.25764896527000E+01 0.37585633285142E+00
 s    1 1.00
 0.57696339419000E+00 0.10000000000000E+01
 s    1 1.00
 0.22972831358000E+00 0.10000000000000E+01
 s    1 1.00
 0.95164440028000E-01 0.10000000000000E+01
 s    1 1.00
 0.48475401370000E-01 0.10000000000000E+01
 p    4 1.00
 0.34697232244000E+02 0.11327220003114E-01
 0.79582622826000E+01 0.76169659202087E-01
 0.23780826883000E+01 0.30192252202676E+00
 0.81433208183000E+00 0.72785027349547E+00
 p    1 1.00
 0.28887547253000E+00 0.10000000000000E+01
 p    1 1.00
 0.10056823671000E+00 0.10000000000000E+01
 d    1 1.00
 0.10970000000000E+01 0.10000000000000E+01
 d    1 1.00
 0.31800000000000E+00 0.10000000000000E+01
 d    1 1.00
 0.90985336424000E-01 0.10000000000000E+01
 f    1 1.00
 0.76100000000000E+00 0.10000000000000E+01
 
    6 0
 s    6 1.00
 0.13575349682000E+05 0.60645503603591E-03
 0.20352333680000E+04 0.46979088884982E-02
 0.46322562359000E+03 0.24332477647552E-01
 0.13120019598000E+03 0.97399968307759E-01
 0.42853015891000E+02 0.30195584253780E+00
 0.15584185766000E+02 0.66233609137875E+00
 s    2 1.00
 0.62067138508000E+01 0.65595308539952E+00
 0.25764896527000E+01 0.37585633285142E+00
 s    1 1.00
 0.57696339419000E+00 0.10000000000000E+01
 s    1 1.00
 0.22972831358000E+00 0.10000000000000E+01
 s    1 1.00
 0.95164440028000E-01 0.10000000000000E+01
 s    1 1.00
 0.48475401370000E-01 0.10000000000000E+01
 p    4 1.00
 0.34697232244000E+02 0.11327220003114E-01
 0.79582622826000E+01 0.76169659202087E-01
 0.23780826883000E+01 0.30192252202676E+00
 0.81433208183000E+00 0.72785027349547E+00
 p    1 1.00
 0.28887547253000E+00 0.10000000000000E+01
 p    1 1.00
 0.10056823671000E+00 0.10000000000000E+01
 d    1 1.00
 0.10970000000000E+01 0.10000000000000E+01
 d    1 1.00
 0.31800000000000E+00 0.10000000000000E+01
 d    1 1.00
 0.90985336424000E-01 0.10000000000000E+01
 f    1 1.00
 0.76100000000000E+00 0.10000000000000E+01
 
    7 0
 s    3 1.00
 0.34061341000000E+02 0.25439307208879E-01
 0.51235746000000E+01 0.19008594890375E+00
 0.11646626000000E+01 0.85244113011042E+00
 s    1 1.00
 0.32723041000000E+00 0.10000000000000E+01
 s    1 1.00
 0.10307241000000E+00 0.10000000000000E+01
 p    1 1.00
 0.80000000000000E+00 0.10000000000000E+01
 p    1 1.00
 0.95774129632000E-01 0.10000000000000E+01
 
    8 0
 s    3 1.00
 0.34061341000000E+02 0.25439307208879E-01
 0.51235746000000E+01 0.19008594890375E+00
 0.11646626000000E+01 0.85244113011042E+00
 s    1 1.00
 0.32723041000000E+00 0.10000000000000E+01
 s    1 1.00
 0.10307241000000E+00 0.10000000000000E+01
 p    1 1.00
 0.80000000000000E+00 0.10000000000000E+01
 p    1 1.00
 0.95774129632000E-01 0.10000000000000E+01
 
    9 0
 s    3 1.00
 0.34061341000000E+02 0.25439307208879E-01
 0.51235746000000E+01 0.19008594890375E+00
 0.11646626000000E+01 0.85244113011042E+00
 s    1 1.00
 0.32723041000000E+00 0.10000000000000E+01
 s    1 1.00
 0.10307241000000E+00 0.10000000000000E+01
 p    1 1.00
 0.80000000000000E+00 0.10000000000000E+01
 p    1 1.00
 0.95774129632000E-01 0.10000000000000E+01
 
   10 0
 s    3 1.00
 0.34061341000000E+02 0.25439307208879E-01
 0.51235746000000E+01 0.19008594890375E+00
 0.11646626000000E+01 0.85244113011042E+00
 s    1 1.00
 0.32723041000000E+00 0.10000000000000E+01
 s    1 1.00
 0.10307241000000E+00 0.10000000000000E+01
 p    1 1.00
 0.80000000000000E+00 0.10000000000000E+01
 p    1 1.00
 0.95774129632000E-01 0.10000000000000E+01
 
   11 0
 s    6 1.00
 0.19730800647000E+05 0.58626402628763E-03
 0.29578958745000E+04 0.45428820586397E-02
 0.67322133595000E+03 0.23558413450084E-01
 0.19068249494000E+03 0.94709193292923E-01
 0.62295441898000E+02 0.29719784913376E+00
 0.22654161182000E+02 0.66916246895232E+00
 s    2 1.00
 0.89791477428000E+01 0.64596683630063E+00
 0.36863002370000E+01 0.38700574393705E+00
 s    1 1.00
 0.84660076805000E+00 0.10000000000000E+01
 s    1 1.00
 0.33647133771000E+00 0.10000000000000E+01
 s    1 1.00
 0.13647653675000E+00 0.10000000000000E+01
 s    1 1.00
 0.68441605847000E-01 0.10000000000000E+01
 p    4 1.00
 0.49200380510000E+02 0.11448825101764E-01
 0.11346790537000E+02 0.78422337970864E-01
 0.34273972411000E+01 0.30818094738830E+00
 0.11785525134000E+01 0.72027196368413E+00
 p    1 1.00
 0.41642204972000E+00 0.10000000000000E+01
 p    1 1.00
 0.14260826011000E+00 0.10000000000000E+01
 d    1 1.00
 0.16540000000000E+01 0.10000000000000E+01
 d    1 1.00
 0.46900000000000E+00 0.10000000000000E+01
 d    1 1.00
 0.12829642058000E+00 0.10000000000000E+01
 f    1 1.00
 0.10930000000000E+01 0.10000000000000E+01
 
   12 0
 s    6 1.00
 0.27032382631000E+05 0.57227335211155E-03
 0.40523871392000E+04 0.44353233492995E-02
 0.92232722710000E+03 0.23020107706038E-01
 0.26124070989000E+03 0.92822490667928E-01
 0.85354641351000E+02 0.29378500009671E+00
 0.31035035245000E+02 0.67401604501641E+00
 s    2 1.00
 0.12260860728000E+02 0.63839937025506E+00
 0.49987076005000E+01 0.39534587125718E+00
 s    1 1.00
 0.11703108158000E+01 0.10000000000000E+01
 s    1 1.00
 0.46474740994000E+00 0.10000000000000E+01
 s    1 1.00
 0.18504536357000E+00 0.10000000000000E+01
 s    1 1.00
 0.70288026270000E-01 0.10000000000000E+01
 p    4 1.00
 0.63274954801000E+02 0.12018332222616E-01
 0.14627049379000E+02 0.83005421790056E-01
 0.44501223456000E+01 0.31991743925964E+00
 0.15275799647000E+01 0.70715542916104E+00
 p    1 1.00
 0.52935117943000E+00 0.10000000000000E+01
 p    1 1.00
 0.17478421270000E+00 0.10000000000000E+01
 p    1 1.00
 0.51112745706000E-01 0.10000000000000E+01
 d    1 1.00
 0.23140000000000E+01 0.10000000000000E+01
 d    1 1.00
 0.64500000000000E+00 0.10000000000000E+01
 d    1 1.00
 0.14696477366000E+00 0.10000000000000E+01
 f    1 1.00
 0.14280000000000E+01 0.10000000000000E+01
 
   13 0
 s    6 1.00
 0.27032382631000E+05 0.57227335211155E-03
 0.40523871392000E+04 0.44353233492995E-02
 0.92232722710000E+03 0.23020107706038E-01
 0.26124070989000E+03 0.92822490667928E-01
 0.85354641351000E+02 0.29378500009671E+00
 0.31035035245000E+02 0.67401604501641E+00
 s    2 1.00
 0.12260860728000E+02 0.63839937025506E+00
 0.49987076005000E+01 0.39534587125718E+00
 s    1 1.00
 0.11703108158000E+01 0.10000000000000E+01
 s    1 1.00
 0.46474740994000E+00 0.10000000000000E+01
 s    1 1.00
 0.18504536357000E+00 0.10000000000000E+01
 s    1 1.00
 0.70288026270000E-01 0.10000000000000E+01
 p    4 1.00
 0.63274954801000E+02 0.12018332222616E-01
 0.14627049379000E+02 0.83005421790056E-01
 0.44501223456000E+01 0.31991743925964E+00
 0.15275799647000E+01 0.70715542916104E+00
 p    1 1.00
 0.52935117943000E+00 0.10000000000000E+01
 p    1 1.00
 0.17478421270000E+00 0.10000000000000E+01
 p    1 1.00
 0.51112745706000E-01 0.10000000000000E+01
 d    1 1.00
 0.23140000000000E+01 0.10000000000000E+01
 d    1 1.00
 0.64500000000000E+00 0.10000000000000E+01
 d    1 1.00
 0.14696477366000E+00 0.10000000000000E+01
 f    1 1.00
 0.14280000000000E+01 0.10000000000000E+01
 
   14 0
 s    6 1.00
 0.19730800647000E+05 0.58626402628763E-03
 0.29578958745000E+04 0.45428820586397E-02
 0.67322133595000E+03 0.23558413450084E-01
 0.19068249494000E+03 0.94709193292923E-01
 0.62295441898000E+02 0.29719784913376E+00
 0.22654161182000E+02 0.66916246895232E+00
 s    2 1.00
 0.89791477428000E+01 0.64596683630063E+00
 0.36863002370000E+01 0.38700574393705E+00
 s    1 1.00
 0.84660076805000E+00 0.10000000000000E+01
 s    1 1.00
 0.33647133771000E+00 0.10000000000000E+01
 s    1 1.00
 0.13647653675000E+00 0.10000000000000E+01
 s    1 1.00
 0.68441605847000E-01 0.10000000000000E+01
 p    4 1.00
 0.49200380510000E+02 0.11448825101764E-01
 0.11346790537000E+02 0.78422337970864E-01
 0.34273972411000E+01 0.30818094738830E+00
 0.11785525134000E+01 0.72027196368413E+00
 p    1 1.00
 0.41642204972000E+00 0.10000000000000E+01
 p    1 1.00
 0.14260826011000E+00 0.10000000000000E+01
 d    1 1.00
 0.16540000000000E+01 0.10000000000000E+01
 d    1 1.00
 0.46900000000000E+00 0.10000000000000E+01
 d    1 1.00
 0.12829642058000E+00 0.10000000000000E+01
 f    1 1.00
 0.10930000000000E+01 0.10000000000000E+01
 
   15 0
 s    3 1.00
 0.34061341000000E+02 0.25439307208879E-01
 0.51235746000000E+01 0.19008594890375E+00
 0.11646626000000E+01 0.85244113011042E+00
 s    1 1.00
 0.32723041000000E+00 0.10000000000000E+01
 s    1 1.00
 0.10307241000000E+00 0.10000000000000E+01
 p    1 1.00
 0.80000000000000E+00 0.10000000000000E+01
 p    1 1.00
 0.95774129632000E-01 0.10000000000000E+01
 
   16 0
 s    3 1.00
 0.34061341000000E+02 0.25439307208879E-01
 0.51235746000000E+01 0.19008594890375E+00
 0.11646626000000E+01 0.85244113011042E+00
 s    1 1.00
 0.32723041000000E+00 0.10000000000000E+01
 s    1 1.00
 0.10307241000000E+00 0.10000000000000E+01
 p    1 1.00
 0.80000000000000E+00 0.10000000000000E+01
 p    1 1.00
 0.95774129632000E-01 0.10000000000000E+01
 
[MO]
 Sym= X
 Ene= -0.899506
 Spin= Alpha
 Occup= -0.899506
         1    8.223833E-04
         2    1.906629E-03
         3    1.407130E-03
         4   -3.563616E-02
         5   -2.540434E-01
         6    4.059711E-02
         7    1.884063E-02
         8   -3.770008E-02
         9   -4.309244E-05
        10    2.175956E-03
        11   -3.448756E-02
        12   -4.441168E-05
        13    7.009030E-03
        14   -7.985886E-02
        15   -1.348425E-04
        16    1.847763E-03
        17   -2.062874E-03
        18    2.151101E-04
        19    1.585277E-04
        20   -1.243581E-06
        21   -4.071349E-07
        22   -3.126574E-03
        23   -2.707143E-05
        24    3.153645E-03
        25    8.637349E-04
        26    1.184370E-06
        27   -3.917414E-06
        28    2.010614E-04
        29   -1.673540E-03
        30    1.472478E-03
        31   -1.439720E-02
        32   -1.933209E-05
        33    1.953372E-05
        34   -1.624785E-04
        35   -4.209984E-04
        36    4.389548E-07
        37    1.781248E-04
        38    4.656998E-04
        39   -3.995297E-07
        40    3.986299E-05
        41    9.912892E-05
        42   -1.893900E-07
        43   -8.942344E-07
        44   -1.358824E-02
        45   -3.069494E-02
        46    4.474333E-02
        47    8.196807E-02
        48    1.754751E-01
        49   -3.990709E-02
        50   -1.332431E-01
        51   -3.736289E-07
        52    1.623662E-04
        53   -9.816405E-02
        54   -6.394689E-07
        55    1.066896E-04
        56    9.099860E-02
        57    6.080888E-06
        58   -2.671211E-04
        59    4.950741E-03
        60   -4.215308E-03
        61   -7.354331E-04
        62    6.333453E-09
        63   -1.480061E-05
        64    4.450502E-07
        65    6.543574E-04
        66   -2.499520E-04
        67   -4.044054E-04
        68    1.408987E-07
        69    8.494931E-07
        70    2.077602E-06
        71   -3.750546E-02
        72    3.773641E-02
        73   -2.309499E-04
        74   -1.279210E-06
        75    1.036339E-04
        76   -1.522729E-05
        77   -1.054960E-03
        78   -3.218024E-09
        79   -1.878083E-06
        80    8.415028E-04
        81    5.481811E-09
        82    4.475734E-06
        83    5.738752E-04
        84   -1.164379E-09
        85   -1.956021E-06
        86    1.067176E-07
        87    8.224117E-04
        88    1.906701E-03
        89    1.407108E-03
        90   -3.563958E-02
        91   -2.540570E-01
        92    4.060299E-02
        93    1.884134E-02
        94    3.770034E-02
        95   -1.481086E-05
        96    2.174965E-03
        97    3.448745E-02
        98   -1.763501E-05
        99    7.013617E-03
       100    7.985334E-02
       101   -1.397711E-04
       102    1.847762E-03
       103   -2.062896E-03
       104    2.151334E-04
       105   -1.585377E-04
       106   -5.141985E-07
       107    2.663606E-07
       108   -3.126709E-03
       109   -2.697365E-05
       110    3.153682E-03
       111   -8.636962E-04
       112    3.074511E-06
       113    4.733120E-06
       114    1.974615E-04
       115   -1.669148E-03
       116    1.471686E-03
       117    1.439863E-02
       118   -5.429696E-05
       119   -4.410392E-05
       120   -1.624857E-04
       121    4.210117E-04
       122    3.178140E-07
       123    1.781352E-04
       124   -4.657084E-04
       125   -2.200802E-07
       126    3.986232E-05
       127   -9.913813E-05
       128   -2.063120E-07
       129    8.355158E-07
       130   -1.645721E-03
       131   -3.741305E-03
       132    2.898264E-03
       133    3.242885E-02
       134    1.116456E-01
       135   -3.344024E-02
       136   -2.024606E-02
       137   -8.327588E-03
       138    4.335964E-05
       139   -3.291414E-02
       140   -7.171790E-03
       141    6.335706E-05
       142   -3.896773E-02
       143   -4.754222E-02
       144    2.360253E-04
       145    5.753989E-04
       146   -4.639737E-04
       147   -1.114252E-04
       148   -1.356164E-03
       149    2.201719E-07
       150    1.380243E-06
       151    3.806873E-03
       152   -1.689207E-03
       153   -2.117667E-03
       154   -2.173298E-03
       155   -1.120141E-05
       156   -5.292428E-06
       157    5.806991E-03
       158   -5.531125E-03
       159   -2.758664E-04
       160    1.882141E-02
       161   -9.278867E-05
       162   -4.044127E-05
       163   -2.458868E-04
       164   -2.304421E-04
       165   -6.260822E-07
       166    1.651306E-04
       167    3.102887E-04
       168    7.111606E-07
       169    1.647612E-04
       170   -1.118177E-06
       171    1.288167E-07
       172   -3.299632E-08
       173   -1.932237E-03
       174   -4.433472E-03
       175    8.926641E-03
       176    7.830543E-04
       177    3.961253E-02
       178    3.645867E-02
       179   -6.302397E-03
       180    4.833598E-08
       181   -2.437301E-06
       182   -3.296130E-03
       183   -4.445382E-08
       184    3.584865E-05
       185    1.932174E-02
       186    1.300358E-05
       187    1.744961E-05
       188    2.732795E-04
       189   -2.648462E-04
       190   -8.433256E-06
       191   -2.542856E-09
       192   -1.511574E-06
       193    5.595089E-07
       194   -3.458714E-04
       195   -4.388930E-04
       196    7.847644E-04
       197   -5.652718E-08
       198    1.202343E-05
       199    1.215502E-06
       200    1.270103E-02
       201   -1.343259E-02
       202    7.315593E-04
       203   -4.201035E-06
       204    2.150679E-04
       205    1.873884E-05
       206    3.177560E-05
       207   -6.745746E-09
       208   -2.563877E-07
       209   -4.356512E-05
       210    4.727594E-09
       211    5.138779E-07
       212    9.336692E-07
       213    4.322774E-09
       214   -1.698977E-07
       215   -8.531466E-08
       216   -1.645744E-03
       217   -3.741359E-03
       218    2.898589E-03
       219    3.242706E-02
       220    1.116942E-01
       221   -3.343708E-02
       222   -2.024574E-02
       223    8.327170E-03
       224    1.320854E-05
       225   -3.291233E-02
       226    7.171036E-03
       227    3.291024E-05
       228   -3.896280E-02
       229    4.755305E-02
       230    2.031449E-04
       231    5.753846E-04
       232   -4.639752E-04
       233   -1.114094E-04
       234    1.356180E-03
       235    8.613944E-07
       236   -1.425008E-06
       237    3.806514E-03
       238   -1.688886E-03
       239   -2.117628E-03
       240    2.173048E-03
       241   -9.437548E-06
       242    4.896305E-06
       243    5.799895E-03
       244   -5.523136E-03
       245   -2.767596E-04
       246   -1.882111E-02
       247   -5.857672E-05
       248    6.060273E-05
       249   -2.458778E-04
       250    2.304390E-04
       251   -4.238749E-07
       252    1.651207E-04
       253   -3.102863E-04
       254    4.816268E-07
       255    1.647590E-04
       256    1.119909E-06
       257    8.706108E-08
       258    3.041430E-08
       259    4.138705E-03
       260    5.409330E-03
       261    2.097523E-02
       262    2.015465E-03
       263    6.480041E-04
       264   -5.360503E-06
       265    6.908616E-03
       266    3.455834E-04
       267   -1.104645E-05
       268    4.138601E-03
       269    5.409307E-03
       270    2.097809E-02
       271    2.015448E-03
       272   -6.480229E-04
       273   -4.340135E-06
       274    6.904504E-03
       275   -3.492349E-04
       276    2.948173E-06
       277   -9.879226E-03
       278   -1.603344E-02
       279   -1.590077E-02
       280   -4.057443E-05
       281    1.467720E-03
       282   -1.336266E-06
       283   -7.063380E-03
       284    2.889166E-03
       285    8.119460E-05
       286   -9.879065E-03
       287   -1.603411E-02
       288   -1.591635E-02
       289   -4.058288E-05
       290   -1.467688E-03
       291   -2.274857E-06
       292   -7.056865E-03
       293   -2.886124E-03
       294    8.263953E-05
       295   -2.036536E-03
       296   -4.677585E-03
       297    3.264831E-03
       298    3.069149E-02
       299    1.620335E-01
       300   -1.564795E-02
       301    1.078428E-01
       302   -2.020805E-07
       303   -2.250030E-04
       304    1.003827E-01
       305   -5.056338E-07
       306   -2.113798E-04
       307    1.029155E-01
       308    1.273053E-06
       309   -1.924322E-04
       310    1.164657E-02
       311   -1.292482E-02
       312    1.278251E-03
       313    3.828021E-08
       314   -2.736164E-05
       315   -3.736861E-07
       316    3.312205E-02
       317   -3.444523E-02
       318    1.323178E-03
       319    1.560097E-07
       320   -8.259045E-05
       321   -1.477081E-06
       322   -1.426048E-02
       323    4.909840E-03
       324    9.350639E-03
       325   -1.904759E-06
       326    5.955095E-05
       327   -1.814927E-06
       328   -9.650810E-05
       329    1.137970E-08
       330    9.799957E-07
       331    3.553012E-04
       332   -1.548377E-08
       333   -8.163247E-07
       334   -2.258220E-04
       335    2.162988E-10
       336   -4.984775E-07
       337    1.016927E-07
       338    1.038170E-03
       339    2.641214E-03
       340   -3.271954E-03
       341    6.350676E-03
       342    2.842200E-03
       343    2.185741E-02
       344   -3.090016E-01
       345   -6.333365E-02
       346    6.836767E-04
       347   -2.719771E-01
       348   -6.058683E-02
       349    6.025250E-04
       350   -2.063673E-01
       351   -5.177756E-02
       352    4.594492E-04
       353   -1.582993E-02
       354   -9.117227E-03
       355    3.009660E-05
       356   -9.737166E-04
       357    2.298003E-04
       358    7.439163E-04
       359    2.602847E-03
       360    4.205404E-06
       361   -5.851419E-06
       362   -3.811544E-03
       363    1.710216E-03
       364    2.101327E-03
       365    5.962408E-03
       366    1.456570E-05
       367   -1.385103E-05
       368   -3.898939E-03
       369    3.326466E-03
       370    5.724724E-04
       371    6.238817E-03
       372    4.221509E-06
       373   -1.718503E-05
       374    2.709369E-04
       375   -5.318479E-04
       376   -1.216194E-06
       377   -5.977887E-04
       378    9.682919E-04
       379    2.574199E-07
       380    2.342887E-04
       381   -2.547431E-04
       382    1.374276E-06
       383   -3.074924E-06
       384    1.038112E-03
       385    2.641067E-03
       386   -3.271671E-03
       387    6.350924E-03
       388    2.846697E-03
       389    2.185993E-02
       390   -3.090041E-01
       391    6.333493E-02
       392    7.007794E-04
       393   -2.719793E-01
       394    6.058788E-02
       395    6.200000E-04
       396   -2.063702E-01
       397    5.177800E-02
       398    4.553277E-04
       399   -1.582931E-02
       400    9.116961E-03
       401    3.503769E-05
       402   -9.737250E-04
       403    2.298254E-04
       404    7.438996E-04
       405   -2.602841E-03
       406    4.366383E-06
       407    6.000451E-06
       408   -3.811609E-03
       409    1.710247E-03
       410    2.101362E-03
       411   -5.962479E-03
       412    1.533660E-05
       413    1.372042E-05
       414   -3.899026E-03
       415    3.326382E-03
       416    5.726437E-04
       417   -6.239316E-03
       418    1.223192E-05
       419    9.720674E-06
       420    2.709377E-04
       421    5.318521E-04
       422   -1.133564E-06
       423   -5.977878E-04
       424   -9.682976E-04
       425    1.214847E-07
       426    2.342867E-04
       427    2.547432E-04
       428    1.399350E-06
       429    3.174993E-06
       430   -3.639025E-04
       431   -8.612643E-04
       432    1.120054E-03
       433    4.785380E-03
       434   -1.640962E-02
       435   -2.353733E-02
       436    2.210771E-04
       437    3.187350E-08
       438    1.941308E-05
       439   -7.556280E-04
       440    2.111304E-07
       441    1.649578E-06
       442    4.489253E-04
       443    2.101530E-07
       444   -1.901370E-04
       445    3.001884E-05
       446   -2.348934E-05
       447   -6.529503E-06
       448    5.121750E-09
       449    3.186348E-06
       450    2.524167E-08
       451    1.299707E-04
       452   -2.859565E-04
       453    1.559858E-04
       454    5.077978E-09
       455   -8.827315E-06
       456    3.172295E-08
       457    5.641851E-04
       458   -3.936929E-04
       459   -1.704922E-04
       460    7.567225E-07
       461    3.873395E-05
       462   -8.772598E-07
       463    4.856302E-07
       464   -9.924053E-10
       465    2.414231E-06
       466    9.407391E-06
       467    1.279419E-09
       468    6.004391E-08
       469   -1.005893E-05
       470    5.203265E-11
       471   -3.299074E-06
       472   -1.073556E-08
       473    8.148668E-05
       474    7.552773E-04
       475   -1.025419E-03
       476   -4.406008E-05
       477   -1.903289E-04
       478   -2.822392E-05
       479    1.824104E-03
       480    6.722433E-04
       481   -2.985972E-04
       482    8.139987E-05
       483    7.552286E-04
       484   -1.021225E-03
       485   -4.402437E-05
       486    1.903703E-04
       487   -2.836756E-05
       488    1.824682E-03
       489   -6.695596E-04
       490   -3.006935E-04
 Sym= X
 Ene= 0.899506
 Spin= Alpha
 Occup= 0.899506
         1    2.021117E-05
         2    4.792157E-05
         3   -1.393232E-04
         4    6.468362E-05
         5    3.119549E-02
         6   -3.621100E-04
         7   -2.098438E-04
         8   -6.425718E-05
         9   -9.899451E-02
        10   -3.163624E-04
        11   -1.120963E-05
        12   -9.848344E-02
        13    2.053981E-02
        14   -1.533071E-02
        15   -5.522589E-02
        16   -6.760060E-06
        17    2.284799E-06
        18    4.475261E-06
        19   -2.325631E-06
        20    3.921473E-04
        21   -6.142148E-04
        22    9.095247E-05
        23   -2.843983E-05
        24   -6.251264E-05
        25    1.066606E-05
        26    5.131749E-03
        27    1.907826E-04
        28    6.570296E-03
        29   -6.980683E-03
        30    4.103871E-04
        31    2.257101E-04
        32    5.597940E-03
        33    1.666366E-02
        34    2.751154E-06
        35   -1.333941E-06
        36    1.825785E-04
        37   -3.531717E-06
        38    2.566334E-07
        39    1.381873E-04
        40   -1.593442E-07
        41    1.533036E-06
        42   -3.831421E-04
        43   -3.528007E-05
        44    6.622382E-06
        45    1.164926E-05
        46    8.294313E-05
        47   -1.709821E-03
        48    6.048305E-02
        49    6.216994E-03
        50   -1.662474E-05
        51   -1.568407E-07
        52    6.331480E-04
        53   -2.422967E-04
        54    3.278648E-06
        55   -2.940294E-03
        56    2.041654E-02
        57    2.325093E-06
        58   -6.455155E-02
        59   -3.203104E-05
        60   -4.382051E-06
        61    3.641309E-05
        62    2.157572E-07