[Molden Format]
[Title]
ADC(2) - opt by CAM-B3LYP gaussian                                              
[Atoms] AU
 c     1    6 -.12588573623097E+01 -.22835126974190E+01 -.24083260376910E-01
 c     2    6 -.25578815622211E+01 0.23621577000000E-06 -.22837930855340E-01
 c     3    6 -.12588573623097E+01 0.22835131698505E+01 -.24090819281440E-01
 c     4    6 0.13318248850473E+01 0.22853065199506E+01 -.26003222127920E-01
 c     5    6 0.26868737956204E+01 0.23621577000000E-06 -.25389061134730E-01
 c     6    6 0.13318248850473E+01 -.22853060475191E+01 -.25993773497260E-01
 h     7    1 -.22974546243959E+01 -.40385977330627E+01 -.21598270512170E-01
 h     8    1 -.22974527346698E+01 0.40385982054942E+01 -.21613388321230E-01
 h     9    1 0.23510089905703E+01 0.40574312161345E+01 -.28191524989800E-01
 h    10    1 0.23510071008442E+01 -.40574307437030E+01 -.28172627728480E-01
 n    11    7 -.52726375582849E+01 0.23621577000000E-06 -.17238672323600E-01
 o    12    8 -.63813946825068E+01 0.20269261555273E+01 -.14842499587100E-01
 o    13    8 -.63813927927806E+01 -.20269275728219E+01 -.14865176300690E-01
 n    14    7 0.52430742102305E+01 0.23621577000000E-06 -.67376886081320E-01
 h    15    1 0.62051583509223E+01 0.16177513148781E+01 0.18115044628513E+00
 h    16    1 0.62051564611962E+01 -.16177527321727E+01 0.18114666683287E+00
[GTO]
    1 0
 s    6 1.00
 0.13575349682000E+05 0.60645503603591E-03
 0.20352333680000E+04 0.46979088884982E-02
 0.46322562359000E+03 0.24332477647552E-01
 0.13120019598000E+03 0.97399968307759E-01
 0.42853015891000E+02 0.30195584253780E+00
 0.15584185766000E+02 0.66233609137875E+00
 s    2 1.00
 0.62067138508000E+01 0.65595308539952E+00
 0.25764896527000E+01 0.37585633285142E+00
 s    1 1.00
 0.57696339419000E+00 0.10000000000000E+01
 s    1 1.00
 0.22972831358000E+00 0.10000000000000E+01
 s    1 1.00
 0.95164440028000E-01 0.10000000000000E+01
 s    1 1.00
 0.48475401370000E-01 0.10000000000000E+01
 p    4 1.00
 0.34697232244000E+02 0.11327220003114E-01
 0.79582622826000E+01 0.76169659202087E-01
 0.23780826883000E+01 0.30192252202676E+00
 0.81433208183000E+00 0.72785027349547E+00
 p    1 1.00
 0.28887547253000E+00 0.10000000000000E+01
 p    1 1.00
 0.10056823671000E+00 0.10000000000000E+01
 d    1 1.00
 0.10970000000000E+01 0.10000000000000E+01
 d    1 1.00
 0.31800000000000E+00 0.10000000000000E+01
 d    1 1.00
 0.90985336424000E-01 0.10000000000000E+01
 f    1 1.00
 0.76100000000000E+00 0.10000000000000E+01
 
    2 0
 s    6 1.00
 0.13575349682000E+05 0.60645503603591E-03
 0.20352333680000E+04 0.46979088884982E-02
 0.46322562359000E+03 0.24332477647552E-01
 0.13120019598000E+03 0.97399968307759E-01
 0.42853015891000E+02 0.30195584253780E+00
 0.15584185766000E+02 0.66233609137875E+00
 s    2 1.00
 0.62067138508000E+01 0.65595308539952E+00
 0.25764896527000E+01 0.37585633285142E+00
 s    1 1.00
 0.57696339419000E+00 0.10000000000000E+01
 s    1 1.00
 0.22972831358000E+00 0.10000000000000E+01
 s    1 1.00
 0.95164440028000E-01 0.10000000000000E+01
 s    1 1.00
 0.48475401370000E-01 0.10000000000000E+01
 p    4 1.00
 0.34697232244000E+02 0.11327220003114E-01
 0.79582622826000E+01 0.76169659202087E-01
 0.23780826883000E+01 0.30192252202676E+00
 0.81433208183000E+00 0.72785027349547E+00
 p    1 1.00
 0.28887547253000E+00 0.10000000000000E+01
 p    1 1.00
 0.10056823671000E+00 0.10000000000000E+01
 d    1 1.00
 0.10970000000000E+01 0.10000000000000E+01
 d    1 1.00
 0.31800000000000E+00 0.10000000000000E+01
 d    1 1.00
 0.90985336424000E-01 0.10000000000000E+01
 f    1 1.00
 0.76100000000000E+00 0.10000000000000E+01
 
    3 0
 s    6 1.00
 0.13575349682000E+05 0.60645503603591E-03
 0.20352333680000E+04 0.46979088884982E-02
 0.46322562359000E+03 0.24332477647552E-01
 0.13120019598000E+03 0.97399968307759E-01
 0.42853015891000E+02 0.30195584253780E+00
 0.15584185766000E+02 0.66233609137875E+00
 s    2 1.00
 0.62067138508000E+01 0.65595308539952E+00
 0.25764896527000E+01 0.37585633285142E+00
 s    1 1.00
 0.57696339419000E+00 0.10000000000000E+01
 s    1 1.00
 0.22972831358000E+00 0.10000000000000E+01
 s    1 1.00
 0.95164440028000E-01 0.10000000000000E+01
 s    1 1.00
 0.48475401370000E-01 0.10000000000000E+01
 p    4 1.00
 0.34697232244000E+02 0.11327220003114E-01
 0.79582622826000E+01 0.76169659202087E-01
 0.23780826883000E+01 0.30192252202676E+00
 0.81433208183000E+00 0.72785027349547E+00
 p    1 1.00
 0.28887547253000E+00 0.10000000000000E+01
 p    1 1.00
 0.10056823671000E+00 0.10000000000000E+01
 d    1 1.00
 0.10970000000000E+01 0.10000000000000E+01
 d    1 1.00
 0.31800000000000E+00 0.10000000000000E+01
 d    1 1.00
 0.90985336424000E-01 0.10000000000000E+01
 f    1 1.00
 0.76100000000000E+00 0.10000000000000E+01
 
    4 0
 s    6 1.00
 0.13575349682000E+05 0.60645503603591E-03
 0.20352333680000E+04 0.46979088884982E-02
 0.46322562359000E+03 0.24332477647552E-01
 0.13120019598000E+03 0.97399968307759E-01
 0.42853015891000E+02 0.30195584253780E+00
 0.15584185766000E+02 0.66233609137875E+00
 s    2 1.00
 0.62067138508000E+01 0.65595308539952E+00
 0.25764896527000E+01 0.37585633285142E+00
 s    1 1.00
 0.57696339419000E+00 0.10000000000000E+01
 s    1 1.00
 0.22972831358000E+00 0.10000000000000E+01
 s    1 1.00
 0.95164440028000E-01 0.10000000000000E+01
 s    1 1.00
 0.48475401370000E-01 0.10000000000000E+01
 p    4 1.00
 0.34697232244000E+02 0.11327220003114E-01
 0.79582622826000E+01 0.76169659202087E-01
 0.23780826883000E+01 0.30192252202676E+00
 0.81433208183000E+00 0.72785027349547E+00
 p    1 1.00
 0.28887547253000E+00 0.10000000000000E+01
 p    1 1.00
 0.10056823671000E+00 0.10000000000000E+01
 d    1 1.00
 0.10970000000000E+01 0.10000000000000E+01
 d    1 1.00
 0.31800000000000E+00 0.10000000000000E+01
 d    1 1.00
 0.90985336424000E-01 0.10000000000000E+01
 f    1 1.00
 0.76100000000000E+00 0.10000000000000E+01
 
    5 0
 s    6 1.00
 0.13575349682000E+05 0.60645503603591E-03
 0.20352333680000E+04 0.46979088884982E-02
 0.46322562359000E+03 0.24332477647552E-01
 0.13120019598000E+03 0.97399968307759E-01
 0.42853015891000E+02 0.30195584253780E+00
 0.15584185766000E+02 0.66233609137875E+00
 s    2 1.00
 0.62067138508000E+01 0.65595308539952E+00
 0.25764896527000E+01 0.37585633285142E+00
 s    1 1.00
 0.57696339419000E+00 0.10000000000000E+01
 s    1 1.00
 0.22972831358000E+00 0.10000000000000E+01
 s    1 1.00
 0.95164440028000E-01 0.10000000000000E+01
 s    1 1.00
 0.48475401370000E-01 0.10000000000000E+01
 p    4 1.00
 0.34697232244000E+02 0.11327220003114E-01
 0.79582622826000E+01 0.76169659202087E-01
 0.23780826883000E+01 0.30192252202676E+00
 0.81433208183000E+00 0.72785027349547E+00
 p    1 1.00
 0.28887547253000E+00 0.10000000000000E+01
 p    1 1.00
 0.10056823671000E+00 0.10000000000000E+01
 d    1 1.00
 0.10970000000000E+01 0.10000000000000E+01
 d    1 1.00
 0.31800000000000E+00 0.10000000000000E+01
 d    1 1.00
 0.90985336424000E-01 0.10000000000000E+01
 f    1 1.00
 0.76100000000000E+00 0.10000000000000E+01
 
    6 0
 s    6 1.00
 0.13575349682000E+05 0.60645503603591E-03
 0.20352333680000E+04 0.46979088884982E-02
 0.46322562359000E+03 0.24332477647552E-01
 0.13120019598000E+03 0.97399968307759E-01
 0.42853015891000E+02 0.30195584253780E+00
 0.15584185766000E+02 0.66233609137875E+00
 s    2 1.00
 0.62067138508000E+01 0.65595308539952E+00
 0.25764896527000E+01 0.37585633285142E+00
 s    1 1.00
 0.57696339419000E+00 0.10000000000000E+01
 s    1 1.00
 0.22972831358000E+00 0.10000000000000E+01
 s    1 1.00
 0.95164440028000E-01 0.10000000000000E+01
 s    1 1.00
 0.48475401370000E-01 0.10000000000000E+01
 p    4 1.00
 0.34697232244000E+02 0.11327220003114E-01
 0.79582622826000E+01 0.76169659202087E-01
 0.23780826883000E+01 0.30192252202676E+00
 0.81433208183000E+00 0.72785027349547E+00
 p    1 1.00
 0.28887547253000E+00 0.10000000000000E+01
 p    1 1.00
 0.10056823671000E+00 0.10000000000000E+01
 d    1 1.00
 0.10970000000000E+01 0.10000000000000E+01
 d    1 1.00
 0.31800000000000E+00 0.10000000000000E+01
 d    1 1.00
 0.90985336424000E-01 0.10000000000000E+01
 f    1 1.00
 0.76100000000000E+00 0.10000000000000E+01
 
    7 0
 s    3 1.00
 0.34061341000000E+02 0.25439307208879E-01
 0.51235746000000E+01 0.19008594890375E+00
 0.11646626000000E+01 0.85244113011042E+00
 s    1 1.00
 0.32723041000000E+00 0.10000000000000E+01
 s    1 1.00
 0.10307241000000E+00 0.10000000000000E+01
 p    1 1.00
 0.80000000000000E+00 0.10000000000000E+01
 p    1 1.00
 0.95774129632000E-01 0.10000000000000E+01
 
    8 0
 s    3 1.00
 0.34061341000000E+02 0.25439307208879E-01
 0.51235746000000E+01 0.19008594890375E+00
 0.11646626000000E+01 0.85244113011042E+00
 s    1 1.00
 0.32723041000000E+00 0.10000000000000E+01
 s    1 1.00
 0.10307241000000E+00 0.10000000000000E+01
 p    1 1.00
 0.80000000000000E+00 0.10000000000000E+01
 p    1 1.00
 0.95774129632000E-01 0.10000000000000E+01
 
    9 0
 s    3 1.00
 0.34061341000000E+02 0.25439307208879E-01
 0.51235746000000E+01 0.19008594890375E+00
 0.11646626000000E+01 0.85244113011042E+00
 s    1 1.00
 0.32723041000000E+00 0.10000000000000E+01
 s    1 1.00
 0.10307241000000E+00 0.10000000000000E+01
 p    1 1.00
 0.80000000000000E+00 0.10000000000000E+01
 p    1 1.00
 0.95774129632000E-01 0.10000000000000E+01
 
   10 0
 s    3 1.00
 0.34061341000000E+02 0.25439307208879E-01
 0.51235746000000E+01 0.19008594890375E+00
 0.11646626000000E+01 0.85244113011042E+00
 s    1 1.00
 0.32723041000000E+00 0.10000000000000E+01
 s    1 1.00
 0.10307241000000E+00 0.10000000000000E+01
 p    1 1.00
 0.80000000000000E+00 0.10000000000000E+01
 p    1 1.00
 0.95774129632000E-01 0.10000000000000E+01
 
   11 0
 s    6 1.00
 0.19730800647000E+05 0.58626402628763E-03
 0.29578958745000E+04 0.45428820586397E-02
 0.67322133595000E+03 0.23558413450084E-01
 0.19068249494000E+03 0.94709193292923E-01
 0.62295441898000E+02 0.29719784913376E+00
 0.22654161182000E+02 0.66916246895232E+00
 s    2 1.00
 0.89791477428000E+01 0.64596683630063E+00
 0.36863002370000E+01 0.38700574393705E+00
 s    1 1.00
 0.84660076805000E+00 0.10000000000000E+01
 s    1 1.00
 0.33647133771000E+00 0.10000000000000E+01
 s    1 1.00
 0.13647653675000E+00 0.10000000000000E+01
 s    1 1.00
 0.68441605847000E-01 0.10000000000000E+01
 p    4 1.00
 0.49200380510000E+02 0.11448825101764E-01
 0.11346790537000E+02 0.78422337970864E-01
 0.34273972411000E+01 0.30818094738830E+00
 0.11785525134000E+01 0.72027196368413E+00
 p    1 1.00
 0.41642204972000E+00 0.10000000000000E+01
 p    1 1.00
 0.14260826011000E+00 0.10000000000000E+01
 d    1 1.00
 0.16540000000000E+01 0.10000000000000E+01
 d    1 1.00
 0.46900000000000E+00 0.10000000000000E+01
 d    1 1.00
 0.12829642058000E+00 0.10000000000000E+01
 f    1 1.00
 0.10930000000000E+01 0.10000000000000E+01
 
   12 0
 s    6 1.00
 0.27032382631000E+05 0.57227335211155E-03
 0.40523871392000E+04 0.44353233492995E-02
 0.92232722710000E+03 0.23020107706038E-01
 0.26124070989000E+03 0.92822490667928E-01
 0.85354641351000E+02 0.29378500009671E+00
 0.31035035245000E+02 0.67401604501641E+00
 s    2 1.00
 0.12260860728000E+02 0.63839937025506E+00
 0.49987076005000E+01 0.39534587125718E+00
 s    1 1.00
 0.11703108158000E+01 0.10000000000000E+01
 s    1 1.00
 0.46474740994000E+00 0.10000000000000E+01
 s    1 1.00
 0.18504536357000E+00 0.10000000000000E+01
 s    1 1.00
 0.70288026270000E-01 0.10000000000000E+01
 p    4 1.00
 0.63274954801000E+02 0.12018332222616E-01
 0.14627049379000E+02 0.83005421790056E-01
 0.44501223456000E+01 0.31991743925964E+00
 0.15275799647000E+01 0.70715542916104E+00
 p    1 1.00
 0.52935117943000E+00 0.10000000000000E+01
 p    1 1.00
 0.17478421270000E+00 0.10000000000000E+01
 p    1 1.00
 0.51112745706000E-01 0.10000000000000E+01
 d    1 1.00
 0.23140000000000E+01 0.10000000000000E+01
 d    1 1.00
 0.64500000000000E+00 0.10000000000000E+01
 d    1 1.00
 0.14696477366000E+00 0.10000000000000E+01
 f    1 1.00
 0.14280000000000E+01 0.10000000000000E+01
 
   13 0
 s    6 1.00
 0.27032382631000E+05 0.57227335211155E-03
 0.40523871392000E+04 0.44353233492995E-02
 0.92232722710000E+03 0.23020107706038E-01
 0.26124070989000E+03 0.92822490667928E-01
 0.85354641351000E+02 0.29378500009671E+00
 0.31035035245000E+02 0.67401604501641E+00
 s    2 1.00
 0.12260860728000E+02 0.63839937025506E+00
 0.49987076005000E+01 0.39534587125718E+00
 s    1 1.00
 0.11703108158000E+01 0.10000000000000E+01
 s    1 1.00
 0.46474740994000E+00 0.10000000000000E+01
 s    1 1.00
 0.18504536357000E+00 0.10000000000000E+01
 s    1 1.00
 0.70288026270000E-01 0.10000000000000E+01
 p    4 1.00
 0.63274954801000E+02 0.12018332222616E-01
 0.14627049379000E+02 0.83005421790056E-01
 0.44501223456000E+01 0.31991743925964E+00
 0.15275799647000E+01 0.70715542916104E+00
 p    1 1.00
 0.52935117943000E+00 0.10000000000000E+01
 p    1 1.00
 0.17478421270000E+00 0.10000000000000E+01
 p    1 1.00
 0.51112745706000E-01 0.10000000000000E+01
 d    1 1.00
 0.23140000000000E+01 0.10000000000000E+01
 d    1 1.00
 0.64500000000000E+00 0.10000000000000E+01
 d    1 1.00
 0.14696477366000E+00 0.10000000000000E+01
 f    1 1.00
 0.14280000000000E+01 0.10000000000000E+01
 
   14 0
 s    6 1.00
 0.19730800647000E+05 0.58626402628763E-03
 0.29578958745000E+04 0.45428820586397E-02
 0.67322133595000E+03 0.23558413450084E-01
 0.19068249494000E+03 0.94709193292923E-01
 0.62295441898000E+02 0.29719784913376E+00
 0.22654161182000E+02 0.66916246895232E+00
 s    2 1.00
 0.89791477428000E+01 0.64596683630063E+00
 0.36863002370000E+01 0.38700574393705E+00
 s    1 1.00
 0.84660076805000E+00 0.10000000000000E+01
 s    1 1.00
 0.33647133771000E+00 0.10000000000000E+01
 s    1 1.00
 0.13647653675000E+00 0.10000000000000E+01
 s    1 1.00
 0.68441605847000E-01 0.10000000000000E+01
 p    4 1.00
 0.49200380510000E+02 0.11448825101764E-01
 0.11346790537000E+02 0.78422337970864E-01
 0.34273972411000E+01 0.30818094738830E+00
 0.11785525134000E+01 0.72027196368413E+00
 p    1 1.00
 0.41642204972000E+00 0.10000000000000E+01
 p    1 1.00
 0.14260826011000E+00 0.10000000000000E+01
 d    1 1.00
 0.16540000000000E+01 0.10000000000000E+01
 d    1 1.00
 0.46900000000000E+00 0.10000000000000E+01
 d    1 1.00
 0.12829642058000E+00 0.10000000000000E+01
 f    1 1.00
 0.10930000000000E+01 0.10000000000000E+01
 
   15 0
 s    3 1.00
 0.34061341000000E+02 0.25439307208879E-01
 0.51235746000000E+01 0.19008594890375E+00
 0.11646626000000E+01 0.85244113011042E+00
 s    1 1.00
 0.32723041000000E+00 0.10000000000000E+01
 s    1 1.00
 0.10307241000000E+00 0.10000000000000E+01
 p    1 1.00
 0.80000000000000E+00 0.10000000000000E+01
 p    1 1.00
 0.95774129632000E-01 0.10000000000000E+01
 
   16 0
 s    3 1.00
 0.34061341000000E+02 0.25439307208879E-01
 0.51235746000000E+01 0.19008594890375E+00
 0.11646626000000E+01 0.85244113011042E+00
 s    1 1.00
 0.32723041000000E+00 0.10000000000000E+01
 s    1 1.00
 0.10307241000000E+00 0.10000000000000E+01
 p    1 1.00
 0.80000000000000E+00 0.10000000000000E+01
 p    1 1.00
 0.95774129632000E-01 0.10000000000000E+01
 
[MO]
 Sym= X
 Ene= -0.831232
 Spin= Alpha
 Occup= -0.831232
         1    5.421260E-03
         2    1.239235E-02
         3   -2.531121E-02
         4    6.942627E-03
         5   -2.332233E-01
         6   -3.336956E-02
         7    5.553867E-02
         8    6.988897E-03
         9    1.342854E-03
        10    6.150501E-02
        11    7.054607E-03
        12    1.352205E-03
        13    9.745262E-02
        14   -1.093376E-01
        15    7.481639E-04
        16    1.787339E-03
        17   -2.016533E-03
        18    2.291936E-04
        19    1.323866E-04
        20    3.636616E-05
        21    5.624172E-06
        22    1.002988E-02
        23   -7.138125E-03
        24   -2.891756E-03
        25   -1.055545E-03
        26    5.827732E-05
        27   -1.857335E-06
        28    2.110523E-03
        29   -6.261814E-03
        30    4.151292E-03
        31    1.827540E-02
        32   -6.515818E-05
        33    4.171689E-05
        34    7.678131E-05
        35   -1.319712E-04
        36   -8.453436E-06
        37    7.608789E-05
        38    2.082463E-04
        39    1.049412E-05
        40   -1.791008E-04
        41   -3.118842E-05
        42    8.473543E-07
        43   -5.281693E-07
        44    1.630027E-10
        45   -4.957806E-09
        46   -1.979006E-07
        47    3.495778E-06
        48    2.335003E-05
        49   -5.936142E-06
        50   -3.774074E-08
        51    3.557495E-02
        52    3.277351E-06
        53    1.634468E-06
        54    4.219157E-02
        55    3.072713E-06
        56    1.150710E-05
        57   -2.577646E-01
        58   -1.772152E-05
        59    2.134960E-08
        60   -1.030333E-08
        61   -1.104626E-08
        62    1.903291E-03
        63    1.307652E-07
        64   -5.453062E-05
        65   -3.466829E-07
        66    4.192819E-07
        67   -7.259898E-08
        68   -3.163336E-03
        69    5.294753E-07
        70   -1.143983E-04
        71    4.067026E-06
        72   -3.511122E-06
        73   -5.559038E-07
        74   -4.453642E-02
        75    3.120176E-08
        76    1.656409E-04
        77   -3.469323E-09
        78    6.587407E-04
        79   -2.796348E-09
        80    1.050415E-08
        81   -6.462390E-04
        82   -2.470300E-08
        83   -5.849565E-09
        84   -2.375544E-04
        85    2.845469E-08
        86   -7.072555E-06
        87   -5.421123E-03
        88   -1.239204E-02
        89    2.531060E-02
        90   -6.940313E-03
        91    2.332239E-01
        92    3.337818E-02
        93   -5.553871E-02
        94    6.988553E-03
        95   -1.335943E-03
        96   -6.150110E-02
        97    7.056160E-03
        98   -1.344535E-03
        99   -9.744494E-02
       100   -1.093139E-01
       101   -7.530121E-04
       102   -1.787357E-03
       103    2.016542E-03
       104   -2.291849E-04
       105    1.324047E-04
       106   -3.626234E-05
       107    5.462141E-06
       108   -1.002917E-02
       109    7.137635E-03
       110    2.891537E-03
       111   -1.056288E-03
       112   -5.797111E-05
       113   -2.273141E-06
       114   -2.105962E-03
       115    6.255395E-03
       116   -4.149433E-03
       117    1.827814E-02
       118    5.585952E-05
       119    3.604944E-05
       120   -7.677808E-05
       121   -1.319634E-04
       122    8.376064E-06
       123   -7.609123E-05
       124    2.082453E-04
       125   -1.042357E-05
       126    1.790998E-04
       127   -3.119786E-05
       128   -8.140961E-07
       129   -5.150513E-07
       130    3.619760E-03
       131    8.179769E-03
       132   -1.531738E-02
       133    1.032027E-02
       134   -6.863248E-02
       135   -1.095305E-02
       136    3.964210E-02
       137   -1.758407E-03
       138   -1.512286E-03
       139    6.651323E-03
       140    5.331008E-03
       141   -1.546761E-03
       142   -4.811404E-02
       143    3.299089E-02
       144   -8.566027E-04
       145   -1.117675E-03
       146    9.591889E-04
       147    1.584856E-04
       148   -3.666500E-04
       149    3.554889E-05
       150    3.398012E-06
       151    4.528973E-03
       152   -2.916463E-03
       153   -1.612510E-03
       154   -1.836256E-04
       155    4.361345E-05
       156    1.944715E-05
       157    1.421499E-02
       158   -1.504562E-02
       159    8.306315E-04
       160    3.650508E-03
       161    1.039262E-04
       162   -2.283384E-05
       163    4.811059E-05
       164    2.118400E-05
       165    1.060774E-05
       166    1.349039E-05
       167   -2.541215E-05
       168   -1.138374E-05
       169   -7.803752E-05
       170   -3.009165E-06
       171   -2.848045E-06
       172    1.391747E-06
       173    1.269678E-07
       174    2.983558E-07
       175   -5.400748E-07
       176   -2.387210E-06
       177   -3.432391E-05
       178    4.888086E-06
       179   -4.078381E-07
       180    2.210197E-02
       181   -1.725811E-06
       182   -1.692525E-06
       183    2.632146E-02
       184   -1.683383E-06
       185    1.861642E-05
       186    8.347829E-02
       187   -1.689777E-06
       188   -3.169185E-08
       189   -5.054478E-09
       190    3.674633E-08
       191   -1.207188E-04
       192   -2.641244E-07
       193   -6.365591E-05
       194   -4.302486E-07
       195    4.465371E-07
       196   -1.628848E-08
       197   -3.595897E-03
       198   -7.840350E-07
       199   -8.697156E-05
       200   -4.024319E-06
       201    3.174892E-06
       202    8.494269E-07
       203   -1.449016E-02
       204    7.140498E-07
       205   -1.408153E-04
       206   -1.430658E-08
       207    2.514641E-04
       208    2.088591E-08
       209    4.442196E-09
       210   -2.297373E-04
       211   -4.890594E-08
       212    1.475210E-08
       213   -1.076372E-04
       214    2.088455E-08
       215    8.404998E-06
       216   -3.619831E-03
       217   -8.179926E-03
       218    1.531829E-02
       219   -1.032698E-02
       220    6.864664E-02
       221    1.094590E-02
       222   -3.964223E-02
       223   -1.758735E-03
       224    1.517262E-03
       225   -6.649274E-03
       226    5.329877E-03
       227    1.550310E-03
       228    4.812093E-02
       229    3.301343E-02
       230    8.804712E-04
       231    1.117647E-03
       232   -9.591926E-04
       233   -1.584544E-04
       234   -3.666710E-04
       235   -3.573571E-05
       236    3.410180E-06
       237   -4.529753E-03
       238    2.916962E-03
       239    1.612791E-03
       240   -1.836675E-04
       241   -4.394476E-05
       242    1.923906E-05
       243   -1.422119E-02
       244    1.505415E-02
       245   -8.329596E-04
       246    3.645580E-03
       247   -1.092271E-04
       248   -2.377139E-05
       249   -4.809694E-05
       250    2.119295E-05
       251   -1.064787E-05
       252   -1.351279E-05
       253   -2.542809E-05
       254    1.143216E-05
       255    7.804161E-05
       256   -3.005244E-06
       257    2.853455E-06
       258    1.380575E-06
       259   -1.946651E-02
       260   -2.717081E-02
       261   -3.850240E-02
       262   -1.829744E-03
       263   -3.263212E-03
       264    6.176346E-05
       265   -4.048617E-03
       266   -1.436591E-03
       267    7.220137E-05
       268    1.946618E-02
       269    2.716966E-02
       270    3.851187E-02
       271    1.829673E-03
       272   -3.263091E-03
       273   -6.171447E-05
       274    4.049566E-03
       275   -1.435987E-03
       276   -6.867558E-05
       277    5.033403E-03
       278    8.360480E-03
       279    2.090783E-02
       280    3.979875E-04
       281   -8.578455E-04
       282   -6.374522E-05
       283   -3.454920E-03
       284    8.167810E-04
       285   -7.524685E-05
       286   -5.033262E-03
       287   -8.360301E-03
       288   -2.092586E-02
       289   -3.980054E-04
       290   -8.577575E-04
       291    6.405993E-05
       292    3.456321E-03
       293    8.181913E-04
       294    7.727724E-05
       295    1.955304E-08
       296    4.310867E-08
       297    2.633738E-09
       298   -8.042302E-07
       299   -1.569303E-06
       300    1.552031E-06
       301    3.811383E-08
       302    3.046556E-02
       303   -3.868010E-06
       304    3.783788E-07
       305    2.333188E-02
       306   -4.908305E-06
       307    1.255256E-06
       308   -3.963625E-03
       309   -7.399726E-06
       310    8.005138E-09
       311   -2.339639E-08
       312    1.539125E-08
       313   -9.084586E-03
       314   -6.581143E-08
       315    3.400161E-05
       316    1.192552E-07
       317   -5.416069E-08
       318   -6.509451E-08
       319   -2.545653E-02
       320    5.529513E-07
       321    9.434502E-05
       322    1.574503E-07
       323    1.255341E-07
       324   -2.829844E-07
       325    8.842541E-03
       326    5.269295E-06
       327   -1.498145E-05
       328   -3.147022E-09
       329   -2.235813E-03
       330    3.055823E-08
       331    5.705867E-09
       332    3.126408E-03
       333    1.841549E-08
       334   -1.483694E-09
       335   -1.267500E-04
       336   -5.941366E-08
       337   -1.184676E-05
       338   -3.969774E-04
       339   -1.115421E-03
       340    1.702846E-03
       341   -6.102328E-03
       342    9.885262E-03
       343   -1.610869E-02
       344   -2.605193E-01
       345   -2.242027E-01
       346    1.004176E-03
       347   -2.366289E-01
       348   -1.965633E-01
       349    9.191892E-04
       350   -1.791473E-01
       351   -1.453056E-01
       352    6.995068E-04
       353   -2.940765E-02
       354   -1.513723E-02
       355    8.953394E-05
       356   -2.056482E-03
       357    2.630230E-03
       358   -5.737480E-04
       359    3.678987E-05
       360    5.362861E-06
       361   -3.510952E-06
       362   -6.247126E-03
       363    6.873645E-03
       364   -6.265192E-04
       365    1.409804E-03
       366    1.943152E-05
       367   -1.660265E-05
       368   -6.871617E-03
       369    6.341328E-03
       370    5.302886E-04
       371    1.484181E-03
       372    1.684769E-05
       373   -9.882393E-06
       374   -2.320304E-04
       375   -7.720207E-04
       376   -4.767632E-08
       377    4.234153E-04
       378    8.782326E-04
       379   -1.102352E-08
       380   -1.121139E-04
       381    1.575418E-04
       382    7.498802E-08
       383   -2.928890E-06
       384    3.969864E-04
       385    1.115447E-03
       386   -1.702926E-03
       387    6.102213E-03
       388   -9.885995E-03
       389    1.610710E-02
       390    2.605199E-01
       391   -2.242028E-01
       392   -1.009523E-03
       393    2.366294E-01
       394   -1.965633E-01
       395   -9.247058E-04
       396    1.791474E-01
       397   -1.453047E-01
       398   -6.873283E-04
       399    2.940729E-02
       400   -1.513708E-02
       401   -8.947190E-05
       402    2.056490E-03
       403   -2.630244E-03
       404    5.737547E-04
       405    3.678744E-05
       406   -5.517263E-06
       407   -3.664452E-06
       408    6.247125E-03
       409   -6.873667E-03
       410    6.265422E-04
       411    1.409826E-03
       412   -2.025549E-05
       413   -1.623597E-05
       414    6.871615E-03
       415   -6.341311E-03
       416   -5.303033E-04
       417    1.484443E-03
       418   -2.357076E-05
       419   -4.288747E-06
       420    2.320291E-04
       421   -7.720235E-04
       422   -1.761362E-08
       423   -4.234149E-04
       424    8.782347E-04
       425    1.005084E-07
       426    1.121153E-04
       427    1.575435E-04
       428   -7.687727E-08
       429   -3.034444E-06
       430   -2.105926E-07
       431   -4.988595E-07
       432    7.250914E-07
       433    2.082730E-06
       434   -3.380638E-07
       435   -3.130720E-07
       436    1.039551E-06
       437   -9.611204E-03
       438   -9.105259E-06
       439    4.963138E-07
       440   -7.503980E-03
       441   -8.907771E-06
       442   -2.323972E-06
       443   -5.698107E-03
       444   -6.081525E-06
       445   -8.501631E-09
       446    1.706566E-08
       447   -8.564033E-09
       448   -5.144936E-04
       449    5.509396E-08
       450   -8.599154E-05
       451    2.025814E-07
       452   -1.278539E-07
       453   -7.472745E-08
       454   -1.619792E-03
       455    5.584315E-08
       456   -1.335863E-04
       457    1.082888E-06
       458   -1.081462E-06
       459   -1.425708E-09
       460    9.425785E-04
       461   -4.146708E-07
       462    8.596051E-06
       463    3.720504E-09
       464   -8.615096E-05
       465    4.574590E-08
       466    1.624960E-09
       467    9.311848E-05
       468   -3.670037E-08
       469   -6.616541E-09
       470    2.246516E-05
       471   -2.467420E-08
       472   -1.807421E-05
       473   -5.086829E-03
       474   -7.334212E-03
       475   -5.635362E-03
       476    3.929793E-04
       477    4.659386E-04
       478    1.019427E-04
       479    9.035488E-04
       480    2.787607E-04
       481    1.373022E-04
       482    5.086520E-03
       483    7.334941E-03
       484    5.643243E-03
       485   -3.929329E-04
       486    4.659549E-04
       487   -1.025231E-04
       488   -9.062679E-04
       489    2.787317E-04
       490   -1.370487E-04
 Sym= X
 Ene= 0.831232
 Spin= Alpha
 Occup= 0.831232
         1   -3.948974E-05
         2   -8.334759E-05
         3   -1.117569E-04
         4    3.487152E-03
         5   -1.119186E-01
         6   -2.955491E-02
         7    3.069589E-04
         8    2.760993E-05
         9    2.112428E-01
        10    8.085904E-04
        11    3.427051E-04
        12    2.152860E-01
        13    1.318200E-02
        14   -5.157455E-02
        15    1.303800E-01
        16   -1.728756E-06
        17    1.339537E-06
        18    3.892193E-07
        19   -1.399099E-05
        20   -6.499905E-03
        21    9.929695E-04
        22   -2.543214E-05
        23   -5.066368E-05
        24    7.609582E-05
        25   -1.271210E-04
        26   -2.119085E-02
        27   -3.807995E-03
        28    7.429484E-04
        29   -3.653371E-03
        30    2.910423E-03
        31    1.219994E-02
        32   -1.929330E-02
        33   -2.876058E-02
        34    5.867360E-06
        35    6.445342E-06
        36   -1.959655E-04
        37   -1.504155E-06
        38   -4.617696E-06
        39   -2.967795E-04
        40   -6.367734E-06
        41   -4.029637E-06
        42    5.596948E-04
        43   -4.361795E-06
        44    2.643806E-06
        45    5.822491E-06
        46   -3.450332E-06
        47   -9.134560E-05
        48   -2.015526E-03
        49    3.262373E-04
        50    6.026516E-06
        51   -9.501376E-05
        52   -3.217772E-07
        53    2.102195E-05
        54    3.748985E-04
        55   -1.120416E-05
        56   -1.972451E-04
        57   -1.072704E-01
        58    8.495088E-06
        59    2.611456E-08
        60   -8.456929E-07
        61    8.195784E-07
        62   -2.207600E-05