[Molden Format]
[Title]
ADC(2) - opt by CAM-B3LYP gaussian                                              
[Atoms] AU
 c     1    6 -.12588573623097E+01 -.22835126974190E+01 -.24083260376910E-01
 c     2    6 -.25578815622211E+01 0.23621577000000E-06 -.22837930855340E-01
 c     3    6 -.12588573623097E+01 0.22835131698505E+01 -.24090819281440E-01
 c     4    6 0.13318248850473E+01 0.22853065199506E+01 -.26003222127920E-01
 c     5    6 0.26868737956204E+01 0.23621577000000E-06 -.25389061134730E-01
 c     6    6 0.13318248850473E+01 -.22853060475191E+01 -.25993773497260E-01
 h     7    1 -.22974546243959E+01 -.40385977330627E+01 -.21598270512170E-01
 h     8    1 -.22974527346698E+01 0.40385982054942E+01 -.21613388321230E-01
 h     9    1 0.23510089905703E+01 0.40574312161345E+01 -.28191524989800E-01
 h    10    1 0.23510071008442E+01 -.40574307437030E+01 -.28172627728480E-01
 n    11    7 -.52726375582849E+01 0.23621577000000E-06 -.17238672323600E-01
 o    12    8 -.63813946825068E+01 0.20269261555273E+01 -.14842499587100E-01
 o    13    8 -.63813927927806E+01 -.20269275728219E+01 -.14865176300690E-01
 n    14    7 0.52430742102305E+01 0.23621577000000E-06 -.67376886081320E-01
 h    15    1 0.62051583509223E+01 0.16177513148781E+01 0.18115044628513E+00
 h    16    1 0.62051564611962E+01 -.16177527321727E+01 0.18114666683287E+00
[GTO]
    1 0
 s    6 1.00
 0.13575349682000E+05 0.60645503603591E-03
 0.20352333680000E+04 0.46979088884982E-02
 0.46322562359000E+03 0.24332477647552E-01
 0.13120019598000E+03 0.97399968307759E-01
 0.42853015891000E+02 0.30195584253780E+00
 0.15584185766000E+02 0.66233609137875E+00
 s    2 1.00
 0.62067138508000E+01 0.65595308539952E+00
 0.25764896527000E+01 0.37585633285142E+00
 s    1 1.00
 0.57696339419000E+00 0.10000000000000E+01
 s    1 1.00
 0.22972831358000E+00 0.10000000000000E+01
 s    1 1.00
 0.95164440028000E-01 0.10000000000000E+01
 s    1 1.00
 0.48475401370000E-01 0.10000000000000E+01
 p    4 1.00
 0.34697232244000E+02 0.11327220003114E-01
 0.79582622826000E+01 0.76169659202087E-01
 0.23780826883000E+01 0.30192252202676E+00
 0.81433208183000E+00 0.72785027349547E+00
 p    1 1.00
 0.28887547253000E+00 0.10000000000000E+01
 p    1 1.00
 0.10056823671000E+00 0.10000000000000E+01
 d    1 1.00
 0.10970000000000E+01 0.10000000000000E+01
 d    1 1.00
 0.31800000000000E+00 0.10000000000000E+01
 d    1 1.00
 0.90985336424000E-01 0.10000000000000E+01
 f    1 1.00
 0.76100000000000E+00 0.10000000000000E+01
 
    2 0
 s    6 1.00
 0.13575349682000E+05 0.60645503603591E-03
 0.20352333680000E+04 0.46979088884982E-02
 0.46322562359000E+03 0.24332477647552E-01
 0.13120019598000E+03 0.97399968307759E-01
 0.42853015891000E+02 0.30195584253780E+00
 0.15584185766000E+02 0.66233609137875E+00
 s    2 1.00
 0.62067138508000E+01 0.65595308539952E+00
 0.25764896527000E+01 0.37585633285142E+00
 s    1 1.00
 0.57696339419000E+00 0.10000000000000E+01
 s    1 1.00
 0.22972831358000E+00 0.10000000000000E+01
 s    1 1.00
 0.95164440028000E-01 0.10000000000000E+01
 s    1 1.00
 0.48475401370000E-01 0.10000000000000E+01
 p    4 1.00
 0.34697232244000E+02 0.11327220003114E-01
 0.79582622826000E+01 0.76169659202087E-01
 0.23780826883000E+01 0.30192252202676E+00
 0.81433208183000E+00 0.72785027349547E+00
 p    1 1.00
 0.28887547253000E+00 0.10000000000000E+01
 p    1 1.00
 0.10056823671000E+00 0.10000000000000E+01
 d    1 1.00
 0.10970000000000E+01 0.10000000000000E+01
 d    1 1.00
 0.31800000000000E+00 0.10000000000000E+01
 d    1 1.00
 0.90985336424000E-01 0.10000000000000E+01
 f    1 1.00
 0.76100000000000E+00 0.10000000000000E+01
 
    3 0
 s    6 1.00
 0.13575349682000E+05 0.60645503603591E-03
 0.20352333680000E+04 0.46979088884982E-02
 0.46322562359000E+03 0.24332477647552E-01
 0.13120019598000E+03 0.97399968307759E-01
 0.42853015891000E+02 0.30195584253780E+00
 0.15584185766000E+02 0.66233609137875E+00
 s    2 1.00
 0.62067138508000E+01 0.65595308539952E+00
 0.25764896527000E+01 0.37585633285142E+00
 s    1 1.00
 0.57696339419000E+00 0.10000000000000E+01
 s    1 1.00
 0.22972831358000E+00 0.10000000000000E+01
 s    1 1.00
 0.95164440028000E-01 0.10000000000000E+01
 s    1 1.00
 0.48475401370000E-01 0.10000000000000E+01
 p    4 1.00
 0.34697232244000E+02 0.11327220003114E-01
 0.79582622826000E+01 0.76169659202087E-01
 0.23780826883000E+01 0.30192252202676E+00
 0.81433208183000E+00 0.72785027349547E+00
 p    1 1.00
 0.28887547253000E+00 0.10000000000000E+01
 p    1 1.00
 0.10056823671000E+00 0.10000000000000E+01
 d    1 1.00
 0.10970000000000E+01 0.10000000000000E+01
 d    1 1.00
 0.31800000000000E+00 0.10000000000000E+01
 d    1 1.00
 0.90985336424000E-01 0.10000000000000E+01
 f    1 1.00
 0.76100000000000E+00 0.10000000000000E+01
 
    4 0
 s    6 1.00
 0.13575349682000E+05 0.60645503603591E-03
 0.20352333680000E+04 0.46979088884982E-02
 0.46322562359000E+03 0.24332477647552E-01
 0.13120019598000E+03 0.97399968307759E-01
 0.42853015891000E+02 0.30195584253780E+00
 0.15584185766000E+02 0.66233609137875E+00
 s    2 1.00
 0.62067138508000E+01 0.65595308539952E+00
 0.25764896527000E+01 0.37585633285142E+00
 s    1 1.00
 0.57696339419000E+00 0.10000000000000E+01
 s    1 1.00
 0.22972831358000E+00 0.10000000000000E+01
 s    1 1.00
 0.95164440028000E-01 0.10000000000000E+01
 s    1 1.00
 0.48475401370000E-01 0.10000000000000E+01
 p    4 1.00
 0.34697232244000E+02 0.11327220003114E-01
 0.79582622826000E+01 0.76169659202087E-01
 0.23780826883000E+01 0.30192252202676E+00
 0.81433208183000E+00 0.72785027349547E+00
 p    1 1.00
 0.28887547253000E+00 0.10000000000000E+01
 p    1 1.00
 0.10056823671000E+00 0.10000000000000E+01
 d    1 1.00
 0.10970000000000E+01 0.10000000000000E+01
 d    1 1.00
 0.31800000000000E+00 0.10000000000000E+01
 d    1 1.00
 0.90985336424000E-01 0.10000000000000E+01
 f    1 1.00
 0.76100000000000E+00 0.10000000000000E+01
 
    5 0
 s    6 1.00
 0.13575349682000E+05 0.60645503603591E-03
 0.20352333680000E+04 0.46979088884982E-02
 0.46322562359000E+03 0.24332477647552E-01
 0.13120019598000E+03 0.97399968307759E-01
 0.42853015891000E+02 0.30195584253780E+00
 0.15584185766000E+02 0.66233609137875E+00
 s    2 1.00
 0.62067138508000E+01 0.65595308539952E+00
 0.25764896527000E+01 0.37585633285142E+00
 s    1 1.00
 0.57696339419000E+00 0.10000000000000E+01
 s    1 1.00
 0.22972831358000E+00 0.10000000000000E+01
 s    1 1.00
 0.95164440028000E-01 0.10000000000000E+01
 s    1 1.00
 0.48475401370000E-01 0.10000000000000E+01
 p    4 1.00
 0.34697232244000E+02 0.11327220003114E-01
 0.79582622826000E+01 0.76169659202087E-01
 0.23780826883000E+01 0.30192252202676E+00
 0.81433208183000E+00 0.72785027349547E+00
 p    1 1.00
 0.28887547253000E+00 0.10000000000000E+01
 p    1 1.00
 0.10056823671000E+00 0.10000000000000E+01
 d    1 1.00
 0.10970000000000E+01 0.10000000000000E+01
 d    1 1.00
 0.31800000000000E+00 0.10000000000000E+01
 d    1 1.00
 0.90985336424000E-01 0.10000000000000E+01
 f    1 1.00
 0.76100000000000E+00 0.10000000000000E+01
 
    6 0
 s    6 1.00
 0.13575349682000E+05 0.60645503603591E-03
 0.20352333680000E+04 0.46979088884982E-02
 0.46322562359000E+03 0.24332477647552E-01
 0.13120019598000E+03 0.97399968307759E-01
 0.42853015891000E+02 0.30195584253780E+00
 0.15584185766000E+02 0.66233609137875E+00
 s    2 1.00
 0.62067138508000E+01 0.65595308539952E+00
 0.25764896527000E+01 0.37585633285142E+00
 s    1 1.00
 0.57696339419000E+00 0.10000000000000E+01
 s    1 1.00
 0.22972831358000E+00 0.10000000000000E+01
 s    1 1.00
 0.95164440028000E-01 0.10000000000000E+01
 s    1 1.00
 0.48475401370000E-01 0.10000000000000E+01
 p    4 1.00
 0.34697232244000E+02 0.11327220003114E-01
 0.79582622826000E+01 0.76169659202087E-01
 0.23780826883000E+01 0.30192252202676E+00
 0.81433208183000E+00 0.72785027349547E+00
 p    1 1.00
 0.28887547253000E+00 0.10000000000000E+01
 p    1 1.00
 0.10056823671000E+00 0.10000000000000E+01
 d    1 1.00
 0.10970000000000E+01 0.10000000000000E+01
 d    1 1.00
 0.31800000000000E+00 0.10000000000000E+01
 d    1 1.00
 0.90985336424000E-01 0.10000000000000E+01
 f    1 1.00
 0.76100000000000E+00 0.10000000000000E+01
 
    7 0
 s    3 1.00
 0.34061341000000E+02 0.25439307208879E-01
 0.51235746000000E+01 0.19008594890375E+00
 0.11646626000000E+01 0.85244113011042E+00
 s    1 1.00
 0.32723041000000E+00 0.10000000000000E+01
 s    1 1.00
 0.10307241000000E+00 0.10000000000000E+01
 p    1 1.00
 0.80000000000000E+00 0.10000000000000E+01
 p    1 1.00
 0.95774129632000E-01 0.10000000000000E+01
 
    8 0
 s    3 1.00
 0.34061341000000E+02 0.25439307208879E-01
 0.51235746000000E+01 0.19008594890375E+00
 0.11646626000000E+01 0.85244113011042E+00
 s    1 1.00
 0.32723041000000E+00 0.10000000000000E+01
 s    1 1.00
 0.10307241000000E+00 0.10000000000000E+01
 p    1 1.00
 0.80000000000000E+00 0.10000000000000E+01
 p    1 1.00
 0.95774129632000E-01 0.10000000000000E+01
 
    9 0
 s    3 1.00
 0.34061341000000E+02 0.25439307208879E-01
 0.51235746000000E+01 0.19008594890375E+00
 0.11646626000000E+01 0.85244113011042E+00
 s    1 1.00
 0.32723041000000E+00 0.10000000000000E+01
 s    1 1.00
 0.10307241000000E+00 0.10000000000000E+01
 p    1 1.00
 0.80000000000000E+00 0.10000000000000E+01
 p    1 1.00
 0.95774129632000E-01 0.10000000000000E+01
 
   10 0
 s    3 1.00
 0.34061341000000E+02 0.25439307208879E-01
 0.51235746000000E+01 0.19008594890375E+00
 0.11646626000000E+01 0.85244113011042E+00
 s    1 1.00
 0.32723041000000E+00 0.10000000000000E+01
 s    1 1.00
 0.10307241000000E+00 0.10000000000000E+01
 p    1 1.00
 0.80000000000000E+00 0.10000000000000E+01
 p    1 1.00
 0.95774129632000E-01 0.10000000000000E+01
 
   11 0
 s    6 1.00
 0.19730800647000E+05 0.58626402628763E-03
 0.29578958745000E+04 0.45428820586397E-02
 0.67322133595000E+03 0.23558413450084E-01
 0.19068249494000E+03 0.94709193292923E-01
 0.62295441898000E+02 0.29719784913376E+00
 0.22654161182000E+02 0.66916246895232E+00
 s    2 1.00
 0.89791477428000E+01 0.64596683630063E+00
 0.36863002370000E+01 0.38700574393705E+00
 s    1 1.00
 0.84660076805000E+00 0.10000000000000E+01
 s    1 1.00
 0.33647133771000E+00 0.10000000000000E+01
 s    1 1.00
 0.13647653675000E+00 0.10000000000000E+01
 s    1 1.00
 0.68441605847000E-01 0.10000000000000E+01
 p    4 1.00
 0.49200380510000E+02 0.11448825101764E-01
 0.11346790537000E+02 0.78422337970864E-01
 0.34273972411000E+01 0.30818094738830E+00
 0.11785525134000E+01 0.72027196368413E+00
 p    1 1.00
 0.41642204972000E+00 0.10000000000000E+01
 p    1 1.00
 0.14260826011000E+00 0.10000000000000E+01
 d    1 1.00
 0.16540000000000E+01 0.10000000000000E+01
 d    1 1.00
 0.46900000000000E+00 0.10000000000000E+01
 d    1 1.00
 0.12829642058000E+00 0.10000000000000E+01
 f    1 1.00
 0.10930000000000E+01 0.10000000000000E+01
 
   12 0
 s    6 1.00
 0.27032382631000E+05 0.57227335211155E-03
 0.40523871392000E+04 0.44353233492995E-02
 0.92232722710000E+03 0.23020107706038E-01
 0.26124070989000E+03 0.92822490667928E-01
 0.85354641351000E+02 0.29378500009671E+00
 0.31035035245000E+02 0.67401604501641E+00
 s    2 1.00
 0.12260860728000E+02 0.63839937025506E+00
 0.49987076005000E+01 0.39534587125718E+00
 s    1 1.00
 0.11703108158000E+01 0.10000000000000E+01
 s    1 1.00
 0.46474740994000E+00 0.10000000000000E+01
 s    1 1.00
 0.18504536357000E+00 0.10000000000000E+01
 s    1 1.00
 0.70288026270000E-01 0.10000000000000E+01
 p    4 1.00
 0.63274954801000E+02 0.12018332222616E-01
 0.14627049379000E+02 0.83005421790056E-01
 0.44501223456000E+01 0.31991743925964E+00
 0.15275799647000E+01 0.70715542916104E+00
 p    1 1.00
 0.52935117943000E+00 0.10000000000000E+01
 p    1 1.00
 0.17478421270000E+00 0.10000000000000E+01
 p    1 1.00
 0.51112745706000E-01 0.10000000000000E+01
 d    1 1.00
 0.23140000000000E+01 0.10000000000000E+01
 d    1 1.00
 0.64500000000000E+00 0.10000000000000E+01
 d    1 1.00
 0.14696477366000E+00 0.10000000000000E+01
 f    1 1.00
 0.14280000000000E+01 0.10000000000000E+01
 
   13 0
 s    6 1.00
 0.27032382631000E+05 0.57227335211155E-03
 0.40523871392000E+04 0.44353233492995E-02
 0.92232722710000E+03 0.23020107706038E-01
 0.26124070989000E+03 0.92822490667928E-01
 0.85354641351000E+02 0.29378500009671E+00
 0.31035035245000E+02 0.67401604501641E+00
 s    2 1.00
 0.12260860728000E+02 0.63839937025506E+00
 0.49987076005000E+01 0.39534587125718E+00
 s    1 1.00
 0.11703108158000E+01 0.10000000000000E+01
 s    1 1.00
 0.46474740994000E+00 0.10000000000000E+01
 s    1 1.00
 0.18504536357000E+00 0.10000000000000E+01
 s    1 1.00
 0.70288026270000E-01 0.10000000000000E+01
 p    4 1.00
 0.63274954801000E+02 0.12018332222616E-01
 0.14627049379000E+02 0.83005421790056E-01
 0.44501223456000E+01 0.31991743925964E+00
 0.15275799647000E+01 0.70715542916104E+00
 p    1 1.00
 0.52935117943000E+00 0.10000000000000E+01
 p    1 1.00
 0.17478421270000E+00 0.10000000000000E+01
 p    1 1.00
 0.51112745706000E-01 0.10000000000000E+01
 d    1 1.00
 0.23140000000000E+01 0.10000000000000E+01
 d    1 1.00
 0.64500000000000E+00 0.10000000000000E+01
 d    1 1.00
 0.14696477366000E+00 0.10000000000000E+01
 f    1 1.00
 0.14280000000000E+01 0.10000000000000E+01
 
   14 0
 s    6 1.00
 0.19730800647000E+05 0.58626402628763E-03
 0.29578958745000E+04 0.45428820586397E-02
 0.67322133595000E+03 0.23558413450084E-01
 0.19068249494000E+03 0.94709193292923E-01
 0.62295441898000E+02 0.29719784913376E+00
 0.22654161182000E+02 0.66916246895232E+00
 s    2 1.00
 0.89791477428000E+01 0.64596683630063E+00
 0.36863002370000E+01 0.38700574393705E+00
 s    1 1.00
 0.84660076805000E+00 0.10000000000000E+01
 s    1 1.00
 0.33647133771000E+00 0.10000000000000E+01
 s    1 1.00
 0.13647653675000E+00 0.10000000000000E+01
 s    1 1.00
 0.68441605847000E-01 0.10000000000000E+01
 p    4 1.00
 0.49200380510000E+02 0.11448825101764E-01
 0.11346790537000E+02 0.78422337970864E-01
 0.34273972411000E+01 0.30818094738830E+00
 0.11785525134000E+01 0.72027196368413E+00
 p    1 1.00
 0.41642204972000E+00 0.10000000000000E+01
 p    1 1.00
 0.14260826011000E+00 0.10000000000000E+01
 d    1 1.00
 0.16540000000000E+01 0.10000000000000E+01
 d    1 1.00
 0.46900000000000E+00 0.10000000000000E+01
 d    1 1.00
 0.12829642058000E+00 0.10000000000000E+01
 f    1 1.00
 0.10930000000000E+01 0.10000000000000E+01
 
   15 0
 s    3 1.00
 0.34061341000000E+02 0.25439307208879E-01
 0.51235746000000E+01 0.19008594890375E+00
 0.11646626000000E+01 0.85244113011042E+00
 s    1 1.00
 0.32723041000000E+00 0.10000000000000E+01
 s    1 1.00
 0.10307241000000E+00 0.10000000000000E+01
 p    1 1.00
 0.80000000000000E+00 0.10000000000000E+01
 p    1 1.00
 0.95774129632000E-01 0.10000000000000E+01
 
   16 0
 s    3 1.00
 0.34061341000000E+02 0.25439307208879E-01
 0.51235746000000E+01 0.19008594890375E+00
 0.11646626000000E+01 0.85244113011042E+00
 s    1 1.00
 0.32723041000000E+00 0.10000000000000E+01
 s    1 1.00
 0.10307241000000E+00 0.10000000000000E+01
 p    1 1.00
 0.80000000000000E+00 0.10000000000000E+01
 p    1 1.00
 0.95774129632000E-01 0.10000000000000E+01
 
[MO]
 Sym= X
 Ene= -0.895795
 Spin= Alpha
 Occup= -0.895795
         1    5.505403E-03
         2    1.262708E-02
         3   -2.598682E-02
         4    7.876528E-03
         5   -2.003049E-01
         6   -3.327716E-02
         7    3.587014E-02
         8    2.310610E-03
         9   -1.041106E-04
        10    4.583051E-02
        11    3.613496E-03
        12   -1.060326E-04
        13    8.861035E-02
        14   -9.946251E-02
        15   -1.185176E-04
        16    1.209292E-03
        17   -1.429299E-03
        18    2.200067E-04
        19    2.434486E-04
        20   -1.659389E-06
        21    5.420618E-07
        22    9.467377E-03
        23   -6.459754E-03
        24   -3.007623E-03
        25   -1.110476E-03
        26   -1.821554E-05
        27    8.365626E-07
        28    1.534507E-03
        29   -5.193009E-03
        30    3.658502E-03
        31    1.699147E-02
        32    7.985608E-06
        33   -5.626666E-06
        34    2.726392E-05
        35   -1.359197E-04
        36    4.189295E-07
        37    6.230595E-05
        38    2.026665E-04
        39   -2.905778E-07
        40   -9.888434E-05
        41   -2.031105E-05
        42   -2.714750E-07
        43   -4.981106E-07
        44   -9.171119E-08
        45   -2.089571E-07
        46    1.026447E-07
        47    3.505160E-06
        48    2.739290E-05
        49   -4.738191E-06
        50   -4.871636E-07
        51    2.728748E-02
        52   -1.497318E-05
        53    1.130070E-06
        54    3.695305E-02
        55   -1.558819E-05
        56    1.306918E-05
        57   -2.324521E-01
        58   -3.550116E-05
        59    2.277568E-08
        60   -9.655258E-09
        61   -1.312042E-08
        62    1.974239E-03
        63    8.697144E-08
        64   -4.437259E-07
        65   -3.367305E-07
        66    4.222321E-07
        67   -8.550164E-08
        68   -2.694996E-03
        69    6.538672E-07
        70    1.087209E-05
        71    2.611286E-06
        72   -2.062255E-06
        73   -5.490310E-07
        74   -4.071839E-02
        75   -1.313816E-06
        76    5.501962E-05
        77   -6.094184E-09
        78    5.249151E-04
        79    1.091174E-07
        80    1.221315E-08
        81   -5.163339E-04
        82   -8.649141E-08
        83   -4.036942E-09
        84   -1.879136E-04
        85   -5.990489E-08
        86    8.483644E-07
        87   -5.505381E-03
        88   -1.262702E-02
        89    2.598680E-02
        90   -7.875462E-03
        91    2.002856E-01
        92    3.328478E-02
        93   -3.587052E-02
        94    2.310803E-03
        95    1.005074E-04
        96   -4.582834E-02
        97    3.615344E-03
        98    1.032679E-04
        99   -8.860746E-02
       100   -9.943569E-02
       101    1.119993E-04
       102   -1.209297E-03
       103    1.429309E-03
       104   -2.200112E-04
       105    2.434556E-04
       106    2.582701E-06
       107    1.095876E-06
       108   -9.466978E-03
       109    6.459461E-03
       110    3.007518E-03
       111   -1.111178E-03
       112    2.030950E-05
       113    1.757893E-06
       114   -1.530794E-03
       115    5.187816E-03
       116   -3.657022E-03
       117    1.699398E-02
       118   -1.587667E-05
       119   -1.450991E-05
       120   -2.726487E-05
       121   -1.359099E-04
       122   -4.138110E-07
       123   -6.230548E-05
       124    2.026625E-04
       125    4.069472E-07
       126    9.888514E-05
       127   -2.032021E-05
       128    1.482385E-07
       129   -5.990109E-07
       130    2.729942E-03
       131    6.199705E-03
       132   -1.215120E-02
       133    1.250739E-02
       134   -7.857506E-02
       135   -1.117883E-02
       136    2.198849E-02
       137   -2.073501E-04
       138    6.208166E-05
       139   -6.566346E-03
       140    6.277894E-03
       141    5.157253E-05
       142   -5.723652E-02
       143    3.642207E-02
       144    8.358370E-05
       145   -5.561951E-04
       146    4.605254E-04
       147    9.566972E-05
       148   -1.379449E-04
       149   -1.092397E-06
       150   -7.115770E-07
       151    4.934994E-03
       152   -3.332519E-03
       153   -1.602475E-03
       154    2.188849E-04
       155   -1.628852E-05
       156    1.041832E-05
       157    1.280646E-02
       158   -1.374881E-02
       159    9.423588E-04
       160    4.876782E-03
       161    1.270837E-06
       162    2.049318E-05
       163   -1.421057E-05
       164    3.340579E-05
       165    8.655790E-08
       166    1.748661E-05
       167   -3.175488E-05
       168    1.621192E-07
       169    1.578867E-06
       170   -1.306369E-05
       171   -2.782488E-07
       172    7.675786E-07
       173    8.320434E-08
       174    1.935488E-07
       175   -2.664985E-07
       176   -1.896945E-06
       177   -3.343160E-05
       178    2.062933E-06
       179   -5.810404E-07
       180    9.965905E-03
       181    7.961810E-06
       182   -9.152633E-07
       183    1.682022E-02
       184    8.006478E-06
       185    1.887040E-05
       186    9.522562E-02
       187    9.418824E-06
       188   -3.372101E-08
       189    1.030567E-08
       190    2.341534E-08
       191    1.209092E-04
       192   -6.748239E-07
       193   -2.403916E-06
       194   -1.444073E-07
       195    2.972169E-08
       196    1.146856E-07
       197   -3.194040E-03
       198   -1.733047E-06
       199    3.018289E-05
       200   -2.619926E-06
       201    1.638318E-06
       202    9.816080E-07
       203   -1.424284E-02
       204   -1.891435E-07
       205    5.373428E-06
       206   -1.131749E-08
       207    1.258766E-04
       208   -2.845920E-08
       209    4.928200E-09
       210   -1.134850E-04
       211   -6.846375E-08
       212    1.025580E-08
       213   -5.539628E-05
       214    1.066458E-07
       215   -1.859483E-07
       216   -2.729981E-03
       217   -6.199792E-03
       218    1.215159E-02
       219   -1.251008E-02
       220    7.860379E-02
       221    1.117301E-02
       222   -2.198845E-02
       223   -2.073820E-04
       224   -4.034976E-05
       225    6.568004E-03
       226    6.277850E-03
       227   -3.059953E-05
       228    5.723819E-02
       229    3.644553E-02
       230   -5.196178E-05
       231    5.561673E-04
       232   -4.605125E-04
       233   -9.565479E-05
       234   -1.379394E-04
       235    1.241111E-06
       236   -2.958996E-07
       237   -4.935370E-03
       238    3.332830E-03
       239    1.602540E-03
       240    2.190719E-04
       241    1.675734E-05
       242    1.106429E-05
       243   -1.281143E-02
       244    1.375557E-02
       245   -9.441381E-04
       246    4.871413E-03
       247   -6.865842E-06
       248    1.727582E-05
       249    1.421699E-05
       250    3.341445E-05
       251   -2.169080E-07
       252   -1.749515E-05
       253   -3.176521E-05
       254   -1.200762E-07
       255   -1.578950E-06
       256   -1.306497E-05
       257    4.110889E-07
       258    8.199079E-07
       259   -1.248465E-02
       260   -1.702833E-02
       261   -3.530599E-02
       262   -1.644512E-03
       263   -2.221891E-03
       264    8.996192E-07
       265   -4.526643E-03
       266   -1.068662E-03
       267    2.920402E-05
       268    1.248473E-02
       269    1.702773E-02
       270    3.531171E-02
       271    1.644483E-03
       272   -2.221831E-03
       273   -1.157727E-06
       274    4.527755E-03
       275   -1.067784E-03
       276   -2.120910E-05
       277    2.457398E-03
       278    4.612927E-03
       279    1.797407E-02
       280    2.470587E-04
       281   -3.427593E-04
       282    3.267098E-06
       283   -2.773829E-03
       284    2.934320E-04
       285   -2.379330E-05
       286   -2.457368E-03
       287   -4.612702E-03
       288   -1.798792E-02
       289   -2.470640E-04
       290   -3.427137E-04
       291   -2.316128E-06
       292    2.774387E-03
       293    2.947725E-04
       294    2.476839E-05
       295    2.027588E-08
       296    4.499391E-08
       297   -1.698704E-08
       298   -7.445778E-07
       299    8.219836E-07
       300    1.307850E-06
       301    2.046166E-07
       302    3.414742E-02
       303   -3.369670E-06
       304    5.219354E-07
       305    2.585752E-02
       306   -4.653099E-06
       307    1.759386E-06
       308   -3.807102E-03
       309   -8.406874E-06
       310    5.734124E-08
       311   -7.922049E-08
       312    2.187925E-08
       313   -9.460447E-03
       314   -4.787452E-07
       315    1.999108E-05
       316    2.500029E-07
       317   -1.868646E-07
       318   -6.313833E-08
       319   -2.635015E-02
       320   -6.403652E-07
       321    5.605639E-05
       322   -5.021589E-08
       323    9.102983E-08
       324   -4.081394E-08
       325    8.773508E-03
       326    5.305471E-06
       327   -1.971393E-05
       328   -3.894286E-09
       329   -2.223799E-03
       330    1.758045E-08
       331    6.165129E-09
       332    3.125234E-03
       333   -3.873805E-08
       334   -9.403952E-10
       335   -1.416944E-04
       336    1.515140E-08
       337   -7.979894E-06
       338   -1.408377E-03
       339   -3.585941E-03
       340    5.273167E-03
       341   -1.361877E-03
       342    1.198110E-02
       343   -1.520645E-02
       344   -2.626817E-01
       345   -2.281566E-01
       346    5.572468E-04
       347   -2.385615E-01
       348   -2.000018E-01
       349    5.053632E-04
       350   -1.807245E-01
       351   -1.468877E-01
       352    3.924952E-04
       353   -2.942725E-02
       354   -1.536186E-02
       355    6.457394E-05
       356   -2.103467E-03
       357    2.709501E-03
       358   -6.060340E-04
       359   -1.929239E-05
       360    3.606300E-06
       361    1.192775E-07
       362   -6.370072E-03
       363    7.057869E-03
       364   -6.877973E-04
       365    1.242625E-03
       366    1.356353E-05
       367   -2.777891E-06
       368   -7.060302E-03
       369    6.436711E-03
       370    6.235911E-04
       371    1.614432E-03
       372    1.474557E-05
       373   -7.628632E-06
       374   -2.493765E-04
       375   -7.874359E-04
       376    5.404231E-07
       377    4.521415E-04
       378    8.838348E-04
       379    2.692626E-07
       380   -1.175679E-04
       381    1.726212E-04
       382   -9.943163E-07
       383   -1.703765E-06
       384    1.408450E-03
       385    3.586121E-03
       386   -5.273462E-03
       387    1.361432E-03
       388   -1.198157E-02
       389    1.520553E-02
       390    2.626796E-01
       391   -2.281558E-01
       392   -5.465596E-04
       393    2.385596E-01
       394   -2.000011E-01
       395   -4.960983E-04
       396    1.807227E-01
       397   -1.468861E-01
       398   -3.685237E-04
       399    2.942685E-02
       400   -1.536160E-02
       401   -6.338908E-05
       402    2.103461E-03
       403   -2.709506E-03
       404    6.060441E-04
       405   -1.931620E-05
       406   -3.733347E-06
       407    1.051897E-07
       408    6.370026E-03
       409   -7.057860E-03
       410    6.878339E-04
       411    1.242590E-03
       412   -1.420711E-05
       413   -1.963925E-06
       414    7.060261E-03
       415   -6.436653E-03
       416   -6.236079E-04
       417    1.614584E-03
       418   -2.152589E-05
       419   -1.691141E-06
       420    2.493769E-04
       421   -7.874316E-04
       422   -6.294740E-07
       423   -4.521457E-04
       424    8.838262E-04
       425   -1.931656E-07
       426    1.175714E-04
       427    1.726241E-04
       428    1.037694E-06
       429   -1.773561E-06
       430   -3.129461E-07
       431   -7.432049E-07
       432    1.146919E-06
       433    2.106601E-06
       434    8.376279E-07
       435    3.793281E-06
       436    1.214710E-06
       437   -3.714746E-03
       438   -1.687861E-05
       439    1.056920E-06
       440   -2.322266E-03
       441   -1.665627E-05
       442   -7.503251E-07
       443   -4.061065E-03
       444   -1.430537E-05
       445    1.307695E-10
       446    5.973606E-09
       447   -6.104376E-09
       448   -2.314683E-04
       449   -5.666150E-08
       450   -3.491585E-05
       451    1.148972E-07
       452   -3.800046E-09
       453   -1.110971E-07
       454   -1.000852E-03
       455   -2.587336E-07
       456   -4.840992E-05
       457    7.632671E-07
       458   -4.971343E-07
       459   -2.661328E-07
       460    1.125489E-03
       461   -3.107647E-07
       462   -5.720012E-05
       463    8.630027E-09
       464   -4.504551E-05
       465    6.705152E-08
       466    3.860909E-09
       467    5.555582E-05
       468   -3.486867E-08
       469   -1.543931E-08
       470    4.879081E-06
       471   -5.509038E-08
       472   -9.499711E-06
       473   -2.103589E-03
       474   -2.994380E-03
       475   -3.549078E-03
       476    1.284317E-04
       477    1.750433E-04
       478    3.452272E-05
       479    6.465030E-04
       480    2.672335E-04
       481    1.698369E-04
       482    2.102480E-03
       483    2.993073E-03
       484    3.550793E-03
       485   -1.282141E-04
       486    1.748819E-04
       487   -3.612431E-05
       488   -6.483711E-04
       489    2.668443E-04
       490   -1.714303E-04
 Sym= X
 Ene= 0.895795
 Spin= Alpha
 Occup= 0.895795
         1    1.933512E-05
         2    4.581034E-05
         3   -1.321773E-04
         4    5.890770E-05
         5    3.018270E-02
         6   -3.578565E-04
         7   -2.054564E-04
         8   -6.431193E-05
         9   -9.684765E-02
        10   -2.973321E-04
        11   -1.677233E-05
        12   -9.622797E-02
        13    1.992363E-02
        14   -1.462452E-02
        15   -5.425647E-02
        16   -6.315736E-06
        17    2.085598E-06
        18    4.230138E-06
        19   -2.332419E-06
        20    4.391518E-04
        21   -6.532690E-04
        22    8.950667E-05
        23   -2.925232E-05
        24   -6.025435E-05
        25    1.310076E-05
        26    5.366167E-03
        27    3.709795E-05
        28    6.294367E-03
        29   -6.668767E-03
        30    3.744002E-04
        31    2.401538E-04
        32    6.718305E-03
        33    1.454598E-02
        34    2.691132E-06
        35   -1.363300E-06
        36    1.857179E-04
        37   -3.394710E-06
        38    3.146289E-07
        39    1.451393E-04
        40   -2.158221E-07
        41    1.514430E-06
        42   -3.943060E-04
        43   -3.505109E-05
        44    5.925967E-06
        45    1.015944E-05
        46    8.094329E-05
        47   -1.614932E-03
        48    5.817348E-02
        49    5.988618E-03
        50   -2.360728E-05
        51    2.252360E-08
        52   -1.758021E-03
        53   -2.280955E-04
        54    2.168860E-06
        55   -4.931419E-03
        56    1.939587E-02
        57    7.595903E-05
        58   -6.113274E-02
        59   -3.267299E-05
        60   -3.971132E-06
        61    3.664412E-05
        62    7.789190E-08