[Molden Format]
[Title]
ADC(2) - opt by CAM-B3LYP gaussian                                              
[Atoms] AU
 c     1    6 -.12588573623097E+01 -.22835126974190E+01 -.24083260376910E-01
 c     2    6 -.25578815622211E+01 0.23621577000000E-06 -.22837930855340E-01
 c     3    6 -.12588573623097E+01 0.22835131698505E+01 -.24090819281440E-01
 c     4    6 0.13318248850473E+01 0.22853065199506E+01 -.26003222127920E-01
 c     5    6 0.26868737956204E+01 0.23621577000000E-06 -.25389061134730E-01
 c     6    6 0.13318248850473E+01 -.22853060475191E+01 -.25993773497260E-01
 h     7    1 -.22974546243959E+01 -.40385977330627E+01 -.21598270512170E-01
 h     8    1 -.22974527346698E+01 0.40385982054942E+01 -.21613388321230E-01
 h     9    1 0.23510089905703E+01 0.40574312161345E+01 -.28191524989800E-01
 h    10    1 0.23510071008442E+01 -.40574307437030E+01 -.28172627728480E-01
 n    11    7 -.52726375582849E+01 0.23621577000000E-06 -.17238672323600E-01
 o    12    8 -.63813946825068E+01 0.20269261555273E+01 -.14842499587100E-01
 o    13    8 -.63813927927806E+01 -.20269275728219E+01 -.14865176300690E-01
 n    14    7 0.52430742102305E+01 0.23621577000000E-06 -.67376886081320E-01
 h    15    1 0.62051583509223E+01 0.16177513148781E+01 0.18115044628513E+00
 h    16    1 0.62051564611962E+01 -.16177527321727E+01 0.18114666683287E+00
[GTO]
    1 0
 s    6 1.00
 0.13575349682000E+05 0.60645503603591E-03
 0.20352333680000E+04 0.46979088884982E-02
 0.46322562359000E+03 0.24332477647552E-01
 0.13120019598000E+03 0.97399968307759E-01
 0.42853015891000E+02 0.30195584253780E+00
 0.15584185766000E+02 0.66233609137875E+00
 s    2 1.00
 0.62067138508000E+01 0.65595308539952E+00
 0.25764896527000E+01 0.37585633285142E+00
 s    1 1.00
 0.57696339419000E+00 0.10000000000000E+01
 s    1 1.00
 0.22972831358000E+00 0.10000000000000E+01
 s    1 1.00
 0.95164440028000E-01 0.10000000000000E+01
 s    1 1.00
 0.48475401370000E-01 0.10000000000000E+01
 p    4 1.00
 0.34697232244000E+02 0.11327220003114E-01
 0.79582622826000E+01 0.76169659202087E-01
 0.23780826883000E+01 0.30192252202676E+00
 0.81433208183000E+00 0.72785027349547E+00
 p    1 1.00
 0.28887547253000E+00 0.10000000000000E+01
 p    1 1.00
 0.10056823671000E+00 0.10000000000000E+01
 d    1 1.00
 0.10970000000000E+01 0.10000000000000E+01
 d    1 1.00
 0.31800000000000E+00 0.10000000000000E+01
 d    1 1.00
 0.90985336424000E-01 0.10000000000000E+01
 f    1 1.00
 0.76100000000000E+00 0.10000000000000E+01
 
    2 0
 s    6 1.00
 0.13575349682000E+05 0.60645503603591E-03
 0.20352333680000E+04 0.46979088884982E-02
 0.46322562359000E+03 0.24332477647552E-01
 0.13120019598000E+03 0.97399968307759E-01
 0.42853015891000E+02 0.30195584253780E+00
 0.15584185766000E+02 0.66233609137875E+00
 s    2 1.00
 0.62067138508000E+01 0.65595308539952E+00
 0.25764896527000E+01 0.37585633285142E+00
 s    1 1.00
 0.57696339419000E+00 0.10000000000000E+01
 s    1 1.00
 0.22972831358000E+00 0.10000000000000E+01
 s    1 1.00
 0.95164440028000E-01 0.10000000000000E+01
 s    1 1.00
 0.48475401370000E-01 0.10000000000000E+01
 p    4 1.00
 0.34697232244000E+02 0.11327220003114E-01
 0.79582622826000E+01 0.76169659202087E-01
 0.23780826883000E+01 0.30192252202676E+00
 0.81433208183000E+00 0.72785027349547E+00
 p    1 1.00
 0.28887547253000E+00 0.10000000000000E+01
 p    1 1.00
 0.10056823671000E+00 0.10000000000000E+01
 d    1 1.00
 0.10970000000000E+01 0.10000000000000E+01
 d    1 1.00
 0.31800000000000E+00 0.10000000000000E+01
 d    1 1.00
 0.90985336424000E-01 0.10000000000000E+01
 f    1 1.00
 0.76100000000000E+00 0.10000000000000E+01
 
    3 0
 s    6 1.00
 0.13575349682000E+05 0.60645503603591E-03
 0.20352333680000E+04 0.46979088884982E-02
 0.46322562359000E+03 0.24332477647552E-01
 0.13120019598000E+03 0.97399968307759E-01
 0.42853015891000E+02 0.30195584253780E+00
 0.15584185766000E+02 0.66233609137875E+00
 s    2 1.00
 0.62067138508000E+01 0.65595308539952E+00
 0.25764896527000E+01 0.37585633285142E+00
 s    1 1.00
 0.57696339419000E+00 0.10000000000000E+01
 s    1 1.00
 0.22972831358000E+00 0.10000000000000E+01
 s    1 1.00
 0.95164440028000E-01 0.10000000000000E+01
 s    1 1.00
 0.48475401370000E-01 0.10000000000000E+01
 p    4 1.00
 0.34697232244000E+02 0.11327220003114E-01
 0.79582622826000E+01 0.76169659202087E-01
 0.23780826883000E+01 0.30192252202676E+00
 0.81433208183000E+00 0.72785027349547E+00
 p    1 1.00
 0.28887547253000E+00 0.10000000000000E+01
 p    1 1.00
 0.10056823671000E+00 0.10000000000000E+01
 d    1 1.00
 0.10970000000000E+01 0.10000000000000E+01
 d    1 1.00
 0.31800000000000E+00 0.10000000000000E+01
 d    1 1.00
 0.90985336424000E-01 0.10000000000000E+01
 f    1 1.00
 0.76100000000000E+00 0.10000000000000E+01
 
    4 0
 s    6 1.00
 0.13575349682000E+05 0.60645503603591E-03
 0.20352333680000E+04 0.46979088884982E-02
 0.46322562359000E+03 0.24332477647552E-01
 0.13120019598000E+03 0.97399968307759E-01
 0.42853015891000E+02 0.30195584253780E+00
 0.15584185766000E+02 0.66233609137875E+00
 s    2 1.00
 0.62067138508000E+01 0.65595308539952E+00
 0.25764896527000E+01 0.37585633285142E+00
 s    1 1.00
 0.57696339419000E+00 0.10000000000000E+01
 s    1 1.00
 0.22972831358000E+00 0.10000000000000E+01
 s    1 1.00
 0.95164440028000E-01 0.10000000000000E+01
 s    1 1.00
 0.48475401370000E-01 0.10000000000000E+01
 p    4 1.00
 0.34697232244000E+02 0.11327220003114E-01
 0.79582622826000E+01 0.76169659202087E-01
 0.23780826883000E+01 0.30192252202676E+00
 0.81433208183000E+00 0.72785027349547E+00
 p    1 1.00
 0.28887547253000E+00 0.10000000000000E+01
 p    1 1.00
 0.10056823671000E+00 0.10000000000000E+01
 d    1 1.00
 0.10970000000000E+01 0.10000000000000E+01
 d    1 1.00
 0.31800000000000E+00 0.10000000000000E+01
 d    1 1.00
 0.90985336424000E-01 0.10000000000000E+01
 f    1 1.00
 0.76100000000000E+00 0.10000000000000E+01
 
    5 0
 s    6 1.00
 0.13575349682000E+05 0.60645503603591E-03
 0.20352333680000E+04 0.46979088884982E-02
 0.46322562359000E+03 0.24332477647552E-01
 0.13120019598000E+03 0.97399968307759E-01
 0.42853015891000E+02 0.30195584253780E+00
 0.15584185766000E+02 0.66233609137875E+00
 s    2 1.00
 0.62067138508000E+01 0.65595308539952E+00
 0.25764896527000E+01 0.37585633285142E+00
 s    1 1.00
 0.57696339419000E+00 0.10000000000000E+01
 s    1 1.00
 0.22972831358000E+00 0.10000000000000E+01
 s    1 1.00
 0.95164440028000E-01 0.10000000000000E+01
 s    1 1.00
 0.48475401370000E-01 0.10000000000000E+01
 p    4 1.00
 0.34697232244000E+02 0.11327220003114E-01
 0.79582622826000E+01 0.76169659202087E-01
 0.23780826883000E+01 0.30192252202676E+00
 0.81433208183000E+00 0.72785027349547E+00
 p    1 1.00
 0.28887547253000E+00 0.10000000000000E+01
 p    1 1.00
 0.10056823671000E+00 0.10000000000000E+01
 d    1 1.00
 0.10970000000000E+01 0.10000000000000E+01
 d    1 1.00
 0.31800000000000E+00 0.10000000000000E+01
 d    1 1.00
 0.90985336424000E-01 0.10000000000000E+01
 f    1 1.00
 0.76100000000000E+00 0.10000000000000E+01
 
    6 0
 s    6 1.00
 0.13575349682000E+05 0.60645503603591E-03
 0.20352333680000E+04 0.46979088884982E-02
 0.46322562359000E+03 0.24332477647552E-01
 0.13120019598000E+03 0.97399968307759E-01
 0.42853015891000E+02 0.30195584253780E+00
 0.15584185766000E+02 0.66233609137875E+00
 s    2 1.00
 0.62067138508000E+01 0.65595308539952E+00
 0.25764896527000E+01 0.37585633285142E+00
 s    1 1.00
 0.57696339419000E+00 0.10000000000000E+01
 s    1 1.00
 0.22972831358000E+00 0.10000000000000E+01
 s    1 1.00
 0.95164440028000E-01 0.10000000000000E+01
 s    1 1.00
 0.48475401370000E-01 0.10000000000000E+01
 p    4 1.00
 0.34697232244000E+02 0.11327220003114E-01
 0.79582622826000E+01 0.76169659202087E-01
 0.23780826883000E+01 0.30192252202676E+00
 0.81433208183000E+00 0.72785027349547E+00
 p    1 1.00
 0.28887547253000E+00 0.10000000000000E+01
 p    1 1.00
 0.10056823671000E+00 0.10000000000000E+01
 d    1 1.00
 0.10970000000000E+01 0.10000000000000E+01
 d    1 1.00
 0.31800000000000E+00 0.10000000000000E+01
 d    1 1.00
 0.90985336424000E-01 0.10000000000000E+01
 f    1 1.00
 0.76100000000000E+00 0.10000000000000E+01
 
    7 0
 s    3 1.00
 0.34061341000000E+02 0.25439307208879E-01
 0.51235746000000E+01 0.19008594890375E+00
 0.11646626000000E+01 0.85244113011042E+00
 s    1 1.00
 0.32723041000000E+00 0.10000000000000E+01
 s    1 1.00
 0.10307241000000E+00 0.10000000000000E+01
 p    1 1.00
 0.80000000000000E+00 0.10000000000000E+01
 p    1 1.00
 0.95774129632000E-01 0.10000000000000E+01
 
    8 0
 s    3 1.00
 0.34061341000000E+02 0.25439307208879E-01
 0.51235746000000E+01 0.19008594890375E+00
 0.11646626000000E+01 0.85244113011042E+00
 s    1 1.00
 0.32723041000000E+00 0.10000000000000E+01
 s    1 1.00
 0.10307241000000E+00 0.10000000000000E+01
 p    1 1.00
 0.80000000000000E+00 0.10000000000000E+01
 p    1 1.00
 0.95774129632000E-01 0.10000000000000E+01
 
    9 0
 s    3 1.00
 0.34061341000000E+02 0.25439307208879E-01
 0.51235746000000E+01 0.19008594890375E+00
 0.11646626000000E+01 0.85244113011042E+00
 s    1 1.00
 0.32723041000000E+00 0.10000000000000E+01
 s    1 1.00
 0.10307241000000E+00 0.10000000000000E+01
 p    1 1.00
 0.80000000000000E+00 0.10000000000000E+01
 p    1 1.00
 0.95774129632000E-01 0.10000000000000E+01
 
   10 0
 s    3 1.00
 0.34061341000000E+02 0.25439307208879E-01
 0.51235746000000E+01 0.19008594890375E+00
 0.11646626000000E+01 0.85244113011042E+00
 s    1 1.00
 0.32723041000000E+00 0.10000000000000E+01
 s    1 1.00
 0.10307241000000E+00 0.10000000000000E+01
 p    1 1.00
 0.80000000000000E+00 0.10000000000000E+01
 p    1 1.00
 0.95774129632000E-01 0.10000000000000E+01
 
   11 0
 s    6 1.00
 0.19730800647000E+05 0.58626402628763E-03
 0.29578958745000E+04 0.45428820586397E-02
 0.67322133595000E+03 0.23558413450084E-01
 0.19068249494000E+03 0.94709193292923E-01
 0.62295441898000E+02 0.29719784913376E+00
 0.22654161182000E+02 0.66916246895232E+00
 s    2 1.00
 0.89791477428000E+01 0.64596683630063E+00
 0.36863002370000E+01 0.38700574393705E+00
 s    1 1.00
 0.84660076805000E+00 0.10000000000000E+01
 s    1 1.00
 0.33647133771000E+00 0.10000000000000E+01
 s    1 1.00
 0.13647653675000E+00 0.10000000000000E+01
 s    1 1.00
 0.68441605847000E-01 0.10000000000000E+01
 p    4 1.00
 0.49200380510000E+02 0.11448825101764E-01
 0.11346790537000E+02 0.78422337970864E-01
 0.34273972411000E+01 0.30818094738830E+00
 0.11785525134000E+01 0.72027196368413E+00
 p    1 1.00
 0.41642204972000E+00 0.10000000000000E+01
 p    1 1.00
 0.14260826011000E+00 0.10000000000000E+01
 d    1 1.00
 0.16540000000000E+01 0.10000000000000E+01
 d    1 1.00
 0.46900000000000E+00 0.10000000000000E+01
 d    1 1.00
 0.12829642058000E+00 0.10000000000000E+01
 f    1 1.00
 0.10930000000000E+01 0.10000000000000E+01
 
   12 0
 s    6 1.00
 0.27032382631000E+05 0.57227335211155E-03
 0.40523871392000E+04 0.44353233492995E-02
 0.92232722710000E+03 0.23020107706038E-01
 0.26124070989000E+03 0.92822490667928E-01
 0.85354641351000E+02 0.29378500009671E+00
 0.31035035245000E+02 0.67401604501641E+00
 s    2 1.00
 0.12260860728000E+02 0.63839937025506E+00
 0.49987076005000E+01 0.39534587125718E+00
 s    1 1.00
 0.11703108158000E+01 0.10000000000000E+01
 s    1 1.00
 0.46474740994000E+00 0.10000000000000E+01
 s    1 1.00
 0.18504536357000E+00 0.10000000000000E+01
 s    1 1.00
 0.70288026270000E-01 0.10000000000000E+01
 p    4 1.00
 0.63274954801000E+02 0.12018332222616E-01
 0.14627049379000E+02 0.83005421790056E-01
 0.44501223456000E+01 0.31991743925964E+00
 0.15275799647000E+01 0.70715542916104E+00
 p    1 1.00
 0.52935117943000E+00 0.10000000000000E+01
 p    1 1.00
 0.17478421270000E+00 0.10000000000000E+01
 p    1 1.00
 0.51112745706000E-01 0.10000000000000E+01
 d    1 1.00
 0.23140000000000E+01 0.10000000000000E+01
 d    1 1.00
 0.64500000000000E+00 0.10000000000000E+01
 d    1 1.00
 0.14696477366000E+00 0.10000000000000E+01
 f    1 1.00
 0.14280000000000E+01 0.10000000000000E+01
 
   13 0
 s    6 1.00
 0.27032382631000E+05 0.57227335211155E-03
 0.40523871392000E+04 0.44353233492995E-02
 0.92232722710000E+03 0.23020107706038E-01
 0.26124070989000E+03 0.92822490667928E-01
 0.85354641351000E+02 0.29378500009671E+00
 0.31035035245000E+02 0.67401604501641E+00
 s    2 1.00
 0.12260860728000E+02 0.63839937025506E+00
 0.49987076005000E+01 0.39534587125718E+00
 s    1 1.00
 0.11703108158000E+01 0.10000000000000E+01
 s    1 1.00
 0.46474740994000E+00 0.10000000000000E+01
 s    1 1.00
 0.18504536357000E+00 0.10000000000000E+01
 s    1 1.00
 0.70288026270000E-01 0.10000000000000E+01
 p    4 1.00
 0.63274954801000E+02 0.12018332222616E-01
 0.14627049379000E+02 0.83005421790056E-01
 0.44501223456000E+01 0.31991743925964E+00
 0.15275799647000E+01 0.70715542916104E+00
 p    1 1.00
 0.52935117943000E+00 0.10000000000000E+01
 p    1 1.00
 0.17478421270000E+00 0.10000000000000E+01
 p    1 1.00
 0.51112745706000E-01 0.10000000000000E+01
 d    1 1.00
 0.23140000000000E+01 0.10000000000000E+01
 d    1 1.00
 0.64500000000000E+00 0.10000000000000E+01
 d    1 1.00
 0.14696477366000E+00 0.10000000000000E+01
 f    1 1.00
 0.14280000000000E+01 0.10000000000000E+01
 
   14 0
 s    6 1.00
 0.19730800647000E+05 0.58626402628763E-03
 0.29578958745000E+04 0.45428820586397E-02
 0.67322133595000E+03 0.23558413450084E-01
 0.19068249494000E+03 0.94709193292923E-01
 0.62295441898000E+02 0.29719784913376E+00
 0.22654161182000E+02 0.66916246895232E+00
 s    2 1.00
 0.89791477428000E+01 0.64596683630063E+00
 0.36863002370000E+01 0.38700574393705E+00
 s    1 1.00
 0.84660076805000E+00 0.10000000000000E+01
 s    1 1.00
 0.33647133771000E+00 0.10000000000000E+01
 s    1 1.00
 0.13647653675000E+00 0.10000000000000E+01
 s    1 1.00
 0.68441605847000E-01 0.10000000000000E+01
 p    4 1.00
 0.49200380510000E+02 0.11448825101764E-01
 0.11346790537000E+02 0.78422337970864E-01
 0.34273972411000E+01 0.30818094738830E+00
 0.11785525134000E+01 0.72027196368413E+00
 p    1 1.00
 0.41642204972000E+00 0.10000000000000E+01
 p    1 1.00
 0.14260826011000E+00 0.10000000000000E+01
 d    1 1.00
 0.16540000000000E+01 0.10000000000000E+01
 d    1 1.00
 0.46900000000000E+00 0.10000000000000E+01
 d    1 1.00
 0.12829642058000E+00 0.10000000000000E+01
 f    1 1.00
 0.10930000000000E+01 0.10000000000000E+01
 
   15 0
 s    3 1.00
 0.34061341000000E+02 0.25439307208879E-01
 0.51235746000000E+01 0.19008594890375E+00
 0.11646626000000E+01 0.85244113011042E+00
 s    1 1.00
 0.32723041000000E+00 0.10000000000000E+01
 s    1 1.00
 0.10307241000000E+00 0.10000000000000E+01
 p    1 1.00
 0.80000000000000E+00 0.10000000000000E+01
 p    1 1.00
 0.95774129632000E-01 0.10000000000000E+01
 
   16 0
 s    3 1.00
 0.34061341000000E+02 0.25439307208879E-01
 0.51235746000000E+01 0.19008594890375E+00
 0.11646626000000E+01 0.85244113011042E+00
 s    1 1.00
 0.32723041000000E+00 0.10000000000000E+01
 s    1 1.00
 0.10307241000000E+00 0.10000000000000E+01
 p    1 1.00
 0.80000000000000E+00 0.10000000000000E+01
 p    1 1.00
 0.95774129632000E-01 0.10000000000000E+01
 
[MO]
 Sym= X
 Ene= -0.893801
 Spin= Alpha
 Occup= -0.893801
         1   -1.758258E-04
         2   -4.083711E-04
         3    1.112065E-03
         4   -2.244693E-03
         5   -1.071007E-02
         6   -1.036433E-02
         7    1.534542E-03
         8    1.866062E-04
         9    2.037787E-02
        10   -2.191121E-03
        11    3.820837E-04
        12    1.853916E-02
        13   -3.307008E-02
        14    8.821749E-03
        15    1.175761E-03
        16    3.486286E-06
        17   -1.334292E-05
        18    9.856632E-06
        19   -1.338194E-05
        20   -6.280785E-03
        21    3.715444E-03
        22   -6.020939E-04
        23    3.660042E-04
        24    2.360897E-04
        25   -6.657316E-04
        26   -1.414317E-02
        27    7.033248E-03
        28   -4.748152E-03
        29    4.428920E-03
        30    3.192317E-04
        31    1.124296E-03
        32    1.645890E-03
        33   -1.081596E-02
        34   -1.736340E-05
        35    6.768472E-06
        36   -7.689784E-05
        37    6.584828E-06
        38   -7.110805E-06
        39   -7.123907E-04
        40    1.671061E-05
        41   -1.970053E-06
        42    8.155599E-04
        43   -6.813185E-04
        44    2.114326E-05
        45    4.590194E-05
        46    1.436997E-04
        47   -2.577279E-03
        48   -4.650835E-02
        49    5.197469E-03
        50    3.959798E-04
        51    9.047490E-07
        52    1.975205E-01
        53   -3.852814E-04
        54    2.175289E-05
        55    2.051086E-01
        56   -1.563646E-02
        57   -1.667520E-03
        58    2.013997E-01
        59    3.384217E-05
        60   -3.164901E-05
        61   -2.193159E-06
        62    1.354056E-07
        63   -8.851295E-04
        64    1.099803E-06
        65    3.523285E-04
        66   -5.836475E-04
        67    2.313191E-04
        68    4.561638E-06
        69   -3.717468E-03
        70    1.902517E-06
        71    8.412784E-03
        72   -9.418717E-03
        73    1.005933E-03
        74   -2.844393E-04
        75    4.840588E-03
        76   -2.740669E-05
        77    7.367417E-06
        78    4.896047E-08
        79   -1.096362E-03
        80   -6.633393E-06
        81    3.470722E-08
        82    6.733943E-04
        83   -3.251034E-06
        84   -1.003946E-07
        85    7.975291E-04
        86    1.338424E-07
        87   -1.763685E-04
        88   -4.097382E-04
        89    1.124018E-03
        90   -2.333911E-03
        91   -8.018525E-03
        92   -1.028834E-02
        93    1.534628E-03
        94   -1.862914E-04
        95    2.043034E-02
        96   -2.182966E-03
        97   -3.662924E-04
        98    1.858934E-02
        99   -3.424362E-02
       100   -1.056396E-02
       101    1.294061E-03
       102    3.197525E-06
       103   -1.325048E-05
       104    1.005295E-05
       105    1.356950E-05
       106   -6.280179E-03
       107   -3.715683E-03
       108   -5.996798E-04
       109    3.615150E-04
       110    2.381648E-04
       111    6.617399E-04
       112   -1.413937E-02
       113   -7.032732E-03
       114   -5.076701E-03
       115    4.790270E-03
       116    2.864316E-04
       117   -8.760779E-04
       118    1.634391E-03
       119    1.077157E-02
       120   -1.759325E-05
       121   -6.740410E-06
       122   -7.717361E-05
       123    6.922895E-06
       124    7.117003E-06
       125   -7.120852E-04
       126    1.668093E-05
       127    1.926206E-06
       128    8.156244E-04
       129    6.812498E-04
       130    1.172359E-04
       131    2.533342E-04
       132    5.301114E-04
       133   -9.789198E-03
       134    2.755058E-02
       135    1.151216E-02
       136   -1.231882E-03
       137    6.640731E-04
       138   -1.536005E-01
       139   -8.429233E-03
       140    5.774245E-03
       141   -1.565113E-01
       142   -2.412162E-02
       143   -6.369447E-03
       144   -9.332753E-02
       145    1.390684E-04
       146   -1.679794E-04
       147    2.891100E-05
       148   -4.356559E-06
       149   -6.862917E-04
       150    2.893783E-03
       151    5.608461E-04
       152   -6.957046E-04
       153    1.348585E-04
       154    1.579131E-03
       155   -3.767747E-03
       156    4.877392E-03
       157    7.820426E-03
       158   -6.203051E-03
       159   -1.617375E-03
       160   -7.775306E-03
       161    3.550470E-03
       162   -1.277125E-02
       163   -1.333668E-05
       164    9.500324E-06
       165    8.602081E-04
       166   -1.839449E-05
       167    1.511142E-05
       168   -2.275538E-04
       169    3.628752E-05
       170   -2.785745E-05
       171   -9.265365E-04
       172    3.212862E-04
       173   -1.058856E-03
       174   -2.412180E-03
       175    2.511997E-03
       176    2.013252E-02
       177   -1.258855E-02
       178    8.799098E-03
       179    8.607910E-03
       180    2.065581E-06
       181   -1.071190E-01
       182    5.711182E-04
       183   -1.577282E-05
       184   -1.099212E-01
       185   -2.290385E-02
       186    1.703134E-03
       187   -1.324043E-01
       188    4.470480E-04
       189   -2.520648E-04
       190   -1.949831E-04
       191    8.527120E-08
       192    1.009769E-02
       193    9.405971E-07
       194   -1.736857E-03
       195    3.804870E-03
       196   -2.068014E-03
       197    4.184339E-06
       198    2.485177E-02
       199   -1.282665E-06
       200   -5.323392E-03
       201    6.520198E-03
       202   -1.196806E-03
       203   -3.531274E-04
       204    1.945330E-02
       205    1.013460E-05
       206    1.089007E-04
       207    2.674723E-08
       208    2.787780E-04
       209   -7.623523E-05
       210   -1.265423E-07
       211    1.093093E-03
       212   -6.987044E-05
       213    9.065716E-08
       214   -1.467113E-03
       215    1.389164E-08
       216    1.175541E-04
       217    2.538647E-04
       218    5.376479E-04
       219   -9.882441E-03
       220    3.055209E-02
       221    1.154116E-02
       222   -1.233521E-03
       223   -6.600886E-04
       224   -1.536388E-01
       225   -8.428198E-03
       226   -5.792652E-03
       227   -1.565590E-01
       228   -2.286561E-02
       229    8.368004E-03
       230   -9.325989E-02
       231    1.388072E-04
       232   -1.685137E-04
       233    2.970651E-05
       234    4.304726E-06
       235   -6.851362E-04
       236   -2.893995E-03
       237    5.614627E-04
       238   -6.982065E-04
       239    1.367438E-04
       240   -1.582208E-03
       241   -3.764290E-03
       242   -4.877334E-03
       243    7.472284E-03
       244   -5.838625E-03
       245   -1.633659E-03
       246    8.050764E-03
       247    3.567494E-03
       248    1.282574E-02
       249   -1.319403E-05
       250   -9.584189E-06
       251    8.607141E-04
       252   -1.870885E-05
       253   -1.502494E-05
       254   -2.280791E-04
       255    3.641049E-05
       256    2.788348E-05
       257   -9.266900E-04
       258   -3.212763E-04
       259   -3.282647E-04
       260   -2.051973E-04
       261   -1.638767E-02
       262   -1.209344E-05
       263    5.337629E-08
       264    7.946328E-04
       265   -4.853401E-03
       266   -3.102445E-04
       267   -6.953701E-03
       268   -3.281955E-04
       269   -1.965693E-04
       270   -1.615175E-02
       271   -1.072361E-05
       272   -9.539799E-07
       273    7.971052E-04
       274   -5.032621E-03
       275    1.669628E-04
       276   -6.924268E-03
       277   -4.006395E-04
       278   -2.199099E-03
       279    3.143651E-02
       280   -8.714428E-06
       281    9.297659E-05
       282   -6.225728E-03
       283   -1.756943E-03
       284   -2.450189E-03
       285    2.196663E-03
       286   -4.036293E-04
       287   -2.196877E-03
       288    3.187156E-02
       289   -8.443784E-06
       290   -9.265819E-05
       291   -6.227809E-03
       292   -1.608134E-03
       293    2.620570E-03
       294    2.225524E-03
       295   -3.985941E-05
       296   -9.202832E-05
       297    7.273456E-05
       298    3.937761E-04
       299   -6.483628E-03
       300    7.584479E-04
       301    3.851014E-04
       302   -9.503131E-08
       303    2.131907E-02
       304    1.032656E-04
       305    7.274290E-07
       306    2.374606E-02
       307   -2.867728E-03
       308    2.818278E-05
       309    1.001559E-02
       310    1.780273E-05
       311   -3.355756E-06
       312   -1.444697E-05
       313   -7.550854E-08
       314    4.384390E-03
       315   -5.002831E-08
       316   -3.020712E-06
       317    6.517210E-05
       318   -6.215138E-05
       319   -8.348917E-07
       320    1.320752E-02
       321   -3.382271E-07
       322   -9.571948E-04
       323    2.628362E-03
       324   -1.671168E-03
       325    4.706809E-05
       326    3.000393E-03
       327    4.392958E-06
       328    6.421124E-06
       329   -4.276458E-09
       330    8.854767E-06
       331   -4.641385E-06
       332    3.568703E-08
       333    6.880540E-04
       334   -3.973458E-06
       335   -2.994956E-08
       336   -6.999339E-04
       337    3.788964E-08
       338   -1.175859E-05
       339   -2.539343E-05
       340   -3.565721E-06
       341    4.672391E-04
       342   -5.376382E-03
       343   -8.093049E-04
       344   -1.605676E-04
       345    1.059878E-04
       346   -7.868681E-02
       347   -2.426986E-04
       348    2.289476E-04
       349   -7.298319E-02
       350   -1.339836E-03
       351    4.412221E-04
       352   -5.984838E-02
       353   -1.498034E-04
       354    1.902556E-04
       355   -7.522078E-03
       356    3.367714E-06
       357   -3.821674E-06
       358    4.539601E-07
       359    1.291406E-08
       360    1.727248E-05
       361    4.572376E-04
       362   -1.148349E-05
       363   -9.450591E-06
       364    2.093409E-05
       365    1.014996E-05
       366   -4.926033E-04
       367    1.535645E-03
       368   -7.630725E-05
       369    5.423104E-05
       370    2.207621E-05
       371    8.175576E-05
       372   -9.788587E-05
       373    2.397008E-04
       374    6.879232E-07
       375    1.473267E-06
       376    6.280850E-05
       377   -1.238838E-06
       378   -3.582345E-07
       379    8.267170E-05
       380    3.158922E-07
       381   -1.618361E-06
       382   -1.669381E-04
       383    1.322048E-04
       384   -1.157961E-05
       385   -2.498967E-05
       386   -3.746255E-06
       387    4.630148E-04
       388   -5.398346E-03
       389   -7.665929E-04
       390   -1.520753E-04
       391   -1.102180E-04
       392   -7.868053E-02
       393   -2.354049E-04
       394   -2.318343E-04
       395   -7.297769E-02
       396   -1.291997E-03
       397   -4.511111E-04
       398   -5.983845E-02
       399   -1.306551E-04
       400   -1.953978E-04
       401   -7.526895E-03
       402    3.366680E-06
       403   -3.858474E-06
       404    4.917946E-07
       405   -5.691601E-08
       406    1.725205E-05
       407   -4.571932E-04
       408   -1.088124E-05
       409   -9.594012E-06
       410    2.047525E-05
       411   -9.607374E-06
       412   -4.924519E-04
       413   -1.535451E-03
       414   -7.612776E-05
       415    5.528958E-05
       416    2.083818E-05
       417   -8.090151E-05
       418   -9.881458E-05
       419   -2.391301E-04
       420    6.916715E-07
       421   -1.482749E-06
       422    6.280802E-05
       423   -1.226851E-06
       424    3.799536E-07
       425    8.266193E-05
       426    2.988764E-07
       427    1.609362E-06
       428   -1.669277E-04
       429   -1.321954E-04
       430    4.619899E-03
       431    1.095679E-02
       432   -1.701575E-02
       433   -2.623295E-02
       434   -2.118004E-02
       435   -6.378930E-02
       436   -1.626288E-02
       437    1.339325E-05
       438    2.587521E-01
       439   -1.854811E-02
       440   -2.319967E-06
       441    2.556701E-01
       442   -1.691762E-02
       443   -1.524813E-04
       444    2.087050E-01
       445   -8.959374E-05
       446   -1.494347E-05
       447    1.045372E-04
       448    3.257610E-07
       449    6.858054E-04
       450    4.105167E-07
       451   -1.989410E-04
       452   -1.438160E-03
       453    1.637101E-03
       454   -6.244300E-06
       455    3.455021E-03
       456    1.187316E-06
       457   -1.585416E-03
       458   -2.792750E-03
       459    4.378166E-03
       460   -2.541434E-05
       461    2.078362E-03
       462    1.110685E-05
       463   -1.290206E-04
       464    1.190672E-08
       465   -1.042275E-03
       466   -8.250699E-05
       467   -2.150162E-08
       468    5.742030E-04
       469    2.556063E-04
       470    5.527087E-09
       471    8.241559E-04
       472    7.676279E-09
       473    8.647994E-03
       474    1.649537E-02
       475    2.766988E-02
       476   -2.117603E-03
       477   -1.753172E-03
       478    1.312788E-02
       479    1.234088E-03
       480   -3.252413E-03
       481    1.498579E-02
       482    8.639137E-03
       483    1.637799E-02
       484    2.713178E-02
       485   -2.111445E-03
       486    1.741950E-03
       487    1.313291E-02
       488    1.298490E-03
       489    3.170155E-03
       490    1.500867E-02
 Sym= X
 Ene= 0.893801
 Spin= Alpha
 Occup= 0.893801
         1    6.235777E-03
         2    1.352191E-02
         3   -3.072261E-03
         4   -2.925729E-01
         5   -8.677165E+00
         6    4.870938E-01
         7    1.849884E-02
         8    5.040640E-02
         9    1.172829E-03
        10    8.608563E-02
        11    7.443243E-03
        12    5.020243E-04
        13    3.887441E+00
        14   -3.808330E+00
        15    5.677492E-03
        16   -9.385343E-04
        17    7.642877E-05
        18    8.621056E-04
        19    1.926651E-03
        20   -5.737055E-05
        21    1.690606E-05
        22    1.535257E-02
        23   -2.118965E-02
        24    5.837084E-03
        25    2.030100E-02
        26   -2.566504E-04
        27   -1.715653E-04
        28    1.519492E+00
        29   -1.440229E+00
        30   -7.926205E-02
        31    1.024297E+00
        32    1.486144E-03
        33    3.959197E-03
        34    7.750730E-05
        35   -2.693645E-04
        36    1.242637E-05
        37    7.041846E-04
        38    4.744043E-04
        39   -2.282155E-05
        40   -8.081715E-04
        41   -1.130139E-04
        42    6.149822E-06
        43   -2.601245E-06
        44   -3.529981E-07
        45   -3.471774E-07
        46   -5.503375E-06
        47    1.239154E-04
        48    2.445024E-03
        49   -9.519165E-04
        50    9.829690E-06
        51    1.374570E-02
        52    5.406102E-06
        53   -1.685264E-05
        54   -1.032187E-01
        55    7.620171E-07
        56   -3.997269E-04
        57   -8.713436E+00
        58    1.017499E-04
        59    2.521613E-06
        60   -2.618982E-07
        61   -2.259715E-06
        62   -1.849465E-03