[Molden Format]
[Title]
ADC(2) - opt by CAM-B3LYP gaussian                                              
[Atoms] AU
 c     1    6 0.12593230616935E+01 0.22795690751954E+01 -.36278607975490E-01
 c     2    6 0.25504236399298E+01 0.18897261300000E-05 -.34511714041240E-01
 c     3    6 0.12593268411458E+01 -.22795652957431E+01 -.36289946332290E-01
 c     4    6 -.13369660030996E+01 -.22791608943507E+01 -.39583738981910E-01
 c     5    6 -.26856068523561E+01 -.18897261300000E-05 -.40110972572980E-01
 c     6    6 -.13369678928258E+01 0.22791590046246E+01 -.39570510898980E-01
 h     7    1 0.23068095955089E+01 0.40296066523382E+01 -.33243707806080E-01
 h     8    1 0.23068152646873E+01 -.40296028728859E+01 -.33262605067400E-01
 h     9    1 -.23553205188504E+01 -.40525668248527E+01 -.45200005048840E-01
 h    10    1 -.23553280777549E+01 0.40525630454004E+01 -.45173548882980E-01
 n    11    7 0.52878147756133E+01 0.00000000000000E+00 -.27472484196240E-01
 o    12    8 0.63764576548767E+01 -.20283488830896E+01 -.24482937454020E-01
 o    13    8 0.63764614343290E+01 0.20283469933635E+01 -.24515062798280E-01
 n    14    7 -.52636676188715E+01 0.00000000000000E+00 -.10786332361533E+00
 h    15    1 -.61947904866021E+01 -.16076731691957E+01 0.28377485852069E+00
 h    16    1 -.61947848174237E+01 0.16076731691957E+01 0.28378430715135E+00
[GTO]
    1 0
 s    6 1.00
 0.13575349682000E+05 0.60645503603591E-03
 0.20352333680000E+04 0.46979088884982E-02
 0.46322562359000E+03 0.24332477647552E-01
 0.13120019598000E+03 0.97399968307759E-01
 0.42853015891000E+02 0.30195584253780E+00
 0.15584185766000E+02 0.66233609137875E+00
 s    2 1.00
 0.62067138508000E+01 0.65595308539952E+00
 0.25764896527000E+01 0.37585633285142E+00
 s    1 1.00
 0.57696339419000E+00 0.10000000000000E+01
 s    1 1.00
 0.22972831358000E+00 0.10000000000000E+01
 s    1 1.00
 0.95164440028000E-01 0.10000000000000E+01
 s    1 1.00
 0.48475401370000E-01 0.10000000000000E+01
 p    4 1.00
 0.34697232244000E+02 0.11327220003114E-01
 0.79582622826000E+01 0.76169659202087E-01
 0.23780826883000E+01 0.30192252202676E+00
 0.81433208183000E+00 0.72785027349547E+00
 p    1 1.00
 0.28887547253000E+00 0.10000000000000E+01
 p    1 1.00
 0.10056823671000E+00 0.10000000000000E+01
 d    1 1.00
 0.10970000000000E+01 0.10000000000000E+01
 d    1 1.00
 0.31800000000000E+00 0.10000000000000E+01
 d    1 1.00
 0.90985336424000E-01 0.10000000000000E+01
 f    1 1.00
 0.76100000000000E+00 0.10000000000000E+01
 
    2 0
 s    6 1.00
 0.13575349682000E+05 0.60645503603591E-03
 0.20352333680000E+04 0.46979088884982E-02
 0.46322562359000E+03 0.24332477647552E-01
 0.13120019598000E+03 0.97399968307759E-01
 0.42853015891000E+02 0.30195584253780E+00
 0.15584185766000E+02 0.66233609137875E+00
 s    2 1.00
 0.62067138508000E+01 0.65595308539952E+00
 0.25764896527000E+01 0.37585633285142E+00
 s    1 1.00
 0.57696339419000E+00 0.10000000000000E+01
 s    1 1.00
 0.22972831358000E+00 0.10000000000000E+01
 s    1 1.00
 0.95164440028000E-01 0.10000000000000E+01
 s    1 1.00
 0.48475401370000E-01 0.10000000000000E+01
 p    4 1.00
 0.34697232244000E+02 0.11327220003114E-01
 0.79582622826000E+01 0.76169659202087E-01
 0.23780826883000E+01 0.30192252202676E+00
 0.81433208183000E+00 0.72785027349547E+00
 p    1 1.00
 0.28887547253000E+00 0.10000000000000E+01
 p    1 1.00
 0.10056823671000E+00 0.10000000000000E+01
 d    1 1.00
 0.10970000000000E+01 0.10000000000000E+01
 d    1 1.00
 0.31800000000000E+00 0.10000000000000E+01
 d    1 1.00
 0.90985336424000E-01 0.10000000000000E+01
 f    1 1.00
 0.76100000000000E+00 0.10000000000000E+01
 
    3 0
 s    6 1.00
 0.13575349682000E+05 0.60645503603591E-03
 0.20352333680000E+04 0.46979088884982E-02
 0.46322562359000E+03 0.24332477647552E-01
 0.13120019598000E+03 0.97399968307759E-01
 0.42853015891000E+02 0.30195584253780E+00
 0.15584185766000E+02 0.66233609137875E+00
 s    2 1.00
 0.62067138508000E+01 0.65595308539952E+00
 0.25764896527000E+01 0.37585633285142E+00
 s    1 1.00
 0.57696339419000E+00 0.10000000000000E+01
 s    1 1.00
 0.22972831358000E+00 0.10000000000000E+01
 s    1 1.00
 0.95164440028000E-01 0.10000000000000E+01
 s    1 1.00
 0.48475401370000E-01 0.10000000000000E+01
 p    4 1.00
 0.34697232244000E+02 0.11327220003114E-01
 0.79582622826000E+01 0.76169659202087E-01
 0.23780826883000E+01 0.30192252202676E+00
 0.81433208183000E+00 0.72785027349547E+00
 p    1 1.00
 0.28887547253000E+00 0.10000000000000E+01
 p    1 1.00
 0.10056823671000E+00 0.10000000000000E+01
 d    1 1.00
 0.10970000000000E+01 0.10000000000000E+01
 d    1 1.00
 0.31800000000000E+00 0.10000000000000E+01
 d    1 1.00
 0.90985336424000E-01 0.10000000000000E+01
 f    1 1.00
 0.76100000000000E+00 0.10000000000000E+01
 
    4 0
 s    6 1.00
 0.13575349682000E+05 0.60645503603591E-03
 0.20352333680000E+04 0.46979088884982E-02
 0.46322562359000E+03 0.24332477647552E-01
 0.13120019598000E+03 0.97399968307759E-01
 0.42853015891000E+02 0.30195584253780E+00
 0.15584185766000E+02 0.66233609137875E+00
 s    2 1.00
 0.62067138508000E+01 0.65595308539952E+00
 0.25764896527000E+01 0.37585633285142E+00
 s    1 1.00
 0.57696339419000E+00 0.10000000000000E+01
 s    1 1.00
 0.22972831358000E+00 0.10000000000000E+01
 s    1 1.00
 0.95164440028000E-01 0.10000000000000E+01
 s    1 1.00
 0.48475401370000E-01 0.10000000000000E+01
 p    4 1.00
 0.34697232244000E+02 0.11327220003114E-01
 0.79582622826000E+01 0.76169659202087E-01
 0.23780826883000E+01 0.30192252202676E+00
 0.81433208183000E+00 0.72785027349547E+00
 p    1 1.00
 0.28887547253000E+00 0.10000000000000E+01
 p    1 1.00
 0.10056823671000E+00 0.10000000000000E+01
 d    1 1.00
 0.10970000000000E+01 0.10000000000000E+01
 d    1 1.00
 0.31800000000000E+00 0.10000000000000E+01
 d    1 1.00
 0.90985336424000E-01 0.10000000000000E+01
 f    1 1.00
 0.76100000000000E+00 0.10000000000000E+01
 
    5 0
 s    6 1.00
 0.13575349682000E+05 0.60645503603591E-03
 0.20352333680000E+04 0.46979088884982E-02
 0.46322562359000E+03 0.24332477647552E-01
 0.13120019598000E+03 0.97399968307759E-01
 0.42853015891000E+02 0.30195584253780E+00
 0.15584185766000E+02 0.66233609137875E+00
 s    2 1.00
 0.62067138508000E+01 0.65595308539952E+00
 0.25764896527000E+01 0.37585633285142E+00
 s    1 1.00
 0.57696339419000E+00 0.10000000000000E+01
 s    1 1.00
 0.22972831358000E+00 0.10000000000000E+01
 s    1 1.00
 0.95164440028000E-01 0.10000000000000E+01
 s    1 1.00
 0.48475401370000E-01 0.10000000000000E+01
 p    4 1.00
 0.34697232244000E+02 0.11327220003114E-01
 0.79582622826000E+01 0.76169659202087E-01
 0.23780826883000E+01 0.30192252202676E+00
 0.81433208183000E+00 0.72785027349547E+00
 p    1 1.00
 0.28887547253000E+00 0.10000000000000E+01
 p    1 1.00
 0.10056823671000E+00 0.10000000000000E+01
 d    1 1.00
 0.10970000000000E+01 0.10000000000000E+01
 d    1 1.00
 0.31800000000000E+00 0.10000000000000E+01
 d    1 1.00
 0.90985336424000E-01 0.10000000000000E+01
 f    1 1.00
 0.76100000000000E+00 0.10000000000000E+01
 
    6 0
 s    6 1.00
 0.13575349682000E+05 0.60645503603591E-03
 0.20352333680000E+04 0.46979088884982E-02
 0.46322562359000E+03 0.24332477647552E-01
 0.13120019598000E+03 0.97399968307759E-01
 0.42853015891000E+02 0.30195584253780E+00
 0.15584185766000E+02 0.66233609137875E+00
 s    2 1.00
 0.62067138508000E+01 0.65595308539952E+00
 0.25764896527000E+01 0.37585633285142E+00
 s    1 1.00
 0.57696339419000E+00 0.10000000000000E+01
 s    1 1.00
 0.22972831358000E+00 0.10000000000000E+01
 s    1 1.00
 0.95164440028000E-01 0.10000000000000E+01
 s    1 1.00
 0.48475401370000E-01 0.10000000000000E+01
 p    4 1.00
 0.34697232244000E+02 0.11327220003114E-01
 0.79582622826000E+01 0.76169659202087E-01
 0.23780826883000E+01 0.30192252202676E+00
 0.81433208183000E+00 0.72785027349547E+00
 p    1 1.00
 0.28887547253000E+00 0.10000000000000E+01
 p    1 1.00
 0.10056823671000E+00 0.10000000000000E+01
 d    1 1.00
 0.10970000000000E+01 0.10000000000000E+01
 d    1 1.00
 0.31800000000000E+00 0.10000000000000E+01
 d    1 1.00
 0.90985336424000E-01 0.10000000000000E+01
 f    1 1.00
 0.76100000000000E+00 0.10000000000000E+01
 
    7 0
 s    3 1.00
 0.34061341000000E+02 0.25439307208879E-01
 0.51235746000000E+01 0.19008594890375E+00
 0.11646626000000E+01 0.85244113011042E+00
 s    1 1.00
 0.32723041000000E+00 0.10000000000000E+01
 s    1 1.00
 0.10307241000000E+00 0.10000000000000E+01
 p    1 1.00
 0.80000000000000E+00 0.10000000000000E+01
 p    1 1.00
 0.95774129632000E-01 0.10000000000000E+01
 
    8 0
 s    3 1.00
 0.34061341000000E+02 0.25439307208879E-01
 0.51235746000000E+01 0.19008594890375E+00
 0.11646626000000E+01 0.85244113011042E+00
 s    1 1.00
 0.32723041000000E+00 0.10000000000000E+01
 s    1 1.00
 0.10307241000000E+00 0.10000000000000E+01
 p    1 1.00
 0.80000000000000E+00 0.10000000000000E+01
 p    1 1.00
 0.95774129632000E-01 0.10000000000000E+01
 
    9 0
 s    3 1.00
 0.34061341000000E+02 0.25439307208879E-01
 0.51235746000000E+01 0.19008594890375E+00
 0.11646626000000E+01 0.85244113011042E+00
 s    1 1.00
 0.32723041000000E+00 0.10000000000000E+01
 s    1 1.00
 0.10307241000000E+00 0.10000000000000E+01
 p    1 1.00
 0.80000000000000E+00 0.10000000000000E+01
 p    1 1.00
 0.95774129632000E-01 0.10000000000000E+01
 
   10 0
 s    3 1.00
 0.34061341000000E+02 0.25439307208879E-01
 0.51235746000000E+01 0.19008594890375E+00
 0.11646626000000E+01 0.85244113011042E+00
 s    1 1.00
 0.32723041000000E+00 0.10000000000000E+01
 s    1 1.00
 0.10307241000000E+00 0.10000000000000E+01
 p    1 1.00
 0.80000000000000E+00 0.10000000000000E+01
 p    1 1.00
 0.95774129632000E-01 0.10000000000000E+01
 
   11 0
 s    6 1.00
 0.19730800647000E+05 0.58626402628763E-03
 0.29578958745000E+04 0.45428820586397E-02
 0.67322133595000E+03 0.23558413450084E-01
 0.19068249494000E+03 0.94709193292923E-01
 0.62295441898000E+02 0.29719784913376E+00
 0.22654161182000E+02 0.66916246895232E+00
 s    2 1.00
 0.89791477428000E+01 0.64596683630063E+00
 0.36863002370000E+01 0.38700574393705E+00
 s    1 1.00
 0.84660076805000E+00 0.10000000000000E+01
 s    1 1.00
 0.33647133771000E+00 0.10000000000000E+01
 s    1 1.00
 0.13647653675000E+00 0.10000000000000E+01
 s    1 1.00
 0.68441605847000E-01 0.10000000000000E+01
 p    4 1.00
 0.49200380510000E+02 0.11448825101764E-01
 0.11346790537000E+02 0.78422337970864E-01
 0.34273972411000E+01 0.30818094738830E+00
 0.11785525134000E+01 0.72027196368413E+00
 p    1 1.00
 0.41642204972000E+00 0.10000000000000E+01
 p    1 1.00
 0.14260826011000E+00 0.10000000000000E+01
 d    1 1.00
 0.16540000000000E+01 0.10000000000000E+01
 d    1 1.00
 0.46900000000000E+00 0.10000000000000E+01
 d    1 1.00
 0.12829642058000E+00 0.10000000000000E+01
 f    1 1.00
 0.10930000000000E+01 0.10000000000000E+01
 
   12 0
 s    6 1.00
 0.27032382631000E+05 0.57227335211155E-03
 0.40523871392000E+04 0.44353233492995E-02
 0.92232722710000E+03 0.23020107706038E-01
 0.26124070989000E+03 0.92822490667928E-01
 0.85354641351000E+02 0.29378500009671E+00
 0.31035035245000E+02 0.67401604501641E+00
 s    2 1.00
 0.12260860728000E+02 0.63839937025506E+00
 0.49987076005000E+01 0.39534587125718E+00
 s    1 1.00
 0.11703108158000E+01 0.10000000000000E+01
 s    1 1.00
 0.46474740994000E+00 0.10000000000000E+01
 s    1 1.00
 0.18504536357000E+00 0.10000000000000E+01
 s    1 1.00
 0.70288026270000E-01 0.10000000000000E+01
 p    4 1.00
 0.63274954801000E+02 0.12018332222616E-01
 0.14627049379000E+02 0.83005421790056E-01
 0.44501223456000E+01 0.31991743925964E+00
 0.15275799647000E+01 0.70715542916104E+00
 p    1 1.00
 0.52935117943000E+00 0.10000000000000E+01
 p    1 1.00
 0.17478421270000E+00 0.10000000000000E+01
 p    1 1.00
 0.51112745706000E-01 0.10000000000000E+01
 d    1 1.00
 0.23140000000000E+01 0.10000000000000E+01
 d    1 1.00
 0.64500000000000E+00 0.10000000000000E+01
 d    1 1.00
 0.14696477366000E+00 0.10000000000000E+01
 f    1 1.00
 0.14280000000000E+01 0.10000000000000E+01
 
   13 0
 s    6 1.00
 0.27032382631000E+05 0.57227335211155E-03
 0.40523871392000E+04 0.44353233492995E-02
 0.92232722710000E+03 0.23020107706038E-01
 0.26124070989000E+03 0.92822490667928E-01
 0.85354641351000E+02 0.29378500009671E+00
 0.31035035245000E+02 0.67401604501641E+00
 s    2 1.00
 0.12260860728000E+02 0.63839937025506E+00
 0.49987076005000E+01 0.39534587125718E+00
 s    1 1.00
 0.11703108158000E+01 0.10000000000000E+01
 s    1 1.00
 0.46474740994000E+00 0.10000000000000E+01
 s    1 1.00
 0.18504536357000E+00 0.10000000000000E+01
 s    1 1.00
 0.70288026270000E-01 0.10000000000000E+01
 p    4 1.00
 0.63274954801000E+02 0.12018332222616E-01
 0.14627049379000E+02 0.83005421790056E-01
 0.44501223456000E+01 0.31991743925964E+00
 0.15275799647000E+01 0.70715542916104E+00
 p    1 1.00
 0.52935117943000E+00 0.10000000000000E+01
 p    1 1.00
 0.17478421270000E+00 0.10000000000000E+01
 p    1 1.00
 0.51112745706000E-01 0.10000000000000E+01
 d    1 1.00
 0.23140000000000E+01 0.10000000000000E+01
 d    1 1.00
 0.64500000000000E+00 0.10000000000000E+01
 d    1 1.00
 0.14696477366000E+00 0.10000000000000E+01
 f    1 1.00
 0.14280000000000E+01 0.10000000000000E+01
 
   14 0
 s    6 1.00
 0.19730800647000E+05 0.58626402628763E-03
 0.29578958745000E+04 0.45428820586397E-02
 0.67322133595000E+03 0.23558413450084E-01
 0.19068249494000E+03 0.94709193292923E-01
 0.62295441898000E+02 0.29719784913376E+00
 0.22654161182000E+02 0.66916246895232E+00
 s    2 1.00
 0.89791477428000E+01 0.64596683630063E+00
 0.36863002370000E+01 0.38700574393705E+00
 s    1 1.00
 0.84660076805000E+00 0.10000000000000E+01
 s    1 1.00
 0.33647133771000E+00 0.10000000000000E+01
 s    1 1.00
 0.13647653675000E+00 0.10000000000000E+01
 s    1 1.00
 0.68441605847000E-01 0.10000000000000E+01
 p    4 1.00
 0.49200380510000E+02 0.11448825101764E-01
 0.11346790537000E+02 0.78422337970864E-01
 0.34273972411000E+01 0.30818094738830E+00
 0.11785525134000E+01 0.72027196368413E+00
 p    1 1.00
 0.41642204972000E+00 0.10000000000000E+01
 p    1 1.00
 0.14260826011000E+00 0.10000000000000E+01
 d    1 1.00
 0.16540000000000E+01 0.10000000000000E+01
 d    1 1.00
 0.46900000000000E+00 0.10000000000000E+01
 d    1 1.00
 0.12829642058000E+00 0.10000000000000E+01
 f    1 1.00
 0.10930000000000E+01 0.10000000000000E+01
 
   15 0
 s    3 1.00
 0.34061341000000E+02 0.25439307208879E-01
 0.51235746000000E+01 0.19008594890375E+00
 0.11646626000000E+01 0.85244113011042E+00
 s    1 1.00
 0.32723041000000E+00 0.10000000000000E+01
 s    1 1.00
 0.10307241000000E+00 0.10000000000000E+01
 p    1 1.00
 0.80000000000000E+00 0.10000000000000E+01
 p    1 1.00
 0.95774129632000E-01 0.10000000000000E+01
 
   16 0
 s    3 1.00
 0.34061341000000E+02 0.25439307208879E-01
 0.51235746000000E+01 0.19008594890375E+00
 0.11646626000000E+01 0.85244113011042E+00
 s    1 1.00
 0.32723041000000E+00 0.10000000000000E+01
 s    1 1.00
 0.10307241000000E+00 0.10000000000000E+01
 p    1 1.00
 0.80000000000000E+00 0.10000000000000E+01
 p    1 1.00
 0.95774129632000E-01 0.10000000000000E+01
 
[MO]
 Sym= X
 Ene= -0.894828
 Spin= Alpha
 Occup= -0.894828
         1   -4.164866E-05
         2   -9.574531E-05
         3    2.652342E-04
         4   -5.347086E-04
         5   -6.361432E-03
         6   -7.042581E-04
         7    1.182210E-04
         8    1.820813E-04
         9   -1.858623E-01
        10    1.137216E-03
        11   -1.575941E-04
        12   -1.866845E-01
        13   -5.238080E-03
        14    5.382454E-03
        15   -1.083953E-01
        16   -9.583764E-06
        17    4.412423E-06
        18    5.171341E-06
        19    2.005623E-06
        20    4.917657E-03
        21    5.471373E-04
        22   -2.187517E-04
        23    1.583165E-04
        24    6.043522E-05
        25    3.487252E-06
        26    9.735716E-03
        27   -4.819354E-04
        28    9.365509E-04
        29   -9.561542E-04
        30    1.960332E-05
        31    4.516392E-04
        32    4.874017E-03
        33   -1.852253E-03
        34    7.600265E-06
        35    4.640985E-07
        36    1.158957E-03
        37   -1.923827E-06
        38   -3.582542E-07
        39   -1.400206E-03
        40   -8.272998E-06
        41   -2.643992E-07
        42   -1.546986E-04
        43   -9.751540E-06
        44   -7.597897E-09
        45    5.217388E-08
        46   -4.255589E-06
        47    1.810076E-05
        48    1.247682E-03
        49    8.368931E-05
        50    9.587522E-07
        51   -1.198171E-04
        52   -5.499084E-06
        53   -9.661249E-06
        54   -5.516515E-04
        55   -3.282455E-06
        56   -5.224933E-04
        57    9.732467E-03
        58   -9.889899E-06
        59   -3.128773E-08
        60    1.122454E-07
        61   -8.095765E-08
        62    1.026305E-05
        63    6.311684E-08
        64   -6.953199E-03
        65   -9.186679E-07
        66    3.941975E-06
        67   -3.023307E-06
        68    1.801646E-04
        69   -6.489494E-07
        70   -1.599933E-02
        71    3.092217E-05
        72   -4.236187E-06
        73   -2.668598E-05
        74   -1.206235E-03
        75    7.826126E-07
        76   -4.219193E-03
        77    3.995803E-08
        78   -9.289500E-07
        79    6.533993E-09
        80   -1.085059E-07
        81   -2.364588E-06
        82   -2.392883E-09
        83    5.489657E-08
        84    3.610905E-06
        85   -6.373389E-09
        86    1.033000E-03
        87    4.128250E-05
        88    9.486768E-05
        89   -2.548188E-04
        90    4.942181E-04
        91    4.023414E-03
        92    5.765416E-04
        93   -1.176566E-04
        94    1.798521E-04
        95    1.858595E-01
        96   -1.104901E-03
        97   -1.790821E-04
        98    1.866806E-01
        99    5.873705E-03
       100    4.350604E-03
       101    1.083688E-01
       102    9.576795E-06
       103   -4.322159E-06
       104   -5.254636E-06
       105    1.834894E-06
       106   -4.918117E-03
       107    5.469607E-04
       108    2.093196E-04
       109   -1.557125E-04
       110   -5.360710E-05
       111   -1.921905E-06
       112   -9.736522E-03
       113   -4.832749E-04
       114   -9.236191E-04
       115    8.984703E-04
       116    2.514883E-05
       117    5.101273E-04
       118   -4.868631E-03
       119   -1.853174E-03
       120   -7.282541E-06
       121    3.593793E-07
       122   -1.158960E-03
       123    1.690542E-06
       124   -4.231591E-07
       125    1.400283E-03
       126    8.080013E-06
       127   -5.899882E-08
       128    1.546248E-04
       129   -9.824343E-06
       130   -6.765166E-06
       131   -1.810994E-05
       132    2.048681E-04
       133   -1.717182E-03
       134   -1.335466E-02
       135   -3.299241E-04
       136   -3.139558E-04
       137   -1.283253E-04
       138    1.996539E-01
       139   -9.152463E-04
       140   -3.541726E-04
       141    2.024608E-01
       142    9.696866E-03
       143   -9.100640E-03
       144    1.310696E-01
       145   -2.298842E-05
       146   -8.093331E-06
       147    3.108176E-05
       148    8.227373E-06
       149    4.529361E-03
       150    4.761920E-04
       151   -3.076968E-04
       152    9.711075E-05
       153    2.105860E-04
       154    1.287353E-04
       155    7.896031E-03
       156    4.243784E-04
       157   -1.069116E-04
       158   -3.017609E-04
       159    4.086725E-04
       160    1.822487E-03
       161   -4.170504E-03
       162    3.551948E-03
       163   -1.002560E-05
       164   -1.702217E-06
       165   -1.312157E-03
       166    6.766323E-06
       167   -2.241216E-06
       168    1.448546E-03
       169    6.684431E-06
       170    4.524980E-06
       171    3.118973E-04
       172   -4.657974E-05
       173    1.151036E-07
       174    1.874402E-07
       175    4.318357E-06
       176   -1.262293E-05
       177   -1.540373E-03
       178   -1.169236E-04
       179    7.046440E-07
       180    2.964613E-04
       181    3.912881E-06
       182   -1.227319E-05
       183    1.372940E-04
       184    2.140231E-06
       185   -5.741101E-04
       186   -2.509446E-02
       187    5.537789E-06
       188    1.695201E-07
       189   -4.436981E-08
       190   -1.251503E-07
       191   -2.493042E-05
       192    4.998772E-07
       193   -7.571797E-03
       194    3.758590E-07
       195   -5.023319E-06
       196    4.647460E-06
       197   -8.914811E-05
       198    3.987742E-07
       199   -1.592748E-02
       200   -2.487066E-05
       201   -1.106218E-05
       202    3.593284E-05
       203   -1.193744E-03
       204   -1.507715E-06
       205    8.488972E-03
       206    4.743458E-08
       207   -6.343989E-06
       208    4.975268E-09
       209   -1.644206E-07
       210    8.047329E-06
       211   -6.814951E-08
       212    1.007804E-07
       213    4.640264E-07
       214    6.147448E-08
       215   -1.178077E-03
       216    7.165308E-06
       217    1.908181E-05
       218   -2.169412E-04
       219    1.766635E-03
       220    1.594910E-02
       221    4.744877E-04
       222    3.157258E-04
       223   -1.292898E-04
       224   -1.996417E-01
       225    9.450446E-04
       226   -3.784076E-04
       227   -2.024479E-01
       228   -9.158365E-03
       229   -1.022204E-02
       230   -1.310330E-01
       231    2.303621E-05
       232    7.886963E-06
       233   -3.092317E-05
       234    8.468687E-06
       235   -4.529568E-03
       236    4.760454E-04
       237    3.171673E-04
       238   -9.847669E-05
       239   -2.186906E-04
       240    1.345266E-04
       241   -7.896152E-03
       242    4.230546E-04
       243    9.758382E-05
       244    3.574050E-04
       245   -4.549888E-04
       246    1.770959E-03
       247    4.177643E-03
       248    3.550064E-03
       249    1.034995E-05
       250   -1.841313E-06
       251    1.312095E-03
       252   -7.047635E-06
       253   -2.287695E-06
       254   -1.448554E-03
       255   -6.838284E-06
       256    4.758075E-06
       257   -3.118064E-04
       258   -4.651919E-05
       259    4.474570E-05
       260    5.449430E-05
       261   -6.888825E-04
       262    1.318379E-05
       263   -3.462496E-06
       264   -7.601048E-03
       265    8.914525E-05
       266    2.338862E-04
       267   -6.678223E-03
       268   -4.296225E-05
       269   -6.150146E-05
       270    3.775311E-04
       271   -1.289629E-05
       272   -4.266602E-06
       273    7.600881E-03
       274   -5.542782E-05
       275    1.483405E-04
       276    6.678445E-03
       277   -6.846315E-05
       278   -2.194677E-04
       279   -3.136572E-03
       280   -4.256054E-05
       281   -3.110990E-05
       282    8.700505E-03
       283   -3.479776E-04
       284   -9.064638E-05
       285    1.001229E-02
       286    6.619142E-05
       287    2.229752E-04
       288    3.475166E-03
       289    4.286930E-05
       290   -3.169125E-05
       291   -8.699785E-03
       292    3.889917E-04
       293   -1.819240E-04
       294   -1.000951E-02
       295    2.774660E-08
       296    8.151690E-08
       297   -1.713233E-07
       298    1.982976E-06
       299    8.590562E-06
       300   -4.555501E-05
       301    2.819471E-08
       302    1.421948E-05
       303    1.755305E-07
       304   -1.732077E-06
       305   -2.227953E-05
       306   -6.553914E-08
       307   -2.779928E-06
       308   -6.838572E-04
       309    3.429238E-07
       310    3.501006E-08
       311    1.179454E-09
       312   -3.618952E-08
       313   -5.115018E-06
       314    1.011934E-07
       315    1.965322E-03
       316    2.430630E-07
       317   -4.192949E-07
       318    1.762319E-07
       319    7.335264E-06
       320    3.046794E-07
       321    5.400873E-03
       322   -3.057084E-07
       323   -4.435488E-06
       324    4.741197E-06
       325    1.907685E-04
       326   -1.834136E-06
       327    2.324884E-03
       328    5.703722E-09
       329    9.997969E-07
       330   -4.330959E-09
       331   -4.395364E-09
       332   -3.795545E-06
       333   -1.268575E-08
       334   -3.256982E-09
       335    2.454177E-06
       336    1.849634E-08
       337    4.935713E-04
       338    5.899288E-07
       339    1.643763E-06
       340   -5.834057E-06
       341    3.011829E-05
       342   -1.883240E-04
       343    2.255310E-05
       344    2.122470E-04
       345    7.723989E-06
       346   -5.901828E-02
       347    1.901008E-04
       348    6.866710E-06
       349   -5.467432E-02
       350    3.149199E-04
       351   -2.534809E-05
       352   -3.926013E-02
       353    4.571858E-05
       354    2.595695E-05
       355   -3.610498E-03
       356   -8.919139E-07
       357   -9.288897E-08
       358    9.848029E-07
       359    1.345956E-06
       360    2.435881E-04
       361   -4.795643E-04
       362   -6.519302E-06
       363    1.058203E-06
       364    5.461099E-06
       365    8.431010E-06
       366    8.420228E-04
       367   -1.767251E-03
       368   -2.572676E-05
       369    2.720766E-05
       370   -1.480899E-06
       371    2.977980E-05
       372    5.049932E-04
       373   -5.707994E-04
       374   -2.817902E-07
       375    1.395044E-07
       376    7.181888E-05
       377    5.546621E-07
       378   -1.054520E-06
       379    3.795036E-05
       380   -1.766008E-07
       381    8.673549E-07
       382   -1.343055E-04
       383    1.572167E-04
       384   -5.306737E-07
       385   -1.506667E-06
       386    5.666497E-06
       387   -3.126134E-05
       388    2.131525E-04
       389   -4.574759E-06
       390   -2.103984E-04
       391    8.042147E-06
       392    5.902195E-02
       393   -1.892172E-04
       394    6.375674E-06
       395    5.467749E-02
       396   -3.197930E-04
       397   -3.124982E-05
       398    3.926415E-02
       399   -4.729061E-05
       400    2.363095E-05
       401    3.610623E-03
       402    8.954258E-07
       403    7.923429E-08
       404   -9.746601E-07
       405    1.303414E-06
       406   -2.435955E-04
       407   -4.795974E-04
       408    6.437974E-06
       409   -9.829582E-07
       410   -5.455016E-06
       411    8.620042E-06
       412   -8.420893E-04
       413   -1.767324E-03
       414    2.589330E-05
       415   -2.694627E-05
       416    1.052963E-06
       417    3.085771E-05
       418   -5.044940E-04
       419   -5.714474E-04
       420    2.888242E-07
       421    1.365358E-07
       422   -7.182803E-05
       423   -5.533139E-07
       424   -1.049471E-06
       425   -3.795032E-05
       426    1.658157E-07
       427    8.662895E-07
       428    1.343177E-04
       429    1.572247E-04
       430   -5.195334E-07
       431   -1.268273E-06
       432    2.414356E-06
       433   -2.071696E-06
       434   -5.620680E-06
       435    4.160791E-05
       436   -4.799686E-07
       437    1.451370E-03
       438   -1.277190E-05
       439   -2.400320E-06
       440    1.608181E-03
       441   -1.269509E-05
       442    1.863995E-05
       443    1.840841E-03
       444   -1.211409E-05
       445    3.366582E-08
       446   -2.551480E-08
       447   -8.151019E-09
       448    2.314035E-05
       449    3.923609E-08
       450   -3.012935E-04
       451   -3.886484E-08
       452    4.570746E-07
       453   -4.182098E-07
       454    2.309511E-05
       455   -5.558599E-08
       456   -6.355697E-04
       457    6.725996E-06
       458   -1.773197E-06
       459   -4.952799E-06
       460    2.001922E-04
       461    4.328776E-08
       462    1.921740E-04
       463   -1.323281E-08
       464    5.204933E-06
       465    4.559743E-08
       466    6.059963E-09
       467    1.935655E-05
       468   -3.804342E-08
       469    1.169371E-08
       470   -2.633970E-05
       471   -2.313195E-08
       472   -1.301559E-04
       473    7.083643E-05
       474    2.069849E-04
       475   -2.559197E-04
       476    7.770327E-05
       477    3.152710E-05
       478    3.680424E-04
       479   -1.906408E-04
       480    5.541637E-05
       481    1.745059E-03
       482   -7.238094E-05
       483   -2.115159E-04
       484    2.565427E-04
       485   -7.833500E-05
       486    3.195723E-05
       487   -3.691833E-04
       488    1.977944E-04
       489    5.947168E-05
       490   -1.745043E-03
 Sym= X
 Ene= 0.894828
 Spin= Alpha
 Occup= 0.894828
         1   -7.187309E-05
         2   -2.592463E-04
         3    1.328186E-03
         4   -1.362107E-02
         5    9.381612E-01
         6    4.610532E-02
         7   -1.629462E-03
         8   -1.467354E-03
         9    1.963980E-01
        10   -5.540867E-03
        11   -7.694821E-03
        12    2.144790E-01
        13    1.198517E-02
        14   -2.582623E-01
        15    2.181372E-01
        16   -5.785696E-05
        17   -3.217903E-05
        18    9.003599E-05
        19   -6.647369E-05
        20    5.716990E-03
        21   -7.333373E-04
        22    1.141728E-03
        23    2.533442E-04
        24   -1.395072E-03
        25   -6.323141E-04
        26    1.634508E-02
        27    3.120980E-03
        28   -8.764568E-03
        29    3.078163E-02
        30   -2.201707E-02
        31    2.666877E-02
        32    3.691844E-02
        33    9.139539E-02
        34   -4.800075E-05
        35   -3.672475E-05
        36   -2.608628E-04
        37    2.567688E-06
        38   -1.170256E-05
        39   -2.453225E-04
        40    6.183207E-05
        41    6.097398E-05
        42    5.953067E-04
        43   -3.439334E-05
        44    1.805373E-05
        45    3.463333E-05
        46    1.227051E-04
        47   -1.521537E-03
        48   -1.934742E-02
        49    4.357970E-02
        50   -3.832967E-05
        51    7.700920E-04
        52    1.058752E-05
        53   -2.030991E-04
        54   -5.250007E-03
        55   -2.450785E-05
        56    3.007906E-02
        57   -4.356854E-01
        58    1.373031E-03
        59   -4.780442E-06
        60    5.253653E-06
        61   -4.732112E-07
        62   -1.375667E-04