[Molden Format]
[Title]
ADC(2) - opt by CAM-B3LYP gaussian                                              
[Atoms] AU
 c     1    6 0.12593230616935E+01 0.22795690751954E+01 -.36278607975490E-01
 c     2    6 0.25504236399298E+01 0.18897261300000E-05 -.34511714041240E-01
 c     3    6 0.12593268411458E+01 -.22795652957431E+01 -.36289946332290E-01
 c     4    6 -.13369660030996E+01 -.22791608943507E+01 -.39583738981910E-01
 c     5    6 -.26856068523561E+01 -.18897261300000E-05 -.40110972572980E-01
 c     6    6 -.13369678928258E+01 0.22791590046246E+01 -.39570510898980E-01
 h     7    1 0.23068095955089E+01 0.40296066523382E+01 -.33243707806080E-01
 h     8    1 0.23068152646873E+01 -.40296028728859E+01 -.33262605067400E-01
 h     9    1 -.23553205188504E+01 -.40525668248527E+01 -.45200005048840E-01
 h    10    1 -.23553280777549E+01 0.40525630454004E+01 -.45173548882980E-01
 n    11    7 0.52878147756133E+01 0.00000000000000E+00 -.27472484196240E-01
 o    12    8 0.63764576548767E+01 -.20283488830896E+01 -.24482937454020E-01
 o    13    8 0.63764614343290E+01 0.20283469933635E+01 -.24515062798280E-01
 n    14    7 -.52636676188715E+01 0.00000000000000E+00 -.10786332361533E+00
 h    15    1 -.61947904866021E+01 -.16076731691957E+01 0.28377485852069E+00
 h    16    1 -.61947848174237E+01 0.16076731691957E+01 0.28378430715135E+00
[GTO]
    1 0
 s    6 1.00
 0.13575349682000E+05 0.60645503603591E-03
 0.20352333680000E+04 0.46979088884982E-02
 0.46322562359000E+03 0.24332477647552E-01
 0.13120019598000E+03 0.97399968307759E-01
 0.42853015891000E+02 0.30195584253780E+00
 0.15584185766000E+02 0.66233609137875E+00
 s    2 1.00
 0.62067138508000E+01 0.65595308539952E+00
 0.25764896527000E+01 0.37585633285142E+00
 s    1 1.00
 0.57696339419000E+00 0.10000000000000E+01
 s    1 1.00
 0.22972831358000E+00 0.10000000000000E+01
 s    1 1.00
 0.95164440028000E-01 0.10000000000000E+01
 s    1 1.00
 0.48475401370000E-01 0.10000000000000E+01
 p    4 1.00
 0.34697232244000E+02 0.11327220003114E-01
 0.79582622826000E+01 0.76169659202087E-01
 0.23780826883000E+01 0.30192252202676E+00
 0.81433208183000E+00 0.72785027349547E+00
 p    1 1.00
 0.28887547253000E+00 0.10000000000000E+01
 p    1 1.00
 0.10056823671000E+00 0.10000000000000E+01
 d    1 1.00
 0.10970000000000E+01 0.10000000000000E+01
 d    1 1.00
 0.31800000000000E+00 0.10000000000000E+01
 d    1 1.00
 0.90985336424000E-01 0.10000000000000E+01
 f    1 1.00
 0.76100000000000E+00 0.10000000000000E+01
 
    2 0
 s    6 1.00
 0.13575349682000E+05 0.60645503603591E-03
 0.20352333680000E+04 0.46979088884982E-02
 0.46322562359000E+03 0.24332477647552E-01
 0.13120019598000E+03 0.97399968307759E-01
 0.42853015891000E+02 0.30195584253780E+00
 0.15584185766000E+02 0.66233609137875E+00
 s    2 1.00
 0.62067138508000E+01 0.65595308539952E+00
 0.25764896527000E+01 0.37585633285142E+00
 s    1 1.00
 0.57696339419000E+00 0.10000000000000E+01
 s    1 1.00
 0.22972831358000E+00 0.10000000000000E+01
 s    1 1.00
 0.95164440028000E-01 0.10000000000000E+01
 s    1 1.00
 0.48475401370000E-01 0.10000000000000E+01
 p    4 1.00
 0.34697232244000E+02 0.11327220003114E-01
 0.79582622826000E+01 0.76169659202087E-01
 0.23780826883000E+01 0.30192252202676E+00
 0.81433208183000E+00 0.72785027349547E+00
 p    1 1.00
 0.28887547253000E+00 0.10000000000000E+01
 p    1 1.00
 0.10056823671000E+00 0.10000000000000E+01
 d    1 1.00
 0.10970000000000E+01 0.10000000000000E+01
 d    1 1.00
 0.31800000000000E+00 0.10000000000000E+01
 d    1 1.00
 0.90985336424000E-01 0.10000000000000E+01
 f    1 1.00
 0.76100000000000E+00 0.10000000000000E+01
 
    3 0
 s    6 1.00
 0.13575349682000E+05 0.60645503603591E-03
 0.20352333680000E+04 0.46979088884982E-02
 0.46322562359000E+03 0.24332477647552E-01
 0.13120019598000E+03 0.97399968307759E-01
 0.42853015891000E+02 0.30195584253780E+00
 0.15584185766000E+02 0.66233609137875E+00
 s    2 1.00
 0.62067138508000E+01 0.65595308539952E+00
 0.25764896527000E+01 0.37585633285142E+00
 s    1 1.00
 0.57696339419000E+00 0.10000000000000E+01
 s    1 1.00
 0.22972831358000E+00 0.10000000000000E+01
 s    1 1.00
 0.95164440028000E-01 0.10000000000000E+01
 s    1 1.00
 0.48475401370000E-01 0.10000000000000E+01
 p    4 1.00
 0.34697232244000E+02 0.11327220003114E-01
 0.79582622826000E+01 0.76169659202087E-01
 0.23780826883000E+01 0.30192252202676E+00
 0.81433208183000E+00 0.72785027349547E+00
 p    1 1.00
 0.28887547253000E+00 0.10000000000000E+01
 p    1 1.00
 0.10056823671000E+00 0.10000000000000E+01
 d    1 1.00
 0.10970000000000E+01 0.10000000000000E+01
 d    1 1.00
 0.31800000000000E+00 0.10000000000000E+01
 d    1 1.00
 0.90985336424000E-01 0.10000000000000E+01
 f    1 1.00
 0.76100000000000E+00 0.10000000000000E+01
 
    4 0
 s    6 1.00
 0.13575349682000E+05 0.60645503603591E-03
 0.20352333680000E+04 0.46979088884982E-02
 0.46322562359000E+03 0.24332477647552E-01
 0.13120019598000E+03 0.97399968307759E-01
 0.42853015891000E+02 0.30195584253780E+00
 0.15584185766000E+02 0.66233609137875E+00
 s    2 1.00
 0.62067138508000E+01 0.65595308539952E+00
 0.25764896527000E+01 0.37585633285142E+00
 s    1 1.00
 0.57696339419000E+00 0.10000000000000E+01
 s    1 1.00
 0.22972831358000E+00 0.10000000000000E+01
 s    1 1.00
 0.95164440028000E-01 0.10000000000000E+01
 s    1 1.00
 0.48475401370000E-01 0.10000000000000E+01
 p    4 1.00
 0.34697232244000E+02 0.11327220003114E-01
 0.79582622826000E+01 0.76169659202087E-01
 0.23780826883000E+01 0.30192252202676E+00
 0.81433208183000E+00 0.72785027349547E+00
 p    1 1.00
 0.28887547253000E+00 0.10000000000000E+01
 p    1 1.00
 0.10056823671000E+00 0.10000000000000E+01
 d    1 1.00
 0.10970000000000E+01 0.10000000000000E+01
 d    1 1.00
 0.31800000000000E+00 0.10000000000000E+01
 d    1 1.00
 0.90985336424000E-01 0.10000000000000E+01
 f    1 1.00
 0.76100000000000E+00 0.10000000000000E+01
 
    5 0
 s    6 1.00
 0.13575349682000E+05 0.60645503603591E-03
 0.20352333680000E+04 0.46979088884982E-02
 0.46322562359000E+03 0.24332477647552E-01
 0.13120019598000E+03 0.97399968307759E-01
 0.42853015891000E+02 0.30195584253780E+00
 0.15584185766000E+02 0.66233609137875E+00
 s    2 1.00
 0.62067138508000E+01 0.65595308539952E+00
 0.25764896527000E+01 0.37585633285142E+00
 s    1 1.00
 0.57696339419000E+00 0.10000000000000E+01
 s    1 1.00
 0.22972831358000E+00 0.10000000000000E+01
 s    1 1.00
 0.95164440028000E-01 0.10000000000000E+01
 s    1 1.00
 0.48475401370000E-01 0.10000000000000E+01
 p    4 1.00
 0.34697232244000E+02 0.11327220003114E-01
 0.79582622826000E+01 0.76169659202087E-01
 0.23780826883000E+01 0.30192252202676E+00
 0.81433208183000E+00 0.72785027349547E+00
 p    1 1.00
 0.28887547253000E+00 0.10000000000000E+01
 p    1 1.00
 0.10056823671000E+00 0.10000000000000E+01
 d    1 1.00
 0.10970000000000E+01 0.10000000000000E+01
 d    1 1.00
 0.31800000000000E+00 0.10000000000000E+01
 d    1 1.00
 0.90985336424000E-01 0.10000000000000E+01
 f    1 1.00
 0.76100000000000E+00 0.10000000000000E+01
 
    6 0
 s    6 1.00
 0.13575349682000E+05 0.60645503603591E-03
 0.20352333680000E+04 0.46979088884982E-02
 0.46322562359000E+03 0.24332477647552E-01
 0.13120019598000E+03 0.97399968307759E-01
 0.42853015891000E+02 0.30195584253780E+00
 0.15584185766000E+02 0.66233609137875E+00
 s    2 1.00
 0.62067138508000E+01 0.65595308539952E+00
 0.25764896527000E+01 0.37585633285142E+00
 s    1 1.00
 0.57696339419000E+00 0.10000000000000E+01
 s    1 1.00
 0.22972831358000E+00 0.10000000000000E+01
 s    1 1.00
 0.95164440028000E-01 0.10000000000000E+01
 s    1 1.00
 0.48475401370000E-01 0.10000000000000E+01
 p    4 1.00
 0.34697232244000E+02 0.11327220003114E-01
 0.79582622826000E+01 0.76169659202087E-01
 0.23780826883000E+01 0.30192252202676E+00
 0.81433208183000E+00 0.72785027349547E+00
 p    1 1.00
 0.28887547253000E+00 0.10000000000000E+01
 p    1 1.00
 0.10056823671000E+00 0.10000000000000E+01
 d    1 1.00
 0.10970000000000E+01 0.10000000000000E+01
 d    1 1.00
 0.31800000000000E+00 0.10000000000000E+01
 d    1 1.00
 0.90985336424000E-01 0.10000000000000E+01
 f    1 1.00
 0.76100000000000E+00 0.10000000000000E+01
 
    7 0
 s    3 1.00
 0.34061341000000E+02 0.25439307208879E-01
 0.51235746000000E+01 0.19008594890375E+00
 0.11646626000000E+01 0.85244113011042E+00
 s    1 1.00
 0.32723041000000E+00 0.10000000000000E+01
 s    1 1.00
 0.10307241000000E+00 0.10000000000000E+01
 p    1 1.00
 0.80000000000000E+00 0.10000000000000E+01
 p    1 1.00
 0.95774129632000E-01 0.10000000000000E+01
 
    8 0
 s    3 1.00
 0.34061341000000E+02 0.25439307208879E-01
 0.51235746000000E+01 0.19008594890375E+00
 0.11646626000000E+01 0.85244113011042E+00
 s    1 1.00
 0.32723041000000E+00 0.10000000000000E+01
 s    1 1.00
 0.10307241000000E+00 0.10000000000000E+01
 p    1 1.00
 0.80000000000000E+00 0.10000000000000E+01
 p    1 1.00
 0.95774129632000E-01 0.10000000000000E+01
 
    9 0
 s    3 1.00
 0.34061341000000E+02 0.25439307208879E-01
 0.51235746000000E+01 0.19008594890375E+00
 0.11646626000000E+01 0.85244113011042E+00
 s    1 1.00
 0.32723041000000E+00 0.10000000000000E+01
 s    1 1.00
 0.10307241000000E+00 0.10000000000000E+01
 p    1 1.00
 0.80000000000000E+00 0.10000000000000E+01
 p    1 1.00
 0.95774129632000E-01 0.10000000000000E+01
 
   10 0
 s    3 1.00
 0.34061341000000E+02 0.25439307208879E-01
 0.51235746000000E+01 0.19008594890375E+00
 0.11646626000000E+01 0.85244113011042E+00
 s    1 1.00
 0.32723041000000E+00 0.10000000000000E+01
 s    1 1.00
 0.10307241000000E+00 0.10000000000000E+01
 p    1 1.00
 0.80000000000000E+00 0.10000000000000E+01
 p    1 1.00
 0.95774129632000E-01 0.10000000000000E+01
 
   11 0
 s    6 1.00
 0.19730800647000E+05 0.58626402628763E-03
 0.29578958745000E+04 0.45428820586397E-02
 0.67322133595000E+03 0.23558413450084E-01
 0.19068249494000E+03 0.94709193292923E-01
 0.62295441898000E+02 0.29719784913376E+00
 0.22654161182000E+02 0.66916246895232E+00
 s    2 1.00
 0.89791477428000E+01 0.64596683630063E+00
 0.36863002370000E+01 0.38700574393705E+00
 s    1 1.00
 0.84660076805000E+00 0.10000000000000E+01
 s    1 1.00
 0.33647133771000E+00 0.10000000000000E+01
 s    1 1.00
 0.13647653675000E+00 0.10000000000000E+01
 s    1 1.00
 0.68441605847000E-01 0.10000000000000E+01
 p    4 1.00
 0.49200380510000E+02 0.11448825101764E-01
 0.11346790537000E+02 0.78422337970864E-01
 0.34273972411000E+01 0.30818094738830E+00
 0.11785525134000E+01 0.72027196368413E+00
 p    1 1.00
 0.41642204972000E+00 0.10000000000000E+01
 p    1 1.00
 0.14260826011000E+00 0.10000000000000E+01
 d    1 1.00
 0.16540000000000E+01 0.10000000000000E+01
 d    1 1.00
 0.46900000000000E+00 0.10000000000000E+01
 d    1 1.00
 0.12829642058000E+00 0.10000000000000E+01
 f    1 1.00
 0.10930000000000E+01 0.10000000000000E+01
 
   12 0
 s    6 1.00
 0.27032382631000E+05 0.57227335211155E-03
 0.40523871392000E+04 0.44353233492995E-02
 0.92232722710000E+03 0.23020107706038E-01
 0.26124070989000E+03 0.92822490667928E-01
 0.85354641351000E+02 0.29378500009671E+00
 0.31035035245000E+02 0.67401604501641E+00
 s    2 1.00
 0.12260860728000E+02 0.63839937025506E+00
 0.49987076005000E+01 0.39534587125718E+00
 s    1 1.00
 0.11703108158000E+01 0.10000000000000E+01
 s    1 1.00
 0.46474740994000E+00 0.10000000000000E+01
 s    1 1.00
 0.18504536357000E+00 0.10000000000000E+01
 s    1 1.00
 0.70288026270000E-01 0.10000000000000E+01
 p    4 1.00
 0.63274954801000E+02 0.12018332222616E-01
 0.14627049379000E+02 0.83005421790056E-01
 0.44501223456000E+01 0.31991743925964E+00
 0.15275799647000E+01 0.70715542916104E+00
 p    1 1.00
 0.52935117943000E+00 0.10000000000000E+01
 p    1 1.00
 0.17478421270000E+00 0.10000000000000E+01
 p    1 1.00
 0.51112745706000E-01 0.10000000000000E+01
 d    1 1.00
 0.23140000000000E+01 0.10000000000000E+01
 d    1 1.00
 0.64500000000000E+00 0.10000000000000E+01
 d    1 1.00
 0.14696477366000E+00 0.10000000000000E+01
 f    1 1.00
 0.14280000000000E+01 0.10000000000000E+01
 
   13 0
 s    6 1.00
 0.27032382631000E+05 0.57227335211155E-03
 0.40523871392000E+04 0.44353233492995E-02
 0.92232722710000E+03 0.23020107706038E-01
 0.26124070989000E+03 0.92822490667928E-01
 0.85354641351000E+02 0.29378500009671E+00
 0.31035035245000E+02 0.67401604501641E+00
 s    2 1.00
 0.12260860728000E+02 0.63839937025506E+00
 0.49987076005000E+01 0.39534587125718E+00
 s    1 1.00
 0.11703108158000E+01 0.10000000000000E+01
 s    1 1.00
 0.46474740994000E+00 0.10000000000000E+01
 s    1 1.00
 0.18504536357000E+00 0.10000000000000E+01
 s    1 1.00
 0.70288026270000E-01 0.10000000000000E+01
 p    4 1.00
 0.63274954801000E+02 0.12018332222616E-01
 0.14627049379000E+02 0.83005421790056E-01
 0.44501223456000E+01 0.31991743925964E+00
 0.15275799647000E+01 0.70715542916104E+00
 p    1 1.00
 0.52935117943000E+00 0.10000000000000E+01
 p    1 1.00
 0.17478421270000E+00 0.10000000000000E+01
 p    1 1.00
 0.51112745706000E-01 0.10000000000000E+01
 d    1 1.00
 0.23140000000000E+01 0.10000000000000E+01
 d    1 1.00
 0.64500000000000E+00 0.10000000000000E+01
 d    1 1.00
 0.14696477366000E+00 0.10000000000000E+01
 f    1 1.00
 0.14280000000000E+01 0.10000000000000E+01
 
   14 0
 s    6 1.00
 0.19730800647000E+05 0.58626402628763E-03
 0.29578958745000E+04 0.45428820586397E-02
 0.67322133595000E+03 0.23558413450084E-01
 0.19068249494000E+03 0.94709193292923E-01
 0.62295441898000E+02 0.29719784913376E+00
 0.22654161182000E+02 0.66916246895232E+00
 s    2 1.00
 0.89791477428000E+01 0.64596683630063E+00
 0.36863002370000E+01 0.38700574393705E+00
 s    1 1.00
 0.84660076805000E+00 0.10000000000000E+01
 s    1 1.00
 0.33647133771000E+00 0.10000000000000E+01
 s    1 1.00
 0.13647653675000E+00 0.10000000000000E+01
 s    1 1.00
 0.68441605847000E-01 0.10000000000000E+01
 p    4 1.00
 0.49200380510000E+02 0.11448825101764E-01
 0.11346790537000E+02 0.78422337970864E-01
 0.34273972411000E+01 0.30818094738830E+00
 0.11785525134000E+01 0.72027196368413E+00
 p    1 1.00
 0.41642204972000E+00 0.10000000000000E+01
 p    1 1.00
 0.14260826011000E+00 0.10000000000000E+01
 d    1 1.00
 0.16540000000000E+01 0.10000000000000E+01
 d    1 1.00
 0.46900000000000E+00 0.10000000000000E+01
 d    1 1.00
 0.12829642058000E+00 0.10000000000000E+01
 f    1 1.00
 0.10930000000000E+01 0.10000000000000E+01
 
   15 0
 s    3 1.00
 0.34061341000000E+02 0.25439307208879E-01
 0.51235746000000E+01 0.19008594890375E+00
 0.11646626000000E+01 0.85244113011042E+00
 s    1 1.00
 0.32723041000000E+00 0.10000000000000E+01
 s    1 1.00
 0.10307241000000E+00 0.10000000000000E+01
 p    1 1.00
 0.80000000000000E+00 0.10000000000000E+01
 p    1 1.00
 0.95774129632000E-01 0.10000000000000E+01
 
   16 0
 s    3 1.00
 0.34061341000000E+02 0.25439307208879E-01
 0.51235746000000E+01 0.19008594890375E+00
 0.11646626000000E+01 0.85244113011042E+00
 s    1 1.00
 0.32723041000000E+00 0.10000000000000E+01
 s    1 1.00
 0.10307241000000E+00 0.10000000000000E+01
 p    1 1.00
 0.80000000000000E+00 0.10000000000000E+01
 p    1 1.00
 0.95774129632000E-01 0.10000000000000E+01
 
[MO]
 Sym= X
 Ene= -0.077380
 Spin= Alpha
 Occup= -0.077380
         1    4.953091E-04
         2    1.135861E-03
         3   -2.507702E-03
         4    2.427557E-03
         5   -2.021536E-02
         6    1.509968E-02
         7    8.558520E-03
         8   -3.694539E-04
         9    1.369393E-01
        10    1.149709E-03
        11    3.256486E-04
        12    1.351567E-01
        13   -3.020261E-02
        14    7.698545E-04
        15    4.965710E-02
        16   -2.645181E-04
        17    2.534774E-04
        18    1.104070E-05
        19    8.127050E-05
        20    8.944790E-04
        21   -4.497331E-03
        22    5.808717E-04
        23   -3.093578E-04
        24   -2.715138E-04
        25    1.167853E-03
        26    2.420534E-03
        27   -7.460062E-03
        28    1.654408E-03
        29   -1.095390E-03
        30   -5.590184E-04
        31   -2.727884E-03
        32    6.469339E-03
        33   -4.400194E-03
        34   -9.654609E-06
        35    4.234568E-06
        36   -1.132727E-03
        37    4.574506E-06
        38   -5.881138E-07
        39    5.575172E-04
        40    8.378511E-06
        41   -5.093156E-06
        42    9.621961E-04
        43   -5.186990E-04
        44    8.541076E-05
        45    2.019610E-04
        46   -8.564945E-04
        47    5.248360E-03
        48    1.491256E-02
        49   -1.294878E-02
        50   -5.751374E-03
        51   -1.767854E-07
        52    2.121664E-01
        53   -5.913267E-03
        54   -1.121748E-05
        55    2.146531E-01
        56   -6.406997E-03
        57   -2.593119E-04
        58    7.618068E-02
        59   -4.070201E-04
        60    3.926144E-04
        61    1.440572E-05
        62    1.345107E-08
        63   -2.941758E-03
        64    4.095227E-08
        65   -9.535860E-04
        66    1.347332E-03
        67   -3.937456E-04
        68    1.812448E-06
        69   -4.718916E-03
        70    2.295214E-07
        71   -1.901653E-02
        72    1.972827E-02
        73   -7.117365E-04
        74    2.504185E-05
        75   -8.016596E-03
        76   -1.747096E-05
        77   -3.237870E-05
        78   -1.127487E-07
        79   -1.641435E-03
        80    7.027322E-06
        81    6.471627E-08
        82    8.153244E-04
        83    3.641326E-05
        84    8.655202E-08
        85    1.386892E-03
        86   -1.116030E-08
        87    4.942346E-04
        88    1.133406E-03
        89   -2.501371E-03
        90    2.423991E-03
        91   -2.120371E-02
        92    1.514151E-02
        93    8.566429E-03
        94    3.619496E-04
        95    1.369365E-01
        96    1.157332E-03
        97   -3.434688E-04
        98    1.351555E-01
        99   -3.008722E-02
       100   -1.088639E-03
       101    4.963037E-02
       102   -2.646355E-04
       103    2.536860E-04
       104    1.094944E-05
       105   -8.162427E-05
       106    8.944992E-04
       107    4.497414E-03
       108    5.781287E-04
       109   -3.082400E-04
       110   -2.698888E-04
       111   -1.171053E-03
       112    2.420373E-03
       113    7.459411E-03
       114    1.650033E-03
       115   -1.099638E-03
       116   -5.503943E-04
       117    2.707404E-03
       118    6.448010E-03
       119    4.366477E-03
       120   -9.583157E-06
       121   -4.254577E-06
       122   -1.132746E-03
       123    4.505171E-06
       124    4.946556E-07
       125    5.575520E-04
       126    8.351983E-06
       127    5.213459E-06
       128    9.621859E-04
       129    5.186747E-04
       130   -3.629084E-04
       131   -8.078751E-04
       132   -3.186558E-05
       133    1.493675E-02
       134    1.742480E-02
       135   -1.793021E-02
       136   -8.743824E-03
       137    2.352806E-03
       138    3.946707E-02
       139   -1.826098E-02
       140    9.549758E-03
       141    3.909448E-02
       142   -1.485633E-02
       143   -1.558323E-02
       144    9.561711E-03
       145   -5.108913E-04
       146    5.796435E-04
       147   -6.875221E-05
       148    2.469983E-05
       149    4.011039E-03
       150   -6.191424E-04
       151   -1.083506E-03
       152    1.318091E-03
       153   -2.345852E-04
       154   -2.356516E-03
       155    7.074086E-03
       156   -1.770118E-03
       157   -9.639835E-03
       158    7.526808E-03
       159    2.113027E-03
       160    1.285984E-02
       161    3.709963E-03
       162   -1.082224E-02
       163   -3.498500E-05
       164    2.780116E-05
       165   -3.456843E-04
       166   -3.799517E-05
       167    9.855320E-06
       168    5.628598E-04
       169    8.493247E-05
       170   -4.715449E-05
       171   -9.907567E-05
       172    3.583754E-04
       173    1.731453E-03
       174    3.930673E-03
       175   -4.524904E-03
       176   -2.387400E-02
       177    8.296073E-02
       178   -2.384656E-03
       179    2.238713E-02
       180   -3.848540E-06
       181   -7.857387E-02
       182    5.885435E-03
       183   -1.139695E-05
       184   -7.583648E-02
       185   -6.543287E-02
       186    2.559507E-05
       187    1.742669E-02
       188   -1.149317E-03
       189    8.450402E-04
       190    3.042766E-04
       191   -2.104494E-07
       192    6.389332E-03
       193    5.763802E-08
       194    2.476634E-03
       195   -5.196557E-03
       196    2.719923E-03
       197   -3.038785E-06
       198    1.350313E-02
       199    7.110163E-07
       200    1.582540E-02
       201   -1.577660E-02
       202   -4.879924E-05
       203    5.260518E-05
       204    2.660186E-03
       205    3.241045E-05
       206    2.050737E-04
       207   -4.735450E-08
       208    7.939435E-04
       209   -1.235656E-04
       210   -9.838785E-09
       211   -1.286305E-03
       212   -1.515697E-04
       213    7.337152E-08
       214    2.211175E-04
       215    4.555539E-08
       216   -3.632216E-04
       217   -8.085858E-04
       218   -3.188006E-05
       219    1.495090E-02
       220    1.671641E-02
       221   -1.787193E-02
       222   -8.738523E-03
       223   -2.347145E-03
       224    3.946861E-02
       225   -1.827057E-02
       226   -9.555542E-03
       227    3.909734E-02
       228   -1.513885E-02
       229    1.575459E-02
       230    9.491572E-03
       231   -5.108687E-04
       232    5.796196E-04
       233   -6.875084E-05
       234   -2.515679E-05
       235    4.011092E-03
       236    6.190424E-04
       237   -1.085869E-03
       238    1.321551E-03
       239   -2.356822E-04
       240    2.357830E-03
       241    7.074520E-03
       242    1.771089E-03
       243   -9.614915E-03
       244    7.502869E-03
       245    2.112046E-03
       246   -1.283699E-02
       247    3.744332E-03
       248    1.085430E-02
       249   -3.491622E-05
       250   -2.781769E-05
       251   -3.456550E-04
       252   -3.813747E-05
       253   -9.807940E-06
       254    5.628633E-04
       255    8.498249E-05
       256    4.712929E-05
       257   -9.911852E-05
       258   -3.584043E-04
       259    2.009518E-03
       260    2.692442E-03
       261    2.633754E-02
       262    2.349158E-05
       263   -2.406870E-04
       264    4.927558E-03
       265   -5.954206E-03
       266   -2.624895E-03
       267    2.379887E-03
       268    2.015687E-03
       269    2.697040E-03
       270    2.624479E-02
       271    2.317499E-05
       272    2.409482E-04
       273    4.927300E-03
       274   -5.956444E-03
       275    2.612730E-03
       276    2.363659E-03
       277    2.412063E-03
       278    6.117867E-03
       279   -4.911202E-02
       280   -6.480906E-05
       281    4.314138E-04
       282    9.816311E-04
       283   -6.696987E-03
       284   -3.513000E-03
       285   -8.435742E-03
       286    2.414669E-03
       287    6.111505E-03
       288   -4.912650E-02
       289   -6.436620E-05
       290   -4.306570E-04
       291    9.817699E-04
       292   -6.683220E-03
       293    3.524291E-03
       294   -8.443831E-03
       295    3.276429E-04
       296    7.713302E-04
       297   -9.465802E-04
       298   -2.872994E-03
       299    1.100831E-02
       300    9.307248E-03
       301    6.506837E-03
       302   -3.376411E-06
       303   -2.578911E-02
       304    5.594863E-03
       305   -3.194784E-06
       306   -2.473296E-02
       307   -2.374210E-03
       308    1.194856E-05
       309    2.556628E-03
       310   -3.271874E-04
       311    3.954077E-04
       312   -6.822029E-05
       313   -7.685353E-07
       314   -4.001760E-03
       315    6.568067E-08
       316   -8.827929E-04
       317    9.602715E-04
       318   -7.747855E-05
       319   -2.079623E-06
       320   -1.132456E-02
       321    9.142525E-08
       322    4.035936E-04
       323   -3.264971E-03
       324    2.861378E-03
       325   -7.280744E-06
       326   -5.562623E-03
       327   -5.130662E-07
       328    6.510416E-06
       329    1.596999E-07
       330    1.355303E-04
       331    8.451947E-06
       332   -2.451408E-07
       333    5.814703E-04
       334   -1.718659E-05
       335    3.088097E-08
       336   -7.633032E-04
       337    3.465019E-09
       338    8.369849E-05
       339    1.984503E-04
       340   -2.712336E-04
       341   -1.566554E-03
       342    7.702114E-03
       343    4.870054E-04
       344   -8.259823E-03
       345   -2.679817E-04
       346   -7.459660E-02
       347   -7.451995E-03
       348   -2.495060E-04
       349   -6.863038E-02
       350   -6.421430E-03
       351    2.916424E-04
       352   -4.700346E-02
       353   -9.050290E-04
       354   -2.014521E-04
       355   -3.938443E-03
       356    2.119250E-06
       357    3.084458E-05
       358   -3.296383E-05
       359   -6.843224E-05
       360    2.738256E-04
       361   -8.852476E-04
       362    7.124556E-05
       363    4.551348E-05
       364   -1.167590E-04
       365   -1.446032E-04
       366    1.229214E-03
       367   -2.678191E-03
       368    1.498297E-04
       369   -1.077472E-05
       370   -1.390549E-04
       371   -3.678052E-05
       372    1.991768E-03
       373   -4.291857E-04
       374    1.007379E-05
       375   -1.628288E-06
       376    1.342006E-04
       377   -2.071569E-05
       378    1.428123E-05
       379    7.852259E-05
       380    7.200285E-06
       381   -1.209666E-05
       382   -2.585716E-04
       383    2.234040E-04
       384    8.373351E-05
       385    1.985363E-04
       386   -2.711255E-04
       387   -1.566378E-03
       388    7.706905E-03
       389    4.917943E-04
       390   -8.299720E-03
       391    3.021465E-04
       392   -7.459370E-02
       393   -7.488006E-03
       394    2.789274E-04
       395   -6.862801E-02
       396   -6.445824E-03
       397   -2.694723E-04
       398   -4.699798E-02
       399   -9.129029E-04
       400    2.067072E-04
       401   -3.937056E-03
       402    2.455174E-06
       403    3.042658E-05
       404   -3.288176E-05
       405    6.842258E-05
       406    2.738285E-04
       407    8.852185E-04
       408    7.219868E-05
       409    4.456438E-05
       410   -1.167631E-04
       411    1.448116E-04
       412    1.229070E-03
       413    2.678058E-03
       414    1.529262E-04
       415   -1.359158E-05
       416   -1.393346E-04
       417    3.581437E-05
       418    1.992035E-03
       419    4.277442E-04
       420    1.003365E-05
       421    1.738304E-06
       422    1.341967E-04
       423   -2.065587E-05
       424   -1.441746E-05
       425    7.851450E-05
       426    7.194315E-06
       427    1.208528E-05
       428   -2.585583E-04
       429   -2.233915E-04
       430   -6.454716E-03
       431   -1.531193E-02
       432    2.372607E-02
       433    3.943391E-02
       434   -2.311814E-03
       435    4.600603E-02
       436   -3.202904E-02
       437    7.132550E-06
       438   -2.394017E-01
       439   -3.530149E-02
       440    3.899426E-06
       441   -2.318311E-01
       442   -4.732633E-02
       443   -2.504457E-05
       444   -1.582740E-01
       445    1.114783E-04
       446    3.085685E-04
       447   -4.200468E-04
       448   -1.977505E-07
       449   -1.685573E-03
       450    2.216034E-07
       451   -1.610966E-04
       452    3.182802E-03
       453   -3.021705E-03
       454    1.140819E-06
       455   -3.653571E-03
       456    6.647428E-07
       457   -1.149660E-03
       458    9.344284E-03
       459   -8.194624E-03
       460    4.242056E-06
       461   -4.273071E-04
       462    3.040055E-06
       463   -1.439605E-04
       464    4.998255E-08
       465    1.202916E-03
       466   -1.624640E-04
       467    2.485862E-09
       468   -1.012569E-03
       469    3.556074E-04
       470   -6.954449E-08
       471   -6.013130E-04
       472   -1.084712E-08
       473   -8.140685E-03
       474   -2.002432E-02
       475   -4.192324E-02
       476   -3.458183E-03
       477   -2.427865E-03
       478   -1.087718E-02
       479   -5.048344E-03
       480   -4.013393E-03
       481   -4.401081E-03
       482   -8.135084E-03
       483   -1.999360E-02
       484   -4.181363E-02
       485   -3.456162E-03
       486    2.425418E-03
       487   -1.087905E-02
       488   -5.028455E-03
       489    4.002172E-03
       490   -4.415035E-03
 Sym= X
 Ene= -0.828071
 Spin= Alpha
 Occup= -0.828071
         1    2.993100E-04
         2    6.940606E-04
         3   -1.917751E-03
         4    4.475325E-03
         5   -2.868600E-02
         6    1.685255E-02
         7    4.881820E-03
         8    7.057673E-04
         9   -3.438123E-02
        10   -2.087719E-03
        11    1.125943E-03
        12   -3.244233E-02
        13   -4.304838E-02
        14    1.881867E-02
        15   -1.601086E-02
        16   -7.778947E-05
        17    9.248621E-05
        18   -1.469674E-05
        19    3.213845E-05
        20   -6.134402E-03
        21    3.901906E-03
        22    9.203621E-04
        23   -5.265759E-04
        24   -3.937862E-04
        25    1.070122E-03
        26   -1.394690E-02
        27    7.327767E-03
        28    4.204191E-03
        29   -3.798707E-03
        30   -4.054841E-04
        31   -2.179733E-03
        32    3.537114E-03
        33   -9.693744E-03
        34   -2.534882E-05
        35    1.122420E-05
        36    1.464508E-04
        37    1.498866E-05
        38   -8.159869E-06
        39    6.819453E-04
        40    1.902036E-05
        41   -6.898978E-06
        42   -8.784296E-04
        43    6.879049E-04
        44   -1.566719E-04
        45   -3.484976E-04
        46    1.128507E-04
        47    5.553581E-03
        48    7.605550E-02
        49   -8.552361E-03
        50   -1.675201E-04
        51    1.283793E-06
        52   -2.025622E-01
        53   -1.213745E-03
        54    9.349124E-06
        55   -2.096404E-01
        56   -1.818116E-02
        57   -3.078720E-04
        58   -1.920921E-01
        59   -1.577496E-04
        60    1.530545E-04
        61    4.695103E-06
        62   -7.560528E-08