[Molden Format]
[Title]
ADC(2) - opt by CAM-B3LYP gaussian                                              
[Atoms] AU
 c     1    6 0.12593230616935E+01 0.22795690751954E+01 -.36278607975490E-01
 c     2    6 0.25504236399298E+01 0.18897261300000E-05 -.34511714041240E-01
 c     3    6 0.12593268411458E+01 -.22795652957431E+01 -.36289946332290E-01
 c     4    6 -.13369660030996E+01 -.22791608943507E+01 -.39583738981910E-01
 c     5    6 -.26856068523561E+01 -.18897261300000E-05 -.40110972572980E-01
 c     6    6 -.13369678928258E+01 0.22791590046246E+01 -.39570510898980E-01
 h     7    1 0.23068095955089E+01 0.40296066523382E+01 -.33243707806080E-01
 h     8    1 0.23068152646873E+01 -.40296028728859E+01 -.33262605067400E-01
 h     9    1 -.23553205188504E+01 -.40525668248527E+01 -.45200005048840E-01
 h    10    1 -.23553280777549E+01 0.40525630454004E+01 -.45173548882980E-01
 n    11    7 0.52878147756133E+01 0.00000000000000E+00 -.27472484196240E-01
 o    12    8 0.63764576548767E+01 -.20283488830896E+01 -.24482937454020E-01
 o    13    8 0.63764614343290E+01 0.20283469933635E+01 -.24515062798280E-01
 n    14    7 -.52636676188715E+01 0.00000000000000E+00 -.10786332361533E+00
 h    15    1 -.61947904866021E+01 -.16076731691957E+01 0.28377485852069E+00
 h    16    1 -.61947848174237E+01 0.16076731691957E+01 0.28378430715135E+00
[GTO]
    1 0
 s    6 1.00
 0.13575349682000E+05 0.60645503603591E-03
 0.20352333680000E+04 0.46979088884982E-02
 0.46322562359000E+03 0.24332477647552E-01
 0.13120019598000E+03 0.97399968307759E-01
 0.42853015891000E+02 0.30195584253780E+00
 0.15584185766000E+02 0.66233609137875E+00
 s    2 1.00
 0.62067138508000E+01 0.65595308539952E+00
 0.25764896527000E+01 0.37585633285142E+00
 s    1 1.00
 0.57696339419000E+00 0.10000000000000E+01
 s    1 1.00
 0.22972831358000E+00 0.10000000000000E+01
 s    1 1.00
 0.95164440028000E-01 0.10000000000000E+01
 s    1 1.00
 0.48475401370000E-01 0.10000000000000E+01
 p    4 1.00
 0.34697232244000E+02 0.11327220003114E-01
 0.79582622826000E+01 0.76169659202087E-01
 0.23780826883000E+01 0.30192252202676E+00
 0.81433208183000E+00 0.72785027349547E+00
 p    1 1.00
 0.28887547253000E+00 0.10000000000000E+01
 p    1 1.00
 0.10056823671000E+00 0.10000000000000E+01
 d    1 1.00
 0.10970000000000E+01 0.10000000000000E+01
 d    1 1.00
 0.31800000000000E+00 0.10000000000000E+01
 d    1 1.00
 0.90985336424000E-01 0.10000000000000E+01
 f    1 1.00
 0.76100000000000E+00 0.10000000000000E+01
 
    2 0
 s    6 1.00
 0.13575349682000E+05 0.60645503603591E-03
 0.20352333680000E+04 0.46979088884982E-02
 0.46322562359000E+03 0.24332477647552E-01
 0.13120019598000E+03 0.97399968307759E-01
 0.42853015891000E+02 0.30195584253780E+00
 0.15584185766000E+02 0.66233609137875E+00
 s    2 1.00
 0.62067138508000E+01 0.65595308539952E+00
 0.25764896527000E+01 0.37585633285142E+00
 s    1 1.00
 0.57696339419000E+00 0.10000000000000E+01
 s    1 1.00
 0.22972831358000E+00 0.10000000000000E+01
 s    1 1.00
 0.95164440028000E-01 0.10000000000000E+01
 s    1 1.00
 0.48475401370000E-01 0.10000000000000E+01
 p    4 1.00
 0.34697232244000E+02 0.11327220003114E-01
 0.79582622826000E+01 0.76169659202087E-01
 0.23780826883000E+01 0.30192252202676E+00
 0.81433208183000E+00 0.72785027349547E+00
 p    1 1.00
 0.28887547253000E+00 0.10000000000000E+01
 p    1 1.00
 0.10056823671000E+00 0.10000000000000E+01
 d    1 1.00
 0.10970000000000E+01 0.10000000000000E+01
 d    1 1.00
 0.31800000000000E+00 0.10000000000000E+01
 d    1 1.00
 0.90985336424000E-01 0.10000000000000E+01
 f    1 1.00
 0.76100000000000E+00 0.10000000000000E+01
 
    3 0
 s    6 1.00
 0.13575349682000E+05 0.60645503603591E-03
 0.20352333680000E+04 0.46979088884982E-02
 0.46322562359000E+03 0.24332477647552E-01
 0.13120019598000E+03 0.97399968307759E-01
 0.42853015891000E+02 0.30195584253780E+00
 0.15584185766000E+02 0.66233609137875E+00
 s    2 1.00
 0.62067138508000E+01 0.65595308539952E+00
 0.25764896527000E+01 0.37585633285142E+00
 s    1 1.00
 0.57696339419000E+00 0.10000000000000E+01
 s    1 1.00
 0.22972831358000E+00 0.10000000000000E+01
 s    1 1.00
 0.95164440028000E-01 0.10000000000000E+01
 s    1 1.00
 0.48475401370000E-01 0.10000000000000E+01
 p    4 1.00
 0.34697232244000E+02 0.11327220003114E-01
 0.79582622826000E+01 0.76169659202087E-01
 0.23780826883000E+01 0.30192252202676E+00
 0.81433208183000E+00 0.72785027349547E+00
 p    1 1.00
 0.28887547253000E+00 0.10000000000000E+01
 p    1 1.00
 0.10056823671000E+00 0.10000000000000E+01
 d    1 1.00
 0.10970000000000E+01 0.10000000000000E+01
 d    1 1.00
 0.31800000000000E+00 0.10000000000000E+01
 d    1 1.00
 0.90985336424000E-01 0.10000000000000E+01
 f    1 1.00
 0.76100000000000E+00 0.10000000000000E+01
 
    4 0
 s    6 1.00
 0.13575349682000E+05 0.60645503603591E-03
 0.20352333680000E+04 0.46979088884982E-02
 0.46322562359000E+03 0.24332477647552E-01
 0.13120019598000E+03 0.97399968307759E-01
 0.42853015891000E+02 0.30195584253780E+00
 0.15584185766000E+02 0.66233609137875E+00
 s    2 1.00
 0.62067138508000E+01 0.65595308539952E+00
 0.25764896527000E+01 0.37585633285142E+00
 s    1 1.00
 0.57696339419000E+00 0.10000000000000E+01
 s    1 1.00
 0.22972831358000E+00 0.10000000000000E+01
 s    1 1.00
 0.95164440028000E-01 0.10000000000000E+01
 s    1 1.00
 0.48475401370000E-01 0.10000000000000E+01
 p    4 1.00
 0.34697232244000E+02 0.11327220003114E-01
 0.79582622826000E+01 0.76169659202087E-01
 0.23780826883000E+01 0.30192252202676E+00
 0.81433208183000E+00 0.72785027349547E+00
 p    1 1.00
 0.28887547253000E+00 0.10000000000000E+01
 p    1 1.00
 0.10056823671000E+00 0.10000000000000E+01
 d    1 1.00
 0.10970000000000E+01 0.10000000000000E+01
 d    1 1.00
 0.31800000000000E+00 0.10000000000000E+01
 d    1 1.00
 0.90985336424000E-01 0.10000000000000E+01
 f    1 1.00
 0.76100000000000E+00 0.10000000000000E+01
 
    5 0
 s    6 1.00
 0.13575349682000E+05 0.60645503603591E-03
 0.20352333680000E+04 0.46979088884982E-02
 0.46322562359000E+03 0.24332477647552E-01
 0.13120019598000E+03 0.97399968307759E-01
 0.42853015891000E+02 0.30195584253780E+00
 0.15584185766000E+02 0.66233609137875E+00
 s    2 1.00
 0.62067138508000E+01 0.65595308539952E+00
 0.25764896527000E+01 0.37585633285142E+00
 s    1 1.00
 0.57696339419000E+00 0.10000000000000E+01
 s    1 1.00
 0.22972831358000E+00 0.10000000000000E+01
 s    1 1.00
 0.95164440028000E-01 0.10000000000000E+01
 s    1 1.00
 0.48475401370000E-01 0.10000000000000E+01
 p    4 1.00
 0.34697232244000E+02 0.11327220003114E-01
 0.79582622826000E+01 0.76169659202087E-01
 0.23780826883000E+01 0.30192252202676E+00
 0.81433208183000E+00 0.72785027349547E+00
 p    1 1.00
 0.28887547253000E+00 0.10000000000000E+01
 p    1 1.00
 0.10056823671000E+00 0.10000000000000E+01
 d    1 1.00
 0.10970000000000E+01 0.10000000000000E+01
 d    1 1.00
 0.31800000000000E+00 0.10000000000000E+01
 d    1 1.00
 0.90985336424000E-01 0.10000000000000E+01
 f    1 1.00
 0.76100000000000E+00 0.10000000000000E+01
 
    6 0
 s    6 1.00
 0.13575349682000E+05 0.60645503603591E-03
 0.20352333680000E+04 0.46979088884982E-02
 0.46322562359000E+03 0.24332477647552E-01
 0.13120019598000E+03 0.97399968307759E-01
 0.42853015891000E+02 0.30195584253780E+00
 0.15584185766000E+02 0.66233609137875E+00
 s    2 1.00
 0.62067138508000E+01 0.65595308539952E+00
 0.25764896527000E+01 0.37585633285142E+00
 s    1 1.00
 0.57696339419000E+00 0.10000000000000E+01
 s    1 1.00
 0.22972831358000E+00 0.10000000000000E+01
 s    1 1.00
 0.95164440028000E-01 0.10000000000000E+01
 s    1 1.00
 0.48475401370000E-01 0.10000000000000E+01
 p    4 1.00
 0.34697232244000E+02 0.11327220003114E-01
 0.79582622826000E+01 0.76169659202087E-01
 0.23780826883000E+01 0.30192252202676E+00
 0.81433208183000E+00 0.72785027349547E+00
 p    1 1.00
 0.28887547253000E+00 0.10000000000000E+01
 p    1 1.00
 0.10056823671000E+00 0.10000000000000E+01
 d    1 1.00
 0.10970000000000E+01 0.10000000000000E+01
 d    1 1.00
 0.31800000000000E+00 0.10000000000000E+01
 d    1 1.00
 0.90985336424000E-01 0.10000000000000E+01
 f    1 1.00
 0.76100000000000E+00 0.10000000000000E+01
 
    7 0
 s    3 1.00
 0.34061341000000E+02 0.25439307208879E-01
 0.51235746000000E+01 0.19008594890375E+00
 0.11646626000000E+01 0.85244113011042E+00
 s    1 1.00
 0.32723041000000E+00 0.10000000000000E+01
 s    1 1.00
 0.10307241000000E+00 0.10000000000000E+01
 p    1 1.00
 0.80000000000000E+00 0.10000000000000E+01
 p    1 1.00
 0.95774129632000E-01 0.10000000000000E+01
 
    8 0
 s    3 1.00
 0.34061341000000E+02 0.25439307208879E-01
 0.51235746000000E+01 0.19008594890375E+00
 0.11646626000000E+01 0.85244113011042E+00
 s    1 1.00
 0.32723041000000E+00 0.10000000000000E+01
 s    1 1.00
 0.10307241000000E+00 0.10000000000000E+01
 p    1 1.00
 0.80000000000000E+00 0.10000000000000E+01
 p    1 1.00
 0.95774129632000E-01 0.10000000000000E+01
 
    9 0
 s    3 1.00
 0.34061341000000E+02 0.25439307208879E-01
 0.51235746000000E+01 0.19008594890375E+00
 0.11646626000000E+01 0.85244113011042E+00
 s    1 1.00
 0.32723041000000E+00 0.10000000000000E+01
 s    1 1.00
 0.10307241000000E+00 0.10000000000000E+01
 p    1 1.00
 0.80000000000000E+00 0.10000000000000E+01
 p    1 1.00
 0.95774129632000E-01 0.10000000000000E+01
 
   10 0
 s    3 1.00
 0.34061341000000E+02 0.25439307208879E-01
 0.51235746000000E+01 0.19008594890375E+00
 0.11646626000000E+01 0.85244113011042E+00
 s    1 1.00
 0.32723041000000E+00 0.10000000000000E+01
 s    1 1.00
 0.10307241000000E+00 0.10000000000000E+01
 p    1 1.00
 0.80000000000000E+00 0.10000000000000E+01
 p    1 1.00
 0.95774129632000E-01 0.10000000000000E+01
 
   11 0
 s    6 1.00
 0.19730800647000E+05 0.58626402628763E-03
 0.29578958745000E+04 0.45428820586397E-02
 0.67322133595000E+03 0.23558413450084E-01
 0.19068249494000E+03 0.94709193292923E-01
 0.62295441898000E+02 0.29719784913376E+00
 0.22654161182000E+02 0.66916246895232E+00
 s    2 1.00
 0.89791477428000E+01 0.64596683630063E+00
 0.36863002370000E+01 0.38700574393705E+00
 s    1 1.00
 0.84660076805000E+00 0.10000000000000E+01
 s    1 1.00
 0.33647133771000E+00 0.10000000000000E+01
 s    1 1.00
 0.13647653675000E+00 0.10000000000000E+01
 s    1 1.00
 0.68441605847000E-01 0.10000000000000E+01
 p    4 1.00
 0.49200380510000E+02 0.11448825101764E-01
 0.11346790537000E+02 0.78422337970864E-01
 0.34273972411000E+01 0.30818094738830E+00
 0.11785525134000E+01 0.72027196368413E+00
 p    1 1.00
 0.41642204972000E+00 0.10000000000000E+01
 p    1 1.00
 0.14260826011000E+00 0.10000000000000E+01
 d    1 1.00
 0.16540000000000E+01 0.10000000000000E+01
 d    1 1.00
 0.46900000000000E+00 0.10000000000000E+01
 d    1 1.00
 0.12829642058000E+00 0.10000000000000E+01
 f    1 1.00
 0.10930000000000E+01 0.10000000000000E+01
 
   12 0
 s    6 1.00
 0.27032382631000E+05 0.57227335211155E-03
 0.40523871392000E+04 0.44353233492995E-02
 0.92232722710000E+03 0.23020107706038E-01
 0.26124070989000E+03 0.92822490667928E-01
 0.85354641351000E+02 0.29378500009671E+00
 0.31035035245000E+02 0.67401604501641E+00
 s    2 1.00
 0.12260860728000E+02 0.63839937025506E+00
 0.49987076005000E+01 0.39534587125718E+00
 s    1 1.00
 0.11703108158000E+01 0.10000000000000E+01
 s    1 1.00
 0.46474740994000E+00 0.10000000000000E+01
 s    1 1.00
 0.18504536357000E+00 0.10000000000000E+01
 s    1 1.00
 0.70288026270000E-01 0.10000000000000E+01
 p    4 1.00
 0.63274954801000E+02 0.12018332222616E-01
 0.14627049379000E+02 0.83005421790056E-01
 0.44501223456000E+01 0.31991743925964E+00
 0.15275799647000E+01 0.70715542916104E+00
 p    1 1.00
 0.52935117943000E+00 0.10000000000000E+01
 p    1 1.00
 0.17478421270000E+00 0.10000000000000E+01
 p    1 1.00
 0.51112745706000E-01 0.10000000000000E+01
 d    1 1.00
 0.23140000000000E+01 0.10000000000000E+01
 d    1 1.00
 0.64500000000000E+00 0.10000000000000E+01
 d    1 1.00
 0.14696477366000E+00 0.10000000000000E+01
 f    1 1.00
 0.14280000000000E+01 0.10000000000000E+01
 
   13 0
 s    6 1.00
 0.27032382631000E+05 0.57227335211155E-03
 0.40523871392000E+04 0.44353233492995E-02
 0.92232722710000E+03 0.23020107706038E-01
 0.26124070989000E+03 0.92822490667928E-01
 0.85354641351000E+02 0.29378500009671E+00
 0.31035035245000E+02 0.67401604501641E+00
 s    2 1.00
 0.12260860728000E+02 0.63839937025506E+00
 0.49987076005000E+01 0.39534587125718E+00
 s    1 1.00
 0.11703108158000E+01 0.10000000000000E+01
 s    1 1.00
 0.46474740994000E+00 0.10000000000000E+01
 s    1 1.00
 0.18504536357000E+00 0.10000000000000E+01
 s    1 1.00
 0.70288026270000E-01 0.10000000000000E+01
 p    4 1.00
 0.63274954801000E+02 0.12018332222616E-01
 0.14627049379000E+02 0.83005421790056E-01
 0.44501223456000E+01 0.31991743925964E+00
 0.15275799647000E+01 0.70715542916104E+00
 p    1 1.00
 0.52935117943000E+00 0.10000000000000E+01
 p    1 1.00
 0.17478421270000E+00 0.10000000000000E+01
 p    1 1.00
 0.51112745706000E-01 0.10000000000000E+01
 d    1 1.00
 0.23140000000000E+01 0.10000000000000E+01
 d    1 1.00
 0.64500000000000E+00 0.10000000000000E+01
 d    1 1.00
 0.14696477366000E+00 0.10000000000000E+01
 f    1 1.00
 0.14280000000000E+01 0.10000000000000E+01
 
   14 0
 s    6 1.00
 0.19730800647000E+05 0.58626402628763E-03
 0.29578958745000E+04 0.45428820586397E-02
 0.67322133595000E+03 0.23558413450084E-01
 0.19068249494000E+03 0.94709193292923E-01
 0.62295441898000E+02 0.29719784913376E+00
 0.22654161182000E+02 0.66916246895232E+00
 s    2 1.00
 0.89791477428000E+01 0.64596683630063E+00
 0.36863002370000E+01 0.38700574393705E+00
 s    1 1.00
 0.84660076805000E+00 0.10000000000000E+01
 s    1 1.00
 0.33647133771000E+00 0.10000000000000E+01
 s    1 1.00
 0.13647653675000E+00 0.10000000000000E+01
 s    1 1.00
 0.68441605847000E-01 0.10000000000000E+01
 p    4 1.00
 0.49200380510000E+02 0.11448825101764E-01
 0.11346790537000E+02 0.78422337970864E-01
 0.34273972411000E+01 0.30818094738830E+00
 0.11785525134000E+01 0.72027196368413E+00
 p    1 1.00
 0.41642204972000E+00 0.10000000000000E+01
 p    1 1.00
 0.14260826011000E+00 0.10000000000000E+01
 d    1 1.00
 0.16540000000000E+01 0.10000000000000E+01
 d    1 1.00
 0.46900000000000E+00 0.10000000000000E+01
 d    1 1.00
 0.12829642058000E+00 0.10000000000000E+01
 f    1 1.00
 0.10930000000000E+01 0.10000000000000E+01
 
   15 0
 s    3 1.00
 0.34061341000000E+02 0.25439307208879E-01
 0.51235746000000E+01 0.19008594890375E+00
 0.11646626000000E+01 0.85244113011042E+00
 s    1 1.00
 0.32723041000000E+00 0.10000000000000E+01
 s    1 1.00
 0.10307241000000E+00 0.10000000000000E+01
 p    1 1.00
 0.80000000000000E+00 0.10000000000000E+01
 p    1 1.00
 0.95774129632000E-01 0.10000000000000E+01
 
   16 0
 s    3 1.00
 0.34061341000000E+02 0.25439307208879E-01
 0.51235746000000E+01 0.19008594890375E+00
 0.11646626000000E+01 0.85244113011042E+00
 s    1 1.00
 0.32723041000000E+00 0.10000000000000E+01
 s    1 1.00
 0.10307241000000E+00 0.10000000000000E+01
 p    1 1.00
 0.80000000000000E+00 0.10000000000000E+01
 p    1 1.00
 0.95774129632000E-01 0.10000000000000E+01
 
[MO]
 Sym= X
 Ene= -0.939910
 Spin= Alpha
 Occup= -0.939910
         1    2.447369E-04
         2    5.701737E-04
         3   -1.740151E-03
         4    4.783557E-03
         5   -2.955970E-02
         6    1.663686E-02
         7    2.784846E-03
         8    1.213536E-04
         9   -2.704473E-02
        10   -3.673684E-03
        11    5.820966E-04
        12   -2.526416E-02
        13   -4.062251E-02
        14    1.821378E-02
        15   -1.407622E-02
        16   -1.972798E-05
        17    3.894030E-05
        18   -1.921232E-05
        19    1.158140E-05
        20   -6.233953E-03
        21    3.714396E-03
        22    9.823950E-04
        23   -5.681605E-04
        24   -4.142346E-04
        25    1.022710E-03
        26   -1.411841E-02
        27    7.027456E-03
        28    4.073516E-03
        29   -3.795734E-03
        30   -2.777821E-04
        31   -2.100296E-03
        32    3.644508E-03
        33   -9.178019E-03
        34   -3.155298E-05
        35    6.292164E-06
        36    7.996585E-05
        37    1.554083E-05
        38   -4.100921E-06
        39    7.318242E-04
        40    2.679193E-05
        41   -4.340903E-06
        42   -8.391097E-04
        43    6.766595E-04
        44   -2.552255E-05
        45   -5.351937E-05
        46   -2.793062E-04
        47    4.580643E-03
        48    7.368367E-02
        49   -8.471853E-03
        50   -2.350698E-04
        51    1.220378E-06
        52   -1.943215E-01
        53   -1.270713E-03
        54    8.724232E-06
        55   -2.014882E-01
        56   -1.808105E-02
        57   -3.248674E-04
        58   -1.875999E-01
        59   -9.402613E-05
        60    8.785971E-05
        61    6.166419E-06
        62   -7.025940E-08
        63   -4.203536E-04
        64    3.800808E-07
        65   -5.822875E-04
        66    9.544178E-04
        67   -3.721302E-04
        68   -1.716046E-06
        69   -2.520208E-03
        70    3.432220E-07
        71   -1.748959E-02
        72    1.959037E-02
        73   -2.100782E-03
        74    6.034648E-05
        75    3.608263E-03
        76   -1.993291E-05
        77    6.255573E-06
        78    1.580926E-08
        79    1.079521E-03
        80   -7.962587E-06
        81    1.820651E-08
        82   -6.151087E-04
        83   -4.301452E-07
        84   -3.941686E-08
        85   -8.332208E-04
        86   -3.339118E-08
        87    2.448370E-04
        88    5.703810E-04
        89   -1.740073E-03
        90    4.782129E-03
        91   -3.038261E-02
        92    1.663384E-02
        93    2.786385E-03
        94   -1.230075E-04
        95   -2.706240E-02
        96   -3.651137E-03
        97   -5.798300E-04
        98   -2.528226E-02
        99   -4.075381E-02
       100   -1.851253E-02
       101   -1.410816E-02
       102   -1.982390E-05
       103    3.898278E-05
       104   -1.915888E-05
       105   -1.171699E-05
       106   -6.233647E-03
       107   -3.714509E-03
       108    9.778733E-04
       109   -5.639936E-04
       110   -4.138797E-04
       111   -1.021491E-03
       112   -1.411727E-02
       113   -7.027335E-03
       114    4.138131E-03
       115   -3.868054E-03
       116   -2.700770E-04
       117    2.037349E-03
       118    3.622342E-03
       119    9.161570E-03
       120   -3.153772E-05
       121   -6.270649E-06
       122    8.006621E-05
       123    1.559323E-05
       124    4.068285E-06
       125    7.317218E-04
       126    2.671906E-05
       127    4.344673E-06
       128   -8.391419E-04
       129   -6.766482E-04
       130   -1.485431E-04
       131   -3.206440E-04
       132   -7.376379E-04
       133    1.371957E-02
       134   -6.025533E-03
       135   -2.009123E-02
       136   -2.362292E-03
       137    8.019155E-04
       138    1.593739E-01
       139   -1.375878E-02
       140    8.688053E-03
       141    1.616941E-01
       142   -1.553613E-02
       143   -1.123583E-02
       144    9.999210E-02
       145   -2.068642E-04
       146    2.437546E-04
       147   -3.689040E-05
       148   -1.885210E-06
       149   -1.219086E-03
       150    3.392076E-03
       151   -1.062108E-03
       152    1.135707E-03
       153   -7.359858E-05
       154   -2.343489E-03
       155   -5.123305E-03
       156    5.567640E-03
       157   -1.048116E-02
       158    7.783823E-03
       159    2.697341E-03
       160    1.635706E-02
       161    4.264696E-03
       162   -1.078051E-02
       163   -2.832580E-05
       164    1.058193E-05
       165   -9.369084E-04
       166   -2.150241E-05
       167    2.740915E-05
       168    2.276167E-04
       169    5.950546E-05
       170   -4.160630E-05
       171    1.029378E-03
       172   -3.920920E-04
       173    1.442646E-03
       174    3.290244E-03
       175   -3.128896E-03
       176   -3.144749E-02
       177    6.598637E-02
       178   -9.132457E-03
       179    1.186585E-02
       180   -1.653953E-06
       181    1.362934E-01
       182    8.627463E-05
       183   -6.025320E-06
       184    1.390682E-01
       185   -5.972694E-02
       186    4.359989E-04
       187    1.374540E-01
       188   -6.882205E-04
       189    3.943165E-04
       190    2.939040E-04
       191   -1.742908E-07
       192    9.523340E-03
       193    4.376588E-07
       194    2.540245E-03
       195   -5.678858E-03
       196    3.138613E-03
       197   -1.153113E-06
       198    2.378733E-02
       199   -8.998834E-07
       200    1.137833E-02
       201   -1.251499E-02
       202    1.136661E-03
       203    9.889027E-05
       204    1.464326E-02
       205    1.735674E-05
       206    1.570418E-04
       207    4.510561E-09
       208   -5.015750E-04
       209   -1.163647E-04
       210   -2.788081E-08
       211   -8.983441E-04
       212   -9.432898E-05
       213    2.182926E-08
       214    1.571278E-03
       215    2.937712E-09
       216   -1.488750E-04
       217   -3.213544E-04
       218   -7.357315E-04
       219    1.371777E-02
       220   -7.083072E-03
       221   -2.007473E-02
       222   -2.361207E-03
       223   -7.981885E-04
       224    1.593893E-01
       225   -1.377025E-02
       226   -8.688644E-03
       227    1.617136E-01
       228   -1.540170E-02
       229    1.167453E-02
       230    9.997122E-02
       231   -2.067702E-04
       232    2.438779E-04
       233   -3.710770E-05
       234    1.645817E-06
       235   -1.218722E-03
       236   -3.392154E-03
       237   -1.066049E-03
       238    1.139091E-03
       239   -7.304177E-05
       240    2.344490E-03
       241   -5.122422E-03
       242   -5.567994E-03
       243   -1.042237E-02
       244    7.724565E-03
       245    2.697808E-03
       246   -1.642131E-02
       247    4.289972E-03
       248    1.080306E-02
       249   -2.840878E-05
       250   -1.061546E-05
       251   -9.370893E-04
       252   -2.152494E-05
       253   -2.735288E-05
       254    2.277952E-04
       255    5.963932E-05
       256    4.159502E-05
       257    1.029442E-03
       258    3.921184E-04
       259    5.831487E-04
       260    2.980211E-04
       261    2.267155E-02
       262   -7.429396E-06
       263    4.517570E-06
       264   -1.134587E-03
       265   -7.089730E-03
       266   -1.094927E-03
       267    4.729739E-03
       268    5.845018E-04
       269    2.959296E-04
       270    2.266359E-02
       271   -7.077135E-06
       272   -4.913970E-06
       273   -1.135305E-03
       274   -7.151922E-03
       275    1.070640E-03
       276    4.728063E-03
       277    6.594871E-04
       278    3.542686E-03
       279   -5.173561E-02
       280   -3.020220E-05
       281    1.580851E-04
       282    6.473643E-03
       283   -1.374874E-03
       284   -4.530318E-03
       285    7.633429E-04
       286    6.619221E-04
       287    3.541908E-03
       288   -5.185038E-02
       289   -3.005928E-05
       290   -1.579475E-04
       291    6.474452E-03
       292   -1.345402E-03
       293    4.557096E-03
       294    7.572588E-04
       295    8.403322E-05
       296    1.967376E-04
       297   -2.133867E-04
       298   -5.042739E-04
       299    1.071873E-02
       300    1.104357E-03
       301    1.253341E-03
       302   -8.245075E-07
       303   -1.629787E-02
       304    7.323887E-04
       305   -8.150443E-07
       306   -1.837980E-02
       307   -3.813121E-03
       308    1.412935E-07
       309   -3.346765E-03
       310   -6.499948E-05
       311    5.615292E-05
       312    8.846558E-06
       313   -1.140174E-07
       314    3.929251E-03
       315   -1.228006E-08
       316   -1.196490E-04
       317    4.782161E-05
       318    7.182737E-05
       319   -2.631224E-07
       320    1.184414E-02
       321   -4.757680E-09
       322    6.715227E-04
       323   -3.818035E-03
       324    3.146512E-03
       325   -8.310953E-06
       326    3.074522E-03
       327    3.672307E-06
       328    9.393149E-06
       329    2.455904E-08
       330    3.200293E-05
       331   -4.821285E-06
       332   -2.428770E-08
       333   -6.590129E-04
       334   -7.780946E-06
       335   -8.661709E-09
       336    6.160765E-04
       337   -3.804387E-09
       338    2.134884E-05
       339    4.672737E-05
       340   -6.942997E-06
       341   -8.248629E-04
       342    8.753464E-03
       343    1.743531E-03
       344   -1.284171E-03
       345    7.302962E-05
       346    6.582728E-02
       347   -1.326110E-03
       348    2.371507E-04
       349    6.110493E-02
       350   -2.270111E-03
       351    8.125304E-04
       352    4.883624E-02
       353   -4.411413E-04
       354    2.743038E-04
       355    5.665035E-03
       356   -3.103146E-06
       357    8.477760E-06
       358   -5.374614E-06
       359   -9.746082E-06
       360    1.536740E-05
       361    4.176660E-04
       362    2.276938E-05
       363    1.563353E-05
       364   -3.840290E-05
       365   -3.201442E-05
       366   -4.420062E-04
       367    1.371529E-03
       368    9.170200E-05
       369   -7.511816E-06
       370   -8.419018E-05
       371   -3.199916E-06
       372   -5.826404E-04
       373    2.431036E-04
       374    2.161396E-06
       375    1.624568E-06
       376   -4.965580E-05
       377   -3.978956E-06
       378    1.536820E-06
       379   -8.093896E-05
       380    1.079140E-06
       381   -3.716406E-06
       382    1.475592E-04
       383   -1.128986E-04
       384    2.135437E-05
       385    4.675078E-05
       386   -7.048420E-06
       387   -8.243838E-04
       388    8.761312E-03
       389    1.730671E-03
       390   -1.287708E-03
       391   -6.732153E-05
       392    6.582623E-02
       393   -1.329462E-03
       394   -2.322053E-04
       395    6.110435E-02
       396   -2.266677E-03
       397   -8.122432E-04
       398    4.882937E-02
       399   -4.355140E-04
       400   -2.764094E-04
       401    5.665547E-03
       402   -3.048794E-06
       403    8.389079E-06
       404   -5.340286E-06
       405    9.739697E-06
       406    1.534864E-05
       407   -4.176716E-04
       408    2.280745E-05
       409    1.549046E-05
       410   -3.829791E-05
       411    3.192578E-05
       412   -4.419363E-04
       413   -1.371377E-03
       414    9.248128E-05
       415   -8.393355E-06
       416   -8.408793E-05
       417    3.813737E-06
       418   -5.825080E-04
       419   -2.423343E-04
       420    2.152087E-06
       421   -1.601516E-06
       422   -4.965857E-05
       423   -3.960674E-06
       424   -1.550965E-06
       425   -8.093084E-05
       426    1.073346E-06
       427    3.699624E-06
       428    1.475548E-04
       429    1.128940E-04
       430   -6.637391E-03
       431   -1.578270E-02
       432    2.460130E-02
       433    4.055497E-02
       434    1.418557E-02
       435    9.139942E-02
       436   -2.428436E-02
       437    4.951106E-06
       438   -2.422438E-01
       439   -2.786763E-02
       440    1.386148E-06
       441   -2.388152E-01
       442   -3.174779E-02
       443   -4.190013E-05
       444   -1.974946E-01
       445    1.838964E-04
       446    3.188569E-05
       447   -2.157821E-04
       448   -1.074904E-07
       449    1.183288E-03
       450    1.738768E-07
       451    3.843237E-04
       452    2.229402E-03
       453   -2.613725E-03
       454    1.431779E-06
       455    4.415047E-03
       456    8.086486E-07
       457    3.289207E-03
       458    5.619408E-03
       459   -8.908615E-03
       460    3.363119E-06
       461    2.741612E-03
       462    3.714669E-06
       463   -2.065421E-04
       464    2.917504E-08
       465    8.730740E-04
       466   -1.189453E-04
       467    8.692366E-09
       468   -3.970550E-04
       469    3.960506E-04
       470   -4.783479E-08
       471   -7.742967E-04
       472    5.074793E-09
       473   -1.356023E-02
       474   -2.629654E-02
       475   -4.976794E-02
       476   -3.080832E-03
       477   -2.670563E-03
       478   -1.218625E-02
       479    4.007938E-04
       480   -5.565211E-03
       481   -1.481716E-02
       482   -1.355698E-02
       483   -2.626525E-02
       484   -4.962645E-02
       485   -3.078983E-03
       486    2.667989E-03
       487   -1.218844E-02
       488    4.279884E-04
       489    5.551048E-03
       490   -1.482694E-02
 Sym= X
 Ene= 0.939910
 Spin= Alpha
 Occup= 0.939910
         1   -3.380863E-03
         2   -7.098259E-03
         3   -6.965110E-03
         4    2.188073E-01
         5    8.212552E+00
         6    9.751526E-01
         7    1.512006E-02
         8    3.473562E-02
         9   -3.644513E-03
        10    9.429309E-02
        11    1.334138E-02
        12   -3.237398E-03
        13    4.298738E+00
        14   -5.298569E+00
        15    3.357070E-03
        16    7.826544E-04
        17    5.179734E-05
        18   -8.344517E-04
        19   -1.380074E-03
        20   -2.169075E-04
        21    4.579792E-05
        22   -2.032576E-02
        23    2.751535E-02
        24   -7.189587E-03
        25   -1.068288E-02
        26   -5.889250E-04
        27   -3.317671E-04
        28   -1.476092E+00
        29    1.464595E+00
        30    1.149779E-02
        31   -1.542882E+00
        32    1.734178E-03
        33    1.068022E-02
        34    5.519549E-05
        35   -8.861509E-05
        36   -2.061193E-05
        37    8.999122E-04
        38    4.589542E-04
        39    5.438518E-05
        40   -9.739647E-04
        41   -3.400645E-04
        42   -2.673137E-05
        43    1.401004E-05
        44   -1.617607E-05
        45   -2.671897E-05
        46   -1.917913E-04
        47    2.007747E-03
        48    3.087486E-02
        49   -8.648716E-03
        50    7.130161E-05
        51    1.238268E-02
        52   -1.914385E-06
        53    5.233245E-04
        54   -8.304009E-02
        55    4.144548E-06
        56   -5.220979E-03
        57   -1.094102E+01
        58   -1.878359E-04
        59    4.244903E-07
        60    5.383501E-07
        61   -9.628404E-07
        62    1.612021E-03