[Molden Format]
[Title]
ADC(2) - opt by CAM-B3LYP gaussian                                              
[Atoms] AU
 c     1    6 0.12593230616935E+01 0.22795690751954E+01 -.36278607975490E-01
 c     2    6 0.25504236399298E+01 0.18897261300000E-05 -.34511714041240E-01
 c     3    6 0.12593268411458E+01 -.22795652957431E+01 -.36289946332290E-01
 c     4    6 -.13369660030996E+01 -.22791608943507E+01 -.39583738981910E-01
 c     5    6 -.26856068523561E+01 -.18897261300000E-05 -.40110972572980E-01
 c     6    6 -.13369678928258E+01 0.22791590046246E+01 -.39570510898980E-01
 h     7    1 0.23068095955089E+01 0.40296066523382E+01 -.33243707806080E-01
 h     8    1 0.23068152646873E+01 -.40296028728859E+01 -.33262605067400E-01
 h     9    1 -.23553205188504E+01 -.40525668248527E+01 -.45200005048840E-01
 h    10    1 -.23553280777549E+01 0.40525630454004E+01 -.45173548882980E-01
 n    11    7 0.52878147756133E+01 0.00000000000000E+00 -.27472484196240E-01
 o    12    8 0.63764576548767E+01 -.20283488830896E+01 -.24482937454020E-01
 o    13    8 0.63764614343290E+01 0.20283469933635E+01 -.24515062798280E-01
 n    14    7 -.52636676188715E+01 0.00000000000000E+00 -.10786332361533E+00
 h    15    1 -.61947904866021E+01 -.16076731691957E+01 0.28377485852069E+00
 h    16    1 -.61947848174237E+01 0.16076731691957E+01 0.28378430715135E+00
[GTO]
    1 0
 s    6 1.00
 0.13575349682000E+05 0.60645503603591E-03
 0.20352333680000E+04 0.46979088884982E-02
 0.46322562359000E+03 0.24332477647552E-01
 0.13120019598000E+03 0.97399968307759E-01
 0.42853015891000E+02 0.30195584253780E+00
 0.15584185766000E+02 0.66233609137875E+00
 s    2 1.00
 0.62067138508000E+01 0.65595308539952E+00
 0.25764896527000E+01 0.37585633285142E+00
 s    1 1.00
 0.57696339419000E+00 0.10000000000000E+01
 s    1 1.00
 0.22972831358000E+00 0.10000000000000E+01
 s    1 1.00
 0.95164440028000E-01 0.10000000000000E+01
 s    1 1.00
 0.48475401370000E-01 0.10000000000000E+01
 p    4 1.00
 0.34697232244000E+02 0.11327220003114E-01
 0.79582622826000E+01 0.76169659202087E-01
 0.23780826883000E+01 0.30192252202676E+00
 0.81433208183000E+00 0.72785027349547E+00
 p    1 1.00
 0.28887547253000E+00 0.10000000000000E+01
 p    1 1.00
 0.10056823671000E+00 0.10000000000000E+01
 d    1 1.00
 0.10970000000000E+01 0.10000000000000E+01
 d    1 1.00
 0.31800000000000E+00 0.10000000000000E+01
 d    1 1.00
 0.90985336424000E-01 0.10000000000000E+01
 f    1 1.00
 0.76100000000000E+00 0.10000000000000E+01
 
    2 0
 s    6 1.00
 0.13575349682000E+05 0.60645503603591E-03
 0.20352333680000E+04 0.46979088884982E-02
 0.46322562359000E+03 0.24332477647552E-01
 0.13120019598000E+03 0.97399968307759E-01
 0.42853015891000E+02 0.30195584253780E+00
 0.15584185766000E+02 0.66233609137875E+00
 s    2 1.00
 0.62067138508000E+01 0.65595308539952E+00
 0.25764896527000E+01 0.37585633285142E+00
 s    1 1.00
 0.57696339419000E+00 0.10000000000000E+01
 s    1 1.00
 0.22972831358000E+00 0.10000000000000E+01
 s    1 1.00
 0.95164440028000E-01 0.10000000000000E+01
 s    1 1.00
 0.48475401370000E-01 0.10000000000000E+01
 p    4 1.00
 0.34697232244000E+02 0.11327220003114E-01
 0.79582622826000E+01 0.76169659202087E-01
 0.23780826883000E+01 0.30192252202676E+00
 0.81433208183000E+00 0.72785027349547E+00
 p    1 1.00
 0.28887547253000E+00 0.10000000000000E+01
 p    1 1.00
 0.10056823671000E+00 0.10000000000000E+01
 d    1 1.00
 0.10970000000000E+01 0.10000000000000E+01
 d    1 1.00
 0.31800000000000E+00 0.10000000000000E+01
 d    1 1.00
 0.90985336424000E-01 0.10000000000000E+01
 f    1 1.00
 0.76100000000000E+00 0.10000000000000E+01
 
    3 0
 s    6 1.00
 0.13575349682000E+05 0.60645503603591E-03
 0.20352333680000E+04 0.46979088884982E-02
 0.46322562359000E+03 0.24332477647552E-01
 0.13120019598000E+03 0.97399968307759E-01
 0.42853015891000E+02 0.30195584253780E+00
 0.15584185766000E+02 0.66233609137875E+00
 s    2 1.00
 0.62067138508000E+01 0.65595308539952E+00
 0.25764896527000E+01 0.37585633285142E+00
 s    1 1.00
 0.57696339419000E+00 0.10000000000000E+01
 s    1 1.00
 0.22972831358000E+00 0.10000000000000E+01
 s    1 1.00
 0.95164440028000E-01 0.10000000000000E+01
 s    1 1.00
 0.48475401370000E-01 0.10000000000000E+01
 p    4 1.00
 0.34697232244000E+02 0.11327220003114E-01
 0.79582622826000E+01 0.76169659202087E-01
 0.23780826883000E+01 0.30192252202676E+00
 0.81433208183000E+00 0.72785027349547E+00
 p    1 1.00
 0.28887547253000E+00 0.10000000000000E+01
 p    1 1.00
 0.10056823671000E+00 0.10000000000000E+01
 d    1 1.00
 0.10970000000000E+01 0.10000000000000E+01
 d    1 1.00
 0.31800000000000E+00 0.10000000000000E+01
 d    1 1.00
 0.90985336424000E-01 0.10000000000000E+01
 f    1 1.00
 0.76100000000000E+00 0.10000000000000E+01
 
    4 0
 s    6 1.00
 0.13575349682000E+05 0.60645503603591E-03
 0.20352333680000E+04 0.46979088884982E-02
 0.46322562359000E+03 0.24332477647552E-01
 0.13120019598000E+03 0.97399968307759E-01
 0.42853015891000E+02 0.30195584253780E+00
 0.15584185766000E+02 0.66233609137875E+00
 s    2 1.00
 0.62067138508000E+01 0.65595308539952E+00
 0.25764896527000E+01 0.37585633285142E+00
 s    1 1.00
 0.57696339419000E+00 0.10000000000000E+01
 s    1 1.00
 0.22972831358000E+00 0.10000000000000E+01
 s    1 1.00
 0.95164440028000E-01 0.10000000000000E+01
 s    1 1.00
 0.48475401370000E-01 0.10000000000000E+01
 p    4 1.00
 0.34697232244000E+02 0.11327220003114E-01
 0.79582622826000E+01 0.76169659202087E-01
 0.23780826883000E+01 0.30192252202676E+00
 0.81433208183000E+00 0.72785027349547E+00
 p    1 1.00
 0.28887547253000E+00 0.10000000000000E+01
 p    1 1.00
 0.10056823671000E+00 0.10000000000000E+01
 d    1 1.00
 0.10970000000000E+01 0.10000000000000E+01
 d    1 1.00
 0.31800000000000E+00 0.10000000000000E+01
 d    1 1.00
 0.90985336424000E-01 0.10000000000000E+01
 f    1 1.00
 0.76100000000000E+00 0.10000000000000E+01
 
    5 0
 s    6 1.00
 0.13575349682000E+05 0.60645503603591E-03
 0.20352333680000E+04 0.46979088884982E-02
 0.46322562359000E+03 0.24332477647552E-01
 0.13120019598000E+03 0.97399968307759E-01
 0.42853015891000E+02 0.30195584253780E+00
 0.15584185766000E+02 0.66233609137875E+00
 s    2 1.00
 0.62067138508000E+01 0.65595308539952E+00
 0.25764896527000E+01 0.37585633285142E+00
 s    1 1.00
 0.57696339419000E+00 0.10000000000000E+01
 s    1 1.00
 0.22972831358000E+00 0.10000000000000E+01
 s    1 1.00
 0.95164440028000E-01 0.10000000000000E+01
 s    1 1.00
 0.48475401370000E-01 0.10000000000000E+01
 p    4 1.00
 0.34697232244000E+02 0.11327220003114E-01
 0.79582622826000E+01 0.76169659202087E-01
 0.23780826883000E+01 0.30192252202676E+00
 0.81433208183000E+00 0.72785027349547E+00
 p    1 1.00
 0.28887547253000E+00 0.10000000000000E+01
 p    1 1.00
 0.10056823671000E+00 0.10000000000000E+01
 d    1 1.00
 0.10970000000000E+01 0.10000000000000E+01
 d    1 1.00
 0.31800000000000E+00 0.10000000000000E+01
 d    1 1.00
 0.90985336424000E-01 0.10000000000000E+01
 f    1 1.00
 0.76100000000000E+00 0.10000000000000E+01
 
    6 0
 s    6 1.00
 0.13575349682000E+05 0.60645503603591E-03
 0.20352333680000E+04 0.46979088884982E-02
 0.46322562359000E+03 0.24332477647552E-01
 0.13120019598000E+03 0.97399968307759E-01
 0.42853015891000E+02 0.30195584253780E+00
 0.15584185766000E+02 0.66233609137875E+00
 s    2 1.00
 0.62067138508000E+01 0.65595308539952E+00
 0.25764896527000E+01 0.37585633285142E+00
 s    1 1.00
 0.57696339419000E+00 0.10000000000000E+01
 s    1 1.00
 0.22972831358000E+00 0.10000000000000E+01
 s    1 1.00
 0.95164440028000E-01 0.10000000000000E+01
 s    1 1.00
 0.48475401370000E-01 0.10000000000000E+01
 p    4 1.00
 0.34697232244000E+02 0.11327220003114E-01
 0.79582622826000E+01 0.76169659202087E-01
 0.23780826883000E+01 0.30192252202676E+00
 0.81433208183000E+00 0.72785027349547E+00
 p    1 1.00
 0.28887547253000E+00 0.10000000000000E+01
 p    1 1.00
 0.10056823671000E+00 0.10000000000000E+01
 d    1 1.00
 0.10970000000000E+01 0.10000000000000E+01
 d    1 1.00
 0.31800000000000E+00 0.10000000000000E+01
 d    1 1.00
 0.90985336424000E-01 0.10000000000000E+01
 f    1 1.00
 0.76100000000000E+00 0.10000000000000E+01
 
    7 0
 s    3 1.00
 0.34061341000000E+02 0.25439307208879E-01
 0.51235746000000E+01 0.19008594890375E+00
 0.11646626000000E+01 0.85244113011042E+00
 s    1 1.00
 0.32723041000000E+00 0.10000000000000E+01
 s    1 1.00
 0.10307241000000E+00 0.10000000000000E+01
 p    1 1.00
 0.80000000000000E+00 0.10000000000000E+01
 p    1 1.00
 0.95774129632000E-01 0.10000000000000E+01
 
    8 0
 s    3 1.00
 0.34061341000000E+02 0.25439307208879E-01
 0.51235746000000E+01 0.19008594890375E+00
 0.11646626000000E+01 0.85244113011042E+00
 s    1 1.00
 0.32723041000000E+00 0.10000000000000E+01
 s    1 1.00
 0.10307241000000E+00 0.10000000000000E+01
 p    1 1.00
 0.80000000000000E+00 0.10000000000000E+01
 p    1 1.00
 0.95774129632000E-01 0.10000000000000E+01
 
    9 0
 s    3 1.00
 0.34061341000000E+02 0.25439307208879E-01
 0.51235746000000E+01 0.19008594890375E+00
 0.11646626000000E+01 0.85244113011042E+00
 s    1 1.00
 0.32723041000000E+00 0.10000000000000E+01
 s    1 1.00
 0.10307241000000E+00 0.10000000000000E+01
 p    1 1.00
 0.80000000000000E+00 0.10000000000000E+01
 p    1 1.00
 0.95774129632000E-01 0.10000000000000E+01
 
   10 0
 s    3 1.00
 0.34061341000000E+02 0.25439307208879E-01
 0.51235746000000E+01 0.19008594890375E+00
 0.11646626000000E+01 0.85244113011042E+00
 s    1 1.00
 0.32723041000000E+00 0.10000000000000E+01
 s    1 1.00
 0.10307241000000E+00 0.10000000000000E+01
 p    1 1.00
 0.80000000000000E+00 0.10000000000000E+01
 p    1 1.00
 0.95774129632000E-01 0.10000000000000E+01
 
   11 0
 s    6 1.00
 0.19730800647000E+05 0.58626402628763E-03
 0.29578958745000E+04 0.45428820586397E-02
 0.67322133595000E+03 0.23558413450084E-01
 0.19068249494000E+03 0.94709193292923E-01
 0.62295441898000E+02 0.29719784913376E+00
 0.22654161182000E+02 0.66916246895232E+00
 s    2 1.00
 0.89791477428000E+01 0.64596683630063E+00
 0.36863002370000E+01 0.38700574393705E+00
 s    1 1.00
 0.84660076805000E+00 0.10000000000000E+01
 s    1 1.00
 0.33647133771000E+00 0.10000000000000E+01
 s    1 1.00
 0.13647653675000E+00 0.10000000000000E+01
 s    1 1.00
 0.68441605847000E-01 0.10000000000000E+01
 p    4 1.00
 0.49200380510000E+02 0.11448825101764E-01
 0.11346790537000E+02 0.78422337970864E-01
 0.34273972411000E+01 0.30818094738830E+00
 0.11785525134000E+01 0.72027196368413E+00
 p    1 1.00
 0.41642204972000E+00 0.10000000000000E+01
 p    1 1.00
 0.14260826011000E+00 0.10000000000000E+01
 d    1 1.00
 0.16540000000000E+01 0.10000000000000E+01
 d    1 1.00
 0.46900000000000E+00 0.10000000000000E+01
 d    1 1.00
 0.12829642058000E+00 0.10000000000000E+01
 f    1 1.00
 0.10930000000000E+01 0.10000000000000E+01
 
   12 0
 s    6 1.00
 0.27032382631000E+05 0.57227335211155E-03
 0.40523871392000E+04 0.44353233492995E-02
 0.92232722710000E+03 0.23020107706038E-01
 0.26124070989000E+03 0.92822490667928E-01
 0.85354641351000E+02 0.29378500009671E+00
 0.31035035245000E+02 0.67401604501641E+00
 s    2 1.00
 0.12260860728000E+02 0.63839937025506E+00
 0.49987076005000E+01 0.39534587125718E+00
 s    1 1.00
 0.11703108158000E+01 0.10000000000000E+01
 s    1 1.00
 0.46474740994000E+00 0.10000000000000E+01
 s    1 1.00
 0.18504536357000E+00 0.10000000000000E+01
 s    1 1.00
 0.70288026270000E-01 0.10000000000000E+01
 p    4 1.00
 0.63274954801000E+02 0.12018332222616E-01
 0.14627049379000E+02 0.83005421790056E-01
 0.44501223456000E+01 0.31991743925964E+00
 0.15275799647000E+01 0.70715542916104E+00
 p    1 1.00
 0.52935117943000E+00 0.10000000000000E+01
 p    1 1.00
 0.17478421270000E+00 0.10000000000000E+01
 p    1 1.00
 0.51112745706000E-01 0.10000000000000E+01
 d    1 1.00
 0.23140000000000E+01 0.10000000000000E+01
 d    1 1.00
 0.64500000000000E+00 0.10000000000000E+01
 d    1 1.00
 0.14696477366000E+00 0.10000000000000E+01
 f    1 1.00
 0.14280000000000E+01 0.10000000000000E+01
 
   13 0
 s    6 1.00
 0.27032382631000E+05 0.57227335211155E-03
 0.40523871392000E+04 0.44353233492995E-02
 0.92232722710000E+03 0.23020107706038E-01
 0.26124070989000E+03 0.92822490667928E-01
 0.85354641351000E+02 0.29378500009671E+00
 0.31035035245000E+02 0.67401604501641E+00
 s    2 1.00
 0.12260860728000E+02 0.63839937025506E+00
 0.49987076005000E+01 0.39534587125718E+00
 s    1 1.00
 0.11703108158000E+01 0.10000000000000E+01
 s    1 1.00
 0.46474740994000E+00 0.10000000000000E+01
 s    1 1.00
 0.18504536357000E+00 0.10000000000000E+01
 s    1 1.00
 0.70288026270000E-01 0.10000000000000E+01
 p    4 1.00
 0.63274954801000E+02 0.12018332222616E-01
 0.14627049379000E+02 0.83005421790056E-01
 0.44501223456000E+01 0.31991743925964E+00
 0.15275799647000E+01 0.70715542916104E+00
 p    1 1.00
 0.52935117943000E+00 0.10000000000000E+01
 p    1 1.00
 0.17478421270000E+00 0.10000000000000E+01
 p    1 1.00
 0.51112745706000E-01 0.10000000000000E+01
 d    1 1.00
 0.23140000000000E+01 0.10000000000000E+01
 d    1 1.00
 0.64500000000000E+00 0.10000000000000E+01
 d    1 1.00
 0.14696477366000E+00 0.10000000000000E+01
 f    1 1.00
 0.14280000000000E+01 0.10000000000000E+01
 
   14 0
 s    6 1.00
 0.19730800647000E+05 0.58626402628763E-03
 0.29578958745000E+04 0.45428820586397E-02
 0.67322133595000E+03 0.23558413450084E-01
 0.19068249494000E+03 0.94709193292923E-01
 0.62295441898000E+02 0.29719784913376E+00
 0.22654161182000E+02 0.66916246895232E+00
 s    2 1.00
 0.89791477428000E+01 0.64596683630063E+00
 0.36863002370000E+01 0.38700574393705E+00
 s    1 1.00
 0.84660076805000E+00 0.10000000000000E+01
 s    1 1.00
 0.33647133771000E+00 0.10000000000000E+01
 s    1 1.00
 0.13647653675000E+00 0.10000000000000E+01
 s    1 1.00
 0.68441605847000E-01 0.10000000000000E+01
 p    4 1.00
 0.49200380510000E+02 0.11448825101764E-01
 0.11346790537000E+02 0.78422337970864E-01
 0.34273972411000E+01 0.30818094738830E+00
 0.11785525134000E+01 0.72027196368413E+00
 p    1 1.00
 0.41642204972000E+00 0.10000000000000E+01
 p    1 1.00
 0.14260826011000E+00 0.10000000000000E+01
 d    1 1.00
 0.16540000000000E+01 0.10000000000000E+01
 d    1 1.00
 0.46900000000000E+00 0.10000000000000E+01
 d    1 1.00
 0.12829642058000E+00 0.10000000000000E+01
 f    1 1.00
 0.10930000000000E+01 0.10000000000000E+01
 
   15 0
 s    3 1.00
 0.34061341000000E+02 0.25439307208879E-01
 0.51235746000000E+01 0.19008594890375E+00
 0.11646626000000E+01 0.85244113011042E+00
 s    1 1.00
 0.32723041000000E+00 0.10000000000000E+01
 s    1 1.00
 0.10307241000000E+00 0.10000000000000E+01
 p    1 1.00
 0.80000000000000E+00 0.10000000000000E+01
 p    1 1.00
 0.95774129632000E-01 0.10000000000000E+01
 
   16 0
 s    3 1.00
 0.34061341000000E+02 0.25439307208879E-01
 0.51235746000000E+01 0.19008594890375E+00
 0.11646626000000E+01 0.85244113011042E+00
 s    1 1.00
 0.32723041000000E+00 0.10000000000000E+01
 s    1 1.00
 0.10307241000000E+00 0.10000000000000E+01
 p    1 1.00
 0.80000000000000E+00 0.10000000000000E+01
 p    1 1.00
 0.95774129632000E-01 0.10000000000000E+01
 
[MO]
 Sym= X
 Ene= -0.247530
 Spin= Alpha
 Occup= -0.247530
         1    4.232734E-05
         2    9.730358E-05
         3   -2.685068E-04
         4    5.349127E-04
         5    6.142656E-03
         6    7.278134E-04
         7   -1.217361E-04
         8   -1.874606E-04
         9    1.881870E-01
        10   -1.141783E-03
        11    1.552949E-04
        12    1.889991E-01
        13    5.101846E-03
        14   -5.254866E-03
        15    1.109257E-01
        16    9.692360E-06
        17   -4.540250E-06
        18   -5.152110E-06
        19   -2.176445E-06
        20   -4.951610E-03
        21   -5.588234E-04
        22    2.187515E-04
        23   -1.588914E-04
        24   -5.986005E-05
        25   -3.691627E-06
        26   -9.680764E-03
        27    4.525621E-04
        28   -8.804516E-04
        29    8.923234E-04
        30   -1.187182E-05
        31   -4.305900E-04
        32   -4.622022E-03
        33    1.533137E-03
        34   -7.694265E-06
        35   -4.624780E-07
        36   -1.180449E-03
        37    1.928913E-06
        38    3.529253E-07
        39    1.424189E-03
        40    8.394026E-06
        41    2.675541E-07
        42    1.595503E-04
        43    3.991965E-06
        44    2.676286E-09
        45   -6.492097E-08
        46    4.374919E-06
        47   -1.850015E-05
        48   -1.257989E-03
        49   -8.684957E-05
        50   -9.022629E-07
        51    1.227101E-04
        52    5.434697E-06
        53    1.001208E-05
        54    5.554859E-04
        55    3.172920E-06
        56    5.254923E-04
        57   -9.470588E-03
        58    8.365003E-06
        59    3.543858E-08
        60   -1.143250E-07
        61    7.888637E-08
        62   -1.063137E-05
        63   -5.791208E-08
        64    7.117550E-03
        65    9.532598E-07
        66   -4.064722E-06
        67    3.111462E-06
        68   -1.819410E-04
        69    6.219308E-07
        70    1.621055E-02
        71   -2.997107E-05
        72    3.267686E-06
        73    2.670338E-05
        74    1.129645E-03
        75   -4.320210E-07
        76    3.498998E-03
        77   -4.239734E-08
        78    9.050088E-07
        79   -5.088017E-09
        80    1.125080E-07
        81    2.362586E-06
        82    2.622394E-10
        83   -5.562600E-08
        84   -3.576782E-06
        85    6.564051E-09
        86   -1.029579E-03
        87   -4.194815E-05
        88   -9.639544E-05
        89    2.579254E-04
        90   -4.936587E-04
        91   -3.780891E-03
        92   -5.965921E-04
        93    1.210599E-04
        94   -1.851903E-04
        95   -1.881843E-01
        96    1.109430E-03
        97    1.773560E-04
        98   -1.889953E-01
        99   -5.743862E-03
       100   -4.214661E-03
       101   -1.108977E-01
       102   -9.680754E-06
       103    4.446546E-06
       104    5.234208E-06
       105   -2.000104E-06
       106    4.952074E-03
       107   -5.586518E-04
       108   -2.092508E-04
       109    1.562840E-04
       110    5.296672E-05
       111    1.872581E-06
       112    9.681559E-03
       113    4.539065E-04
       114    8.680856E-04
       115   -8.353813E-04
       116   -3.270429E-05
       117   -4.886709E-04
       118    4.616304E-03
       119    1.534749E-03
       120    7.375532E-06
       121   -3.559028E-07
       122    1.180454E-03
       123   -1.695000E-06
       124    4.212089E-07
       125   -1.424266E-03
       126   -8.200314E-06
       127    5.628473E-08
       128   -1.594786E-04
       129    4.064943E-06
       130    6.894373E-06
       131    1.841400E-05
       132   -2.062403E-04
       133    1.732449E-03
       134    1.293051E-02
       135    3.502819E-04
       136    3.160719E-04
       137    1.318414E-04
       138   -2.017243E-01
       139    9.181923E-04
       140    3.613969E-04
       141   -2.046203E-01
       142   -9.609573E-03
       143    8.875730E-03
       144   -1.323616E-01
       145    2.328046E-05
       146    8.173907E-06
       147   -3.145437E-05
       148   -8.495900E-06
       149   -4.579840E-03
       150   -4.817619E-04
       151    3.086737E-04
       152   -9.681306E-05
       153   -2.118606E-04
       154   -1.301115E-04
       155   -8.033848E-03
       156   -4.203190E-04
       157    1.787114E-04
       158    2.261503E-04
       159   -4.048616E-04
       160   -1.796104E-03
       161    4.242129E-03
       162   -3.360944E-03
       163    1.009567E-05
       164    1.705333E-06
       165    1.326623E-03
       166   -6.829364E-06
       167    2.280408E-06
       168   -1.466144E-03
       169   -6.715397E-06
       170   -4.568353E-06
       171   -3.137085E-04
       172    4.606743E-05
       173   -1.144750E-07
       174   -1.850372E-07
       175   -4.371283E-06
       176    1.277095E-05
       177    1.558114E-03
       178    1.198018E-04
       179   -7.360941E-07
       180   -3.029021E-04
       181   -3.914577E-06
       182    1.238525E-05
       183   -1.391754E-04
       184   -2.132943E-06
       185    5.804640E-04
       186    2.480516E-02
       187   -5.124134E-06
       188   -1.698925E-07
       189    4.316587E-08
       190    1.267266E-07
       191    2.511397E-05
       192   -5.081588E-07
       193    7.647602E-03
       194   -3.811394E-07
       195    5.079733E-06
       196   -4.698594E-06
       197    9.114397E-05
       198   -4.064963E-07
       199    1.611530E-02
       200    2.422557E-05
       201    1.193961E-05
       202   -3.616518E-05
       203    1.033004E-03
       204    1.539808E-06
       205   -8.512708E-03
       206   -4.818826E-08
       207    6.432348E-06
       208   -5.338013E-09
       209    1.661983E-07
       210   -8.215435E-06
       211    6.965359E-08
       212   -1.015470E-07
       213   -4.144646E-07
       214   -6.249190E-08
       215    1.190929E-03
       216   -7.304878E-06
       217   -1.940978E-05
       218    2.184267E-04
       219   -1.782083E-03
       220   -1.555560E-02
       221   -4.985100E-04
       222   -3.177885E-04
       223    1.328256E-04
       224    2.017119E-01
       225   -9.480082E-04
       226    3.858576E-04
       227    2.046072E-01
       228    9.065307E-03
       229    1.000902E-02
       230    1.323237E-01
       231   -2.332350E-05
       232   -7.969196E-06
       233    3.129270E-05
       234   -8.739499E-06
       235    4.580048E-03
       236   -4.816148E-04
       237   -3.182073E-04
       238    9.817077E-05
       239    2.200366E-04
       240   -1.359796E-04
       241    8.033940E-03
       242   -4.189816E-04
       243   -1.695789E-04
       244   -2.816685E-04
       245    4.512474E-04
       246   -1.744912E-03
       247   -4.249343E-03
       248   -3.358775E-03
       249   -1.042154E-05
       250    1.845631E-06
       251   -1.326560E-03
       252    7.112608E-06
       253    2.327535E-06
       254    1.466150E-03
       255    6.869350E-06
       256   -4.803708E-06
       257    3.136171E-04
       258    4.600665E-05
       259   -4.730330E-05
       260   -5.926861E-05
       261    7.528254E-04
       262   -1.304174E-05
       263    3.787768E-06
       264    7.731533E-03
       265   -1.310398E-04
       266   -2.194420E-04
       267    6.837803E-03
       268    4.545216E-05
       269    6.646624E-05
       270   -4.347368E-04
       271    1.275228E-05
       272    4.617846E-06
       273   -7.731368E-03
       274    9.680261E-05
       275   -1.332425E-04
       276   -6.837337E-03
       277    6.815619E-05
       278    2.180770E-04
       279    3.157958E-03
       280    4.261114E-05
       281    3.147810E-05
       282   -8.787682E-03
       283    4.014373E-04
       284    6.295047E-05
       285   -9.903345E-03
       286   -6.587231E-05
       287   -2.216261E-04
       288   -3.504002E-03
       289   -4.291841E-05
       290    3.206807E-05
       291    8.786952E-03
       292   -4.429351E-04
       293    1.555629E-04
       294    9.900436E-03
       295   -1.887033E-08
       296   -6.298783E-08
       297    2.406882E-07
       298   -2.714657E-06
       299   -1.088167E-05
       300    4.938863E-05
       301   -1.282330E-07
       302   -1.394667E-05
       303   -1.980085E-07
       304    1.500855E-06
       305    2.260181E-05
       306    7.964408E-08
       307    3.208582E-06
       308    7.187181E-04
       309   -5.947955E-07
       310   -3.092007E-08
       311    6.047725E-09
       312    2.487234E-08
       313    1.921810E-06
       314   -9.937456E-08
       315   -7.491486E-04
       316   -2.198727E-07
       317    4.248654E-07
       318   -2.049927E-07
       319   -1.665542E-05
       320   -3.016399E-07
       321   -1.843256E-03
       322    9.929793E-08
       323    4.908916E-06
       324   -5.008214E-06
       325   -1.854236E-04
       326    1.569560E-06
       327   -1.977540E-03
       328   -4.146769E-09
       329   -1.047380E-06
       330    3.422665E-09
       331    3.653069E-09
       332    2.883044E-06
       333    1.360819E-08
       334    1.910406E-09
       335   -1.477837E-06
       336   -1.820018E-08
       337   -2.877286E-04
       338   -8.973593E-07
       339   -2.410472E-06
       340    7.176566E-06
       341   -2.853868E-05
       342    2.077822E-04
       343   -3.020154E-05
       344   -1.269058E-04
       345   -1.211502E-05
       346    2.643470E-02
       347   -1.122122E-04
       348   -1.044118E-05
       349    2.475970E-02
       350   -2.595048E-04
       351    2.927425E-05
       352    1.746886E-02
       353   -3.587146E-05
       354   -2.549913E-05
       355    5.083245E-04
       356    9.992832E-08
       357    6.163187E-08
       358   -1.615602E-07
       359   -5.910654E-07
       360   -6.465662E-05
       361    2.046163E-04
       362    3.974805E-06
       363   -1.015854E-06
       364   -2.958951E-06
       365   -6.016967E-06
       366   -2.531047E-04
       367    8.479067E-04
       368    2.425958E-05
       369   -2.687642E-05
       370    2.616841E-06
       371   -2.832302E-05
       372    1.090983E-04
       373   -1.842579E-04
       374    2.189165E-07
       375   -1.541897E-07
       376   -2.337316E-05
       377   -3.465571E-07
       378    6.489219E-07
       379   -2.874923E-05
       380    5.284979E-08
       381   -4.420547E-07
       382    6.010762E-05
       383   -6.866478E-05
       384    8.215720E-07
       385    2.234005E-06
       386   -6.979250E-06
       387    2.987480E-05
       388   -2.334938E-04
       389    1.030857E-05
       390    1.253555E-04
       391   -1.188604E-05
       392   -2.643826E-02
       393    1.115525E-04
       394   -9.531797E-06
       395   -2.476282E-02
       396    2.644253E-04
       397    3.475111E-05
       398   -1.747250E-02
       399    3.757897E-05
       400   -2.302412E-05
       401   -5.083759E-04
       402   -1.027371E-07
       403   -6.221447E-08
       404    1.649516E-07
       405   -5.573963E-07
       406    6.466295E-05
       407    2.046502E-04
       408   -3.914360E-06
       409    9.433190E-07
       410    2.971041E-06
       411   -6.173367E-06
       412    2.531573E-04
       413    8.479947E-04
       414   -2.445995E-05
       415    2.667267E-05
       416   -2.212722E-06
       417   -2.912069E-05
       418   -1.095907E-04
       419   -1.836480E-04
       420   -2.238840E-07
       421   -1.490151E-07
       422    2.338046E-05
       423    3.466259E-07
       424    6.447736E-07
       425    2.875206E-05
       426   -4.625390E-08
       427   -4.448489E-07
       428   -6.012024E-05
       429   -6.867311E-05
       430    5.259790E-07
       431    1.283737E-06
       432   -2.438818E-06
       433    2.057447E-06
       434    6.662574E-06
       435   -4.263609E-05
       436    5.120536E-07
       437   -1.464285E-03
       438    1.300548E-05
       439    2.458141E-06
       440   -1.630231E-03
       441    1.292769E-05
       442   -1.867099E-05
       443   -1.886688E-03
       444    1.224480E-05
       445   -3.396444E-08
       446    2.527140E-08
       447    8.693035E-09
       448   -2.358306E-05
       449   -3.859629E-08
       450    3.045746E-04
       451    4.087219E-08
       452   -4.637236E-07
       453    4.228514E-07
       454   -1.953680E-05
       455    5.754897E-08
       456    6.363169E-04
       457   -6.841225E-06
       458    1.748222E-06
       459    5.093003E-06
       460   -1.967240E-04
       461   -3.492232E-08
       462   -1.991143E-04
       463    1.336001E-08
       464   -5.311961E-06
       465   -4.655416E-08
       466   -5.964323E-09
       467   -1.957004E-05
       468    3.889932E-08
       469   -1.196001E-08
       470    2.669679E-05
       471    2.355964E-08
       472    1.313752E-04
       473   -7.192318E-05
       474   -2.284024E-04
       475    3.342865E-04
       476   -7.958922E-05
       477   -3.488843E-05
       478   -3.718585E-04
       479    2.267026E-04
       480   -6.324650E-05
       481   -1.744045E-03
       482    7.348408E-05
       483    2.330271E-04
       484   -3.337566E-04
       485    8.023405E-05
       486   -3.532610E-05
       487    3.730191E-04
       488   -2.338148E-04
       489   -6.752892E-05
       490    1.743955E-03
 Sym= X
 Ene= -0.709840
 Spin= Alpha
 Occup= -0.709840
         1    1.781018E-04
         2    4.173309E-04
         3   -1.401412E-03
         4    4.444980E-03
         5   -2.677389E-02
         6    1.457433E-02
         7    1.622853E-03
         8    1.587647E-04
         9   -4.452092E-02
        10   -3.827181E-03
        11    5.272464E-04
        12   -4.252252E-02
        13   -3.641932E-02
        14    1.799391E-02
        15   -2.039984E-02
        16    1.567254E-05
        17    4.931489E-06
        18   -2.060402E-05
        19    6.261665E-07
        20   -6.314028E-03
        21    4.272188E-03
        22    9.021623E-04
        23   -5.253023E-04
        24   -3.768601E-04
        25    8.642673E-04
        26   -1.435006E-02
        27    7.947661E-03
        28    3.832164E-03
        29   -3.630704E-03
        30   -2.014605E-04
        31   -1.732468E-03
        32    2.785193E-03
        33   -8.543278E-03
        34   -3.021414E-05
        35    5.622427E-06
        36    2.252946E-04
        37    1.486296E-05
        38   -3.931986E-06
        39    6.559292E-04
        40    2.567356E-05
        41   -3.611292E-06
        42   -9.581936E-04
        43    7.396682E-04
        44   -3.425275E-05
        45   -7.445711E-05
        46   -1.730883E-04
        47    3.855975E-03
        48    7.126517E-02
        49   -6.739835E-03
        50    5.112164E-04
        51    1.234885E-06
        52   -2.205309E-01
        53   -4.970025E-04
        54    1.011614E-05
        55   -2.279784E-01
        56   -1.713925E-02
        57   -2.895569E-04
        58   -1.962741E-01
        59   -3.959900E-05
        60    3.531370E-05
        61    4.285299E-06
        62   -7.149078E-08