[Molden Format]
[Title]
ADC(2) - opt by CAM-B3LYP gaussian                                              
[Atoms] AU
 c     1    6 0.12593230616935E+01 0.22795690751954E+01 -.36278607975490E-01
 c     2    6 0.25504236399298E+01 0.18897261300000E-05 -.34511714041240E-01
 c     3    6 0.12593268411458E+01 -.22795652957431E+01 -.36289946332290E-01
 c     4    6 -.13369660030996E+01 -.22791608943507E+01 -.39583738981910E-01
 c     5    6 -.26856068523561E+01 -.18897261300000E-05 -.40110972572980E-01
 c     6    6 -.13369678928258E+01 0.22791590046246E+01 -.39570510898980E-01
 h     7    1 0.23068095955089E+01 0.40296066523382E+01 -.33243707806080E-01
 h     8    1 0.23068152646873E+01 -.40296028728859E+01 -.33262605067400E-01
 h     9    1 -.23553205188504E+01 -.40525668248527E+01 -.45200005048840E-01
 h    10    1 -.23553280777549E+01 0.40525630454004E+01 -.45173548882980E-01
 n    11    7 0.52878147756133E+01 0.00000000000000E+00 -.27472484196240E-01
 o    12    8 0.63764576548767E+01 -.20283488830896E+01 -.24482937454020E-01
 o    13    8 0.63764614343290E+01 0.20283469933635E+01 -.24515062798280E-01
 n    14    7 -.52636676188715E+01 0.00000000000000E+00 -.10786332361533E+00
 h    15    1 -.61947904866021E+01 -.16076731691957E+01 0.28377485852069E+00
 h    16    1 -.61947848174237E+01 0.16076731691957E+01 0.28378430715135E+00
[GTO]
    1 0
 s    6 1.00
 0.13575349682000E+05 0.60645503603591E-03
 0.20352333680000E+04 0.46979088884982E-02
 0.46322562359000E+03 0.24332477647552E-01
 0.13120019598000E+03 0.97399968307759E-01
 0.42853015891000E+02 0.30195584253780E+00
 0.15584185766000E+02 0.66233609137875E+00
 s    2 1.00
 0.62067138508000E+01 0.65595308539952E+00
 0.25764896527000E+01 0.37585633285142E+00
 s    1 1.00
 0.57696339419000E+00 0.10000000000000E+01
 s    1 1.00
 0.22972831358000E+00 0.10000000000000E+01
 s    1 1.00
 0.95164440028000E-01 0.10000000000000E+01
 s    1 1.00
 0.48475401370000E-01 0.10000000000000E+01
 p    4 1.00
 0.34697232244000E+02 0.11327220003114E-01
 0.79582622826000E+01 0.76169659202087E-01
 0.23780826883000E+01 0.30192252202676E+00
 0.81433208183000E+00 0.72785027349547E+00
 p    1 1.00
 0.28887547253000E+00 0.10000000000000E+01
 p    1 1.00
 0.10056823671000E+00 0.10000000000000E+01
 d    1 1.00
 0.10970000000000E+01 0.10000000000000E+01
 d    1 1.00
 0.31800000000000E+00 0.10000000000000E+01
 d    1 1.00
 0.90985336424000E-01 0.10000000000000E+01
 f    1 1.00
 0.76100000000000E+00 0.10000000000000E+01
 
    2 0
 s    6 1.00
 0.13575349682000E+05 0.60645503603591E-03
 0.20352333680000E+04 0.46979088884982E-02
 0.46322562359000E+03 0.24332477647552E-01
 0.13120019598000E+03 0.97399968307759E-01
 0.42853015891000E+02 0.30195584253780E+00
 0.15584185766000E+02 0.66233609137875E+00
 s    2 1.00
 0.62067138508000E+01 0.65595308539952E+00
 0.25764896527000E+01 0.37585633285142E+00
 s    1 1.00
 0.57696339419000E+00 0.10000000000000E+01
 s    1 1.00
 0.22972831358000E+00 0.10000000000000E+01
 s    1 1.00
 0.95164440028000E-01 0.10000000000000E+01
 s    1 1.00
 0.48475401370000E-01 0.10000000000000E+01
 p    4 1.00
 0.34697232244000E+02 0.11327220003114E-01
 0.79582622826000E+01 0.76169659202087E-01
 0.23780826883000E+01 0.30192252202676E+00
 0.81433208183000E+00 0.72785027349547E+00
 p    1 1.00
 0.28887547253000E+00 0.10000000000000E+01
 p    1 1.00
 0.10056823671000E+00 0.10000000000000E+01
 d    1 1.00
 0.10970000000000E+01 0.10000000000000E+01
 d    1 1.00
 0.31800000000000E+00 0.10000000000000E+01
 d    1 1.00
 0.90985336424000E-01 0.10000000000000E+01
 f    1 1.00
 0.76100000000000E+00 0.10000000000000E+01
 
    3 0
 s    6 1.00
 0.13575349682000E+05 0.60645503603591E-03
 0.20352333680000E+04 0.46979088884982E-02
 0.46322562359000E+03 0.24332477647552E-01
 0.13120019598000E+03 0.97399968307759E-01
 0.42853015891000E+02 0.30195584253780E+00
 0.15584185766000E+02 0.66233609137875E+00
 s    2 1.00
 0.62067138508000E+01 0.65595308539952E+00
 0.25764896527000E+01 0.37585633285142E+00
 s    1 1.00
 0.57696339419000E+00 0.10000000000000E+01
 s    1 1.00
 0.22972831358000E+00 0.10000000000000E+01
 s    1 1.00
 0.95164440028000E-01 0.10000000000000E+01
 s    1 1.00
 0.48475401370000E-01 0.10000000000000E+01
 p    4 1.00
 0.34697232244000E+02 0.11327220003114E-01
 0.79582622826000E+01 0.76169659202087E-01
 0.23780826883000E+01 0.30192252202676E+00
 0.81433208183000E+00 0.72785027349547E+00
 p    1 1.00
 0.28887547253000E+00 0.10000000000000E+01
 p    1 1.00
 0.10056823671000E+00 0.10000000000000E+01
 d    1 1.00
 0.10970000000000E+01 0.10000000000000E+01
 d    1 1.00
 0.31800000000000E+00 0.10000000000000E+01
 d    1 1.00
 0.90985336424000E-01 0.10000000000000E+01
 f    1 1.00
 0.76100000000000E+00 0.10000000000000E+01
 
    4 0
 s    6 1.00
 0.13575349682000E+05 0.60645503603591E-03
 0.20352333680000E+04 0.46979088884982E-02
 0.46322562359000E+03 0.24332477647552E-01
 0.13120019598000E+03 0.97399968307759E-01
 0.42853015891000E+02 0.30195584253780E+00
 0.15584185766000E+02 0.66233609137875E+00
 s    2 1.00
 0.62067138508000E+01 0.65595308539952E+00
 0.25764896527000E+01 0.37585633285142E+00
 s    1 1.00
 0.57696339419000E+00 0.10000000000000E+01
 s    1 1.00
 0.22972831358000E+00 0.10000000000000E+01
 s    1 1.00
 0.95164440028000E-01 0.10000000000000E+01
 s    1 1.00
 0.48475401370000E-01 0.10000000000000E+01
 p    4 1.00
 0.34697232244000E+02 0.11327220003114E-01
 0.79582622826000E+01 0.76169659202087E-01
 0.23780826883000E+01 0.30192252202676E+00
 0.81433208183000E+00 0.72785027349547E+00
 p    1 1.00
 0.28887547253000E+00 0.10000000000000E+01
 p    1 1.00
 0.10056823671000E+00 0.10000000000000E+01
 d    1 1.00
 0.10970000000000E+01 0.10000000000000E+01
 d    1 1.00
 0.31800000000000E+00 0.10000000000000E+01
 d    1 1.00
 0.90985336424000E-01 0.10000000000000E+01
 f    1 1.00
 0.76100000000000E+00 0.10000000000000E+01
 
    5 0
 s    6 1.00
 0.13575349682000E+05 0.60645503603591E-03
 0.20352333680000E+04 0.46979088884982E-02
 0.46322562359000E+03 0.24332477647552E-01
 0.13120019598000E+03 0.97399968307759E-01
 0.42853015891000E+02 0.30195584253780E+00
 0.15584185766000E+02 0.66233609137875E+00
 s    2 1.00
 0.62067138508000E+01 0.65595308539952E+00
 0.25764896527000E+01 0.37585633285142E+00
 s    1 1.00
 0.57696339419000E+00 0.10000000000000E+01
 s    1 1.00
 0.22972831358000E+00 0.10000000000000E+01
 s    1 1.00
 0.95164440028000E-01 0.10000000000000E+01
 s    1 1.00
 0.48475401370000E-01 0.10000000000000E+01
 p    4 1.00
 0.34697232244000E+02 0.11327220003114E-01
 0.79582622826000E+01 0.76169659202087E-01
 0.23780826883000E+01 0.30192252202676E+00
 0.81433208183000E+00 0.72785027349547E+00
 p    1 1.00
 0.28887547253000E+00 0.10000000000000E+01
 p    1 1.00
 0.10056823671000E+00 0.10000000000000E+01
 d    1 1.00
 0.10970000000000E+01 0.10000000000000E+01
 d    1 1.00
 0.31800000000000E+00 0.10000000000000E+01
 d    1 1.00
 0.90985336424000E-01 0.10000000000000E+01
 f    1 1.00
 0.76100000000000E+00 0.10000000000000E+01
 
    6 0
 s    6 1.00
 0.13575349682000E+05 0.60645503603591E-03
 0.20352333680000E+04 0.46979088884982E-02
 0.46322562359000E+03 0.24332477647552E-01
 0.13120019598000E+03 0.97399968307759E-01
 0.42853015891000E+02 0.30195584253780E+00
 0.15584185766000E+02 0.66233609137875E+00
 s    2 1.00
 0.62067138508000E+01 0.65595308539952E+00
 0.25764896527000E+01 0.37585633285142E+00
 s    1 1.00
 0.57696339419000E+00 0.10000000000000E+01
 s    1 1.00
 0.22972831358000E+00 0.10000000000000E+01
 s    1 1.00
 0.95164440028000E-01 0.10000000000000E+01
 s    1 1.00
 0.48475401370000E-01 0.10000000000000E+01
 p    4 1.00
 0.34697232244000E+02 0.11327220003114E-01
 0.79582622826000E+01 0.76169659202087E-01
 0.23780826883000E+01 0.30192252202676E+00
 0.81433208183000E+00 0.72785027349547E+00
 p    1 1.00
 0.28887547253000E+00 0.10000000000000E+01
 p    1 1.00
 0.10056823671000E+00 0.10000000000000E+01
 d    1 1.00
 0.10970000000000E+01 0.10000000000000E+01
 d    1 1.00
 0.31800000000000E+00 0.10000000000000E+01
 d    1 1.00
 0.90985336424000E-01 0.10000000000000E+01
 f    1 1.00
 0.76100000000000E+00 0.10000000000000E+01
 
    7 0
 s    3 1.00
 0.34061341000000E+02 0.25439307208879E-01
 0.51235746000000E+01 0.19008594890375E+00
 0.11646626000000E+01 0.85244113011042E+00
 s    1 1.00
 0.32723041000000E+00 0.10000000000000E+01
 s    1 1.00
 0.10307241000000E+00 0.10000000000000E+01
 p    1 1.00
 0.80000000000000E+00 0.10000000000000E+01
 p    1 1.00
 0.95774129632000E-01 0.10000000000000E+01
 
    8 0
 s    3 1.00
 0.34061341000000E+02 0.25439307208879E-01
 0.51235746000000E+01 0.19008594890375E+00
 0.11646626000000E+01 0.85244113011042E+00
 s    1 1.00
 0.32723041000000E+00 0.10000000000000E+01
 s    1 1.00
 0.10307241000000E+00 0.10000000000000E+01
 p    1 1.00
 0.80000000000000E+00 0.10000000000000E+01
 p    1 1.00
 0.95774129632000E-01 0.10000000000000E+01
 
    9 0
 s    3 1.00
 0.34061341000000E+02 0.25439307208879E-01
 0.51235746000000E+01 0.19008594890375E+00
 0.11646626000000E+01 0.85244113011042E+00
 s    1 1.00
 0.32723041000000E+00 0.10000000000000E+01
 s    1 1.00
 0.10307241000000E+00 0.10000000000000E+01
 p    1 1.00
 0.80000000000000E+00 0.10000000000000E+01
 p    1 1.00
 0.95774129632000E-01 0.10000000000000E+01
 
   10 0
 s    3 1.00
 0.34061341000000E+02 0.25439307208879E-01
 0.51235746000000E+01 0.19008594890375E+00
 0.11646626000000E+01 0.85244113011042E+00
 s    1 1.00
 0.32723041000000E+00 0.10000000000000E+01
 s    1 1.00
 0.10307241000000E+00 0.10000000000000E+01
 p    1 1.00
 0.80000000000000E+00 0.10000000000000E+01
 p    1 1.00
 0.95774129632000E-01 0.10000000000000E+01
 
   11 0
 s    6 1.00
 0.19730800647000E+05 0.58626402628763E-03
 0.29578958745000E+04 0.45428820586397E-02
 0.67322133595000E+03 0.23558413450084E-01
 0.19068249494000E+03 0.94709193292923E-01
 0.62295441898000E+02 0.29719784913376E+00
 0.22654161182000E+02 0.66916246895232E+00
 s    2 1.00
 0.89791477428000E+01 0.64596683630063E+00
 0.36863002370000E+01 0.38700574393705E+00
 s    1 1.00
 0.84660076805000E+00 0.10000000000000E+01
 s    1 1.00
 0.33647133771000E+00 0.10000000000000E+01
 s    1 1.00
 0.13647653675000E+00 0.10000000000000E+01
 s    1 1.00
 0.68441605847000E-01 0.10000000000000E+01
 p    4 1.00
 0.49200380510000E+02 0.11448825101764E-01
 0.11346790537000E+02 0.78422337970864E-01
 0.34273972411000E+01 0.30818094738830E+00
 0.11785525134000E+01 0.72027196368413E+00
 p    1 1.00
 0.41642204972000E+00 0.10000000000000E+01
 p    1 1.00
 0.14260826011000E+00 0.10000000000000E+01
 d    1 1.00
 0.16540000000000E+01 0.10000000000000E+01
 d    1 1.00
 0.46900000000000E+00 0.10000000000000E+01
 d    1 1.00
 0.12829642058000E+00 0.10000000000000E+01
 f    1 1.00
 0.10930000000000E+01 0.10000000000000E+01
 
   12 0
 s    6 1.00
 0.27032382631000E+05 0.57227335211155E-03
 0.40523871392000E+04 0.44353233492995E-02
 0.92232722710000E+03 0.23020107706038E-01
 0.26124070989000E+03 0.92822490667928E-01
 0.85354641351000E+02 0.29378500009671E+00
 0.31035035245000E+02 0.67401604501641E+00
 s    2 1.00
 0.12260860728000E+02 0.63839937025506E+00
 0.49987076005000E+01 0.39534587125718E+00
 s    1 1.00
 0.11703108158000E+01 0.10000000000000E+01
 s    1 1.00
 0.46474740994000E+00 0.10000000000000E+01
 s    1 1.00
 0.18504536357000E+00 0.10000000000000E+01
 s    1 1.00
 0.70288026270000E-01 0.10000000000000E+01
 p    4 1.00
 0.63274954801000E+02 0.12018332222616E-01
 0.14627049379000E+02 0.83005421790056E-01
 0.44501223456000E+01 0.31991743925964E+00
 0.15275799647000E+01 0.70715542916104E+00
 p    1 1.00
 0.52935117943000E+00 0.10000000000000E+01
 p    1 1.00
 0.17478421270000E+00 0.10000000000000E+01
 p    1 1.00
 0.51112745706000E-01 0.10000000000000E+01
 d    1 1.00
 0.23140000000000E+01 0.10000000000000E+01
 d    1 1.00
 0.64500000000000E+00 0.10000000000000E+01
 d    1 1.00
 0.14696477366000E+00 0.10000000000000E+01
 f    1 1.00
 0.14280000000000E+01 0.10000000000000E+01
 
   13 0
 s    6 1.00
 0.27032382631000E+05 0.57227335211155E-03
 0.40523871392000E+04 0.44353233492995E-02
 0.92232722710000E+03 0.23020107706038E-01
 0.26124070989000E+03 0.92822490667928E-01
 0.85354641351000E+02 0.29378500009671E+00
 0.31035035245000E+02 0.67401604501641E+00
 s    2 1.00
 0.12260860728000E+02 0.63839937025506E+00
 0.49987076005000E+01 0.39534587125718E+00
 s    1 1.00
 0.11703108158000E+01 0.10000000000000E+01
 s    1 1.00
 0.46474740994000E+00 0.10000000000000E+01
 s    1 1.00
 0.18504536357000E+00 0.10000000000000E+01
 s    1 1.00
 0.70288026270000E-01 0.10000000000000E+01
 p    4 1.00
 0.63274954801000E+02 0.12018332222616E-01
 0.14627049379000E+02 0.83005421790056E-01
 0.44501223456000E+01 0.31991743925964E+00
 0.15275799647000E+01 0.70715542916104E+00
 p    1 1.00
 0.52935117943000E+00 0.10000000000000E+01
 p    1 1.00
 0.17478421270000E+00 0.10000000000000E+01
 p    1 1.00
 0.51112745706000E-01 0.10000000000000E+01
 d    1 1.00
 0.23140000000000E+01 0.10000000000000E+01
 d    1 1.00
 0.64500000000000E+00 0.10000000000000E+01
 d    1 1.00
 0.14696477366000E+00 0.10000000000000E+01
 f    1 1.00
 0.14280000000000E+01 0.10000000000000E+01
 
   14 0
 s    6 1.00
 0.19730800647000E+05 0.58626402628763E-03
 0.29578958745000E+04 0.45428820586397E-02
 0.67322133595000E+03 0.23558413450084E-01
 0.19068249494000E+03 0.94709193292923E-01
 0.62295441898000E+02 0.29719784913376E+00
 0.22654161182000E+02 0.66916246895232E+00
 s    2 1.00
 0.89791477428000E+01 0.64596683630063E+00
 0.36863002370000E+01 0.38700574393705E+00
 s    1 1.00
 0.84660076805000E+00 0.10000000000000E+01
 s    1 1.00
 0.33647133771000E+00 0.10000000000000E+01
 s    1 1.00
 0.13647653675000E+00 0.10000000000000E+01
 s    1 1.00
 0.68441605847000E-01 0.10000000000000E+01
 p    4 1.00
 0.49200380510000E+02 0.11448825101764E-01
 0.11346790537000E+02 0.78422337970864E-01
 0.34273972411000E+01 0.30818094738830E+00
 0.11785525134000E+01 0.72027196368413E+00
 p    1 1.00
 0.41642204972000E+00 0.10000000000000E+01
 p    1 1.00
 0.14260826011000E+00 0.10000000000000E+01
 d    1 1.00
 0.16540000000000E+01 0.10000000000000E+01
 d    1 1.00
 0.46900000000000E+00 0.10000000000000E+01
 d    1 1.00
 0.12829642058000E+00 0.10000000000000E+01
 f    1 1.00
 0.10930000000000E+01 0.10000000000000E+01
 
   15 0
 s    3 1.00
 0.34061341000000E+02 0.25439307208879E-01
 0.51235746000000E+01 0.19008594890375E+00
 0.11646626000000E+01 0.85244113011042E+00
 s    1 1.00
 0.32723041000000E+00 0.10000000000000E+01
 s    1 1.00
 0.10307241000000E+00 0.10000000000000E+01
 p    1 1.00
 0.80000000000000E+00 0.10000000000000E+01
 p    1 1.00
 0.95774129632000E-01 0.10000000000000E+01
 
   16 0
 s    3 1.00
 0.34061341000000E+02 0.25439307208879E-01
 0.51235746000000E+01 0.19008594890375E+00
 0.11646626000000E+01 0.85244113011042E+00
 s    1 1.00
 0.32723041000000E+00 0.10000000000000E+01
 s    1 1.00
 0.10307241000000E+00 0.10000000000000E+01
 p    1 1.00
 0.80000000000000E+00 0.10000000000000E+01
 p    1 1.00
 0.95774129632000E-01 0.10000000000000E+01
 
[MO]
 Sym= X
 Ene= -0.945471
 Spin= Alpha
 Occup= -0.945471
         1    2.116628E-04
         2    4.943294E-04
         3   -1.573065E-03
         4    4.622967E-03
         5   -2.821772E-02
         6    1.563223E-02
         7    2.204970E-03
         8    1.404679E-04
         9   -3.591127E-02
        10   -3.758803E-03
        11    5.556742E-04
        12   -3.401714E-02
        13   -3.858936E-02
        14    1.814134E-02
        15   -1.729355E-02
        16   -1.924603E-06
        17    2.187896E-05
        18   -1.995436E-05
        19    6.083413E-06
        20   -6.287458E-03
        21    4.003401E-03
        22    9.440214E-04
        23   -5.477537E-04
        24   -3.962677E-04
        25    9.449969E-04
        26   -1.426494E-02
        27    7.506132E-03
        28    3.960440E-03
        29   -3.720545E-03
        30   -2.398948E-04
        31   -1.919305E-03
        32    3.219020E-03
        33   -8.877399E-03
        34   -3.094459E-05
        35    5.967821E-06
        36    1.533928E-04
        37    1.523188E-05
        38   -4.024407E-06
        39    6.951090E-04
        40    2.628464E-05
        41   -3.982265E-06
        42   -9.009071E-04
        43    7.098476E-04
        44   -2.997713E-05
        45   -6.418663E-05
        46   -2.263518E-04
        47    4.225002E-03
        48    7.261984E-02
        49   -7.616621E-03
        50    1.406283E-04
        51    1.230263E-06
        52   -2.079430E-01
        53   -8.833734E-04
        54    9.444263E-06
        55   -2.152662E-01
        56   -1.764441E-02
        57   -3.077526E-04
        58   -1.923679E-01
        59   -6.678827E-05
        60    6.155711E-05
        61    5.231167E-06
        62   -7.102822E-08
        63   -2.291139E-04
        64    3.770676E-07
        65   -5.186160E-04
        66    8.643554E-04
        67   -3.457394E-04
        68   -1.832082E-06
        69   -2.211875E-03
        70    3.278904E-07
        71   -1.622132E-02
        72    1.827353E-02
        73   -2.052209E-03
        74    5.866556E-05
        75    4.126003E-03
        76   -1.876363E-05
        77    8.347925E-06
        78    2.314336E-08
        79    1.185222E-03
        80   -8.393015E-06
        81    1.394939E-08
        82   -6.675573E-04
        83   -2.806901E-06
        84   -4.499947E-08
        85   -9.225853E-04
        86   -3.262780E-08
        87    2.118328E-04
        88    4.946963E-04
        89   -1.573396E-03
        90    4.621756E-03
        91   -2.897579E-02
        92    1.562647E-02
        93    2.205990E-03
        94   -1.416297E-04
        95   -3.592874E-02
        96   -3.736762E-03
        97   -5.522499E-04
        98   -3.403514E-02
        99   -3.872805E-02
       100   -1.841915E-02
       101   -1.732372E-02
       102   -2.012822E-06
       103    2.190779E-05
       104   -1.989497E-05
       105   -6.195743E-06
       106   -6.287153E-03
       107   -4.003520E-03
       108    9.396798E-04
       109   -5.436624E-04
       110   -3.960173E-04
       111   -9.435711E-04
       112   -1.426379E-02
       113   -7.505970E-03
       114    4.025275E-03
       115   -3.792519E-03
       116   -2.327558E-04
       117    1.857760E-03
       118    3.198284E-03
       119    8.863168E-03
       120   -3.093390E-05
       121   -5.945041E-06
       122    1.534943E-04
       123    1.528868E-05
       124    3.997895E-06
       125    6.950044E-04
       126    2.621350E-05
       127    3.978214E-06
       128   -9.009386E-04
       129   -7.098348E-04
       130   -1.245607E-04
       131   -2.672655E-04
       132   -7.346344E-04
       133    1.272426E-02
       134   -7.161890E-03
       135   -1.890236E-02
       136   -1.771550E-03
       137    6.437763E-04
       138    1.567075E-01
       139   -1.253777E-02
       140    8.051236E-03
       141    1.590483E-01
       142   -1.452023E-02
       143   -1.021505E-02
       144    9.930451E-02
       145   -1.725395E-04
       146    2.048699E-04
       147   -3.233039E-05
       148   -3.323269E-06
       149   -1.479372E-03
       150    3.430870E-03
       151   -9.895093E-04
       152    1.047455E-03
       153   -5.794563E-05
       154   -2.186419E-03
       155   -5.579650E-03
       156    5.680602E-03
       157   -9.839537E-03
       158    7.283921E-03
       159    2.555615E-03
       160    1.549981E-02
       161    4.016614E-03
       162   -1.005936E-02
       163   -2.598748E-05
       164    8.698797E-06
       165   -9.140240E-04
       166   -1.895785E-05
       167    2.679324E-05
       168    1.910753E-04
       169    5.382371E-05
       170   -3.846390E-05
       171    1.035217E-03
       172   -4.152617E-04
       173    1.328626E-03
       174    3.031380E-03
       175   -2.832698E-03
       176   -2.985459E-02
       177    6.054079E-02
       178   -8.953712E-03
       179    1.036878E-02
       180   -1.400364E-06
       181    1.413750E-01
       182   -3.135039E-04
       183   -5.267825E-06
       184    1.439656E-01
       185   -5.538240E-02
       186    4.341371E-04
       187    1.361820E-01
       188   -6.111598E-04
       189    3.375442E-04
       190    2.736156E-04
       191   -1.603388E-07
       192    9.097095E-03
       193    4.334442E-07
       194    2.376848E-03
       195   -5.334000E-03
       196    2.957152E-03
       197   -9.514799E-07
       198    2.288427E-02
       199   -9.458941E-07
       200    1.032205E-02
       201   -1.145978E-02
       202    1.137728E-03
       203    9.536803E-05
       204    1.445777E-02
       205    1.521085E-05
       206    1.433588E-04
       207    7.640962E-09
       208   -5.537623E-04
       209   -1.081339E-04
       210   -2.720902E-08
       211   -8.128468E-04
       212   -8.420214E-05
       213    1.695760E-08
       214    1.555797E-03
       215   -5.988443E-11
       216   -1.248720E-04
       217   -2.679295E-04
       218   -7.327240E-04
       219    1.272152E-02
       220   -8.172760E-03
       221   -1.888970E-02
       222   -1.770814E-03
       223   -6.404233E-04
       224    1.567228E-01
       225   -1.254862E-02
       226   -8.051442E-03
       227    1.590676E-01
       228   -1.436743E-02
       229    1.064237E-02
       230    9.928823E-02
       231   -1.724471E-04
       232    2.049948E-04
       233   -3.254763E-05
       234    3.113954E-06
       235   -1.479012E-03
       236   -3.430941E-03
       237   -9.932958E-04
       238    1.050610E-03
       239   -5.731466E-05
       240    2.187331E-03
       241   -5.578797E-03
       242   -5.681019E-03
       243   -9.782448E-03
       244    7.226294E-03
       245    2.556154E-03
       246   -1.556551E-02
       247    4.039603E-03
       248    1.007979E-02
       249   -2.607505E-05
       250   -8.731191E-06
       251   -9.142066E-04
       252   -1.897090E-05
       253   -2.674012E-05
       254    1.912534E-04
       255    5.395425E-05
       256    3.845424E-05
       257    1.035283E-03
       258    4.152899E-04
       259    4.449936E-04
       260    1.124499E-04
       261    2.092023E-02
       262   -8.769485E-06
       263    2.117956E-05
       264   -1.453630E-03
       265   -6.693174E-03
       266   -9.210001E-04
       267    4.566858E-03
       268    4.459423E-04
       269    1.100574E-04
       270    2.091832E-02
       271   -8.396758E-06
       272   -2.159291E-05
       273   -1.454331E-03
       274   -6.755148E-03
       275    8.975329E-04
       276    4.566236E-03
       277    4.978189E-04
       278    3.134002E-03
       279   -4.847727E-02
       280   -2.578149E-05
       281    1.291438E-04
       282    6.405651E-03
       283   -9.360373E-04
       284   -4.296874E-03
       285    1.316958E-03
       286    5.000819E-04
       287    3.133642E-03
       288   -4.859105E-02
       289   -2.566783E-05
       290   -1.290559E-04
       291    6.406450E-03
       292   -9.075130E-04
       293    4.322888E-03
       294    1.311400E-03
       295    6.193905E-05
       296    1.447077E-04
       297   -1.491041E-04
       298   -3.119861E-04
       299    9.983355E-03
       300    4.883799E-04
       301    8.221573E-04
       302   -6.034218E-07
       303   -1.461408E-02
       304    3.615086E-04
       305   -6.058236E-07
       306   -1.676228E-02
       307   -3.654602E-03
       308   -6.264916E-07
       309   -3.515076E-03
       310   -4.380728E-05
       311    3.051161E-05
       312    1.329567E-05
       313   -6.377453E-08
       314    4.185892E-03
       315   -1.655562E-08
       316   -6.241659E-05
       317   -1.438110E-05
       318    7.679769E-05
       319   -1.271753E-07
       320    1.256988E-02
       321   -1.072402E-08
       322    6.443645E-04
       323   -3.600140E-03
       324    2.955776E-03
       325   -7.829650E-06
       326    3.434265E-03
       327    3.700103E-06
       328    8.941008E-06
       329    1.411810E-08
       330    2.320780E-05
       331   -5.366240E-06
       332   -8.273270E-09
       333   -6.962507E-04
       334   -6.629381E-06
       335   -1.066814E-08
       336    6.651142E-04
       337   -4.029182E-09
       338    1.562652E-05
       339    3.314264E-05
       340    1.164912E-05
       341   -7.203340E-04
       342    8.241230E-03
       343    1.711754E-03
       344   -7.507897E-04
       345    8.621367E-05
       346    7.061508E-02
       347   -8.445826E-04
       348    2.494629E-04
       349    6.550934E-02
       350   -1.852265E-03
       351    7.904400E-04
       352    5.184797E-02
       353   -3.819793E-04
       354    2.872261E-04
       355    5.916152E-03
       356   -3.166753E-06
       357    6.374058E-06
       358   -3.207304E-06
       359   -5.336481E-06
       360   -2.397919E-06
       361    4.747537E-04
       362    1.827124E-05
       363    1.242804E-05
       364   -3.069928E-05
       365   -2.275214E-05
       366   -5.213605E-04
       367    1.544191E-03
       368    8.184959E-05
       369   -6.804257E-06
       370   -7.504533E-05
       371   -7.838566E-07
       372   -7.117782E-04
       373    2.706967E-04
       374    1.505309E-06
       375    1.690946E-06
       376   -5.831884E-05
       377   -2.630345E-06
       378    6.501099E-07
       379   -8.597133E-05
       380    6.107610E-07
       381   -2.918751E-06
       382    1.642143E-04
       383   -1.272992E-04
       384    1.562978E-05
       385    3.316049E-05
       386    1.153656E-05
       387   -7.198664E-04
       388    8.248748E-03
       389    1.698590E-03
       390   -7.517212E-04
       391   -8.273996E-05
       392    7.061384E-02
       393   -8.455829E-04
       394   -2.464415E-04
       395    6.550859E-02
       396   -1.847240E-03
       397   -7.915968E-04
       398    5.184075E-02
       399   -3.758426E-04
       400   -2.896725E-04
       401    5.916574E-03
       402   -3.134364E-06
       403    6.312740E-06
       404   -3.178376E-06
       405    5.330745E-06
       406   -2.416852E-06
       407   -4.747574E-04
       408    1.824712E-05
       409    1.234701E-05
       410   -3.059413E-05
       411    2.264995E-05
       412   -5.212813E-04
       413   -1.544030E-03
       414    8.242620E-05
       415   -7.501088E-06
       416   -7.492511E-05
       417    1.459606E-06
       418   -7.116638E-04
       419   -2.698344E-04
       420    1.498626E-06
       421   -1.675095E-06
       422   -5.832136E-05
       423   -2.615985E-06
       424   -6.553562E-07
       425   -8.596269E-05
       426    6.053667E-07
       427    2.902732E-06
       428    1.642090E-04
       429    1.272938E-04
       430   -6.208484E-03
       431   -1.476522E-02
       432    2.302437E-02
       433    3.793459E-02
       434    1.432420E-02
       435    8.828909E-02
       436   -2.214369E-02
       437    4.477082E-06
       438   -2.263131E-01
       439   -2.551125E-02
       440    1.128151E-06
       441   -2.233851E-01
       442   -2.861040E-02
       443   -4.023270E-05
       444   -1.869297E-01
       445    1.767394E-04
       446    1.127816E-05
       447   -1.880176E-04
       448   -9.438718E-08
       449    1.293412E-03
       450    1.591538E-07
       451    3.949452E-04
       452    2.018084E-03
       453   -2.413029E-03
       454    1.355613E-06
       455    4.652414E-03
       456    7.642763E-07
       457    3.360064E-03
       458    5.001673E-03
       459   -8.361737E-03
       460    3.077547E-06
       461    2.768721E-03
       462    3.511728E-06
       463   -1.968683E-04
       464    2.586247E-08
       465    7.932849E-04
       466   -1.081690E-04
       467    8.521661E-09
       468   -3.301458E-04
       469    3.722956E-04
       470   -4.321981E-08
       471   -7.341576E-04
       472    5.788183E-09
       473   -1.301768E-02
       474   -2.496446E-02
       475   -4.697072E-02
       476   -2.850946E-03
       477   -2.509415E-03
       478   -1.146139E-02
       479    7.307300E-04
       480   -5.295205E-03
       481   -1.451557E-02
       482   -1.301480E-02
       483   -2.493521E-02
       484   -4.683656E-02
       485   -2.849232E-03
       486    2.507004E-03
       487   -1.146345E-02
       488    7.565989E-04
       489    5.281795E-03
       490   -1.452443E-02
 Sym= X
 Ene= 0.945471
 Spin= Alpha
 Occup= 0.945471
         1   -3.328456E-03
         2   -7.533019E-03
         3    8.120736E-03
         4    2.391437E-02
         5    3.394313E+00
         6    1.105725E+00
         7    2.308576E-02
         8    3.572478E-02
         9    1.311191E-03
        10   -9.540569E-03
        11    1.167429E-01
        12    7.847365E-05
        13   -9.973718E-01
        14   -2.239669E+00
        15    1.625697E-01
        16    2.040202E-03
        17   -4.696076E-03
        18    2.655874E-03
        19   -2.106545E-03
        20   -1.432123E-04
        21   -3.279631E-04
        22   -7.257959E-03
        23   -1.803169E-03
        24    9.061128E-03
        25    1.199489E-02
        26   -1.786036E-04
        27   -1.091193E-03
        28   -3.501343E-02
        29   -1.162301E-01
        30    1.512436E-01
        31   -8.150227E-01
        32   -2.054536E-02
        33    6.388002E-02
        34   -1.409510E-04
        35    3.263742E-04
        36    5.798248E-05
        37    5.005273E-04
        38    2.886552E-04
        39   -1.043241E-04
        40   -3.114217E-04
        41   -7.265321E-04
        42    2.653248E-05
        43   -3.070440E-05
        44    2.021466E-03
        45    4.206464E-03
        46   -2.686241E-03
        47   -1.006375E-01
        48   -6.879518E+00
        49    4.056069E+00
        50    4.457446E-02
        51    3.879638E-05
        52    1.133887E-02
        53    6.792303E-03
        54    3.171435E-05
        55    1.435048E-02
        56    2.360929E+00
        57   -4.336854E-02
        58    9.692250E-02
        59   -5.134537E-03
        60    1.201980E-03
        61    3.932556E-03
        62   -3.495297E-06