[Molden Format]
[Title]
ADC(2) - opt by CAM-B3LYP gaussian                                              
[Atoms] AU
 c     1    6 0.12593230616935E+01 0.22795690751954E+01 -.36278607975490E-01
 c     2    6 0.25504236399298E+01 0.18897261300000E-05 -.34511714041240E-01
 c     3    6 0.12593268411458E+01 -.22795652957431E+01 -.36289946332290E-01
 c     4    6 -.13369660030996E+01 -.22791608943507E+01 -.39583738981910E-01
 c     5    6 -.26856068523561E+01 -.18897261300000E-05 -.40110972572980E-01
 c     6    6 -.13369678928258E+01 0.22791590046246E+01 -.39570510898980E-01
 h     7    1 0.23068095955089E+01 0.40296066523382E+01 -.33243707806080E-01
 h     8    1 0.23068152646873E+01 -.40296028728859E+01 -.33262605067400E-01
 h     9    1 -.23553205188504E+01 -.40525668248527E+01 -.45200005048840E-01
 h    10    1 -.23553280777549E+01 0.40525630454004E+01 -.45173548882980E-01
 n    11    7 0.52878147756133E+01 0.00000000000000E+00 -.27472484196240E-01
 o    12    8 0.63764576548767E+01 -.20283488830896E+01 -.24482937454020E-01
 o    13    8 0.63764614343290E+01 0.20283469933635E+01 -.24515062798280E-01
 n    14    7 -.52636676188715E+01 0.00000000000000E+00 -.10786332361533E+00
 h    15    1 -.61947904866021E+01 -.16076731691957E+01 0.28377485852069E+00
 h    16    1 -.61947848174237E+01 0.16076731691957E+01 0.28378430715135E+00
[GTO]
    1 0
 s    6 1.00
 0.13575349682000E+05 0.60645503603591E-03
 0.20352333680000E+04 0.46979088884982E-02
 0.46322562359000E+03 0.24332477647552E-01
 0.13120019598000E+03 0.97399968307759E-01
 0.42853015891000E+02 0.30195584253780E+00
 0.15584185766000E+02 0.66233609137875E+00
 s    2 1.00
 0.62067138508000E+01 0.65595308539952E+00
 0.25764896527000E+01 0.37585633285142E+00
 s    1 1.00
 0.57696339419000E+00 0.10000000000000E+01
 s    1 1.00
 0.22972831358000E+00 0.10000000000000E+01
 s    1 1.00
 0.95164440028000E-01 0.10000000000000E+01
 s    1 1.00
 0.48475401370000E-01 0.10000000000000E+01
 p    4 1.00
 0.34697232244000E+02 0.11327220003114E-01
 0.79582622826000E+01 0.76169659202087E-01
 0.23780826883000E+01 0.30192252202676E+00
 0.81433208183000E+00 0.72785027349547E+00
 p    1 1.00
 0.28887547253000E+00 0.10000000000000E+01
 p    1 1.00
 0.10056823671000E+00 0.10000000000000E+01
 d    1 1.00
 0.10970000000000E+01 0.10000000000000E+01
 d    1 1.00
 0.31800000000000E+00 0.10000000000000E+01
 d    1 1.00
 0.90985336424000E-01 0.10000000000000E+01
 f    1 1.00
 0.76100000000000E+00 0.10000000000000E+01
 
    2 0
 s    6 1.00
 0.13575349682000E+05 0.60645503603591E-03
 0.20352333680000E+04 0.46979088884982E-02
 0.46322562359000E+03 0.24332477647552E-01
 0.13120019598000E+03 0.97399968307759E-01
 0.42853015891000E+02 0.30195584253780E+00
 0.15584185766000E+02 0.66233609137875E+00
 s    2 1.00
 0.62067138508000E+01 0.65595308539952E+00
 0.25764896527000E+01 0.37585633285142E+00
 s    1 1.00
 0.57696339419000E+00 0.10000000000000E+01
 s    1 1.00
 0.22972831358000E+00 0.10000000000000E+01
 s    1 1.00
 0.95164440028000E-01 0.10000000000000E+01
 s    1 1.00
 0.48475401370000E-01 0.10000000000000E+01
 p    4 1.00
 0.34697232244000E+02 0.11327220003114E-01
 0.79582622826000E+01 0.76169659202087E-01
 0.23780826883000E+01 0.30192252202676E+00
 0.81433208183000E+00 0.72785027349547E+00
 p    1 1.00
 0.28887547253000E+00 0.10000000000000E+01
 p    1 1.00
 0.10056823671000E+00 0.10000000000000E+01
 d    1 1.00
 0.10970000000000E+01 0.10000000000000E+01
 d    1 1.00
 0.31800000000000E+00 0.10000000000000E+01
 d    1 1.00
 0.90985336424000E-01 0.10000000000000E+01
 f    1 1.00
 0.76100000000000E+00 0.10000000000000E+01
 
    3 0
 s    6 1.00
 0.13575349682000E+05 0.60645503603591E-03
 0.20352333680000E+04 0.46979088884982E-02
 0.46322562359000E+03 0.24332477647552E-01
 0.13120019598000E+03 0.97399968307759E-01
 0.42853015891000E+02 0.30195584253780E+00
 0.15584185766000E+02 0.66233609137875E+00
 s    2 1.00
 0.62067138508000E+01 0.65595308539952E+00
 0.25764896527000E+01 0.37585633285142E+00
 s    1 1.00
 0.57696339419000E+00 0.10000000000000E+01
 s    1 1.00
 0.22972831358000E+00 0.10000000000000E+01
 s    1 1.00
 0.95164440028000E-01 0.10000000000000E+01
 s    1 1.00
 0.48475401370000E-01 0.10000000000000E+01
 p    4 1.00
 0.34697232244000E+02 0.11327220003114E-01
 0.79582622826000E+01 0.76169659202087E-01
 0.23780826883000E+01 0.30192252202676E+00
 0.81433208183000E+00 0.72785027349547E+00
 p    1 1.00
 0.28887547253000E+00 0.10000000000000E+01
 p    1 1.00
 0.10056823671000E+00 0.10000000000000E+01
 d    1 1.00
 0.10970000000000E+01 0.10000000000000E+01
 d    1 1.00
 0.31800000000000E+00 0.10000000000000E+01
 d    1 1.00
 0.90985336424000E-01 0.10000000000000E+01
 f    1 1.00
 0.76100000000000E+00 0.10000000000000E+01
 
    4 0
 s    6 1.00
 0.13575349682000E+05 0.60645503603591E-03
 0.20352333680000E+04 0.46979088884982E-02
 0.46322562359000E+03 0.24332477647552E-01
 0.13120019598000E+03 0.97399968307759E-01
 0.42853015891000E+02 0.30195584253780E+00
 0.15584185766000E+02 0.66233609137875E+00
 s    2 1.00
 0.62067138508000E+01 0.65595308539952E+00
 0.25764896527000E+01 0.37585633285142E+00
 s    1 1.00
 0.57696339419000E+00 0.10000000000000E+01
 s    1 1.00
 0.22972831358000E+00 0.10000000000000E+01
 s    1 1.00
 0.95164440028000E-01 0.10000000000000E+01
 s    1 1.00
 0.48475401370000E-01 0.10000000000000E+01
 p    4 1.00
 0.34697232244000E+02 0.11327220003114E-01
 0.79582622826000E+01 0.76169659202087E-01
 0.23780826883000E+01 0.30192252202676E+00
 0.81433208183000E+00 0.72785027349547E+00
 p    1 1.00
 0.28887547253000E+00 0.10000000000000E+01
 p    1 1.00
 0.10056823671000E+00 0.10000000000000E+01
 d    1 1.00
 0.10970000000000E+01 0.10000000000000E+01
 d    1 1.00
 0.31800000000000E+00 0.10000000000000E+01
 d    1 1.00
 0.90985336424000E-01 0.10000000000000E+01
 f    1 1.00
 0.76100000000000E+00 0.10000000000000E+01
 
    5 0
 s    6 1.00
 0.13575349682000E+05 0.60645503603591E-03
 0.20352333680000E+04 0.46979088884982E-02
 0.46322562359000E+03 0.24332477647552E-01
 0.13120019598000E+03 0.97399968307759E-01
 0.42853015891000E+02 0.30195584253780E+00
 0.15584185766000E+02 0.66233609137875E+00
 s    2 1.00
 0.62067138508000E+01 0.65595308539952E+00
 0.25764896527000E+01 0.37585633285142E+00
 s    1 1.00
 0.57696339419000E+00 0.10000000000000E+01
 s    1 1.00
 0.22972831358000E+00 0.10000000000000E+01
 s    1 1.00
 0.95164440028000E-01 0.10000000000000E+01
 s    1 1.00
 0.48475401370000E-01 0.10000000000000E+01
 p    4 1.00
 0.34697232244000E+02 0.11327220003114E-01
 0.79582622826000E+01 0.76169659202087E-01
 0.23780826883000E+01 0.30192252202676E+00
 0.81433208183000E+00 0.72785027349547E+00
 p    1 1.00
 0.28887547253000E+00 0.10000000000000E+01
 p    1 1.00
 0.10056823671000E+00 0.10000000000000E+01
 d    1 1.00
 0.10970000000000E+01 0.10000000000000E+01
 d    1 1.00
 0.31800000000000E+00 0.10000000000000E+01
 d    1 1.00
 0.90985336424000E-01 0.10000000000000E+01
 f    1 1.00
 0.76100000000000E+00 0.10000000000000E+01
 
    6 0
 s    6 1.00
 0.13575349682000E+05 0.60645503603591E-03
 0.20352333680000E+04 0.46979088884982E-02
 0.46322562359000E+03 0.24332477647552E-01
 0.13120019598000E+03 0.97399968307759E-01
 0.42853015891000E+02 0.30195584253780E+00
 0.15584185766000E+02 0.66233609137875E+00
 s    2 1.00
 0.62067138508000E+01 0.65595308539952E+00
 0.25764896527000E+01 0.37585633285142E+00
 s    1 1.00
 0.57696339419000E+00 0.10000000000000E+01
 s    1 1.00
 0.22972831358000E+00 0.10000000000000E+01
 s    1 1.00
 0.95164440028000E-01 0.10000000000000E+01
 s    1 1.00
 0.48475401370000E-01 0.10000000000000E+01
 p    4 1.00
 0.34697232244000E+02 0.11327220003114E-01
 0.79582622826000E+01 0.76169659202087E-01
 0.23780826883000E+01 0.30192252202676E+00
 0.81433208183000E+00 0.72785027349547E+00
 p    1 1.00
 0.28887547253000E+00 0.10000000000000E+01
 p    1 1.00
 0.10056823671000E+00 0.10000000000000E+01
 d    1 1.00
 0.10970000000000E+01 0.10000000000000E+01
 d    1 1.00
 0.31800000000000E+00 0.10000000000000E+01
 d    1 1.00
 0.90985336424000E-01 0.10000000000000E+01
 f    1 1.00
 0.76100000000000E+00 0.10000000000000E+01
 
    7 0
 s    3 1.00
 0.34061341000000E+02 0.25439307208879E-01
 0.51235746000000E+01 0.19008594890375E+00
 0.11646626000000E+01 0.85244113011042E+00
 s    1 1.00
 0.32723041000000E+00 0.10000000000000E+01
 s    1 1.00
 0.10307241000000E+00 0.10000000000000E+01
 p    1 1.00
 0.80000000000000E+00 0.10000000000000E+01
 p    1 1.00
 0.95774129632000E-01 0.10000000000000E+01
 
    8 0
 s    3 1.00
 0.34061341000000E+02 0.25439307208879E-01
 0.51235746000000E+01 0.19008594890375E+00
 0.11646626000000E+01 0.85244113011042E+00
 s    1 1.00
 0.32723041000000E+00 0.10000000000000E+01
 s    1 1.00
 0.10307241000000E+00 0.10000000000000E+01
 p    1 1.00
 0.80000000000000E+00 0.10000000000000E+01
 p    1 1.00
 0.95774129632000E-01 0.10000000000000E+01
 
    9 0
 s    3 1.00
 0.34061341000000E+02 0.25439307208879E-01
 0.51235746000000E+01 0.19008594890375E+00
 0.11646626000000E+01 0.85244113011042E+00
 s    1 1.00
 0.32723041000000E+00 0.10000000000000E+01
 s    1 1.00
 0.10307241000000E+00 0.10000000000000E+01
 p    1 1.00
 0.80000000000000E+00 0.10000000000000E+01
 p    1 1.00
 0.95774129632000E-01 0.10000000000000E+01
 
   10 0
 s    3 1.00
 0.34061341000000E+02 0.25439307208879E-01
 0.51235746000000E+01 0.19008594890375E+00
 0.11646626000000E+01 0.85244113011042E+00
 s    1 1.00
 0.32723041000000E+00 0.10000000000000E+01
 s    1 1.00
 0.10307241000000E+00 0.10000000000000E+01
 p    1 1.00
 0.80000000000000E+00 0.10000000000000E+01
 p    1 1.00
 0.95774129632000E-01 0.10000000000000E+01
 
   11 0
 s    6 1.00
 0.19730800647000E+05 0.58626402628763E-03
 0.29578958745000E+04 0.45428820586397E-02
 0.67322133595000E+03 0.23558413450084E-01
 0.19068249494000E+03 0.94709193292923E-01
 0.62295441898000E+02 0.29719784913376E+00
 0.22654161182000E+02 0.66916246895232E+00
 s    2 1.00
 0.89791477428000E+01 0.64596683630063E+00
 0.36863002370000E+01 0.38700574393705E+00
 s    1 1.00
 0.84660076805000E+00 0.10000000000000E+01
 s    1 1.00
 0.33647133771000E+00 0.10000000000000E+01
 s    1 1.00
 0.13647653675000E+00 0.10000000000000E+01
 s    1 1.00
 0.68441605847000E-01 0.10000000000000E+01
 p    4 1.00
 0.49200380510000E+02 0.11448825101764E-01
 0.11346790537000E+02 0.78422337970864E-01
 0.34273972411000E+01 0.30818094738830E+00
 0.11785525134000E+01 0.72027196368413E+00
 p    1 1.00
 0.41642204972000E+00 0.10000000000000E+01
 p    1 1.00
 0.14260826011000E+00 0.10000000000000E+01
 d    1 1.00
 0.16540000000000E+01 0.10000000000000E+01
 d    1 1.00
 0.46900000000000E+00 0.10000000000000E+01
 d    1 1.00
 0.12829642058000E+00 0.10000000000000E+01
 f    1 1.00
 0.10930000000000E+01 0.10000000000000E+01
 
   12 0
 s    6 1.00
 0.27032382631000E+05 0.57227335211155E-03
 0.40523871392000E+04 0.44353233492995E-02
 0.92232722710000E+03 0.23020107706038E-01
 0.26124070989000E+03 0.92822490667928E-01
 0.85354641351000E+02 0.29378500009671E+00
 0.31035035245000E+02 0.67401604501641E+00
 s    2 1.00
 0.12260860728000E+02 0.63839937025506E+00
 0.49987076005000E+01 0.39534587125718E+00
 s    1 1.00
 0.11703108158000E+01 0.10000000000000E+01
 s    1 1.00
 0.46474740994000E+00 0.10000000000000E+01
 s    1 1.00
 0.18504536357000E+00 0.10000000000000E+01
 s    1 1.00
 0.70288026270000E-01 0.10000000000000E+01
 p    4 1.00
 0.63274954801000E+02 0.12018332222616E-01
 0.14627049379000E+02 0.83005421790056E-01
 0.44501223456000E+01 0.31991743925964E+00
 0.15275799647000E+01 0.70715542916104E+00
 p    1 1.00
 0.52935117943000E+00 0.10000000000000E+01
 p    1 1.00
 0.17478421270000E+00 0.10000000000000E+01
 p    1 1.00
 0.51112745706000E-01 0.10000000000000E+01
 d    1 1.00
 0.23140000000000E+01 0.10000000000000E+01
 d    1 1.00
 0.64500000000000E+00 0.10000000000000E+01
 d    1 1.00
 0.14696477366000E+00 0.10000000000000E+01
 f    1 1.00
 0.14280000000000E+01 0.10000000000000E+01
 
   13 0
 s    6 1.00
 0.27032382631000E+05 0.57227335211155E-03
 0.40523871392000E+04 0.44353233492995E-02
 0.92232722710000E+03 0.23020107706038E-01
 0.26124070989000E+03 0.92822490667928E-01
 0.85354641351000E+02 0.29378500009671E+00
 0.31035035245000E+02 0.67401604501641E+00
 s    2 1.00
 0.12260860728000E+02 0.63839937025506E+00
 0.49987076005000E+01 0.39534587125718E+00
 s    1 1.00
 0.11703108158000E+01 0.10000000000000E+01
 s    1 1.00
 0.46474740994000E+00 0.10000000000000E+01
 s    1 1.00
 0.18504536357000E+00 0.10000000000000E+01
 s    1 1.00
 0.70288026270000E-01 0.10000000000000E+01
 p    4 1.00
 0.63274954801000E+02 0.12018332222616E-01
 0.14627049379000E+02 0.83005421790056E-01
 0.44501223456000E+01 0.31991743925964E+00
 0.15275799647000E+01 0.70715542916104E+00
 p    1 1.00
 0.52935117943000E+00 0.10000000000000E+01
 p    1 1.00
 0.17478421270000E+00 0.10000000000000E+01
 p    1 1.00
 0.51112745706000E-01 0.10000000000000E+01
 d    1 1.00
 0.23140000000000E+01 0.10000000000000E+01
 d    1 1.00
 0.64500000000000E+00 0.10000000000000E+01
 d    1 1.00
 0.14696477366000E+00 0.10000000000000E+01
 f    1 1.00
 0.14280000000000E+01 0.10000000000000E+01
 
   14 0
 s    6 1.00
 0.19730800647000E+05 0.58626402628763E-03
 0.29578958745000E+04 0.45428820586397E-02
 0.67322133595000E+03 0.23558413450084E-01
 0.19068249494000E+03 0.94709193292923E-01
 0.62295441898000E+02 0.29719784913376E+00
 0.22654161182000E+02 0.66916246895232E+00
 s    2 1.00
 0.89791477428000E+01 0.64596683630063E+00
 0.36863002370000E+01 0.38700574393705E+00
 s    1 1.00
 0.84660076805000E+00 0.10000000000000E+01
 s    1 1.00
 0.33647133771000E+00 0.10000000000000E+01
 s    1 1.00
 0.13647653675000E+00 0.10000000000000E+01
 s    1 1.00
 0.68441605847000E-01 0.10000000000000E+01
 p    4 1.00
 0.49200380510000E+02 0.11448825101764E-01
 0.11346790537000E+02 0.78422337970864E-01
 0.34273972411000E+01 0.30818094738830E+00
 0.11785525134000E+01 0.72027196368413E+00
 p    1 1.00
 0.41642204972000E+00 0.10000000000000E+01
 p    1 1.00
 0.14260826011000E+00 0.10000000000000E+01
 d    1 1.00
 0.16540000000000E+01 0.10000000000000E+01
 d    1 1.00
 0.46900000000000E+00 0.10000000000000E+01
 d    1 1.00
 0.12829642058000E+00 0.10000000000000E+01
 f    1 1.00
 0.10930000000000E+01 0.10000000000000E+01
 
   15 0
 s    3 1.00
 0.34061341000000E+02 0.25439307208879E-01
 0.51235746000000E+01 0.19008594890375E+00
 0.11646626000000E+01 0.85244113011042E+00
 s    1 1.00
 0.32723041000000E+00 0.10000000000000E+01
 s    1 1.00
 0.10307241000000E+00 0.10000000000000E+01
 p    1 1.00
 0.80000000000000E+00 0.10000000000000E+01
 p    1 1.00
 0.95774129632000E-01 0.10000000000000E+01
 
   16 0
 s    3 1.00
 0.34061341000000E+02 0.25439307208879E-01
 0.51235746000000E+01 0.19008594890375E+00
 0.11646626000000E+01 0.85244113011042E+00
 s    1 1.00
 0.32723041000000E+00 0.10000000000000E+01
 s    1 1.00
 0.10307241000000E+00 0.10000000000000E+01
 p    1 1.00
 0.80000000000000E+00 0.10000000000000E+01
 p    1 1.00
 0.95774129632000E-01 0.10000000000000E+01
 
[MO]
 Sym= X
 Ene= -0.949414
 Spin= Alpha
 Occup= -0.949414
         1    3.813828E-04
         2    8.814986E-04
         3   -2.273913E-03
         4    4.527412E-03
         5   -3.014798E-02
         6    1.847290E-02
         7    6.968126E-03
         8    1.000107E-03
         9   -2.395247E-02
        10   -1.038090E-03
        11    1.467802E-03
        12   -2.212181E-02
        13   -4.738637E-02
        14    1.913871E-02
        15   -1.178922E-02
        16   -1.388025E-04
        17    1.496389E-04
        18   -1.083640E-05
        19    5.240550E-05
        20   -5.946378E-03
        21    3.512251E-03
        22    9.404794E-04
        23   -5.321396E-04
        24   -4.083398E-04
        25    1.214563E-03
        26   -1.351021E-02
        27    6.670194E-03
        28    4.429687E-03
        29   -3.893792E-03
        30   -5.358951E-04
        31   -2.500919E-03
        32    4.137598E-03
        33   -1.039936E-02
        34   -2.263654E-05
        35    1.445383E-05
        36    6.434669E-05
        37    1.506483E-05
        38   -1.051814E-05
        39    7.080164E-04
        40    1.530527E-05
        41   -8.873707E-06
        42   -7.943465E-04
        43    6.355705E-04
        44   -2.224711E-04
        45   -4.954735E-04
        46    2.482019E-04
        47    6.637165E-03
        48    7.855331E-02
        49   -9.916248E-03
        50   -7.349891E-04
        51    1.294198E-06
        52   -1.837215E-01
        53   -1.798275E-03
        54    8.470259E-06
        55   -1.904444E-01
        56   -1.880882E-02
        57   -3.236359E-04
        58   -1.855112E-01
        59   -2.366137E-04
        60    2.312743E-04
        61    5.339338E-06
        62   -7.682753E-08
        63   -4.496641E-04
        64    3.785798E-07
        65   -8.246736E-04
        66    1.291877E-03
        67   -4.672037E-04
        68   -1.676226E-06
        69   -2.526583E-03
        70    3.662237E-07
        71   -2.099055E-02
        72    2.316840E-02
        73   -2.177855E-03
        74    6.026042E-05
        75    3.308634E-03
        76   -2.321623E-05
        77    6.313572E-06
        78    8.115358E-09
        79    1.014384E-03
        80   -1.120121E-05
        81    2.655761E-08
        82   -5.787606E-04
        83    2.730667E-06
        84   -3.744551E-08
        85   -7.821780E-04
        86   -3.484043E-08
        87    3.814317E-04
        88    8.815901E-04
        89   -2.274012E-03
        90    4.529075E-03
        91   -3.096714E-02
        92    1.847485E-02
        93    6.970516E-03
        94   -1.002520E-03
        95   -2.397018E-02
        96   -1.017386E-03
        97   -1.466440E-03
        98   -2.213980E-02
        99   -4.751038E-02
       100   -1.943511E-02
       101   -1.182150E-02
       102   -1.388994E-04
       103    1.496975E-04
       104   -1.079811E-05
       105   -5.257910E-05
       106   -5.946066E-03
       107   -3.512360E-03
       108    9.363350E-04
       109   -5.281352E-04
       110   -4.081998E-04
       111   -1.213413E-03
       112   -1.350915E-02
       113   -6.670087E-03
       114    4.494396E-03
       115   -3.966134E-03
       116   -5.282616E-04
       117    2.435407E-03
       118    4.110541E-03
       119    1.037983E-02
       120   -2.263699E-05
       121   -1.443013E-05
       122    6.444286E-05
       123    1.512535E-05
       124    1.047886E-05
       125    7.079220E-04
       126    1.524536E-05
       127    8.881190E-06
       128   -7.943812E-04
       129   -6.355592E-04
       130   -2.074907E-04
       131   -4.519660E-04
       132   -7.798015E-04
       133    1.631107E-02
       134   -3.650843E-03
       135   -2.145055E-02
       136   -6.408045E-03
       137    1.708085E-03
       138    1.508913E-01
       139   -1.825056E-02
       140    1.044776E-02
       141    1.534593E-01
       142   -2.260919E-02
       143   -1.121124E-02
       144    9.465031E-02
       145   -3.951568E-04
       146    4.447337E-04
       147   -4.957693E-05
       148   -3.190560E-05
       149   -9.437147E-04
       150    3.031259E-03
       151   -1.312571E-03
       152    1.456375E-03
       153   -1.438041E-04
       154   -2.728388E-03
       155   -4.608006E-03
       156    4.896686E-03
       157   -1.172684E-02
       158    8.626610E-03
       159    3.100233E-03
       160    1.783309E-02
       161    4.916145E-03
       162   -1.251024E-02
       163   -3.640447E-05
       164    2.379897E-05
       165   -8.575187E-04
       166   -3.288252E-05
       167    1.821488E-05
       168    1.975663E-04
       169    8.172425E-05
       170   -5.014454E-05
       171    9.529158E-04
       172   -3.326182E-04
       173    1.517042E-03
       174    3.460456E-03
       175   -3.107779E-03
       176   -3.426208E-02
       177    6.684410E-02
       178   -1.199577E-02
       179    1.830203E-02
       180   -2.127414E-06
       181    1.139036E-01
       182    3.481024E-03
       183   -8.440537E-06
       184    1.174356E-01
       185   -6.824771E-02
       186    3.953809E-04
       187    1.392911E-01
       188   -1.042467E-03
       189    6.959344E-04
       190    3.465326E-04
       191   -2.009465E-07
       192    1.006669E-02
       193    4.481491E-07
       194    2.617831E-03
       195   -6.154078E-03
       196    3.536247E-03
       197   -1.815508E-06
       198    2.469315E-02
       199   -7.521304E-07
       200    1.501850E-02
       201   -1.634150E-02
       202    1.323000E-03
       203    1.020734E-04
       204    1.444394E-02
       205    2.264537E-05
       206    2.015920E-04
       207   -7.669773E-09
       208   -2.760705E-04
       209   -1.367268E-04
       210   -2.921538E-08
       211   -1.132318E-03
       212   -1.337372E-04
       213    3.950546E-08
       214    1.502706E-03
       215    1.076149E-08
       216   -2.078029E-04
       217   -4.526305E-04
       218   -7.788077E-04
       219    1.631458E-02
       220   -4.658441E-03
       221   -2.142574E-02
       222   -6.406169E-03
       223   -1.703710E-03
       224    1.509069E-01
       225   -1.826062E-02
       226   -1.045018E-02
       227    1.534791E-01
       228   -2.250925E-02
       229    1.162251E-02
       230    9.462278E-02
       231   -3.950611E-04
       232    4.448436E-04
       233   -4.978257E-05
       234    3.162366E-05
       235   -9.433680E-04
       236   -3.031343E-03
       237   -1.316018E-03
       238    1.459935E-03
       239   -1.439170E-04
       240    2.729822E-03
       241   -4.606962E-03
       242   -4.896938E-03
       243   -1.166237E-02
       244    8.563249E-03
       245    3.099124E-03
       246   -1.789318E-02
       247    4.948101E-03
       248    1.253587E-02
       249   -3.644861E-05
       250   -2.383851E-05
       251   -8.576931E-04
       252   -3.294799E-05
       253   -1.815432E-05
       254    1.977454E-04
       255    8.184893E-05
       256    5.013703E-05
       257    9.529706E-04
       258    3.326393E-04
       259    1.951099E-03
       260    2.304388E-03
       261    2.682946E-02
       262   -4.011527E-05
       263   -1.940676E-04
       264   -9.954178E-04
       265   -7.793857E-03
       266   -1.603978E-03
       267    5.486139E-03
       268    1.953047E-03
       269    2.303227E-03
       270    2.681701E-02
       271   -3.981610E-05
       272    1.937457E-04
       273   -9.961402E-04
       274   -7.858399E-03
       275    1.578277E-03
       276    5.484393E-03
       277    1.533148E-03
       278    5.167872E-03
       279   -5.641392E-02
       280   -6.576078E-05
       281    3.119505E-04
       282    6.122939E-03
       283   -2.013987E-03
       284   -4.785579E-03
       285   -6.473313E-04
       286    1.535742E-03
       287    5.166180E-03
       288   -5.651735E-02
       289   -6.553960E-05
       290   -3.117105E-04
       291    6.123785E-03
       292   -1.979336E-03
       293    4.813528E-03
       294   -6.525469E-04
       295    2.286665E-04
       296    5.404638E-04
       297   -7.206185E-04
       298   -1.544383E-03
       299    1.286264E-02
       300    3.273508E-03
       301    2.784889E-03
       302   -1.092871E-06
       303   -1.564345E-02
       304    2.135484E-03
       305   -1.067896E-06
       306   -1.775771E-02
       307   -3.990122E-03
       308   -1.130425E-06
       309   -2.260940E-03
       310   -5.047675E-05
       311    4.829974E-05
       312    2.177003E-06
       313   -1.733633E-07
       314    3.733813E-03
       315   -6.658944E-09
       316   -1.003935E-04
       317    3.186114E-05
       318    6.853232E-05
       319   -4.304024E-07
       320    1.125825E-02
       321    3.626281E-09
       322    7.367986E-04
       323   -4.299457E-03
       324    3.562658E-03
       325   -8.565296E-06
       326    2.672836E-03
       327    4.029179E-06
       328    1.332295E-05
       329    3.684446E-08
       330    2.818982E-05
       331   -4.490422E-06
       332   -4.322476E-08
       333   -6.246412E-04
       334   -1.338419E-05
       335   -6.207267E-09
       336    5.868205E-04
       337   -3.082599E-09
       338    7.289460E-05
       339    1.728153E-04
       340   -1.941830E-04
       341   -1.233542E-03
       342    9.602638E-03
       343    1.469373E-03
       344   -6.808803E-04
       345    8.399123E-04
       346    6.281351E-02
       347   -8.098007E-04
       348    9.138315E-04
       349    5.832172E-02
       350   -2.164999E-03
       351    1.260299E-03
       352    4.656020E-02
       353   -4.550780E-04
       354    2.501783E-04
       355    5.421915E-03
       356   -1.628958E-05
       357    2.641544E-05
       358   -1.012586E-05
       359   -3.150095E-06
       360    1.571381E-05
       361    3.969021E-04
       362   -3.651331E-06
       363    6.042064E-05
       364   -5.676931E-05
       365   -5.664473E-06
       366   -4.221617E-04
       367    1.298524E-03
       368    1.014590E-04
       369   -7.869887E-06
       370   -9.358912E-05
       371   -8.596167E-06
       372   -4.709945E-04
       373    2.414265E-04
       374    2.356157E-06
       375    8.630435E-06
       376   -4.733787E-05
       377   -4.358423E-06
       378   -5.999898E-06
       379   -7.705259E-05
       380    1.197306E-06
       381   -5.579046E-06
       382    1.405630E-04
       383   -1.074711E-04
       384    7.289782E-05
       385    1.728321E-04
       386   -1.942461E-04
       387   -1.233124E-03
       388    9.612553E-03
       389    1.457498E-03
       390   -6.874007E-04
       391   -8.315212E-04
       392    6.281270E-02
       393   -8.158536E-04
       394   -9.066059E-04
       395    5.832139E-02
       396   -2.163980E-03
       397   -1.258756E-03
       398    4.655305E-02
       399   -4.502710E-04
       400   -2.518720E-04
       401    5.422374E-03
       402   -1.620966E-05
       403    2.629243E-05
       404   -1.008277E-05
       405    3.140345E-06
       406    1.569454E-05
       407   -3.969119E-04
       408   -3.542835E-06
       409    6.020548E-05
       410   -5.666264E-05
       411    5.598374E-06
       412   -4.220998E-04
       413   -1.298371E-03
       414    1.024643E-04
       415   -8.989309E-06
       416   -9.347501E-05
       417    9.228963E-06
       418   -4.707624E-04
       419   -2.407042E-04
       420    2.343930E-06
       421   -8.598441E-06
       422   -4.734101E-05
       423   -4.334998E-06
       424    5.975390E-06
       425   -7.704512E-05
       426    1.190286E-06
       427    5.560629E-06
       428    1.405598E-04
       429    1.074673E-04
       430   -7.405878E-03
       431   -1.760401E-02
       432    2.745968E-02
       433    4.525851E-02
       434    1.372496E-02
       435    9.887902E-02
       436   -3.196180E-02
       437    6.243154E-06
       438   -2.757095E-01
       439   -3.557225E-02
       440    2.114458E-06
       441   -2.710459E-01
       442   -3.905016E-02
       443   -4.258577E-05
       444   -2.190045E-01
       445    1.380130E-04
       446    1.392558E-04
       447   -2.772687E-04
       448   -1.413673E-07
       449    8.084919E-04
       450    2.095515E-07
       451    2.817296E-04
       452    2.763422E-03
       453   -3.045151E-03
       454    1.588331E-06
       455    3.517991E-03
       456    9.027826E-07
       457    3.379860E-03
       458    6.856859E-03
       459   -1.023672E-02
       460    4.736243E-06
       461    2.358129E-03
       462    4.144674E-06
       463   -2.332468E-04
       464    3.750096E-08
       465    1.055097E-03
       466   -1.433605E-04
       467    8.914119E-09
       468   -5.636665E-04
       469    4.562939E-04
       470   -5.922693E-08
       471   -8.518949E-04
       472    2.241092E-09
       473   -1.389625E-02
       474   -2.793304E-02
       475   -5.570031E-02
       476   -3.595680E-03
       477   -2.894651E-03
       478   -1.369069E-02
       479   -1.774490E-04
       480   -6.403479E-03
       481   -1.519503E-02
       482   -1.389196E-02
       483   -2.789740E-02
       484   -5.554361E-02
       485   -3.593544E-03
       486    2.891703E-03
       487   -1.369313E-02
       488   -1.483240E-04
       489    6.387078E-03
       490   -1.520680E-02
 Sym= X
 Ene= 0.949414
 Spin= Alpha
 Occup= 0.949414
         1    3.279390E-03
         2    7.448697E-03
         3   -2.184186E-02
         4    7.126680E-02
         5    3.549719E+00
         6   -2.210090E+00
         7   -1.465038E-02
         8   -3.188190E-03
         9   -3.158851E-03
        10   -1.428608E-01
        11   -2.082484E-02
        12   -3.826142E-03
        13   -1.082046E-01
        14   -1.628708E-01
        15   -1.955683E-01
        16   -6.983019E-04
        17   -4.019428E-04
        18    1.100245E-03
        19    1.176645E-03
        20   -5.395886E-05
        21    9.154898E-05
        22    2.506988E-02
        23   -2.468670E-02
        24   -3.831790E-04
        25   -4.129439E-03
        26    1.384924E-03
        27    3.780546E-04
        28    5.833572E-01
        29   -4.638315E-01
        30   -1.195257E-01
        31    9.826339E-01
        32    1.100339E-02
        33    3.530527E-02
        34   -4.318208E-04
        35   -1.889971E-04
        36   -4.755354E-05
        37   -2.990988E-04
        38   -4.774016E-05
        39    3.850624E-05
        40    8.784472E-04
        41    3.013064E-04
        42    2.529352E-05
        43   -6.193074E-06
        44    4.623018E-03
        45    1.024669E-02
        46   -6.122951E-03
        47   -1.017623E-01
        48    3.623389E+00
        49    2.296295E+00
        50    2.231563E-03
        51    1.085847E-05
        52   -2.070305E-03
        53   -5.213561E-02
        54    1.029193E-04
        55   -8.183537E-03
        56   -8.374275E-01
        57   -6.486249E-03
        58    1.772023E-01
        59    1.367059E-03
        60   -2.605800E-03
        61    1.238742E-03
        62   -1.414871E-06