[Molden Format]
[Title]
ADC(2) - opt by CAM-B3LYP gaussian                                              
[Atoms] AU
 c     1    6 0.12593230616935E+01 0.22795690751954E+01 -.36278607975490E-01
 c     2    6 0.25504236399298E+01 0.18897261300000E-05 -.34511714041240E-01
 c     3    6 0.12593268411458E+01 -.22795652957431E+01 -.36289946332290E-01
 c     4    6 -.13369660030996E+01 -.22791608943507E+01 -.39583738981910E-01
 c     5    6 -.26856068523561E+01 -.18897261300000E-05 -.40110972572980E-01
 c     6    6 -.13369678928258E+01 0.22791590046246E+01 -.39570510898980E-01
 h     7    1 0.23068095955089E+01 0.40296066523382E+01 -.33243707806080E-01
 h     8    1 0.23068152646873E+01 -.40296028728859E+01 -.33262605067400E-01
 h     9    1 -.23553205188504E+01 -.40525668248527E+01 -.45200005048840E-01
 h    10    1 -.23553280777549E+01 0.40525630454004E+01 -.45173548882980E-01
 n    11    7 0.52878147756133E+01 0.00000000000000E+00 -.27472484196240E-01
 o    12    8 0.63764576548767E+01 -.20283488830896E+01 -.24482937454020E-01
 o    13    8 0.63764614343290E+01 0.20283469933635E+01 -.24515062798280E-01
 n    14    7 -.52636676188715E+01 0.00000000000000E+00 -.10786332361533E+00
 h    15    1 -.61947904866021E+01 -.16076731691957E+01 0.28377485852069E+00
 h    16    1 -.61947848174237E+01 0.16076731691957E+01 0.28378430715135E+00
[GTO]
    1 0
 s    6 1.00
 0.13575349682000E+05 0.60645503603591E-03
 0.20352333680000E+04 0.46979088884982E-02
 0.46322562359000E+03 0.24332477647552E-01
 0.13120019598000E+03 0.97399968307759E-01
 0.42853015891000E+02 0.30195584253780E+00
 0.15584185766000E+02 0.66233609137875E+00
 s    2 1.00
 0.62067138508000E+01 0.65595308539952E+00
 0.25764896527000E+01 0.37585633285142E+00
 s    1 1.00
 0.57696339419000E+00 0.10000000000000E+01
 s    1 1.00
 0.22972831358000E+00 0.10000000000000E+01
 s    1 1.00
 0.95164440028000E-01 0.10000000000000E+01
 s    1 1.00
 0.48475401370000E-01 0.10000000000000E+01
 p    4 1.00
 0.34697232244000E+02 0.11327220003114E-01
 0.79582622826000E+01 0.76169659202087E-01
 0.23780826883000E+01 0.30192252202676E+00
 0.81433208183000E+00 0.72785027349547E+00
 p    1 1.00
 0.28887547253000E+00 0.10000000000000E+01
 p    1 1.00
 0.10056823671000E+00 0.10000000000000E+01
 d    1 1.00
 0.10970000000000E+01 0.10000000000000E+01
 d    1 1.00
 0.31800000000000E+00 0.10000000000000E+01
 d    1 1.00
 0.90985336424000E-01 0.10000000000000E+01
 f    1 1.00
 0.76100000000000E+00 0.10000000000000E+01
 
    2 0
 s    6 1.00
 0.13575349682000E+05 0.60645503603591E-03
 0.20352333680000E+04 0.46979088884982E-02
 0.46322562359000E+03 0.24332477647552E-01
 0.13120019598000E+03 0.97399968307759E-01
 0.42853015891000E+02 0.30195584253780E+00
 0.15584185766000E+02 0.66233609137875E+00
 s    2 1.00
 0.62067138508000E+01 0.65595308539952E+00
 0.25764896527000E+01 0.37585633285142E+00
 s    1 1.00
 0.57696339419000E+00 0.10000000000000E+01
 s    1 1.00
 0.22972831358000E+00 0.10000000000000E+01
 s    1 1.00
 0.95164440028000E-01 0.10000000000000E+01
 s    1 1.00
 0.48475401370000E-01 0.10000000000000E+01
 p    4 1.00
 0.34697232244000E+02 0.11327220003114E-01
 0.79582622826000E+01 0.76169659202087E-01
 0.23780826883000E+01 0.30192252202676E+00
 0.81433208183000E+00 0.72785027349547E+00
 p    1 1.00
 0.28887547253000E+00 0.10000000000000E+01
 p    1 1.00
 0.10056823671000E+00 0.10000000000000E+01
 d    1 1.00
 0.10970000000000E+01 0.10000000000000E+01
 d    1 1.00
 0.31800000000000E+00 0.10000000000000E+01
 d    1 1.00
 0.90985336424000E-01 0.10000000000000E+01
 f    1 1.00
 0.76100000000000E+00 0.10000000000000E+01
 
    3 0
 s    6 1.00
 0.13575349682000E+05 0.60645503603591E-03
 0.20352333680000E+04 0.46979088884982E-02
 0.46322562359000E+03 0.24332477647552E-01
 0.13120019598000E+03 0.97399968307759E-01
 0.42853015891000E+02 0.30195584253780E+00
 0.15584185766000E+02 0.66233609137875E+00
 s    2 1.00
 0.62067138508000E+01 0.65595308539952E+00
 0.25764896527000E+01 0.37585633285142E+00
 s    1 1.00
 0.57696339419000E+00 0.10000000000000E+01
 s    1 1.00
 0.22972831358000E+00 0.10000000000000E+01
 s    1 1.00
 0.95164440028000E-01 0.10000000000000E+01
 s    1 1.00
 0.48475401370000E-01 0.10000000000000E+01
 p    4 1.00
 0.34697232244000E+02 0.11327220003114E-01
 0.79582622826000E+01 0.76169659202087E-01
 0.23780826883000E+01 0.30192252202676E+00
 0.81433208183000E+00 0.72785027349547E+00
 p    1 1.00
 0.28887547253000E+00 0.10000000000000E+01
 p    1 1.00
 0.10056823671000E+00 0.10000000000000E+01
 d    1 1.00
 0.10970000000000E+01 0.10000000000000E+01
 d    1 1.00
 0.31800000000000E+00 0.10000000000000E+01
 d    1 1.00
 0.90985336424000E-01 0.10000000000000E+01
 f    1 1.00
 0.76100000000000E+00 0.10000000000000E+01
 
    4 0
 s    6 1.00
 0.13575349682000E+05 0.60645503603591E-03
 0.20352333680000E+04 0.46979088884982E-02
 0.46322562359000E+03 0.24332477647552E-01
 0.13120019598000E+03 0.97399968307759E-01
 0.42853015891000E+02 0.30195584253780E+00
 0.15584185766000E+02 0.66233609137875E+00
 s    2 1.00
 0.62067138508000E+01 0.65595308539952E+00
 0.25764896527000E+01 0.37585633285142E+00
 s    1 1.00
 0.57696339419000E+00 0.10000000000000E+01
 s    1 1.00
 0.22972831358000E+00 0.10000000000000E+01
 s    1 1.00
 0.95164440028000E-01 0.10000000000000E+01
 s    1 1.00
 0.48475401370000E-01 0.10000000000000E+01
 p    4 1.00
 0.34697232244000E+02 0.11327220003114E-01
 0.79582622826000E+01 0.76169659202087E-01
 0.23780826883000E+01 0.30192252202676E+00
 0.81433208183000E+00 0.72785027349547E+00
 p    1 1.00
 0.28887547253000E+00 0.10000000000000E+01
 p    1 1.00
 0.10056823671000E+00 0.10000000000000E+01
 d    1 1.00
 0.10970000000000E+01 0.10000000000000E+01
 d    1 1.00
 0.31800000000000E+00 0.10000000000000E+01
 d    1 1.00
 0.90985336424000E-01 0.10000000000000E+01
 f    1 1.00
 0.76100000000000E+00 0.10000000000000E+01
 
    5 0
 s    6 1.00
 0.13575349682000E+05 0.60645503603591E-03
 0.20352333680000E+04 0.46979088884982E-02
 0.46322562359000E+03 0.24332477647552E-01
 0.13120019598000E+03 0.97399968307759E-01
 0.42853015891000E+02 0.30195584253780E+00
 0.15584185766000E+02 0.66233609137875E+00
 s    2 1.00
 0.62067138508000E+01 0.65595308539952E+00
 0.25764896527000E+01 0.37585633285142E+00
 s    1 1.00
 0.57696339419000E+00 0.10000000000000E+01
 s    1 1.00
 0.22972831358000E+00 0.10000000000000E+01
 s    1 1.00
 0.95164440028000E-01 0.10000000000000E+01
 s    1 1.00
 0.48475401370000E-01 0.10000000000000E+01
 p    4 1.00
 0.34697232244000E+02 0.11327220003114E-01
 0.79582622826000E+01 0.76169659202087E-01
 0.23780826883000E+01 0.30192252202676E+00
 0.81433208183000E+00 0.72785027349547E+00
 p    1 1.00
 0.28887547253000E+00 0.10000000000000E+01
 p    1 1.00
 0.10056823671000E+00 0.10000000000000E+01
 d    1 1.00
 0.10970000000000E+01 0.10000000000000E+01
 d    1 1.00
 0.31800000000000E+00 0.10000000000000E+01
 d    1 1.00
 0.90985336424000E-01 0.10000000000000E+01
 f    1 1.00
 0.76100000000000E+00 0.10000000000000E+01
 
    6 0
 s    6 1.00
 0.13575349682000E+05 0.60645503603591E-03
 0.20352333680000E+04 0.46979088884982E-02
 0.46322562359000E+03 0.24332477647552E-01
 0.13120019598000E+03 0.97399968307759E-01
 0.42853015891000E+02 0.30195584253780E+00
 0.15584185766000E+02 0.66233609137875E+00
 s    2 1.00
 0.62067138508000E+01 0.65595308539952E+00
 0.25764896527000E+01 0.37585633285142E+00
 s    1 1.00
 0.57696339419000E+00 0.10000000000000E+01
 s    1 1.00
 0.22972831358000E+00 0.10000000000000E+01
 s    1 1.00
 0.95164440028000E-01 0.10000000000000E+01
 s    1 1.00
 0.48475401370000E-01 0.10000000000000E+01
 p    4 1.00
 0.34697232244000E+02 0.11327220003114E-01
 0.79582622826000E+01 0.76169659202087E-01
 0.23780826883000E+01 0.30192252202676E+00
 0.81433208183000E+00 0.72785027349547E+00
 p    1 1.00
 0.28887547253000E+00 0.10000000000000E+01
 p    1 1.00
 0.10056823671000E+00 0.10000000000000E+01
 d    1 1.00
 0.10970000000000E+01 0.10000000000000E+01
 d    1 1.00
 0.31800000000000E+00 0.10000000000000E+01
 d    1 1.00
 0.90985336424000E-01 0.10000000000000E+01
 f    1 1.00
 0.76100000000000E+00 0.10000000000000E+01
 
    7 0
 s    3 1.00
 0.34061341000000E+02 0.25439307208879E-01
 0.51235746000000E+01 0.19008594890375E+00
 0.11646626000000E+01 0.85244113011042E+00
 s    1 1.00
 0.32723041000000E+00 0.10000000000000E+01
 s    1 1.00
 0.10307241000000E+00 0.10000000000000E+01
 p    1 1.00
 0.80000000000000E+00 0.10000000000000E+01
 p    1 1.00
 0.95774129632000E-01 0.10000000000000E+01
 
    8 0
 s    3 1.00
 0.34061341000000E+02 0.25439307208879E-01
 0.51235746000000E+01 0.19008594890375E+00
 0.11646626000000E+01 0.85244113011042E+00
 s    1 1.00
 0.32723041000000E+00 0.10000000000000E+01
 s    1 1.00
 0.10307241000000E+00 0.10000000000000E+01
 p    1 1.00
 0.80000000000000E+00 0.10000000000000E+01
 p    1 1.00
 0.95774129632000E-01 0.10000000000000E+01
 
    9 0
 s    3 1.00
 0.34061341000000E+02 0.25439307208879E-01
 0.51235746000000E+01 0.19008594890375E+00
 0.11646626000000E+01 0.85244113011042E+00
 s    1 1.00
 0.32723041000000E+00 0.10000000000000E+01
 s    1 1.00
 0.10307241000000E+00 0.10000000000000E+01
 p    1 1.00
 0.80000000000000E+00 0.10000000000000E+01
 p    1 1.00
 0.95774129632000E-01 0.10000000000000E+01
 
   10 0
 s    3 1.00
 0.34061341000000E+02 0.25439307208879E-01
 0.51235746000000E+01 0.19008594890375E+00
 0.11646626000000E+01 0.85244113011042E+00
 s    1 1.00
 0.32723041000000E+00 0.10000000000000E+01
 s    1 1.00
 0.10307241000000E+00 0.10000000000000E+01
 p    1 1.00
 0.80000000000000E+00 0.10000000000000E+01
 p    1 1.00
 0.95774129632000E-01 0.10000000000000E+01
 
   11 0
 s    6 1.00
 0.19730800647000E+05 0.58626402628763E-03
 0.29578958745000E+04 0.45428820586397E-02
 0.67322133595000E+03 0.23558413450084E-01
 0.19068249494000E+03 0.94709193292923E-01
 0.62295441898000E+02 0.29719784913376E+00
 0.22654161182000E+02 0.66916246895232E+00
 s    2 1.00
 0.89791477428000E+01 0.64596683630063E+00
 0.36863002370000E+01 0.38700574393705E+00
 s    1 1.00
 0.84660076805000E+00 0.10000000000000E+01
 s    1 1.00
 0.33647133771000E+00 0.10000000000000E+01
 s    1 1.00
 0.13647653675000E+00 0.10000000000000E+01
 s    1 1.00
 0.68441605847000E-01 0.10000000000000E+01
 p    4 1.00
 0.49200380510000E+02 0.11448825101764E-01
 0.11346790537000E+02 0.78422337970864E-01
 0.34273972411000E+01 0.30818094738830E+00
 0.11785525134000E+01 0.72027196368413E+00
 p    1 1.00
 0.41642204972000E+00 0.10000000000000E+01
 p    1 1.00
 0.14260826011000E+00 0.10000000000000E+01
 d    1 1.00
 0.16540000000000E+01 0.10000000000000E+01
 d    1 1.00
 0.46900000000000E+00 0.10000000000000E+01
 d    1 1.00
 0.12829642058000E+00 0.10000000000000E+01
 f    1 1.00
 0.10930000000000E+01 0.10000000000000E+01
 
   12 0
 s    6 1.00
 0.27032382631000E+05 0.57227335211155E-03
 0.40523871392000E+04 0.44353233492995E-02
 0.92232722710000E+03 0.23020107706038E-01
 0.26124070989000E+03 0.92822490667928E-01
 0.85354641351000E+02 0.29378500009671E+00
 0.31035035245000E+02 0.67401604501641E+00
 s    2 1.00
 0.12260860728000E+02 0.63839937025506E+00
 0.49987076005000E+01 0.39534587125718E+00
 s    1 1.00
 0.11703108158000E+01 0.10000000000000E+01
 s    1 1.00
 0.46474740994000E+00 0.10000000000000E+01
 s    1 1.00
 0.18504536357000E+00 0.10000000000000E+01
 s    1 1.00
 0.70288026270000E-01 0.10000000000000E+01
 p    4 1.00
 0.63274954801000E+02 0.12018332222616E-01
 0.14627049379000E+02 0.83005421790056E-01
 0.44501223456000E+01 0.31991743925964E+00
 0.15275799647000E+01 0.70715542916104E+00
 p    1 1.00
 0.52935117943000E+00 0.10000000000000E+01
 p    1 1.00
 0.17478421270000E+00 0.10000000000000E+01
 p    1 1.00
 0.51112745706000E-01 0.10000000000000E+01
 d    1 1.00
 0.23140000000000E+01 0.10000000000000E+01
 d    1 1.00
 0.64500000000000E+00 0.10000000000000E+01
 d    1 1.00
 0.14696477366000E+00 0.10000000000000E+01
 f    1 1.00
 0.14280000000000E+01 0.10000000000000E+01
 
   13 0
 s    6 1.00
 0.27032382631000E+05 0.57227335211155E-03
 0.40523871392000E+04 0.44353233492995E-02
 0.92232722710000E+03 0.23020107706038E-01
 0.26124070989000E+03 0.92822490667928E-01
 0.85354641351000E+02 0.29378500009671E+00
 0.31035035245000E+02 0.67401604501641E+00
 s    2 1.00
 0.12260860728000E+02 0.63839937025506E+00
 0.49987076005000E+01 0.39534587125718E+00
 s    1 1.00
 0.11703108158000E+01 0.10000000000000E+01
 s    1 1.00
 0.46474740994000E+00 0.10000000000000E+01
 s    1 1.00
 0.18504536357000E+00 0.10000000000000E+01
 s    1 1.00
 0.70288026270000E-01 0.10000000000000E+01
 p    4 1.00
 0.63274954801000E+02 0.12018332222616E-01
 0.14627049379000E+02 0.83005421790056E-01
 0.44501223456000E+01 0.31991743925964E+00
 0.15275799647000E+01 0.70715542916104E+00
 p    1 1.00
 0.52935117943000E+00 0.10000000000000E+01
 p    1 1.00
 0.17478421270000E+00 0.10000000000000E+01
 p    1 1.00
 0.51112745706000E-01 0.10000000000000E+01
 d    1 1.00
 0.23140000000000E+01 0.10000000000000E+01
 d    1 1.00
 0.64500000000000E+00 0.10000000000000E+01
 d    1 1.00
 0.14696477366000E+00 0.10000000000000E+01
 f    1 1.00
 0.14280000000000E+01 0.10000000000000E+01
 
   14 0
 s    6 1.00
 0.19730800647000E+05 0.58626402628763E-03
 0.29578958745000E+04 0.45428820586397E-02
 0.67322133595000E+03 0.23558413450084E-01
 0.19068249494000E+03 0.94709193292923E-01
 0.62295441898000E+02 0.29719784913376E+00
 0.22654161182000E+02 0.66916246895232E+00
 s    2 1.00
 0.89791477428000E+01 0.64596683630063E+00
 0.36863002370000E+01 0.38700574393705E+00
 s    1 1.00
 0.84660076805000E+00 0.10000000000000E+01
 s    1 1.00
 0.33647133771000E+00 0.10000000000000E+01
 s    1 1.00
 0.13647653675000E+00 0.10000000000000E+01
 s    1 1.00
 0.68441605847000E-01 0.10000000000000E+01
 p    4 1.00
 0.49200380510000E+02 0.11448825101764E-01
 0.11346790537000E+02 0.78422337970864E-01
 0.34273972411000E+01 0.30818094738830E+00
 0.11785525134000E+01 0.72027196368413E+00
 p    1 1.00
 0.41642204972000E+00 0.10000000000000E+01
 p    1 1.00
 0.14260826011000E+00 0.10000000000000E+01
 d    1 1.00
 0.16540000000000E+01 0.10000000000000E+01
 d    1 1.00
 0.46900000000000E+00 0.10000000000000E+01
 d    1 1.00
 0.12829642058000E+00 0.10000000000000E+01
 f    1 1.00
 0.10930000000000E+01 0.10000000000000E+01
 
   15 0
 s    3 1.00
 0.34061341000000E+02 0.25439307208879E-01
 0.51235746000000E+01 0.19008594890375E+00
 0.11646626000000E+01 0.85244113011042E+00
 s    1 1.00
 0.32723041000000E+00 0.10000000000000E+01
 s    1 1.00
 0.10307241000000E+00 0.10000000000000E+01
 p    1 1.00
 0.80000000000000E+00 0.10000000000000E+01
 p    1 1.00
 0.95774129632000E-01 0.10000000000000E+01
 
   16 0
 s    3 1.00
 0.34061341000000E+02 0.25439307208879E-01
 0.51235746000000E+01 0.19008594890375E+00
 0.11646626000000E+01 0.85244113011042E+00
 s    1 1.00
 0.32723041000000E+00 0.10000000000000E+01
 s    1 1.00
 0.10307241000000E+00 0.10000000000000E+01
 p    1 1.00
 0.80000000000000E+00 0.10000000000000E+01
 p    1 1.00
 0.95774129632000E-01 0.10000000000000E+01
 
[MO]
 Sym= X
 Ene= -0.077949
 Spin= Alpha
 Occup= -0.077949
         1    1.549487E-04
         2    3.649638E-04
         3   -1.340864E-03
         4    4.662983E-03
         5   -2.761482E-02
         6    1.470245E-02
         7    5.661804E-04
         8   -1.781664E-04
         9   -3.833060E-02
        10   -4.714540E-03
        11    2.244419E-04
        12   -3.644647E-02
        13   -3.555422E-02
        14    1.768727E-02
        15   -1.857262E-02
        16    4.459284E-05
        17   -2.156751E-05
        18   -2.302533E-05
        19   -9.793764E-06
        20   -6.365527E-03
        21    4.103059E-03
        22    9.474556E-04
        23   -5.543345E-04
        24   -3.931211E-04
        25    8.563838E-04
        26   -1.443014E-02
        27    7.674384E-03
        28    3.788554E-03
        29   -3.650725E-03
        30   -1.378292E-04
        31   -1.731419E-03
        32    2.948672E-03
        33   -8.329626E-03
        34   -3.392234E-05
        35    2.897062E-06
        36    1.706037E-04
        37    1.526643E-05
        38   -1.643911E-06
        39    6.936332E-04
        40    3.024517E-05
        41   -2.242905E-06
        42   -9.225221E-04
        43    7.263900E-04
        44    4.139865E-05
        45    9.585032E-05
        46   -4.088500E-04
        47    3.389468E-03
        48    7.024528E-02
        49   -6.901045E-03
        50    3.858285E-04
        51    1.197912E-06
        52   -2.129216E-01
        53   -6.202444E-04
        54    9.604378E-06
        55   -2.203915E-01
        56   -1.720380E-02
        57   -3.035531E-04
        58   -1.928330E-01
        59   -9.717648E-06
        60    4.372001E-06
        61    5.345647E-06
        62   -6.835130E-08
        63   -1.848410E-04
        64    3.749477E-07
        65   -4.163511E-04
        66    7.209240E-04
        67   -3.045728E-04
        68   -1.855704E-06
        69   -2.144875E-03
        70    3.150226E-07
        71   -1.463543E-02
        72    1.663953E-02
        73   -2.004102E-03
        74    5.807743E-05
        75    4.299150E-03
        76   -1.725938E-05
        77    8.631778E-06
        78    2.705861E-08
        79    1.220056E-03
        80   -7.234289E-06
        81    1.010045E-08
        82   -6.858580E-04
        83   -4.346456E-06
        84   -4.640340E-08
        85   -9.510194E-04
        86   -3.178265E-08
        87    1.551482E-04
        88    3.653978E-04
        89   -1.341198E-03
        90    4.660685E-03
        91   -2.835898E-02
        92    1.469445E-02
        93    5.667964E-04
        94    1.773718E-04
        95   -3.834793E-02
        96   -4.692038E-03
        97   -2.205112E-04
        98   -3.646440E-02
        99   -3.569603E-02
       100   -1.796082E-02
       101   -1.860220E-02
       102    4.450678E-05
       103   -2.154703E-05
       104   -2.295975E-05
       105    9.699886E-06
       106   -6.365227E-03
       107   -4.103180E-03
       108    9.430314E-04
       109   -5.502200E-04
       110   -3.928114E-04
       111   -8.549061E-04
       112   -1.442896E-02
       113   -7.674210E-03
       114    3.853021E-03
       115   -3.722220E-03
       116   -1.308004E-04
       117    1.671400E-03
       118    2.930081E-03
       119    8.316975E-03
       120   -3.390674E-05
       121   -2.874999E-06
       122    1.707063E-04
       123    1.532068E-05
       124    1.621013E-06
       125    6.935259E-04
       126    3.016999E-05
       127    2.236202E-06
       128   -9.225524E-04
       129   -7.263770E-04
       130   -9.826606E-05
       131   -2.087537E-04
       132   -7.145148E-04
       133    1.153671E-02
       134   -8.180097E-03
       135   -1.809695E-02
       136   -1.836568E-04
       137    2.823491E-04
       138    1.584592E-01
       139   -1.061896E-02
       140    7.254807E-03
       141    1.606995E-01
       142   -1.168157E-02
       143   -9.993363E-03
       144    1.005713E-01
       145   -9.696954E-05
       146    1.237106E-04
       147   -2.674111E-05
       148    7.421217E-06
       149   -1.615401E-03
       150    3.549583E-03
       151   -8.800903E-04
       152    9.094145E-04
       153   -2.932421E-05
       154   -2.006781E-03
       155   -5.812911E-03
       156    5.912243E-03
       157   -9.219850E-03
       158    6.849974E-03
       159    2.369876E-03
       160    1.472718E-02
       161    3.713759E-03
       162   -9.248153E-03
       163   -2.249271E-05
       164    3.502527E-06
       165   -9.339334E-04
       166   -1.426238E-05
       167    2.989501E-05
       168    1.947970E-04
       169    4.443951E-05
       170   -3.459414E-05
       171    1.058206E-03
       172   -4.385191E-04
       173    1.274605E-03
       174    2.908170E-03
       175   -2.774232E-03
       176   -2.838661E-02
       177    5.896222E-02
       178   -7.826160E-03
       179    7.705445E-03
       180   -1.176596E-06
       181    1.496022E-01
       182   -1.619403E-03
       183   -4.227497E-06
       184    1.518703E-01
       185   -5.121936E-02
       186    4.461759E-04
       187    1.345161E-01
       188   -4.652384E-04
       189    2.158397E-04
       190    2.493986E-04
       191   -1.473286E-07
       192    8.774582E-03
       193    4.264176E-07
       194    2.307330E-03
       195   -5.071662E-03
       196    2.764332E-03
       197   -6.700182E-07
       198    2.226993E-02
       199   -1.002216E-06
       200    8.754845E-03
       201   -9.818155E-03
       202    1.063310E-03
       203    9.306471E-05
       204    1.441648E-02
       205    1.282962E-05
       206    1.239535E-04
       207    1.257521E-08
       208   -6.417793E-04
       209   -9.868703E-05
       210   -2.645227E-08
       211   -7.082887E-04
       212   -6.761410E-05
       213    9.580854E-09
       214    1.569326E-03
       215   -3.423497E-09
       216   -9.857928E-05
       217   -2.094229E-04
       218   -7.122812E-04
       219    1.153189E-02
       220   -9.195552E-03
       221   -1.808804E-02
       222   -1.832729E-04
       223   -2.793151E-04
       224    1.584743E-01
       225   -1.063014E-02
       226   -7.254277E-03
       227    1.607185E-01
       228   -1.151395E-02
       229    1.042634E-02
       230    1.005583E-01
       231   -9.687860E-05
       232    1.238400E-04
       233   -2.696136E-05
       234   -7.608717E-06
       235   -1.615036E-03
       236   -3.549649E-03
       237   -8.840096E-04
       238    9.124493E-04
       239   -2.843968E-05
       240    2.007515E-03
       241   -5.812126E-03
       242   -5.912706E-03
       243   -9.165451E-03
       244    6.794451E-03
       245    2.371000E-03
       246   -1.479426E-02
       247    3.733789E-03
       248    9.266987E-03
       249   -2.259474E-05
       250   -3.532349E-06
       251   -9.341176E-04
       252   -1.425807E-05
       253   -2.984429E-05
       254    1.949738E-04
       255    4.457209E-05
       256    3.458344E-05
       257    1.058277E-03
       258    4.385493E-04
       259   -8.063648E-05
       260   -6.525178E-04
       261    1.898593E-02
       262    2.996560E-06
       263    9.642142E-05
       264   -1.549953E-03
       265   -6.330699E-03
       266   -7.004097E-04
       267    4.236875E-03
       268   -7.997869E-05
       269   -6.552872E-04
       270    1.898670E-02
       271    3.389999E-06
       272   -9.686247E-05
       273   -1.550646E-03
       274   -6.391423E-03
       275    6.777319E-04
       276    4.236460E-03
       277    1.485096E-04
       278    2.453362E-03
       279   -4.594083E-02
       280   -1.189691E-05
       281    6.730827E-05
       282    6.485618E-03
       283   -6.231667E-04
       284   -4.139628E-03
       285    1.918170E-03
       286    1.506727E-04
       287    2.453409E-03
       288   -4.605793E-02
       289   -1.181742E-05
       290   -6.726667E-05
       291    6.486397E-03
       292   -5.968577E-04
       293    4.164937E-03
       294    1.912414E-03
       295    5.016263E-06
       296    9.523460E-06
       297    4.790856E-05
       298    1.022343E-04
       299    9.018867E-03
       300   -4.108009E-04
       301    1.851779E-04
       302   -4.646328E-07
       303   -1.448548E-02
       304   -2.157316E-04
       305   -4.746892E-07
       306   -1.662074E-02
       307   -3.542264E-03
       308   -2.877631E-07
       309   -3.920031E-03
       310   -4.528823E-05
       311    2.888168E-05
       312    1.640655E-05
       313   -3.325386E-08
       314    4.276596E-03
       315   -1.923551E-08
       316   -5.944203E-05
       317   -1.895777E-05
       318    7.839980E-05
       319   -4.240391E-08
       320    1.283432E-02
       321   -1.473186E-08
       322    6.122444E-04
       323   -3.366881E-03
       324    2.754637E-03
       325   -7.610701E-06
       326    3.622016E-03
       327    3.553210E-06
       328    7.377778E-06
       329    7.787906E-09
       330    2.298470E-05
       331   -5.548284E-06
       332    1.393564E-09
       333   -7.110998E-04
       334   -4.350045E-06
       335   -1.184214E-08
       336    6.802626E-04
       337   -4.307716E-09
       338   -4.260329E-06
       339   -1.540456E-05
       340    8.312614E-05
       341   -5.492680E-04
       342    7.797385E-03
       343    1.796752E-03
       344   -8.769487E-04
       345   -1.922379E-04
       346    7.211906E-02
       347   -9.471704E-04
       348    2.884381E-06
       349    6.689368E-02
       350   -1.809588E-03
       351    6.185938E-04
       352    5.289040E-02
       353   -3.647218E-04
       354    2.965742E-04
       355    6.013433E-03
       356    1.658335E-06
       357   -5.707824E-07
       358   -1.087553E-06
       359   -6.972096E-06
       360   -5.506788E-06
       361    4.892476E-04
       362    2.706080E-05
       363   -4.546754E-06
       364   -2.251404E-05
       365   -3.068672E-05
       366   -5.390067E-04
       367    1.591136E-03
       368    7.615439E-05
       369   -6.515128E-06
       370   -6.963927E-05
       371    1.599616E-06
       372   -7.702690E-04
       373    2.744121E-04
       374    1.314883E-06
       375   -8.671458E-07
       376   -6.029258E-05
       377   -2.249200E-06
       378    3.250391E-06
       379   -8.774739E-05
       380    4.850997E-07
       381   -2.086993E-06
       382    1.686384E-04
       383   -1.309815E-04
       384   -4.256623E-06
       385   -1.538535E-05
       386    8.299756E-05
       387   -5.487825E-04
       388    7.804049E-03
       389    1.783253E-03
       390   -8.763454E-04
       391    1.943346E-04
       392    7.211771E-02
       393   -9.467816E-04
       394   -1.037850E-06
       395    6.689282E-02
       396   -1.803441E-03
       397   -6.204463E-04
       398    5.288327E-02
       399   -3.582346E-04
       400   -2.992145E-04
       401    6.013857E-03
       402    1.677491E-06
       403   -6.145910E-07
       404   -1.062900E-06
       405    6.967732E-06
       406   -5.525457E-06
       407   -4.892495E-04
       408    2.700060E-05
       409   -4.590516E-06
       410   -2.241009E-05
       411    3.057460E-05
       412   -5.389234E-04
       413   -1.590974E-03
       414    7.661093E-05
       415   -7.089906E-06
       416   -6.952103E-05
       417   -9.242266E-07
       418   -7.701947E-04
       419   -2.735219E-04
       420    1.309748E-06
       421    8.784238E-07
       422   -6.029491E-05
       423   -2.237463E-06
       424   -3.250320E-06
       425   -8.773847E-05
       426    4.802519E-07
       427    2.071791E-06
       428    1.686326E-04
       429    1.309757E-04
       430   -5.819816E-03
       431   -1.384362E-02
       432    2.158221E-02
       433    3.555691E-02
       434    1.443380E-02
       435    8.452608E-02
       436   -1.885086E-02
       437    3.899440E-06
       438   -2.101032E-01
       439   -2.215282E-02
       440    8.120898E-07
       441   -2.077276E-01
       442   -2.524947E-02
       443   -3.947051E-05
       444   -1.762185E-01
       445    1.912834E-04
       446   -3.148956E-05
       447   -1.597939E-04
       448   -7.925968E-08
       449    1.441506E-03
       450    1.427253E-07
       451    4.319568E-04
       452    1.775780E-03
       453   -2.207737E-03
       454    1.277805E-06
       455    4.993532E-03
       456    7.180227E-07
       457    3.319645E-03
       458    4.416737E-03
       459   -7.736382E-03
       460    2.510084E-06
       461    2.897536E-03
       462    3.300282E-06
       463   -1.843525E-04
       464    2.211378E-08
       465    7.087819E-04
       466   -9.681177E-05
       467    8.363035E-09
       468   -2.560989E-04
       469    3.441466E-04
       470   -3.803179E-08
       471   -6.948319E-04
       472    6.910629E-09
       473   -1.272884E-02
       474   -2.399890E-02
       475   -4.406250E-02
       476   -2.607744E-03
       477   -2.385992E-03
       478   -1.072383E-02
       479    9.934476E-04
       480   -4.913072E-03
       481   -1.424350E-02
       482   -1.272642E-02
       483   -2.397175E-02
       484   -4.393590E-02
       485   -2.606168E-03
       486    2.383759E-03
       487   -1.072577E-02
       488    1.018239E-03
       489    4.900684E-03
       490   -1.425142E-02
 Sym= X
 Ene= -0.873074
 Spin= Alpha
 Occup= -0.873074
         1   -4.039003E-04
         2   -9.290718E-04
         3    2.250516E-03
         4   -3.232043E-03
         5    2.325256E-02
         6   -1.547627E-02
         7   -4.930103E-03
         8    1.323836E-03
         9   -1.416088E-01
        10    1.847769E-03
        11    5.513617E-04
        12   -1.397750E-01
        13    2.820615E-02
        14   -1.191000E-03
        15   -4.979146E-02
        16    1.583438E-04
        17   -1.568503E-04
        18   -1.493551E-06
        19   -4.454072E-05
        20   -1.908100E-04
        21    4.333886E-03
        22   -7.406916E-04
        23    4.124059E-04
        24    3.282857E-04
        25   -1.124276E-03
        26   -9.015575E-04
        27    7.101321E-03
        28   -1.697401E-03
        29    1.352149E-03
        30    3.452522E-04
        31    2.655324E-03
        32   -6.685178E-03
        33    4.099666E-03
        34    2.219983E-05
        35    3.688309E-06
        36    1.192626E-03
        37   -6.567408E-06
        38   -5.903727E-06
        39   -6.777563E-04
        40   -2.321679E-05
        41    9.553403E-07
        42   -9.223189E-04
        43    4.624941E-04
        44   -2.996237E-04
        45   -6.836846E-04
        46    1.501733E-03
        47   -3.778584E-03
        48   -1.627341E-02
        49    1.298060E-02
        50    5.654805E-03
        51    1.778194E-07
        52   -2.019064E-01
        53    5.875833E-03
        54    1.111656E-05
        55   -2.035697E-01
        56    7.438863E-03
        57    3.035979E-04
        58   -6.558850E-02
        59    2.916739E-04
        60   -2.748805E-04
        61   -1.679334E-05
        62   -1.621940E-08