[Molden Format]
[Title]
ADC(2) - opt by CAM-B3LYP gaussian                                              
[Atoms] AU
 c     1    6 0.12593230616935E+01 0.22795690751954E+01 -.36278607975490E-01
 c     2    6 0.25504236399298E+01 0.18897261300000E-05 -.34511714041240E-01
 c     3    6 0.12593268411458E+01 -.22795652957431E+01 -.36289946332290E-01
 c     4    6 -.13369660030996E+01 -.22791608943507E+01 -.39583738981910E-01
 c     5    6 -.26856068523561E+01 -.18897261300000E-05 -.40110972572980E-01
 c     6    6 -.13369678928258E+01 0.22791590046246E+01 -.39570510898980E-01
 h     7    1 0.23068095955089E+01 0.40296066523382E+01 -.33243707806080E-01
 h     8    1 0.23068152646873E+01 -.40296028728859E+01 -.33262605067400E-01
 h     9    1 -.23553205188504E+01 -.40525668248527E+01 -.45200005048840E-01
 h    10    1 -.23553280777549E+01 0.40525630454004E+01 -.45173548882980E-01
 n    11    7 0.52878147756133E+01 0.00000000000000E+00 -.27472484196240E-01
 o    12    8 0.63764576548767E+01 -.20283488830896E+01 -.24482937454020E-01
 o    13    8 0.63764614343290E+01 0.20283469933635E+01 -.24515062798280E-01
 n    14    7 -.52636676188715E+01 0.00000000000000E+00 -.10786332361533E+00
 h    15    1 -.61947904866021E+01 -.16076731691957E+01 0.28377485852069E+00
 h    16    1 -.61947848174237E+01 0.16076731691957E+01 0.28378430715135E+00
[GTO]
    1 0
 s    6 1.00
 0.13575349682000E+05 0.60645503603591E-03
 0.20352333680000E+04 0.46979088884982E-02
 0.46322562359000E+03 0.24332477647552E-01
 0.13120019598000E+03 0.97399968307759E-01
 0.42853015891000E+02 0.30195584253780E+00
 0.15584185766000E+02 0.66233609137875E+00
 s    2 1.00
 0.62067138508000E+01 0.65595308539952E+00
 0.25764896527000E+01 0.37585633285142E+00
 s    1 1.00
 0.57696339419000E+00 0.10000000000000E+01
 s    1 1.00
 0.22972831358000E+00 0.10000000000000E+01
 s    1 1.00
 0.95164440028000E-01 0.10000000000000E+01
 s    1 1.00
 0.48475401370000E-01 0.10000000000000E+01
 p    4 1.00
 0.34697232244000E+02 0.11327220003114E-01
 0.79582622826000E+01 0.76169659202087E-01
 0.23780826883000E+01 0.30192252202676E+00
 0.81433208183000E+00 0.72785027349547E+00
 p    1 1.00
 0.28887547253000E+00 0.10000000000000E+01
 p    1 1.00
 0.10056823671000E+00 0.10000000000000E+01
 d    1 1.00
 0.10970000000000E+01 0.10000000000000E+01
 d    1 1.00
 0.31800000000000E+00 0.10000000000000E+01
 d    1 1.00
 0.90985336424000E-01 0.10000000000000E+01
 f    1 1.00
 0.76100000000000E+00 0.10000000000000E+01
 
    2 0
 s    6 1.00
 0.13575349682000E+05 0.60645503603591E-03
 0.20352333680000E+04 0.46979088884982E-02
 0.46322562359000E+03 0.24332477647552E-01
 0.13120019598000E+03 0.97399968307759E-01
 0.42853015891000E+02 0.30195584253780E+00
 0.15584185766000E+02 0.66233609137875E+00
 s    2 1.00
 0.62067138508000E+01 0.65595308539952E+00
 0.25764896527000E+01 0.37585633285142E+00
 s    1 1.00
 0.57696339419000E+00 0.10000000000000E+01
 s    1 1.00
 0.22972831358000E+00 0.10000000000000E+01
 s    1 1.00
 0.95164440028000E-01 0.10000000000000E+01
 s    1 1.00
 0.48475401370000E-01 0.10000000000000E+01
 p    4 1.00
 0.34697232244000E+02 0.11327220003114E-01
 0.79582622826000E+01 0.76169659202087E-01
 0.23780826883000E+01 0.30192252202676E+00
 0.81433208183000E+00 0.72785027349547E+00
 p    1 1.00
 0.28887547253000E+00 0.10000000000000E+01
 p    1 1.00
 0.10056823671000E+00 0.10000000000000E+01
 d    1 1.00
 0.10970000000000E+01 0.10000000000000E+01
 d    1 1.00
 0.31800000000000E+00 0.10000000000000E+01
 d    1 1.00
 0.90985336424000E-01 0.10000000000000E+01
 f    1 1.00
 0.76100000000000E+00 0.10000000000000E+01
 
    3 0
 s    6 1.00
 0.13575349682000E+05 0.60645503603591E-03
 0.20352333680000E+04 0.46979088884982E-02
 0.46322562359000E+03 0.24332477647552E-01
 0.13120019598000E+03 0.97399968307759E-01
 0.42853015891000E+02 0.30195584253780E+00
 0.15584185766000E+02 0.66233609137875E+00
 s    2 1.00
 0.62067138508000E+01 0.65595308539952E+00
 0.25764896527000E+01 0.37585633285142E+00
 s    1 1.00
 0.57696339419000E+00 0.10000000000000E+01
 s    1 1.00
 0.22972831358000E+00 0.10000000000000E+01
 s    1 1.00
 0.95164440028000E-01 0.10000000000000E+01
 s    1 1.00
 0.48475401370000E-01 0.10000000000000E+01
 p    4 1.00
 0.34697232244000E+02 0.11327220003114E-01
 0.79582622826000E+01 0.76169659202087E-01
 0.23780826883000E+01 0.30192252202676E+00
 0.81433208183000E+00 0.72785027349547E+00
 p    1 1.00
 0.28887547253000E+00 0.10000000000000E+01
 p    1 1.00
 0.10056823671000E+00 0.10000000000000E+01
 d    1 1.00
 0.10970000000000E+01 0.10000000000000E+01
 d    1 1.00
 0.31800000000000E+00 0.10000000000000E+01
 d    1 1.00
 0.90985336424000E-01 0.10000000000000E+01
 f    1 1.00
 0.76100000000000E+00 0.10000000000000E+01
 
    4 0
 s    6 1.00
 0.13575349682000E+05 0.60645503603591E-03
 0.20352333680000E+04 0.46979088884982E-02
 0.46322562359000E+03 0.24332477647552E-01
 0.13120019598000E+03 0.97399968307759E-01
 0.42853015891000E+02 0.30195584253780E+00
 0.15584185766000E+02 0.66233609137875E+00
 s    2 1.00
 0.62067138508000E+01 0.65595308539952E+00
 0.25764896527000E+01 0.37585633285142E+00
 s    1 1.00
 0.57696339419000E+00 0.10000000000000E+01
 s    1 1.00
 0.22972831358000E+00 0.10000000000000E+01
 s    1 1.00
 0.95164440028000E-01 0.10000000000000E+01
 s    1 1.00
 0.48475401370000E-01 0.10000000000000E+01
 p    4 1.00
 0.34697232244000E+02 0.11327220003114E-01
 0.79582622826000E+01 0.76169659202087E-01
 0.23780826883000E+01 0.30192252202676E+00
 0.81433208183000E+00 0.72785027349547E+00
 p    1 1.00
 0.28887547253000E+00 0.10000000000000E+01
 p    1 1.00
 0.10056823671000E+00 0.10000000000000E+01
 d    1 1.00
 0.10970000000000E+01 0.10000000000000E+01
 d    1 1.00
 0.31800000000000E+00 0.10000000000000E+01
 d    1 1.00
 0.90985336424000E-01 0.10000000000000E+01
 f    1 1.00
 0.76100000000000E+00 0.10000000000000E+01
 
    5 0
 s    6 1.00
 0.13575349682000E+05 0.60645503603591E-03
 0.20352333680000E+04 0.46979088884982E-02
 0.46322562359000E+03 0.24332477647552E-01
 0.13120019598000E+03 0.97399968307759E-01
 0.42853015891000E+02 0.30195584253780E+00
 0.15584185766000E+02 0.66233609137875E+00
 s    2 1.00
 0.62067138508000E+01 0.65595308539952E+00
 0.25764896527000E+01 0.37585633285142E+00
 s    1 1.00
 0.57696339419000E+00 0.10000000000000E+01
 s    1 1.00
 0.22972831358000E+00 0.10000000000000E+01
 s    1 1.00
 0.95164440028000E-01 0.10000000000000E+01
 s    1 1.00
 0.48475401370000E-01 0.10000000000000E+01
 p    4 1.00
 0.34697232244000E+02 0.11327220003114E-01
 0.79582622826000E+01 0.76169659202087E-01
 0.23780826883000E+01 0.30192252202676E+00
 0.81433208183000E+00 0.72785027349547E+00
 p    1 1.00
 0.28887547253000E+00 0.10000000000000E+01
 p    1 1.00
 0.10056823671000E+00 0.10000000000000E+01
 d    1 1.00
 0.10970000000000E+01 0.10000000000000E+01
 d    1 1.00
 0.31800000000000E+00 0.10000000000000E+01
 d    1 1.00
 0.90985336424000E-01 0.10000000000000E+01
 f    1 1.00
 0.76100000000000E+00 0.10000000000000E+01
 
    6 0
 s    6 1.00
 0.13575349682000E+05 0.60645503603591E-03
 0.20352333680000E+04 0.46979088884982E-02
 0.46322562359000E+03 0.24332477647552E-01
 0.13120019598000E+03 0.97399968307759E-01
 0.42853015891000E+02 0.30195584253780E+00
 0.15584185766000E+02 0.66233609137875E+00
 s    2 1.00
 0.62067138508000E+01 0.65595308539952E+00
 0.25764896527000E+01 0.37585633285142E+00
 s    1 1.00
 0.57696339419000E+00 0.10000000000000E+01
 s    1 1.00
 0.22972831358000E+00 0.10000000000000E+01
 s    1 1.00
 0.95164440028000E-01 0.10000000000000E+01
 s    1 1.00
 0.48475401370000E-01 0.10000000000000E+01
 p    4 1.00
 0.34697232244000E+02 0.11327220003114E-01
 0.79582622826000E+01 0.76169659202087E-01
 0.23780826883000E+01 0.30192252202676E+00
 0.81433208183000E+00 0.72785027349547E+00
 p    1 1.00
 0.28887547253000E+00 0.10000000000000E+01
 p    1 1.00
 0.10056823671000E+00 0.10000000000000E+01
 d    1 1.00
 0.10970000000000E+01 0.10000000000000E+01
 d    1 1.00
 0.31800000000000E+00 0.10000000000000E+01
 d    1 1.00
 0.90985336424000E-01 0.10000000000000E+01
 f    1 1.00
 0.76100000000000E+00 0.10000000000000E+01
 
    7 0
 s    3 1.00
 0.34061341000000E+02 0.25439307208879E-01
 0.51235746000000E+01 0.19008594890375E+00
 0.11646626000000E+01 0.85244113011042E+00
 s    1 1.00
 0.32723041000000E+00 0.10000000000000E+01
 s    1 1.00
 0.10307241000000E+00 0.10000000000000E+01
 p    1 1.00
 0.80000000000000E+00 0.10000000000000E+01
 p    1 1.00
 0.95774129632000E-01 0.10000000000000E+01
 
    8 0
 s    3 1.00
 0.34061341000000E+02 0.25439307208879E-01
 0.51235746000000E+01 0.19008594890375E+00
 0.11646626000000E+01 0.85244113011042E+00
 s    1 1.00
 0.32723041000000E+00 0.10000000000000E+01
 s    1 1.00
 0.10307241000000E+00 0.10000000000000E+01
 p    1 1.00
 0.80000000000000E+00 0.10000000000000E+01
 p    1 1.00
 0.95774129632000E-01 0.10000000000000E+01
 
    9 0
 s    3 1.00
 0.34061341000000E+02 0.25439307208879E-01
 0.51235746000000E+01 0.19008594890375E+00
 0.11646626000000E+01 0.85244113011042E+00
 s    1 1.00
 0.32723041000000E+00 0.10000000000000E+01
 s    1 1.00
 0.10307241000000E+00 0.10000000000000E+01
 p    1 1.00
 0.80000000000000E+00 0.10000000000000E+01
 p    1 1.00
 0.95774129632000E-01 0.10000000000000E+01
 
   10 0
 s    3 1.00
 0.34061341000000E+02 0.25439307208879E-01
 0.51235746000000E+01 0.19008594890375E+00
 0.11646626000000E+01 0.85244113011042E+00
 s    1 1.00
 0.32723041000000E+00 0.10000000000000E+01
 s    1 1.00
 0.10307241000000E+00 0.10000000000000E+01
 p    1 1.00
 0.80000000000000E+00 0.10000000000000E+01
 p    1 1.00
 0.95774129632000E-01 0.10000000000000E+01
 
   11 0
 s    6 1.00
 0.19730800647000E+05 0.58626402628763E-03
 0.29578958745000E+04 0.45428820586397E-02
 0.67322133595000E+03 0.23558413450084E-01
 0.19068249494000E+03 0.94709193292923E-01
 0.62295441898000E+02 0.29719784913376E+00
 0.22654161182000E+02 0.66916246895232E+00
 s    2 1.00
 0.89791477428000E+01 0.64596683630063E+00
 0.36863002370000E+01 0.38700574393705E+00
 s    1 1.00
 0.84660076805000E+00 0.10000000000000E+01
 s    1 1.00
 0.33647133771000E+00 0.10000000000000E+01
 s    1 1.00
 0.13647653675000E+00 0.10000000000000E+01
 s    1 1.00
 0.68441605847000E-01 0.10000000000000E+01
 p    4 1.00
 0.49200380510000E+02 0.11448825101764E-01
 0.11346790537000E+02 0.78422337970864E-01
 0.34273972411000E+01 0.30818094738830E+00
 0.11785525134000E+01 0.72027196368413E+00
 p    1 1.00
 0.41642204972000E+00 0.10000000000000E+01
 p    1 1.00
 0.14260826011000E+00 0.10000000000000E+01
 d    1 1.00
 0.16540000000000E+01 0.10000000000000E+01
 d    1 1.00
 0.46900000000000E+00 0.10000000000000E+01
 d    1 1.00
 0.12829642058000E+00 0.10000000000000E+01
 f    1 1.00
 0.10930000000000E+01 0.10000000000000E+01
 
   12 0
 s    6 1.00
 0.27032382631000E+05 0.57227335211155E-03
 0.40523871392000E+04 0.44353233492995E-02
 0.92232722710000E+03 0.23020107706038E-01
 0.26124070989000E+03 0.92822490667928E-01
 0.85354641351000E+02 0.29378500009671E+00
 0.31035035245000E+02 0.67401604501641E+00
 s    2 1.00
 0.12260860728000E+02 0.63839937025506E+00
 0.49987076005000E+01 0.39534587125718E+00
 s    1 1.00
 0.11703108158000E+01 0.10000000000000E+01
 s    1 1.00
 0.46474740994000E+00 0.10000000000000E+01
 s    1 1.00
 0.18504536357000E+00 0.10000000000000E+01
 s    1 1.00
 0.70288026270000E-01 0.10000000000000E+01
 p    4 1.00
 0.63274954801000E+02 0.12018332222616E-01
 0.14627049379000E+02 0.83005421790056E-01
 0.44501223456000E+01 0.31991743925964E+00
 0.15275799647000E+01 0.70715542916104E+00
 p    1 1.00
 0.52935117943000E+00 0.10000000000000E+01
 p    1 1.00
 0.17478421270000E+00 0.10000000000000E+01
 p    1 1.00
 0.51112745706000E-01 0.10000000000000E+01
 d    1 1.00
 0.23140000000000E+01 0.10000000000000E+01
 d    1 1.00
 0.64500000000000E+00 0.10000000000000E+01
 d    1 1.00
 0.14696477366000E+00 0.10000000000000E+01
 f    1 1.00
 0.14280000000000E+01 0.10000000000000E+01
 
   13 0
 s    6 1.00
 0.27032382631000E+05 0.57227335211155E-03
 0.40523871392000E+04 0.44353233492995E-02
 0.92232722710000E+03 0.23020107706038E-01
 0.26124070989000E+03 0.92822490667928E-01
 0.85354641351000E+02 0.29378500009671E+00
 0.31035035245000E+02 0.67401604501641E+00
 s    2 1.00
 0.12260860728000E+02 0.63839937025506E+00
 0.49987076005000E+01 0.39534587125718E+00
 s    1 1.00
 0.11703108158000E+01 0.10000000000000E+01
 s    1 1.00
 0.46474740994000E+00 0.10000000000000E+01
 s    1 1.00
 0.18504536357000E+00 0.10000000000000E+01
 s    1 1.00
 0.70288026270000E-01 0.10000000000000E+01
 p    4 1.00
 0.63274954801000E+02 0.12018332222616E-01
 0.14627049379000E+02 0.83005421790056E-01
 0.44501223456000E+01 0.31991743925964E+00
 0.15275799647000E+01 0.70715542916104E+00
 p    1 1.00
 0.52935117943000E+00 0.10000000000000E+01
 p    1 1.00
 0.17478421270000E+00 0.10000000000000E+01
 p    1 1.00
 0.51112745706000E-01 0.10000000000000E+01
 d    1 1.00
 0.23140000000000E+01 0.10000000000000E+01
 d    1 1.00
 0.64500000000000E+00 0.10000000000000E+01
 d    1 1.00
 0.14696477366000E+00 0.10000000000000E+01
 f    1 1.00
 0.14280000000000E+01 0.10000000000000E+01
 
   14 0
 s    6 1.00
 0.19730800647000E+05 0.58626402628763E-03
 0.29578958745000E+04 0.45428820586397E-02
 0.67322133595000E+03 0.23558413450084E-01
 0.19068249494000E+03 0.94709193292923E-01
 0.62295441898000E+02 0.29719784913376E+00
 0.22654161182000E+02 0.66916246895232E+00
 s    2 1.00
 0.89791477428000E+01 0.64596683630063E+00
 0.36863002370000E+01 0.38700574393705E+00
 s    1 1.00
 0.84660076805000E+00 0.10000000000000E+01
 s    1 1.00
 0.33647133771000E+00 0.10000000000000E+01
 s    1 1.00
 0.13647653675000E+00 0.10000000000000E+01
 s    1 1.00
 0.68441605847000E-01 0.10000000000000E+01
 p    4 1.00
 0.49200380510000E+02 0.11448825101764E-01
 0.11346790537000E+02 0.78422337970864E-01
 0.34273972411000E+01 0.30818094738830E+00
 0.11785525134000E+01 0.72027196368413E+00
 p    1 1.00
 0.41642204972000E+00 0.10000000000000E+01
 p    1 1.00
 0.14260826011000E+00 0.10000000000000E+01
 d    1 1.00
 0.16540000000000E+01 0.10000000000000E+01
 d    1 1.00
 0.46900000000000E+00 0.10000000000000E+01
 d    1 1.00
 0.12829642058000E+00 0.10000000000000E+01
 f    1 1.00
 0.10930000000000E+01 0.10000000000000E+01
 
   15 0
 s    3 1.00
 0.34061341000000E+02 0.25439307208879E-01
 0.51235746000000E+01 0.19008594890375E+00
 0.11646626000000E+01 0.85244113011042E+00
 s    1 1.00
 0.32723041000000E+00 0.10000000000000E+01
 s    1 1.00
 0.10307241000000E+00 0.10000000000000E+01
 p    1 1.00
 0.80000000000000E+00 0.10000000000000E+01
 p    1 1.00
 0.95774129632000E-01 0.10000000000000E+01
 
   16 0
 s    3 1.00
 0.34061341000000E+02 0.25439307208879E-01
 0.51235746000000E+01 0.19008594890375E+00
 0.11646626000000E+01 0.85244113011042E+00
 s    1 1.00
 0.32723041000000E+00 0.10000000000000E+01
 s    1 1.00
 0.10307241000000E+00 0.10000000000000E+01
 p    1 1.00
 0.80000000000000E+00 0.10000000000000E+01
 p    1 1.00
 0.95774129632000E-01 0.10000000000000E+01
 
[MO]
 Sym= X
 Ene= -0.955226
 Spin= Alpha
 Occup= -0.955226
         1   -7.814465E-04
         2   -1.813734E-03
         3   -7.537899E-04
         4    2.744543E-02
         5    2.607721E-01
         6   -3.270165E-02
         7    2.541954E-02
         8   -5.500293E-02
         9   -7.010450E-03
        10    8.127233E-03
        11   -4.662486E-02
        12   -6.876276E-03
        13    4.541922E-02
        14   -9.494918E-02
        15   -1.831665E-03
        16   -2.411693E-03
        17    2.640714E-03
        18   -2.290208E-04
        19   -7.827349E-04
        20    5.948735E-05
        21    1.893136E-04
        22    1.413174E-03
        23    1.235993E-03
        24   -2.649167E-03
        25   -1.246459E-03
        26    9.063385E-05
        27    2.957137E-04
        28    1.690036E-03
        29   -1.338764E-03
        30   -3.512710E-04
        31    9.880274E-03
        32   -2.946710E-04
        33    5.185297E-05
        34   -1.542633E-04
        35   -5.512944E-04
        36    6.152064E-05
        37    1.763780E-04
        38    5.851957E-04
        39   -4.260134E-05
        40    3.058793E-05
        41    1.544434E-04
        42   -3.993726E-05
        43    1.627183E-05
        44    1.048313E-02
        45    2.370455E-02
        46   -3.468674E-02
        47   -6.913642E-02
        48   -2.597327E-01
        49    2.263913E-02
        50   -1.598146E-01
        51   -9.885576E-07
        52   -8.852339E-03
        53   -1.210575E-01
        54   -2.449476E-06
        55   -8.778483E-03
        56    6.633792E-02
        57    4.184741E-05
        58   -2.602326E-03
        59   -5.837988E-03
        60    5.200281E-03
        61    6.377071E-04
        62    4.486547E-08
        63    1.446598E-04
        64   -1.656286E-08
        65   -2.081687E-03
        66    2.163703E-03
        67   -8.201537E-05
        68    3.566963E-07
        69    2.819690E-04
        70   -7.404554E-08
        71    5.222854E-02
        72   -5.412670E-02
        73    1.898163E-03
        74   -5.319495E-06
        75    4.756883E-04
        76   -5.656298E-06
        77   -1.099717E-03
        78   -6.232654E-08
        79    7.613474E-05
        80    7.555375E-04
        81    6.702438E-08
        82   -4.119592E-05
        83    7.198882E-04
        84    1.659545E-08
        85   -6.094956E-05
        86   -4.801294E-09
        87   -7.823996E-04
        88   -1.815916E-03
        89   -7.492486E-04
        90    2.744564E-02
        91    2.609681E-01
        92   -3.271105E-02
        93    2.542851E-02
        94    5.499802E-02
        95   -7.009161E-03
        96    8.135014E-03
        97    4.661973E-02
        98   -6.874672E-03
        99    4.538465E-02
       100    9.496701E-02
       101   -1.823720E-03
       102   -2.411998E-03
       103    2.641073E-03
       104   -2.290752E-04
       105    7.825236E-04
       106    5.947730E-05
       107   -1.893064E-04
       108    1.411892E-03
       109    1.236500E-03
       110   -2.648392E-03
       111    1.245949E-03
       112    9.042842E-05
       113   -2.958539E-04
       114    1.695968E-03
       115   -1.344869E-03
       116   -3.510990E-04
       117   -9.890951E-03
       118   -3.063924E-04
       119   -5.726600E-05
       120   -1.542405E-04
       121    5.513108E-04
       122    6.148881E-05
       123    1.763673E-04
       124   -5.852241E-04
       125   -4.257493E-05
       126    3.056804E-05
       127   -1.544370E-04
       128   -3.992096E-05
       129   -1.626483E-05
       130    1.841869E-03
       131    4.192525E-03
       132   -3.861645E-03
       133   -2.893962E-02
       134   -9.577689E-02
       135    3.254014E-02
       136   -2.925250E-02
       137   -1.853368E-02
       138   -5.845391E-03
       139   -3.715447E-02
       140   -1.536196E-02
       141   -5.761314E-03
       142   -2.423883E-02
       143   -5.102931E-02
       144   -2.822927E-03
       145   -6.970582E-04
       146    5.820922E-04
       147    1.149661E-04
       148    2.038274E-03
       149   -1.315923E-04
       150   -1.011413E-04
       151   -3.056362E-03
       152    1.109919E-03
       153    1.946443E-03
       154    2.923030E-03
       155   -2.495736E-04
       156   -1.722028E-04
       157   -3.573358E-03
       158    4.853570E-03
       159   -1.280212E-03
       160   -2.102242E-02
       161   -2.831165E-04
       162    1.569184E-04
       163   -2.806136E-04
       164   -3.373060E-04
       165    5.382339E-05
       166    1.775696E-04
       167    4.193222E-04
       168   -4.728377E-05
       169    1.989130E-04
       170    3.322130E-05
       171   -2.492788E-05
       172    2.506487E-06
       173    3.265051E-03
       174    7.451170E-03
       175   -1.382899E-02
       176   -5.030938E-03
       177   -4.319641E-02
       178   -3.653714E-02
       179   -1.622074E-02
       180   -3.805625E-06
       181   -4.183680E-03
       182   -9.473762E-03
       183   -3.484698E-06
       184   -4.098736E-03
       185    2.699858E-02
       186   -4.279385E-05
       187   -2.186998E-03
       188   -2.423431E-04
       189    2.154254E-04
       190    2.691764E-05
       191   -9.049111E-08
       192   -1.641658E-04
       193   -1.721233E-08
       194    3.025851E-04
       195    4.944014E-04
       196   -7.969865E-04
       197   -2.614429E-07
       198   -4.038306E-04
       199    5.352629E-08
       200   -1.852744E-02
       201    1.821610E-02
       202    3.113436E-04
       203   -1.407889E-06
       204    2.237973E-04
       205    7.941226E-06
       206    1.973034E-05
       207   -3.435251E-08
       208    4.312398E-05
       209   -7.250157E-05
       210    2.471534E-08
       211   -1.855784E-05
       212    4.603054E-05
       213    2.137339E-08
       214   -3.929905E-05
       215   -3.898906E-09
       216    1.841348E-03
       217    4.191348E-03
       218   -3.859558E-03
       219   -2.894130E-02
       220   -9.560023E-02
       221    3.253664E-02
       222   -2.924566E-02
       223    1.853707E-02
       224   -5.846065E-03
       225   -3.715147E-02
       226    1.536385E-02
       227   -5.761762E-03
       228   -2.421734E-02
       229    5.098631E-02
       230   -2.822821E-03
       231   -6.969228E-04
       232    5.819606E-04
       233    1.149623E-04
       234   -2.038534E-03
       235   -1.316551E-04
       236    1.011471E-04
       237   -3.056430E-03
       238    1.109884E-03
       239    1.946546E-03
       240   -2.923301E-03
       241   -2.492163E-04
       242    1.721627E-04
       243   -3.563215E-03
       244    4.845011E-03
       245   -1.281796E-03
       246    2.102798E-02
       247   -2.699918E-04
       248   -1.519728E-04
       249   -2.805989E-04
       250    3.373146E-04
       251    5.382309E-05
       252    1.775620E-04
       253   -4.193202E-04
       254   -4.727572E-05
       255    1.989009E-04
       256   -3.323481E-05
       257   -2.493553E-05
       258   -2.504680E-06
       259   -9.556059E-03
       260   -1.325532E-02
       261   -9.871082E-03
       262    2.752181E-03
       263    1.149812E-03
       264   -2.349815E-04
       265    6.790491E-03
       266   -1.344710E-04
       267   -1.594121E-05
       268   -9.550891E-03
       269   -1.324607E-02
       270   -9.886732E-03
       271    2.751563E-03
       272   -1.148982E-03
       273   -2.348895E-04
       274    6.774827E-03
       275    1.249945E-04
       276   -1.568840E-05
       277    1.743698E-02
       278    2.815325E-02
       279    2.460336E-02
       280    2.830112E-04
       281    2.463423E-03
       282   -1.849456E-04
       283   -8.466782E-03
       284    3.675384E-03
       285    4.983645E-05
       286    1.743768E-02
       287    2.815440E-02
       288    2.462533E-02
       289    2.833263E-04
       290   -2.463361E-03
       291   -1.853483E-04
       292   -8.461873E-03
       293   -3.671961E-03
       294    5.075570E-05
       295    2.622715E-03
       296    6.033078E-03
       297   -4.047335E-03
       298   -3.707753E-02
       299   -1.577011E-01
       300    1.541065E-02
       301    1.347030E-01
       302   -4.939189E-06
       303    2.202332E-03
       304    1.250902E-01
       305   -3.143913E-06
       306    2.111424E-03
       307    9.682186E-02
       308   -8.506059E-06
       309    4.040133E-04
       310   -1.176439E-02
       311    1.311587E-02
       312   -1.351479E-03
       313   -9.028264E-07
       314    1.301204E-04
       315   -8.443966E-08
       316   -3.401651E-02
       317    3.497811E-02
       318   -9.615963E-04
       319   -1.879401E-06
       320    3.446589E-04
       321   -1.807543E-07
       322    1.329307E-02
       323   -2.584250E-03
       324   -1.070882E-02
       325    9.485505E-06
       326    2.965199E-04
       327    1.261692E-06
       328    1.579515E-05
       329    1.964977E-07
       330   -1.194261E-05
       331    3.396851E-04
       332   -2.652575E-07
       333   -1.941880E-05
       334   -3.608765E-04
       335    1.628105E-09
       336    3.544149E-05
       337   -9.528731E-10
       338    3.832123E-04
       339    8.781738E-04
       340   -2.316676E-03
       341   -1.633180E-02
       342   -1.131112E-02
       343   -1.818613E-02
       344   -3.014516E-01
       345   -4.289541E-02
       346    2.478507E-03
       347   -2.650040E-01
       348   -4.340542E-02
       349    2.308148E-03
       350   -1.976013E-01
       351   -4.196679E-02
       352    1.398360E-03
       353   -1.581047E-02
       354   -8.422694E-03
       355    1.048190E-04
       356    7.177401E-04
       357    1.818475E-04
       358   -8.995876E-04
       359   -2.651719E-03
       360   -1.170532E-05
       361    3.787480E-05
       362    3.324760E-03
       363   -7.710617E-04
       364   -2.553698E-03
       365   -5.906699E-03
       366   -4.989703E-05
       367    1.168084E-04
       368    4.898428E-03
       369   -3.682048E-03
       370   -1.216380E-03
       371   -5.634606E-03
       372   -7.882621E-05
       373    4.255103E-06
       374    3.312868E-04
       375   -3.985450E-04
       376   -5.861311E-06
       377   -6.645205E-04
       378    8.435140E-04
       379   -3.133015E-06
       380    2.200527E-04
       381   -3.088098E-04
       382    1.099679E-05
       383   -7.680033E-06
       384    3.831326E-04
       385    8.779971E-04
       386   -2.316173E-03
       387   -1.633062E-02
       388   -1.131796E-02
       389   -1.819837E-02
       390   -3.014970E-01
       391    4.293872E-02
       392    2.480338E-03
       393   -2.650440E-01
       394    4.344389E-02
       395    2.309738E-03
       396   -1.976475E-01
       397    4.199647E-02
       398    1.398687E-03
       399   -1.581433E-02
       400    8.426332E-03
       401    1.037241E-04
       402    7.180944E-04
       403    1.813233E-04
       404   -8.994177E-04
       405    2.651652E-03
       406   -1.173855E-05
       407   -3.793593E-05
       408    3.326054E-03
       409   -7.726896E-04
       410   -2.553364E-03
       411    5.906799E-03
       412   -4.995496E-05
       413   -1.169379E-04
       414    4.900369E-03
       415   -3.684566E-03
       416   -1.215803E-03
       417    5.639157E-03
       418   -7.661996E-05
       419   -5.933833E-06
       420    3.312123E-04
       421    3.986994E-04
       422   -5.889132E-06
       423   -6.644129E-04
       424   -8.436644E-04
       425   -3.093661E-06
       426    2.200450E-04
       427    3.087530E-04
       428    1.099476E-05
       429    7.702298E-06
       430    5.415546E-04
       431    1.286794E-03
       432   -1.799904E-03
       433   -6.385216E-03
       434    2.488176E-02
       435    2.327437E-02
       436    6.318006E-03
       437    1.442913E-06
       438    8.863357E-04
       439    4.867825E-03
       440    1.096089E-06
       441    9.833928E-04
       442    4.172856E-03
       443    3.503084E-06
       444    1.797297E-03
       445    8.187646E-05
       446   -7.365567E-05
       447   -8.220783E-06
       448   -7.834991E-08
       449    8.006227E-06
       450    1.689759E-08
       451    1.143212E-04
       452    1.392916E-04
       453   -2.536129E-04
       454   -1.611916E-07
       455   -3.798820E-05
       456    1.603209E-08
       457   -1.015226E-03
       458    4.981852E-04
       459    5.170406E-04
       460    5.439266E-07
       461    2.411178E-04
       462   -4.317313E-07
       463    1.667404E-05
       464    9.998482E-09
       465    2.550022E-06
       466    2.433319E-05
       467   -1.032561E-08
       468   -9.063114E-06
       469   -4.670376E-05
       470   -3.088765E-09
       471    5.641900E-06
       472   -1.725338E-09
       473   -1.446583E-03
       474   -2.385100E-03
       475    2.882800E-03
       476    7.462657E-05
       477   -4.848810E-04
       478    1.809847E-04
       479    1.881228E-03
       480    1.506177E-03
       481    6.539768E-04
       482   -1.445022E-03
       483   -2.382786E-03
       484    2.882157E-03
       485    7.477024E-05
       486    4.847045E-04
       487    1.809480E-04
       488    1.880400E-03
       489   -1.505847E-03
       490    6.544951E-04
 Sym= X
 Ene= 0.955226
 Spin= Alpha
 Occup= 0.955226
         1   -1.631052E-06
         2    1.818301E-05
         3    2.097201E-04
         4   -4.115981E-03
         5    2.848201E-01
         6    6.472905E-02
         7    3.789131E-04
         8    2.191327E-04
         9   -1.055751E-01
        10    9.466219E-03
        11    6.528643E-04
        12   -1.122552E-01
        13   -1.857186E-01
        14    1.395252E-01
        15   -4.330876E-02
        16   -7.596130E-05
        17    2.116796E-05
        18    5.479334E-05
        19    2.927691E-06
        20    8.517774E-04
        21    2.309667E-04
        22   -9.749597E-04
        23    8.446043E-04
        24    1.303553E-04
        25   -5.827966E-04
        26   -2.123951E-03
        27   -2.446674E-03
        28    3.369739E-02
        29   -4.594911E-02
        30    1.225172E-02
        31   -3.165223E-02
        32   -5.050248E-02
        33   -3.383663E-02
        34    2.554845E-05
        35    2.027095E-05
        36    1.321324E-04
        37    1.515145E-05
        38   -7.578289E-06
        39    1.382782E-04
        40   -4.942829E-05
        41   -1.961804E-05
        42   -3.155524E-04
        43   -2.499008E-04
        44    3.042499E-05
        45    7.185779E-05
        46   -3.928879E-06
        47   -1.234203E-02
        48    4.190022E-01
        49    2.820243E-02
        50   -5.164236E-05
        51    7.820202E-07
        52    3.680013E-02
        53    5.004620E-03
        54    8.426385E-06
        55    3.197630E-02
        56   -1.248209E-01
        57   -5.128544E-04
        58    1.173247E-02
        59   -1.168553E-04
        60    3.450216E-06
        61    1.134051E-04
        62    1.503604E-07