[Molden Format]
[Title]
ADC(2) - opt by CAM-B3LYP gaussian                                              
[Atoms] AU
 c     1    6 0.12593230616935E+01 0.22795690751954E+01 -.36278607975490E-01
 c     2    6 0.25504236399298E+01 0.18897261300000E-05 -.34511714041240E-01
 c     3    6 0.12593268411458E+01 -.22795652957431E+01 -.36289946332290E-01
 c     4    6 -.13369660030996E+01 -.22791608943507E+01 -.39583738981910E-01
 c     5    6 -.26856068523561E+01 -.18897261300000E-05 -.40110972572980E-01
 c     6    6 -.13369678928258E+01 0.22791590046246E+01 -.39570510898980E-01
 h     7    1 0.23068095955089E+01 0.40296066523382E+01 -.33243707806080E-01
 h     8    1 0.23068152646873E+01 -.40296028728859E+01 -.33262605067400E-01
 h     9    1 -.23553205188504E+01 -.40525668248527E+01 -.45200005048840E-01
 h    10    1 -.23553280777549E+01 0.40525630454004E+01 -.45173548882980E-01
 n    11    7 0.52878147756133E+01 0.00000000000000E+00 -.27472484196240E-01
 o    12    8 0.63764576548767E+01 -.20283488830896E+01 -.24482937454020E-01
 o    13    8 0.63764614343290E+01 0.20283469933635E+01 -.24515062798280E-01
 n    14    7 -.52636676188715E+01 0.00000000000000E+00 -.10786332361533E+00
 h    15    1 -.61947904866021E+01 -.16076731691957E+01 0.28377485852069E+00
 h    16    1 -.61947848174237E+01 0.16076731691957E+01 0.28378430715135E+00
[GTO]
    1 0
 s    6 1.00
 0.13575349682000E+05 0.60645503603591E-03
 0.20352333680000E+04 0.46979088884982E-02
 0.46322562359000E+03 0.24332477647552E-01
 0.13120019598000E+03 0.97399968307759E-01
 0.42853015891000E+02 0.30195584253780E+00
 0.15584185766000E+02 0.66233609137875E+00
 s    2 1.00
 0.62067138508000E+01 0.65595308539952E+00
 0.25764896527000E+01 0.37585633285142E+00
 s    1 1.00
 0.57696339419000E+00 0.10000000000000E+01
 s    1 1.00
 0.22972831358000E+00 0.10000000000000E+01
 s    1 1.00
 0.95164440028000E-01 0.10000000000000E+01
 s    1 1.00
 0.48475401370000E-01 0.10000000000000E+01
 p    4 1.00
 0.34697232244000E+02 0.11327220003114E-01
 0.79582622826000E+01 0.76169659202087E-01
 0.23780826883000E+01 0.30192252202676E+00
 0.81433208183000E+00 0.72785027349547E+00
 p    1 1.00
 0.28887547253000E+00 0.10000000000000E+01
 p    1 1.00
 0.10056823671000E+00 0.10000000000000E+01
 d    1 1.00
 0.10970000000000E+01 0.10000000000000E+01
 d    1 1.00
 0.31800000000000E+00 0.10000000000000E+01
 d    1 1.00
 0.90985336424000E-01 0.10000000000000E+01
 f    1 1.00
 0.76100000000000E+00 0.10000000000000E+01
 
    2 0
 s    6 1.00
 0.13575349682000E+05 0.60645503603591E-03
 0.20352333680000E+04 0.46979088884982E-02
 0.46322562359000E+03 0.24332477647552E-01
 0.13120019598000E+03 0.97399968307759E-01
 0.42853015891000E+02 0.30195584253780E+00
 0.15584185766000E+02 0.66233609137875E+00
 s    2 1.00
 0.62067138508000E+01 0.65595308539952E+00
 0.25764896527000E+01 0.37585633285142E+00
 s    1 1.00
 0.57696339419000E+00 0.10000000000000E+01
 s    1 1.00
 0.22972831358000E+00 0.10000000000000E+01
 s    1 1.00
 0.95164440028000E-01 0.10000000000000E+01
 s    1 1.00
 0.48475401370000E-01 0.10000000000000E+01
 p    4 1.00
 0.34697232244000E+02 0.11327220003114E-01
 0.79582622826000E+01 0.76169659202087E-01
 0.23780826883000E+01 0.30192252202676E+00
 0.81433208183000E+00 0.72785027349547E+00
 p    1 1.00
 0.28887547253000E+00 0.10000000000000E+01
 p    1 1.00
 0.10056823671000E+00 0.10000000000000E+01
 d    1 1.00
 0.10970000000000E+01 0.10000000000000E+01
 d    1 1.00
 0.31800000000000E+00 0.10000000000000E+01
 d    1 1.00
 0.90985336424000E-01 0.10000000000000E+01
 f    1 1.00
 0.76100000000000E+00 0.10000000000000E+01
 
    3 0
 s    6 1.00
 0.13575349682000E+05 0.60645503603591E-03
 0.20352333680000E+04 0.46979088884982E-02
 0.46322562359000E+03 0.24332477647552E-01
 0.13120019598000E+03 0.97399968307759E-01
 0.42853015891000E+02 0.30195584253780E+00
 0.15584185766000E+02 0.66233609137875E+00
 s    2 1.00
 0.62067138508000E+01 0.65595308539952E+00
 0.25764896527000E+01 0.37585633285142E+00
 s    1 1.00
 0.57696339419000E+00 0.10000000000000E+01
 s    1 1.00
 0.22972831358000E+00 0.10000000000000E+01
 s    1 1.00
 0.95164440028000E-01 0.10000000000000E+01
 s    1 1.00
 0.48475401370000E-01 0.10000000000000E+01
 p    4 1.00
 0.34697232244000E+02 0.11327220003114E-01
 0.79582622826000E+01 0.76169659202087E-01
 0.23780826883000E+01 0.30192252202676E+00
 0.81433208183000E+00 0.72785027349547E+00
 p    1 1.00
 0.28887547253000E+00 0.10000000000000E+01
 p    1 1.00
 0.10056823671000E+00 0.10000000000000E+01
 d    1 1.00
 0.10970000000000E+01 0.10000000000000E+01
 d    1 1.00
 0.31800000000000E+00 0.10000000000000E+01
 d    1 1.00
 0.90985336424000E-01 0.10000000000000E+01
 f    1 1.00
 0.76100000000000E+00 0.10000000000000E+01
 
    4 0
 s    6 1.00
 0.13575349682000E+05 0.60645503603591E-03
 0.20352333680000E+04 0.46979088884982E-02
 0.46322562359000E+03 0.24332477647552E-01
 0.13120019598000E+03 0.97399968307759E-01
 0.42853015891000E+02 0.30195584253780E+00
 0.15584185766000E+02 0.66233609137875E+00
 s    2 1.00
 0.62067138508000E+01 0.65595308539952E+00
 0.25764896527000E+01 0.37585633285142E+00
 s    1 1.00
 0.57696339419000E+00 0.10000000000000E+01
 s    1 1.00
 0.22972831358000E+00 0.10000000000000E+01
 s    1 1.00
 0.95164440028000E-01 0.10000000000000E+01
 s    1 1.00
 0.48475401370000E-01 0.10000000000000E+01
 p    4 1.00
 0.34697232244000E+02 0.11327220003114E-01
 0.79582622826000E+01 0.76169659202087E-01
 0.23780826883000E+01 0.30192252202676E+00
 0.81433208183000E+00 0.72785027349547E+00
 p    1 1.00
 0.28887547253000E+00 0.10000000000000E+01
 p    1 1.00
 0.10056823671000E+00 0.10000000000000E+01
 d    1 1.00
 0.10970000000000E+01 0.10000000000000E+01
 d    1 1.00
 0.31800000000000E+00 0.10000000000000E+01
 d    1 1.00
 0.90985336424000E-01 0.10000000000000E+01
 f    1 1.00
 0.76100000000000E+00 0.10000000000000E+01
 
    5 0
 s    6 1.00
 0.13575349682000E+05 0.60645503603591E-03
 0.20352333680000E+04 0.46979088884982E-02
 0.46322562359000E+03 0.24332477647552E-01
 0.13120019598000E+03 0.97399968307759E-01
 0.42853015891000E+02 0.30195584253780E+00
 0.15584185766000E+02 0.66233609137875E+00
 s    2 1.00
 0.62067138508000E+01 0.65595308539952E+00
 0.25764896527000E+01 0.37585633285142E+00
 s    1 1.00
 0.57696339419000E+00 0.10000000000000E+01
 s    1 1.00
 0.22972831358000E+00 0.10000000000000E+01
 s    1 1.00
 0.95164440028000E-01 0.10000000000000E+01
 s    1 1.00
 0.48475401370000E-01 0.10000000000000E+01
 p    4 1.00
 0.34697232244000E+02 0.11327220003114E-01
 0.79582622826000E+01 0.76169659202087E-01
 0.23780826883000E+01 0.30192252202676E+00
 0.81433208183000E+00 0.72785027349547E+00
 p    1 1.00
 0.28887547253000E+00 0.10000000000000E+01
 p    1 1.00
 0.10056823671000E+00 0.10000000000000E+01
 d    1 1.00
 0.10970000000000E+01 0.10000000000000E+01
 d    1 1.00
 0.31800000000000E+00 0.10000000000000E+01
 d    1 1.00
 0.90985336424000E-01 0.10000000000000E+01
 f    1 1.00
 0.76100000000000E+00 0.10000000000000E+01
 
    6 0
 s    6 1.00
 0.13575349682000E+05 0.60645503603591E-03
 0.20352333680000E+04 0.46979088884982E-02
 0.46322562359000E+03 0.24332477647552E-01
 0.13120019598000E+03 0.97399968307759E-01
 0.42853015891000E+02 0.30195584253780E+00
 0.15584185766000E+02 0.66233609137875E+00
 s    2 1.00
 0.62067138508000E+01 0.65595308539952E+00
 0.25764896527000E+01 0.37585633285142E+00
 s    1 1.00
 0.57696339419000E+00 0.10000000000000E+01
 s    1 1.00
 0.22972831358000E+00 0.10000000000000E+01
 s    1 1.00
 0.95164440028000E-01 0.10000000000000E+01
 s    1 1.00
 0.48475401370000E-01 0.10000000000000E+01
 p    4 1.00
 0.34697232244000E+02 0.11327220003114E-01
 0.79582622826000E+01 0.76169659202087E-01
 0.23780826883000E+01 0.30192252202676E+00
 0.81433208183000E+00 0.72785027349547E+00
 p    1 1.00
 0.28887547253000E+00 0.10000000000000E+01
 p    1 1.00
 0.10056823671000E+00 0.10000000000000E+01
 d    1 1.00
 0.10970000000000E+01 0.10000000000000E+01
 d    1 1.00
 0.31800000000000E+00 0.10000000000000E+01
 d    1 1.00
 0.90985336424000E-01 0.10000000000000E+01
 f    1 1.00
 0.76100000000000E+00 0.10000000000000E+01
 
    7 0
 s    3 1.00
 0.34061341000000E+02 0.25439307208879E-01
 0.51235746000000E+01 0.19008594890375E+00
 0.11646626000000E+01 0.85244113011042E+00
 s    1 1.00
 0.32723041000000E+00 0.10000000000000E+01
 s    1 1.00
 0.10307241000000E+00 0.10000000000000E+01
 p    1 1.00
 0.80000000000000E+00 0.10000000000000E+01
 p    1 1.00
 0.95774129632000E-01 0.10000000000000E+01
 
    8 0
 s    3 1.00
 0.34061341000000E+02 0.25439307208879E-01
 0.51235746000000E+01 0.19008594890375E+00
 0.11646626000000E+01 0.85244113011042E+00
 s    1 1.00
 0.32723041000000E+00 0.10000000000000E+01
 s    1 1.00
 0.10307241000000E+00 0.10000000000000E+01
 p    1 1.00
 0.80000000000000E+00 0.10000000000000E+01
 p    1 1.00
 0.95774129632000E-01 0.10000000000000E+01
 
    9 0
 s    3 1.00
 0.34061341000000E+02 0.25439307208879E-01
 0.51235746000000E+01 0.19008594890375E+00
 0.11646626000000E+01 0.85244113011042E+00
 s    1 1.00
 0.32723041000000E+00 0.10000000000000E+01
 s    1 1.00
 0.10307241000000E+00 0.10000000000000E+01
 p    1 1.00
 0.80000000000000E+00 0.10000000000000E+01
 p    1 1.00
 0.95774129632000E-01 0.10000000000000E+01
 
   10 0
 s    3 1.00
 0.34061341000000E+02 0.25439307208879E-01
 0.51235746000000E+01 0.19008594890375E+00
 0.11646626000000E+01 0.85244113011042E+00
 s    1 1.00
 0.32723041000000E+00 0.10000000000000E+01
 s    1 1.00
 0.10307241000000E+00 0.10000000000000E+01
 p    1 1.00
 0.80000000000000E+00 0.10000000000000E+01
 p    1 1.00
 0.95774129632000E-01 0.10000000000000E+01
 
   11 0
 s    6 1.00
 0.19730800647000E+05 0.58626402628763E-03
 0.29578958745000E+04 0.45428820586397E-02
 0.67322133595000E+03 0.23558413450084E-01
 0.19068249494000E+03 0.94709193292923E-01
 0.62295441898000E+02 0.29719784913376E+00
 0.22654161182000E+02 0.66916246895232E+00
 s    2 1.00
 0.89791477428000E+01 0.64596683630063E+00
 0.36863002370000E+01 0.38700574393705E+00
 s    1 1.00
 0.84660076805000E+00 0.10000000000000E+01
 s    1 1.00
 0.33647133771000E+00 0.10000000000000E+01
 s    1 1.00
 0.13647653675000E+00 0.10000000000000E+01
 s    1 1.00
 0.68441605847000E-01 0.10000000000000E+01
 p    4 1.00
 0.49200380510000E+02 0.11448825101764E-01
 0.11346790537000E+02 0.78422337970864E-01
 0.34273972411000E+01 0.30818094738830E+00
 0.11785525134000E+01 0.72027196368413E+00
 p    1 1.00
 0.41642204972000E+00 0.10000000000000E+01
 p    1 1.00
 0.14260826011000E+00 0.10000000000000E+01
 d    1 1.00
 0.16540000000000E+01 0.10000000000000E+01
 d    1 1.00
 0.46900000000000E+00 0.10000000000000E+01
 d    1 1.00
 0.12829642058000E+00 0.10000000000000E+01
 f    1 1.00
 0.10930000000000E+01 0.10000000000000E+01
 
   12 0
 s    6 1.00
 0.27032382631000E+05 0.57227335211155E-03
 0.40523871392000E+04 0.44353233492995E-02
 0.92232722710000E+03 0.23020107706038E-01
 0.26124070989000E+03 0.92822490667928E-01
 0.85354641351000E+02 0.29378500009671E+00
 0.31035035245000E+02 0.67401604501641E+00
 s    2 1.00
 0.12260860728000E+02 0.63839937025506E+00
 0.49987076005000E+01 0.39534587125718E+00
 s    1 1.00
 0.11703108158000E+01 0.10000000000000E+01
 s    1 1.00
 0.46474740994000E+00 0.10000000000000E+01
 s    1 1.00
 0.18504536357000E+00 0.10000000000000E+01
 s    1 1.00
 0.70288026270000E-01 0.10000000000000E+01
 p    4 1.00
 0.63274954801000E+02 0.12018332222616E-01
 0.14627049379000E+02 0.83005421790056E-01
 0.44501223456000E+01 0.31991743925964E+00
 0.15275799647000E+01 0.70715542916104E+00
 p    1 1.00
 0.52935117943000E+00 0.10000000000000E+01
 p    1 1.00
 0.17478421270000E+00 0.10000000000000E+01
 p    1 1.00
 0.51112745706000E-01 0.10000000000000E+01
 d    1 1.00
 0.23140000000000E+01 0.10000000000000E+01
 d    1 1.00
 0.64500000000000E+00 0.10000000000000E+01
 d    1 1.00
 0.14696477366000E+00 0.10000000000000E+01
 f    1 1.00
 0.14280000000000E+01 0.10000000000000E+01
 
   13 0
 s    6 1.00
 0.27032382631000E+05 0.57227335211155E-03
 0.40523871392000E+04 0.44353233492995E-02
 0.92232722710000E+03 0.23020107706038E-01
 0.26124070989000E+03 0.92822490667928E-01
 0.85354641351000E+02 0.29378500009671E+00
 0.31035035245000E+02 0.67401604501641E+00
 s    2 1.00
 0.12260860728000E+02 0.63839937025506E+00
 0.49987076005000E+01 0.39534587125718E+00
 s    1 1.00
 0.11703108158000E+01 0.10000000000000E+01
 s    1 1.00
 0.46474740994000E+00 0.10000000000000E+01
 s    1 1.00
 0.18504536357000E+00 0.10000000000000E+01
 s    1 1.00
 0.70288026270000E-01 0.10000000000000E+01
 p    4 1.00
 0.63274954801000E+02 0.12018332222616E-01
 0.14627049379000E+02 0.83005421790056E-01
 0.44501223456000E+01 0.31991743925964E+00
 0.15275799647000E+01 0.70715542916104E+00
 p    1 1.00
 0.52935117943000E+00 0.10000000000000E+01
 p    1 1.00
 0.17478421270000E+00 0.10000000000000E+01
 p    1 1.00
 0.51112745706000E-01 0.10000000000000E+01
 d    1 1.00
 0.23140000000000E+01 0.10000000000000E+01
 d    1 1.00
 0.64500000000000E+00 0.10000000000000E+01
 d    1 1.00
 0.14696477366000E+00 0.10000000000000E+01
 f    1 1.00
 0.14280000000000E+01 0.10000000000000E+01
 
   14 0
 s    6 1.00
 0.19730800647000E+05 0.58626402628763E-03
 0.29578958745000E+04 0.45428820586397E-02
 0.67322133595000E+03 0.23558413450084E-01
 0.19068249494000E+03 0.94709193292923E-01
 0.62295441898000E+02 0.29719784913376E+00
 0.22654161182000E+02 0.66916246895232E+00
 s    2 1.00
 0.89791477428000E+01 0.64596683630063E+00
 0.36863002370000E+01 0.38700574393705E+00
 s    1 1.00
 0.84660076805000E+00 0.10000000000000E+01
 s    1 1.00
 0.33647133771000E+00 0.10000000000000E+01
 s    1 1.00
 0.13647653675000E+00 0.10000000000000E+01
 s    1 1.00
 0.68441605847000E-01 0.10000000000000E+01
 p    4 1.00
 0.49200380510000E+02 0.11448825101764E-01
 0.11346790537000E+02 0.78422337970864E-01
 0.34273972411000E+01 0.30818094738830E+00
 0.11785525134000E+01 0.72027196368413E+00
 p    1 1.00
 0.41642204972000E+00 0.10000000000000E+01
 p    1 1.00
 0.14260826011000E+00 0.10000000000000E+01
 d    1 1.00
 0.16540000000000E+01 0.10000000000000E+01
 d    1 1.00
 0.46900000000000E+00 0.10000000000000E+01
 d    1 1.00
 0.12829642058000E+00 0.10000000000000E+01
 f    1 1.00
 0.10930000000000E+01 0.10000000000000E+01
 
   15 0
 s    3 1.00
 0.34061341000000E+02 0.25439307208879E-01
 0.51235746000000E+01 0.19008594890375E+00
 0.11646626000000E+01 0.85244113011042E+00
 s    1 1.00
 0.32723041000000E+00 0.10000000000000E+01
 s    1 1.00
 0.10307241000000E+00 0.10000000000000E+01
 p    1 1.00
 0.80000000000000E+00 0.10000000000000E+01
 p    1 1.00
 0.95774129632000E-01 0.10000000000000E+01
 
   16 0
 s    3 1.00
 0.34061341000000E+02 0.25439307208879E-01
 0.51235746000000E+01 0.19008594890375E+00
 0.11646626000000E+01 0.85244113011042E+00
 s    1 1.00
 0.32723041000000E+00 0.10000000000000E+01
 s    1 1.00
 0.10307241000000E+00 0.10000000000000E+01
 p    1 1.00
 0.80000000000000E+00 0.10000000000000E+01
 p    1 1.00
 0.95774129632000E-01 0.10000000000000E+01
 
[MO]
 Sym= X
 Ene= -0.935388
 Spin= Alpha
 Occup= -0.935388
         1    2.283292E-04
         2    5.325530E-04
         3   -1.657530E-03
         4    4.705805E-03
         5   -2.890442E-02
         6    1.614338E-02
         7    2.496374E-03
         8    1.309760E-04
         9   -3.149267E-02
        10   -3.718203E-03
        11    5.691947E-04
        12   -2.965437E-02
        13   -3.962751E-02
        14    1.818726E-02
        15   -1.569248E-02
        16   -1.083627E-05
        17    3.042987E-05
        18   -1.959360E-05
        19    8.838411E-06
        20   -6.264027E-03
        21    3.860885E-03
        22    9.637304E-04
        23   -5.582591E-04
        24   -4.054712E-04
        25    9.843962E-04
        26   -1.419920E-02
        27    7.270552E-03
        28    4.019145E-03
        29   -3.760159E-03
        30   -2.589853E-04
        31   -2.010914E-03
        32    3.433693E-03
        33   -9.032589E-03
        34   -3.126557E-05
        35    6.133334E-06
        36    1.167241E-04
        37    1.539463E-05
        38   -4.064846E-06
        39    7.138553E-04
        40    2.655254E-05
        41   -4.163885E-06
        42   -8.704572E-04
        43    6.936150E-04
        44   -2.776357E-05
        45   -5.888183E-05
        46   -2.529762E-04
        47    4.405252E-03
        48    7.319098E-02
        49   -8.048724E-03
        50   -4.733477E-05
        51    1.225971E-06
        52   -2.012362E-01
        53   -1.077708E-03
        54    9.088917E-06
        55   -2.084850E-01
        56   -1.787235E-02
        57   -3.164825E-04
        58   -1.900839E-01
        59   -8.045647E-05
        60    7.475442E-05
        61    5.702050E-06
        62   -7.068126E-08
        63   -3.249520E-04
        64    3.787766E-07
        65   -5.507601E-04
        66    9.098923E-04
        67   -3.591322E-04
        68   -1.774982E-06
        69   -2.367375E-03
        70    3.357385E-07
        71   -1.686473E-02
        72    1.894235E-02
        73   -2.077613E-03
        74    5.953811E-05
        75    3.869070E-03
        76   -1.935885E-05
        77    7.305144E-06
        78    1.948495E-08
        79    1.132950E-03
        80   -8.182056E-06
        81    1.608752E-08
        82   -6.416622E-04
        83   -1.618823E-06
        84   -4.222933E-08
        85   -8.783495E-04
        86   -3.302725E-08
        87    2.284643E-04
        88    5.328402E-04
        89   -1.657656E-03
        90    4.704485E-03
        91   -2.969534E-02
        92    1.613898E-02
        93    2.497655E-03
        94   -1.323847E-04
        95   -3.151025E-02
        96   -3.695897E-03
        97   -5.663480E-04
        98   -2.967243E-02
        99   -3.976257E-02
       100   -1.847570E-02
       101   -1.572355E-02
       102   -1.092839E-05
       103    3.046554E-05
       104   -1.953715E-05
       105   -8.962445E-06
       106   -6.263722E-03
       107   -3.861002E-03
       108    9.592963E-04
       109   -5.541278E-04
       110   -4.051684E-04
       111   -9.830730E-04
       112   -1.419805E-02
       113   -7.270410E-03
       114    4.083904E-03
       115   -3.832345E-03
       116   -2.515591E-04
       117    1.948635E-03
       118    3.412229E-03
       119    9.017241E-03
       120   -3.125259E-05
       121   -6.111175E-06
       122    1.168251E-04
       123    1.544926E-05
       124    4.035255E-06
       125    7.137518E-04
       126    2.648050E-05
       127    4.163747E-06
       128   -8.704891E-04
       129   -6.936029E-04
       130   -1.366303E-04
       131   -2.941239E-04
       132   -7.365290E-04
       133    1.322919E-02
       134   -6.596955E-03
       135   -1.950746E-02
       136   -2.068162E-03
       137    7.232683E-04
       138    1.581255E-01
       139   -1.315557E-02
       140    8.374254E-03
       141    1.604573E-01
       142   -1.503643E-02
       143   -1.073139E-02
       144    9.970155E-02
       145   -1.898110E-04
       146    2.244409E-04
       147   -3.462991E-05
       148   -2.605287E-06
       149   -1.349886E-03
       150    3.413281E-03
       151   -1.026372E-03
       152    1.092183E-03
       153   -6.581084E-05
       154   -2.266198E-03
       155   -5.354220E-03
       156    5.627091E-03
       157   -1.016591E-02
       158    7.538003E-03
       159    2.627911E-03
       160    1.593712E-02
       161    4.142919E-03
       162   -1.042566E-02
       163   -2.717166E-05
       164    9.645944E-06
       165   -9.259646E-04
       166   -2.024151E-05
       167    2.711577E-05
       168    2.094662E-04
       169    5.669611E-05
       170   -4.005717E-05
       171    1.032846E-03
       172   -4.038864E-04
       173    1.386401E-03
       174    3.162557E-03
       175   -2.982455E-03
       176   -3.066775E-02
       177    6.329857E-02
       178   -9.047944E-03
       179    1.112359E-02
       180   -1.528032E-06
       181    1.389070E-01
       182   -1.135806E-04
       183   -5.649760E-06
       184    1.415911E-01
       185   -5.758636E-02
       186    4.353002E-04
       187    1.368912E-01
       188   -6.500544E-04
       189    3.661387E-04
       190    2.839157E-04
       191   -1.674072E-07
       192    9.315277E-03
       193    4.357845E-07
       194    2.459895E-03
       195   -5.509444E-03
       196    3.049549E-03
       197   -1.052905E-06
       198    2.334844E-02
       199   -9.233695E-07
       200    1.085622E-02
       201   -1.199402E-02
       202    1.137800E-03
       203    9.718173E-05
       204    1.455831E-02
       205    1.629298E-05
       206    1.502835E-04
       207    6.078257E-09
       208   -5.279374E-04
       209   -1.123110E-04
       210   -2.755975E-08
       211   -8.560714E-04
       212   -8.931551E-05
       213    1.940491E-08
       214    1.564374E-03
       215    1.440389E-09
       216   -1.369521E-04
       217   -2.948116E-04
       218   -7.346196E-04
       219    1.322693E-02
       220   -7.631721E-03
       221   -1.949287E-02
       222   -2.067251E-03
       223   -7.197263E-04
       224    1.581408E-01
       225   -1.316673E-02
       226   -8.374652E-03
       227    1.604767E-01
       228   -1.489274E-02
       229    1.116464E-02
       230    9.968295E-02
       231   -1.897178E-04
       232    2.245651E-04
       233   -3.484729E-05
       234    2.380806E-06
       235   -1.349524E-03
       236   -3.413355E-03
       237   -1.030238E-03
       238    1.095455E-03
       239   -6.521665E-05
       240    2.267155E-03
       241   -5.353352E-03
       242   -5.627476E-03
       243   -1.010794E-02
       244    7.479529E-03
       245    2.628414E-03
       246   -1.600213E-02
       247    4.167065E-03
       248    1.044716E-02
       249   -2.725698E-05
       250   -9.678924E-06
       251   -9.261464E-04
       252   -2.025931E-05
       253   -2.706105E-05
       254    2.096446E-04
       255    5.682838E-05
       256    4.004669E-05
       257    1.032911E-03
       258    4.039137E-04
       259    5.143777E-04
       260    2.053887E-04
       261    2.180792E-02
       262   -8.103438E-06
       263    1.285147E-05
       264   -1.294722E-03
       265   -6.895217E-03
       266   -1.008542E-03
       267    4.650813E-03
       268    5.155293E-04
       269    2.031456E-04
       270    2.180298E-02
       271   -7.740756E-06
       272   -1.325655E-05
       273   -1.295432E-03
       274   -6.957333E-03
       275    9.846518E-04
       276    4.649663E-03
       277    5.789995E-04
       278    3.340219E-03
       279   -5.013390E-02
       280   -2.800780E-05
       281    1.436978E-04
       282    6.443094E-03
       283   -1.156175E-03
       284   -4.416002E-03
       285    1.040574E-03
       286    5.813498E-04
       287    3.339649E-03
       288   -5.024823E-02
       289   -2.787943E-05
       290   -1.435850E-04
       291    6.443898E-03
       292   -1.127161E-03
       293    4.442412E-03
       294    1.034749E-03
       295    7.303024E-05
       296    1.708259E-04
       297   -1.813572E-04
       298   -4.083929E-04
       299    1.035673E-02
       300    7.969381E-04
       301    1.038404E-03
       302   -7.143973E-07
       303   -1.546461E-02
       304    5.473277E-04
       305   -7.108619E-07
       306   -1.758078E-02
       307   -3.735888E-03
       308   -2.425467E-07
       309   -3.432708E-03
       310   -5.443737E-05
       311    4.336141E-05
       312    1.107596E-05
       313   -8.895520E-08
       314    4.059672E-03
       315   -1.442451E-08
       316   -9.109481E-05
       317    1.674387E-05
       318    7.435094E-05
       319   -1.952849E-07
       320    1.221334E-02
       321   -7.743560E-09
       322    6.583005E-04
       323   -3.711115E-03
       324    3.052814E-03
       325   -8.074714E-06
       326    3.256042E-03
       327    3.688162E-06
       328    9.172068E-06
       329    1.935134E-08
       330    2.762215E-05
       331   -5.096347E-06
       332   -1.629294E-08
       333   -6.779840E-04
       334   -7.209274E-06
       335   -9.669600E-09
       336    6.409250E-04
       337   -3.918818E-09
       338    1.849888E-05
       339    3.995949E-05
       340    2.349917E-06
       341   -7.730347E-04
       342    8.501994E-03
       343    1.728570E-03
       344   -1.018148E-03
       345    7.966094E-05
       346    6.825639E-02
       347   -1.086038E-03
       348    2.434335E-04
       349    6.333981E-02
       350   -2.062385E-03
       351    8.019174E-04
       352    5.036821E-02
       353   -4.117935E-04
       354    2.809114E-04
       355    5.793618E-03
       356   -3.136605E-06
       357    7.430362E-06
       358   -4.293757E-06
       359   -7.546341E-06
       360    6.492398E-06
       361    4.464340E-04
       362    2.053230E-05
       363    1.403902E-05
       364   -3.457132E-05
       365   -2.740006E-05
       366   -4.819212E-04
       367    1.458596E-03
       368    8.682435E-05
       369   -7.162016E-06
       370   -7.966233E-05
       371   -1.993519E-06
       372   -6.475235E-04
       373    2.570305E-04
       374    1.834484E-06
       375    1.658624E-06
       376   -5.401403E-05
       377   -3.306730E-06
       378    1.094257E-06
       379   -8.349841E-05
       380    8.455112E-07
       381   -3.319534E-06
       382    1.559658E-04
       383   -1.201595E-04
       384    1.850328E-05
       385    3.998013E-05
       386    2.240870E-06
       387   -7.725611E-04
       388    8.509681E-03
       389    1.715551E-03
       390   -1.020385E-03
       391   -7.506707E-05
       392    6.825524E-02
       393   -1.088216E-03
       394   -2.394475E-04
       395    6.333915E-02
       396   -2.058153E-03
       397   -8.023521E-04
       398    5.036116E-02
       399   -4.059085E-04
       400   -2.831886E-04
       401    5.794086E-03
       402   -3.093206E-06
       403    7.355316E-06
       404   -4.262111E-06
       405    7.540277E-06
       406    6.473540E-06
       407   -4.464387E-04
       408    2.053930E-05
       409    1.392689E-05
       410   -3.446619E-05
       411    2.730460E-05
       412   -4.818466E-04
       413   -1.458439E-03
       414    8.750270E-05
       415   -7.951666E-06
       416   -7.955104E-05
       417    2.638633E-06
       418   -6.474000E-04
       419   -2.562142E-04
       420    1.826484E-06
       421   -1.639161E-06
       422   -5.401668E-05
       423   -3.290399E-06
       424   -1.103960E-06
       425   -8.349002E-05
       426    8.399142E-07
       427    3.303125E-06
       428    1.559610E-04
       429    1.201545E-04
       430   -6.426460E-03
       431   -1.528233E-02
       432    2.382589E-02
       433    3.926631E-02
       434    1.426245E-02
       435    8.989285E-02
       436   -2.322689E-02
       437    4.716717E-06
       438   -2.344070E-01
       439   -2.670422E-02
       440    1.257880E-06
       441   -2.312269E-01
       442   -3.019592E-02
       443   -4.108868E-05
       444   -1.923171E-01
       445    1.804156E-04
       446    2.159829E-05
       447   -2.020139E-04
       448   -1.009956E-07
       449    1.238984E-03
       450    1.666075E-07
       451    3.898395E-04
       452    2.124924E-03
       453   -2.514763E-03
       454    1.394456E-06
       455    4.536089E-03
       456    7.868919E-07
       457    3.326390E-03
       458    5.313515E-03
       459   -8.639905E-03
       460    3.222116E-06
       461    2.756627E-03
       462    3.615171E-06
       463   -2.018150E-04
       464    2.753420E-08
       465    8.336422E-04
       466   -1.136201E-04
       467    8.611639E-09
       468   -3.638099E-04
       469    3.843833E-04
       470   -4.555265E-08
       471   -7.546384E-04
       472    5.434213E-09
       473   -1.329616E-02
       474   -2.564447E-02
       475   -4.839576E-02
       476   -2.967523E-03
       477   -2.591407E-03
       478   -1.183029E-02
       479    5.659853E-04
       480   -5.433164E-03
       481   -1.467425E-02
       482   -1.329309E-02
       483   -2.561418E-02
       484   -4.825786E-02
       485   -2.965741E-03
       486    2.588913E-03
       487   -1.183242E-02
       488    5.925314E-04
       489    5.419370E-03
       490   -1.468357E-02
 Sym= X
 Ene= 0.935388
 Spin= Alpha
 Occup= 0.935388
         1   -1.291536E-02
         2   -2.892745E-02
         3    2.248629E-02
         4    3.330094E-01
         5    5.858096E+00
         6   -4.038991E+00
         7    7.306117E-03
         8    1.955057E-02
         9    1.430381E-03
        10   -3.024127E-03
        11   -4.439044E-04
        12    5.185836E-04
        13    7.959216E-01
        14    2.114483E-01
        15   -8.597837E-02
        16    1.849566E-03
        17    1.384287E-04
        18   -1.987995E-03
        19   -3.566865E-04
        20    6.554020E-05
        21   -3.029526E-04
        22    1.397459E-02
        23    4.228345E-04
        24   -1.439743E-02
        25   -8.815067E-03
        26    6.311411E-04
        27   -2.280344E-04
        28   -2.073963E-01
        29    3.021312E-04
        30    2.070942E-01
        31    7.830212E-01
        32    2.131359E-02
        33    4.666013E-03
        34   -5.220232E-04
        35   -5.293434E-05
        36   -5.443521E-05
        37    7.516105E-04
        38   -1.262315E-06
        39    4.247714E-05
        40   -5.124286E-05
        41    7.228118E-05
        42    3.055535E-05
        43    4.569206E-05
        44   -4.044784E-03
        45   -8.305489E-03
        46   -3.712358E-03
        47    2.039355E-01
        48    3.613876E+00
        49    3.156483E+00
        50    7.832969E-03
        51    3.839356E-05
        52    3.799585E-03
        53    8.459196E-02
        54    4.220004E-04
        55    6.623443E-03
        56    2.467519E+00
        57   -1.921592E-02
        58    5.785414E-02
        59    1.337775E-04
        60    2.755987E-03
        61   -2.889764E-03
        62   -5.648616E-06