[Molden Format]
[Title]
ADC(2) - opt by CAM-B3LYP gaussian                                              
[Atoms] AU
 c     1    6 0.12593230616935E+01 0.22795690751954E+01 -.36278607975490E-01
 c     2    6 0.25504236399298E+01 0.18897261300000E-05 -.34511714041240E-01
 c     3    6 0.12593268411458E+01 -.22795652957431E+01 -.36289946332290E-01
 c     4    6 -.13369660030996E+01 -.22791608943507E+01 -.39583738981910E-01
 c     5    6 -.26856068523561E+01 -.18897261300000E-05 -.40110972572980E-01
 c     6    6 -.13369678928258E+01 0.22791590046246E+01 -.39570510898980E-01
 h     7    1 0.23068095955089E+01 0.40296066523382E+01 -.33243707806080E-01
 h     8    1 0.23068152646873E+01 -.40296028728859E+01 -.33262605067400E-01
 h     9    1 -.23553205188504E+01 -.40525668248527E+01 -.45200005048840E-01
 h    10    1 -.23553280777549E+01 0.40525630454004E+01 -.45173548882980E-01
 n    11    7 0.52878147756133E+01 0.00000000000000E+00 -.27472484196240E-01
 o    12    8 0.63764576548767E+01 -.20283488830896E+01 -.24482937454020E-01
 o    13    8 0.63764614343290E+01 0.20283469933635E+01 -.24515062798280E-01
 n    14    7 -.52636676188715E+01 0.00000000000000E+00 -.10786332361533E+00
 h    15    1 -.61947904866021E+01 -.16076731691957E+01 0.28377485852069E+00
 h    16    1 -.61947848174237E+01 0.16076731691957E+01 0.28378430715135E+00
[GTO]
    1 0
 s    6 1.00
 0.13575349682000E+05 0.60645503603591E-03
 0.20352333680000E+04 0.46979088884982E-02
 0.46322562359000E+03 0.24332477647552E-01
 0.13120019598000E+03 0.97399968307759E-01
 0.42853015891000E+02 0.30195584253780E+00
 0.15584185766000E+02 0.66233609137875E+00
 s    2 1.00
 0.62067138508000E+01 0.65595308539952E+00
 0.25764896527000E+01 0.37585633285142E+00
 s    1 1.00
 0.57696339419000E+00 0.10000000000000E+01
 s    1 1.00
 0.22972831358000E+00 0.10000000000000E+01
 s    1 1.00
 0.95164440028000E-01 0.10000000000000E+01
 s    1 1.00
 0.48475401370000E-01 0.10000000000000E+01
 p    4 1.00
 0.34697232244000E+02 0.11327220003114E-01
 0.79582622826000E+01 0.76169659202087E-01
 0.23780826883000E+01 0.30192252202676E+00
 0.81433208183000E+00 0.72785027349547E+00
 p    1 1.00
 0.28887547253000E+00 0.10000000000000E+01
 p    1 1.00
 0.10056823671000E+00 0.10000000000000E+01
 d    1 1.00
 0.10970000000000E+01 0.10000000000000E+01
 d    1 1.00
 0.31800000000000E+00 0.10000000000000E+01
 d    1 1.00
 0.90985336424000E-01 0.10000000000000E+01
 f    1 1.00
 0.76100000000000E+00 0.10000000000000E+01
 
    2 0
 s    6 1.00
 0.13575349682000E+05 0.60645503603591E-03
 0.20352333680000E+04 0.46979088884982E-02
 0.46322562359000E+03 0.24332477647552E-01
 0.13120019598000E+03 0.97399968307759E-01
 0.42853015891000E+02 0.30195584253780E+00
 0.15584185766000E+02 0.66233609137875E+00
 s    2 1.00
 0.62067138508000E+01 0.65595308539952E+00
 0.25764896527000E+01 0.37585633285142E+00
 s    1 1.00
 0.57696339419000E+00 0.10000000000000E+01
 s    1 1.00
 0.22972831358000E+00 0.10000000000000E+01
 s    1 1.00
 0.95164440028000E-01 0.10000000000000E+01
 s    1 1.00
 0.48475401370000E-01 0.10000000000000E+01
 p    4 1.00
 0.34697232244000E+02 0.11327220003114E-01
 0.79582622826000E+01 0.76169659202087E-01
 0.23780826883000E+01 0.30192252202676E+00
 0.81433208183000E+00 0.72785027349547E+00
 p    1 1.00
 0.28887547253000E+00 0.10000000000000E+01
 p    1 1.00
 0.10056823671000E+00 0.10000000000000E+01
 d    1 1.00
 0.10970000000000E+01 0.10000000000000E+01
 d    1 1.00
 0.31800000000000E+00 0.10000000000000E+01
 d    1 1.00
 0.90985336424000E-01 0.10000000000000E+01
 f    1 1.00
 0.76100000000000E+00 0.10000000000000E+01
 
    3 0
 s    6 1.00
 0.13575349682000E+05 0.60645503603591E-03
 0.20352333680000E+04 0.46979088884982E-02
 0.46322562359000E+03 0.24332477647552E-01
 0.13120019598000E+03 0.97399968307759E-01
 0.42853015891000E+02 0.30195584253780E+00
 0.15584185766000E+02 0.66233609137875E+00
 s    2 1.00
 0.62067138508000E+01 0.65595308539952E+00
 0.25764896527000E+01 0.37585633285142E+00
 s    1 1.00
 0.57696339419000E+00 0.10000000000000E+01
 s    1 1.00
 0.22972831358000E+00 0.10000000000000E+01
 s    1 1.00
 0.95164440028000E-01 0.10000000000000E+01
 s    1 1.00
 0.48475401370000E-01 0.10000000000000E+01
 p    4 1.00
 0.34697232244000E+02 0.11327220003114E-01
 0.79582622826000E+01 0.76169659202087E-01
 0.23780826883000E+01 0.30192252202676E+00
 0.81433208183000E+00 0.72785027349547E+00
 p    1 1.00
 0.28887547253000E+00 0.10000000000000E+01
 p    1 1.00
 0.10056823671000E+00 0.10000000000000E+01
 d    1 1.00
 0.10970000000000E+01 0.10000000000000E+01
 d    1 1.00
 0.31800000000000E+00 0.10000000000000E+01
 d    1 1.00
 0.90985336424000E-01 0.10000000000000E+01
 f    1 1.00
 0.76100000000000E+00 0.10000000000000E+01
 
    4 0
 s    6 1.00
 0.13575349682000E+05 0.60645503603591E-03
 0.20352333680000E+04 0.46979088884982E-02
 0.46322562359000E+03 0.24332477647552E-01
 0.13120019598000E+03 0.97399968307759E-01
 0.42853015891000E+02 0.30195584253780E+00
 0.15584185766000E+02 0.66233609137875E+00
 s    2 1.00
 0.62067138508000E+01 0.65595308539952E+00
 0.25764896527000E+01 0.37585633285142E+00
 s    1 1.00
 0.57696339419000E+00 0.10000000000000E+01
 s    1 1.00
 0.22972831358000E+00 0.10000000000000E+01
 s    1 1.00
 0.95164440028000E-01 0.10000000000000E+01
 s    1 1.00
 0.48475401370000E-01 0.10000000000000E+01
 p    4 1.00
 0.34697232244000E+02 0.11327220003114E-01
 0.79582622826000E+01 0.76169659202087E-01
 0.23780826883000E+01 0.30192252202676E+00
 0.81433208183000E+00 0.72785027349547E+00
 p    1 1.00
 0.28887547253000E+00 0.10000000000000E+01
 p    1 1.00
 0.10056823671000E+00 0.10000000000000E+01
 d    1 1.00
 0.10970000000000E+01 0.10000000000000E+01
 d    1 1.00
 0.31800000000000E+00 0.10000000000000E+01
 d    1 1.00
 0.90985336424000E-01 0.10000000000000E+01
 f    1 1.00
 0.76100000000000E+00 0.10000000000000E+01
 
    5 0
 s    6 1.00
 0.13575349682000E+05 0.60645503603591E-03
 0.20352333680000E+04 0.46979088884982E-02
 0.46322562359000E+03 0.24332477647552E-01
 0.13120019598000E+03 0.97399968307759E-01
 0.42853015891000E+02 0.30195584253780E+00
 0.15584185766000E+02 0.66233609137875E+00
 s    2 1.00
 0.62067138508000E+01 0.65595308539952E+00
 0.25764896527000E+01 0.37585633285142E+00
 s    1 1.00
 0.57696339419000E+00 0.10000000000000E+01
 s    1 1.00
 0.22972831358000E+00 0.10000000000000E+01
 s    1 1.00
 0.95164440028000E-01 0.10000000000000E+01
 s    1 1.00
 0.48475401370000E-01 0.10000000000000E+01
 p    4 1.00
 0.34697232244000E+02 0.11327220003114E-01
 0.79582622826000E+01 0.76169659202087E-01
 0.23780826883000E+01 0.30192252202676E+00
 0.81433208183000E+00 0.72785027349547E+00
 p    1 1.00
 0.28887547253000E+00 0.10000000000000E+01
 p    1 1.00
 0.10056823671000E+00 0.10000000000000E+01
 d    1 1.00
 0.10970000000000E+01 0.10000000000000E+01
 d    1 1.00
 0.31800000000000E+00 0.10000000000000E+01
 d    1 1.00
 0.90985336424000E-01 0.10000000000000E+01
 f    1 1.00
 0.76100000000000E+00 0.10000000000000E+01
 
    6 0
 s    6 1.00
 0.13575349682000E+05 0.60645503603591E-03
 0.20352333680000E+04 0.46979088884982E-02
 0.46322562359000E+03 0.24332477647552E-01
 0.13120019598000E+03 0.97399968307759E-01
 0.42853015891000E+02 0.30195584253780E+00
 0.15584185766000E+02 0.66233609137875E+00
 s    2 1.00
 0.62067138508000E+01 0.65595308539952E+00
 0.25764896527000E+01 0.37585633285142E+00
 s    1 1.00
 0.57696339419000E+00 0.10000000000000E+01
 s    1 1.00
 0.22972831358000E+00 0.10000000000000E+01
 s    1 1.00
 0.95164440028000E-01 0.10000000000000E+01
 s    1 1.00
 0.48475401370000E-01 0.10000000000000E+01
 p    4 1.00
 0.34697232244000E+02 0.11327220003114E-01
 0.79582622826000E+01 0.76169659202087E-01
 0.23780826883000E+01 0.30192252202676E+00
 0.81433208183000E+00 0.72785027349547E+00
 p    1 1.00
 0.28887547253000E+00 0.10000000000000E+01
 p    1 1.00
 0.10056823671000E+00 0.10000000000000E+01
 d    1 1.00
 0.10970000000000E+01 0.10000000000000E+01
 d    1 1.00
 0.31800000000000E+00 0.10000000000000E+01
 d    1 1.00
 0.90985336424000E-01 0.10000000000000E+01
 f    1 1.00
 0.76100000000000E+00 0.10000000000000E+01
 
    7 0
 s    3 1.00
 0.34061341000000E+02 0.25439307208879E-01
 0.51235746000000E+01 0.19008594890375E+00
 0.11646626000000E+01 0.85244113011042E+00
 s    1 1.00
 0.32723041000000E+00 0.10000000000000E+01
 s    1 1.00
 0.10307241000000E+00 0.10000000000000E+01
 p    1 1.00
 0.80000000000000E+00 0.10000000000000E+01
 p    1 1.00
 0.95774129632000E-01 0.10000000000000E+01
 
    8 0
 s    3 1.00
 0.34061341000000E+02 0.25439307208879E-01
 0.51235746000000E+01 0.19008594890375E+00
 0.11646626000000E+01 0.85244113011042E+00
 s    1 1.00
 0.32723041000000E+00 0.10000000000000E+01
 s    1 1.00
 0.10307241000000E+00 0.10000000000000E+01
 p    1 1.00
 0.80000000000000E+00 0.10000000000000E+01
 p    1 1.00
 0.95774129632000E-01 0.10000000000000E+01
 
    9 0
 s    3 1.00
 0.34061341000000E+02 0.25439307208879E-01
 0.51235746000000E+01 0.19008594890375E+00
 0.11646626000000E+01 0.85244113011042E+00
 s    1 1.00
 0.32723041000000E+00 0.10000000000000E+01
 s    1 1.00
 0.10307241000000E+00 0.10000000000000E+01
 p    1 1.00
 0.80000000000000E+00 0.10000000000000E+01
 p    1 1.00
 0.95774129632000E-01 0.10000000000000E+01
 
   10 0
 s    3 1.00
 0.34061341000000E+02 0.25439307208879E-01
 0.51235746000000E+01 0.19008594890375E+00
 0.11646626000000E+01 0.85244113011042E+00
 s    1 1.00
 0.32723041000000E+00 0.10000000000000E+01
 s    1 1.00
 0.10307241000000E+00 0.10000000000000E+01
 p    1 1.00
 0.80000000000000E+00 0.10000000000000E+01
 p    1 1.00
 0.95774129632000E-01 0.10000000000000E+01
 
   11 0
 s    6 1.00
 0.19730800647000E+05 0.58626402628763E-03
 0.29578958745000E+04 0.45428820586397E-02
 0.67322133595000E+03 0.23558413450084E-01
 0.19068249494000E+03 0.94709193292923E-01
 0.62295441898000E+02 0.29719784913376E+00
 0.22654161182000E+02 0.66916246895232E+00
 s    2 1.00
 0.89791477428000E+01 0.64596683630063E+00
 0.36863002370000E+01 0.38700574393705E+00
 s    1 1.00
 0.84660076805000E+00 0.10000000000000E+01
 s    1 1.00
 0.33647133771000E+00 0.10000000000000E+01
 s    1 1.00
 0.13647653675000E+00 0.10000000000000E+01
 s    1 1.00
 0.68441605847000E-01 0.10000000000000E+01
 p    4 1.00
 0.49200380510000E+02 0.11448825101764E-01
 0.11346790537000E+02 0.78422337970864E-01
 0.34273972411000E+01 0.30818094738830E+00
 0.11785525134000E+01 0.72027196368413E+00
 p    1 1.00
 0.41642204972000E+00 0.10000000000000E+01
 p    1 1.00
 0.14260826011000E+00 0.10000000000000E+01
 d    1 1.00
 0.16540000000000E+01 0.10000000000000E+01
 d    1 1.00
 0.46900000000000E+00 0.10000000000000E+01
 d    1 1.00
 0.12829642058000E+00 0.10000000000000E+01
 f    1 1.00
 0.10930000000000E+01 0.10000000000000E+01
 
   12 0
 s    6 1.00
 0.27032382631000E+05 0.57227335211155E-03
 0.40523871392000E+04 0.44353233492995E-02
 0.92232722710000E+03 0.23020107706038E-01
 0.26124070989000E+03 0.92822490667928E-01
 0.85354641351000E+02 0.29378500009671E+00
 0.31035035245000E+02 0.67401604501641E+00
 s    2 1.00
 0.12260860728000E+02 0.63839937025506E+00
 0.49987076005000E+01 0.39534587125718E+00
 s    1 1.00
 0.11703108158000E+01 0.10000000000000E+01
 s    1 1.00
 0.46474740994000E+00 0.10000000000000E+01
 s    1 1.00
 0.18504536357000E+00 0.10000000000000E+01
 s    1 1.00
 0.70288026270000E-01 0.10000000000000E+01
 p    4 1.00
 0.63274954801000E+02 0.12018332222616E-01
 0.14627049379000E+02 0.83005421790056E-01
 0.44501223456000E+01 0.31991743925964E+00
 0.15275799647000E+01 0.70715542916104E+00
 p    1 1.00
 0.52935117943000E+00 0.10000000000000E+01
 p    1 1.00
 0.17478421270000E+00 0.10000000000000E+01
 p    1 1.00
 0.51112745706000E-01 0.10000000000000E+01
 d    1 1.00
 0.23140000000000E+01 0.10000000000000E+01
 d    1 1.00
 0.64500000000000E+00 0.10000000000000E+01
 d    1 1.00
 0.14696477366000E+00 0.10000000000000E+01
 f    1 1.00
 0.14280000000000E+01 0.10000000000000E+01
 
   13 0
 s    6 1.00
 0.27032382631000E+05 0.57227335211155E-03
 0.40523871392000E+04 0.44353233492995E-02
 0.92232722710000E+03 0.23020107706038E-01
 0.26124070989000E+03 0.92822490667928E-01
 0.85354641351000E+02 0.29378500009671E+00
 0.31035035245000E+02 0.67401604501641E+00
 s    2 1.00
 0.12260860728000E+02 0.63839937025506E+00
 0.49987076005000E+01 0.39534587125718E+00
 s    1 1.00
 0.11703108158000E+01 0.10000000000000E+01
 s    1 1.00
 0.46474740994000E+00 0.10000000000000E+01
 s    1 1.00
 0.18504536357000E+00 0.10000000000000E+01
 s    1 1.00
 0.70288026270000E-01 0.10000000000000E+01
 p    4 1.00
 0.63274954801000E+02 0.12018332222616E-01
 0.14627049379000E+02 0.83005421790056E-01
 0.44501223456000E+01 0.31991743925964E+00
 0.15275799647000E+01 0.70715542916104E+00
 p    1 1.00
 0.52935117943000E+00 0.10000000000000E+01
 p    1 1.00
 0.17478421270000E+00 0.10000000000000E+01
 p    1 1.00
 0.51112745706000E-01 0.10000000000000E+01
 d    1 1.00
 0.23140000000000E+01 0.10000000000000E+01
 d    1 1.00
 0.64500000000000E+00 0.10000000000000E+01
 d    1 1.00
 0.14696477366000E+00 0.10000000000000E+01
 f    1 1.00
 0.14280000000000E+01 0.10000000000000E+01
 
   14 0
 s    6 1.00
 0.19730800647000E+05 0.58626402628763E-03
 0.29578958745000E+04 0.45428820586397E-02
 0.67322133595000E+03 0.23558413450084E-01
 0.19068249494000E+03 0.94709193292923E-01
 0.62295441898000E+02 0.29719784913376E+00
 0.22654161182000E+02 0.66916246895232E+00
 s    2 1.00
 0.89791477428000E+01 0.64596683630063E+00
 0.36863002370000E+01 0.38700574393705E+00
 s    1 1.00
 0.84660076805000E+00 0.10000000000000E+01
 s    1 1.00
 0.33647133771000E+00 0.10000000000000E+01
 s    1 1.00
 0.13647653675000E+00 0.10000000000000E+01
 s    1 1.00
 0.68441605847000E-01 0.10000000000000E+01
 p    4 1.00
 0.49200380510000E+02 0.11448825101764E-01
 0.11346790537000E+02 0.78422337970864E-01
 0.34273972411000E+01 0.30818094738830E+00
 0.11785525134000E+01 0.72027196368413E+00
 p    1 1.00
 0.41642204972000E+00 0.10000000000000E+01
 p    1 1.00
 0.14260826011000E+00 0.10000000000000E+01
 d    1 1.00
 0.16540000000000E+01 0.10000000000000E+01
 d    1 1.00
 0.46900000000000E+00 0.10000000000000E+01
 d    1 1.00
 0.12829642058000E+00 0.10000000000000E+01
 f    1 1.00
 0.10930000000000E+01 0.10000000000000E+01
 
   15 0
 s    3 1.00
 0.34061341000000E+02 0.25439307208879E-01
 0.51235746000000E+01 0.19008594890375E+00
 0.11646626000000E+01 0.85244113011042E+00
 s    1 1.00
 0.32723041000000E+00 0.10000000000000E+01
 s    1 1.00
 0.10307241000000E+00 0.10000000000000E+01
 p    1 1.00
 0.80000000000000E+00 0.10000000000000E+01
 p    1 1.00
 0.95774129632000E-01 0.10000000000000E+01
 
   16 0
 s    3 1.00
 0.34061341000000E+02 0.25439307208879E-01
 0.51235746000000E+01 0.19008594890375E+00
 0.11646626000000E+01 0.85244113011042E+00
 s    1 1.00
 0.32723041000000E+00 0.10000000000000E+01
 s    1 1.00
 0.10307241000000E+00 0.10000000000000E+01
 p    1 1.00
 0.80000000000000E+00 0.10000000000000E+01
 p    1 1.00
 0.95774129632000E-01 0.10000000000000E+01
 
[MO]
 Sym= X
 Ene= -0.952963
 Spin= Alpha
 Occup= -0.952963
         1    1.781018E-04
         2    4.173309E-04
         3   -1.401412E-03
         4    4.444980E-03
         5   -2.677389E-02
         6    1.457433E-02
         7    1.622853E-03
         8    1.587647E-04
         9   -4.452092E-02
        10   -3.827181E-03
        11    5.272464E-04
        12   -4.252252E-02
        13   -3.641932E-02
        14    1.799391E-02
        15   -2.039984E-02
        16    1.567254E-05
        17    4.931489E-06
        18   -2.060402E-05
        19    6.261665E-07
        20   -6.314028E-03
        21    4.272188E-03
        22    9.021623E-04
        23   -5.253023E-04
        24   -3.768601E-04
        25    8.642673E-04
        26   -1.435006E-02
        27    7.947661E-03
        28    3.832164E-03
        29   -3.630704E-03
        30   -2.014605E-04
        31   -1.732468E-03
        32    2.785193E-03
        33   -8.543278E-03
        34   -3.021414E-05
        35    5.622427E-06
        36    2.252946E-04
        37    1.486296E-05
        38   -3.931986E-06
        39    6.559292E-04
        40    2.567356E-05
        41   -3.611292E-06
        42   -9.581936E-04
        43    7.396682E-04
        44   -3.425275E-05
        45   -7.445711E-05
        46   -1.730883E-04
        47    3.855975E-03
        48    7.126517E-02
        49   -6.739835E-03
        50    5.112164E-04
        51    1.234885E-06
        52   -2.205309E-01
        53   -4.970025E-04
        54    1.011614E-05
        55   -2.279784E-01
        56   -1.713925E-02
        57   -2.895569E-04
        58   -1.962741E-01
        59   -3.959900E-05
        60    3.531370E-05
        61    4.285299E-06
        62   -7.149078E-08
        63   -3.921796E-05
        64    3.725141E-07
        65   -4.535424E-04
        66    7.717629E-04
        67   -3.182205E-04
        68   -1.939060E-06
        69   -1.898004E-03
        70    3.113723E-07
        71   -1.490050E-02
        72    1.689613E-02
        73   -1.995638E-03
        74    5.675957E-05
        75    4.620258E-03
        76   -1.752997E-05
        77    1.038019E-05
        78    3.029241E-08
        79    1.284695E-03
        80   -8.783169E-06
        81    9.685188E-09
        82   -7.165833E-04
        83   -5.143313E-06
        84   -5.032672E-08
        85   -1.007016E-03
        86   -3.173717E-08
        87    1.783400E-04
        88    4.178539E-04
        89   -1.402147E-03
        90    4.443987E-03
        91   -2.746474E-02
        92    1.456589E-02
        93    1.623357E-03
        94   -1.594355E-04
        95   -4.453812E-02
        96   -3.805731E-03
        97   -5.226926E-04
        98   -4.254036E-02
        99   -3.656473E-02
       100   -1.824988E-02
       101   -2.042815E-02
       102    1.559230E-05
       103    4.946717E-06
       104   -2.053901E-05
       105   -7.150406E-07
       106   -6.313727E-03
       107   -4.272311E-03
       108    8.980168E-04
       109   -5.213028E-04
       110   -3.767140E-04
       111   -8.626434E-04
       112   -1.434890E-02
       113   -7.947458E-03
       114    3.896946E-03
       115   -3.702036E-03
       116   -1.949105E-04
       117    1.672565E-03
       118    2.765956E-03
       119    8.531298E-03
       120   -3.020800E-05
       121   -5.598494E-06
       122    2.253968E-04
       123    1.492387E-05
       124    3.911637E-06
       125    6.558228E-04
       126    2.560441E-05
       127    3.599531E-06
       128   -9.582243E-04
       129   -7.396539E-04
       130   -1.003461E-04
       131   -2.134120E-04
       132   -7.285952E-04
       133    1.168773E-02
       134   -8.254623E-03
       135   -1.764876E-02
       136   -1.180512E-03
       137    4.848487E-04
       138    1.534179E-01
       139   -1.127904E-02
       140    7.388419E-03
       141    1.557692E-01
       142   -1.345585E-02
       143   -9.163852E-03
       144    9.820996E-02
       145   -1.379066E-04
       146    1.655966E-04
       147   -2.769007E-05
       148   -4.730123E-06
       149   -1.730339E-03
       150    3.454851E-03
       151   -9.136466E-04
       152    9.558854E-04
       153   -4.223879E-05
       154   -2.022097E-03
       155   -6.007171E-03
       156    5.768452E-03
       157   -9.164489E-03
       158    6.759580E-03
       159    2.404909E-03
       160    1.458808E-02
       161    3.754724E-03
       162   -9.304823E-03
       163   -2.356864E-05
       164    6.801955E-06
       165   -8.875931E-04
       166   -1.636464E-05
       167    2.607271E-05
       168    1.541747E-04
       169    4.798529E-05
       170   -3.519849E-05
       171    1.036656E-03
       172   -4.364162E-04
       173    1.210423E-03
       174    2.762956E-03
       175   -2.528220E-03
       176   -2.815603E-02
       177    5.490762E-02
       178   -8.739679E-03
       179    8.846382E-03
       180   -1.143972E-06
       181    1.458043E-01
       182   -7.071597E-04
       183   -4.497421E-06
       184    1.482021E-01
       185   -5.085857E-02
       186    4.304825E-04
       187    1.343558E-01
       188   -5.324710E-04
       189    2.800438E-04
       190    2.524273E-04
       191   -1.458843E-07
       192    8.637941E-03
       193    4.274679E-07
       194    2.205480E-03
       195   -4.970990E-03
       196    2.765510E-03
       197   -7.482951E-07
       198    2.189640E-02
       199   -9.873958E-07
       200    9.235332E-03
       201   -1.036936E-02
       202    1.134024E-03
       203    9.148942E-05
       204    1.421406E-02
       205    1.302719E-05
       206    1.292411E-04
       207    1.070174E-08
       208   -6.030061E-04
       209   -9.955008E-05
       210   -2.643155E-08
       211   -7.249798E-04
       212   -7.384511E-05
       213    1.207366E-08
       214    1.533997E-03
       215   -3.021151E-09
       216   -1.006359E-04
       217   -2.140273E-04
       218   -7.266889E-04
       219    1.168407E-02
       220   -9.215159E-03
       221   -1.763994E-02
       222   -1.180124E-03
       223   -4.818791E-04
       224    1.534330E-01
       225   -1.128921E-02
       226   -7.388243E-03
       227    1.557882E-01
       228   -1.328554E-02
       229    9.578139E-03
       230    9.819829E-02
       231   -1.378161E-04
       232    1.657225E-04
       233   -2.790635E-05
       234    4.551399E-06
       235   -1.729984E-03
       236   -3.454915E-03
       237   -9.172648E-04
       238    9.588020E-04
       239   -4.153719E-05
       240    2.022918E-03
       241   -6.006350E-03
       242   -5.768929E-03
       243   -9.109321E-03
       244    6.703805E-03
       245    2.405516E-03
       246   -1.465492E-02
       247    3.775356E-03
       248    9.323078E-03
       249   -2.366038E-05
       250   -6.833091E-06
       251   -8.877767E-04
       252   -1.636827E-05
       253   -2.602293E-05
       254    1.543517E-04
       255    4.811200E-05
       256    3.519048E-05
       257    1.036726E-03
       258    4.364461E-04
       259    3.066406E-04
       260   -7.135789E-05
       261    1.910251E-02
       262   -1.005678E-05
       263    3.755245E-05
       264   -1.762754E-03
       265   -6.273405E-03
       266   -7.453155E-04
       267    4.386841E-03
       268    3.071859E-04
       269   -7.403777E-05
       270    1.910658E-02
       271   -9.665388E-06
       272   -3.798080E-05
       273   -1.763435E-03
       274   -6.334904E-03
       275    7.227562E-04
       276    4.387263E-03
       277    3.360151E-04
       278    2.717133E-03
       279   -4.505545E-02
       280   -2.130619E-05
       281    1.000108E-04
       282    6.311693E-03
       283   -4.985683E-04
       284   -4.048272E-03
       285    1.858404E-03
       286    3.380985E-04
       287    2.717187E-03
       288   -4.516777E-02
       289   -2.122191E-05
       290   -9.997242E-05
       291    6.312479E-03
       292   -4.711004E-04
       293    4.073422E-03
       294    1.853387E-03
       295    3.985183E-05
       296    9.269893E-05
       297   -8.497170E-05
       298   -1.207081E-04
       299    9.215085E-03
       300   -1.222249E-04
       301    3.927255E-04
       302   -3.824741E-07
       303   -1.288944E-02
       304   -6.419085E-06
       305   -3.965880E-07
       306   -1.509413E-02
       307   -3.482709E-03
       308   -1.382416E-06
       309   -3.666663E-03
       310   -2.268698E-05
       311    5.051351E-06
       312    1.763563E-05
       313   -1.386972E-08
       314    4.421940E-03
       315   -2.071049E-08
       316   -5.612085E-06
       317   -7.577498E-05
       318    8.138706E-05
       319    7.667330E-09
       320    1.323433E-02
       321   -1.657370E-08
       322    6.148389E-04
       323   -3.369815E-03
       324    2.754976E-03
       325   -7.321401E-06
       326    3.775318E-03
       327    3.712094E-06
       328    8.456924E-06
       329    3.743791E-09
       330    1.442149E-05
       331   -5.882198E-06
       332    7.582996E-09
       333   -7.301290E-04
       334   -5.463956E-06
       335   -1.260582E-08
       336    7.107806E-04
       337   -4.234424E-09
       338    9.907730E-06
       339    1.958284E-05
       340    2.996874E-05
       341   -6.140513E-04
       342    7.700701E-03
       343    1.673201E-03
       344   -2.206891E-04
       345    9.887854E-05
       346    7.504998E-02
       347   -3.653196E-04
       348    2.605838E-04
       349    6.958681E-02
       350   -1.431703E-03
       351    7.653103E-04
       352    5.460664E-02
       353   -3.219322E-04
       354    2.987919E-04
       355    6.139509E-03
       356   -3.216354E-06
       357    4.269024E-06
       358   -1.052670E-06
       359   -9.576400E-07
       360   -1.993939E-05
       361    5.291692E-04
       362    1.375085E-05
       363    9.209166E-06
       364   -2.296001E-05
       365   -1.350621E-05
       366   -5.975796E-04
       367    1.708317E-03
       368    7.177352E-05
       369   -6.076763E-06
       370   -6.569676E-05
       371    1.606400E-06
       372   -8.363855E-04
       373    2.968257E-04
       374    8.508246E-07
       375    1.749454E-06
       376   -6.663375E-05
       377   -1.286967E-06
       378   -2.286455E-07
       379   -9.058365E-05
       380    1.454662E-07
       381   -2.118493E-06
       382    1.799822E-04
       383   -1.409942E-04
       384    9.908744E-06
       385    1.959511E-05
       386    2.984961E-05
       387   -6.135970E-04
       388    7.707862E-03
       389    1.659793E-03
       390   -2.190426E-04
       391   -9.762684E-05
       392    7.504856E-02
       393   -3.639922E-04
       394   -2.594759E-04
       395    6.958592E-02
       396   -1.425127E-03
       397   -7.678889E-04
       398    5.459911E-02
       399   -3.153179E-04
       400   -3.015647E-04
       401    6.139840E-03
       402   -3.205799E-06
       403    4.234996E-06
       404   -1.029197E-06
       405    9.525702E-07
       406   -1.995841E-05
       407   -5.291710E-04
       408    1.366538E-05
       409    9.189773E-06
       410   -2.285516E-05
       411    1.339106E-05
       412   -5.974915E-04
       413   -1.708149E-03
       414    7.214748E-05
       415   -6.588195E-06
       416   -6.555929E-05
       417   -8.722931E-07
       418   -8.362893E-04
       419   -2.958752E-04
       420    8.467650E-07
       421   -1.740784E-06
       422   -6.663601E-05
       423   -1.276543E-06
       424    2.322134E-07
       425   -9.057453E-05
       426    1.404887E-07
       427    2.103294E-06
       428    1.799761E-04
       429    1.409881E-04
       430   -5.758780E-03
       431   -1.369824E-02
       432    2.137013E-02
       433    3.518714E-02
       434    1.440126E-02
       435    8.484703E-02
       436   -1.993619E-02
       437    3.990042E-06
       438   -2.096278E-01
       439   -2.307655E-02
       440    8.685431E-07
       441   -2.072067E-01
       442   -2.539115E-02
       443   -3.841710E-05
       444   -1.757103E-01
       445    1.689296E-04
       446   -9.128492E-06
       447   -1.598011E-04
       448   -8.104705E-08
       449    1.396802E-03
       450    1.439426E-07
       451    4.037875E-04
       452    1.800871E-03
       453   -2.204659E-03
       454    1.274694E-06
       455    4.867472E-03
       456    7.172423E-07
       457    3.416019E-03
       458    4.370460E-03
       459   -7.786478E-03
       460    2.782543E-06
       461    2.783926E-03
       462    3.296547E-06
       463   -1.864878E-04
       464    2.248164E-08
       465    7.111391E-04
       466   -9.707009E-05
       467    8.317378E-09
       468   -2.626615E-04
       469    3.472698E-04
       470   -3.847966E-08
       471   -6.914318E-04
       472    6.468784E-09
       473   -1.242723E-02
       474   -2.354403E-02
       475   -4.401077E-02
       476   -2.611906E-03
       477   -2.339715E-03
       478   -1.069732E-02
       479    1.053640E-03
       480   -5.006307E-03
       481   -1.415691E-02
       482   -1.242473E-02
       483   -2.351692E-02
       484   -4.388441E-02
       485   -2.610332E-03
       486    2.337475E-03
       487   -1.069926E-02
       488    1.078091E-03
       489    4.993697E-03
       490   -1.416482E-02
 Sym= X
 Ene= 0.952963
 Spin= Alpha
 Occup= 0.952963
         1   -6.425215E-05
         2   -1.205739E-04
         3   -4.482783E-04
         4    6.284682E-03
         5   -6.375290E-02
         6   -1.108205E-01
         7    9.778585E-04
         8    3.411094E-04
         9   -1.243303E-01
        10    1.152045E-03
        11    1.613473E-03
        12   -1.377142E-01
        13   -1.444421E-01
        14    2.232334E-02
        15    1.630104E-02
        16   -5.091133E-06
        17    1.228884E-06
        18    3.862249E-06
        19   -3.565651E-05
        20    2.411177E-03
        21   -2.032423E-03
        22    2.433572E-04
        23   -2.733445E-05
        24   -2.160228E-04
        25    2.908456E-04
        26    1.635648E-03
        27   -6.748369E-03
        28   -1.989660E-02
        29    1.620331E-02
        30    3.693297E-03
        31    3.636903E-03
        32   -2.882850E-02
        33   -4.491271E-02
        34   -1.252863E-05
        35    1.489697E-05
        36    1.868648E-04
        37    2.339353E-05
        38   -4.386358E-07
        39   -8.400427E-05
        40   -6.584604E-06
        41   -1.954775E-05
        42   -1.667012E-04
        43   -2.503381E-04
        44   -3.057338E-05
        45   -5.976348E-05
        46   -4.448683E-04
        47    2.851701E-03
        48    2.514769E-01
        49    1.179092E-01
        50   -2.388749E-04
        51   -1.175193E-08
        52    9.456279E-02
        53    1.362357E-03
        54    1.340876E-05
        55    1.083863E-01
        56    7.028953E-02
        57   -2.184237E-04
        58   -9.074866E-04
        59   -1.083008E-04
        60    6.368714E-05
        61    4.461364E-05
        62    6.624926E-08