[Molden Format]
[Title]
ADC(2) - opt by CAM-B3LYP gaussian                                              
[Atoms] AU
 c     1    6 0.12593230616935E+01 0.22795690751954E+01 -.36278607975490E-01
 c     2    6 0.25504236399298E+01 0.18897261300000E-05 -.34511714041240E-01
 c     3    6 0.12593268411458E+01 -.22795652957431E+01 -.36289946332290E-01
 c     4    6 -.13369660030996E+01 -.22791608943507E+01 -.39583738981910E-01
 c     5    6 -.26856068523561E+01 -.18897261300000E-05 -.40110972572980E-01
 c     6    6 -.13369678928258E+01 0.22791590046246E+01 -.39570510898980E-01
 h     7    1 0.23068095955089E+01 0.40296066523382E+01 -.33243707806080E-01
 h     8    1 0.23068152646873E+01 -.40296028728859E+01 -.33262605067400E-01
 h     9    1 -.23553205188504E+01 -.40525668248527E+01 -.45200005048840E-01
 h    10    1 -.23553280777549E+01 0.40525630454004E+01 -.45173548882980E-01
 n    11    7 0.52878147756133E+01 0.00000000000000E+00 -.27472484196240E-01
 o    12    8 0.63764576548767E+01 -.20283488830896E+01 -.24482937454020E-01
 o    13    8 0.63764614343290E+01 0.20283469933635E+01 -.24515062798280E-01
 n    14    7 -.52636676188715E+01 0.00000000000000E+00 -.10786332361533E+00
 h    15    1 -.61947904866021E+01 -.16076731691957E+01 0.28377485852069E+00
 h    16    1 -.61947848174237E+01 0.16076731691957E+01 0.28378430715135E+00
[GTO]
    1 0
 s    6 1.00
 0.13575349682000E+05 0.60645503603591E-03
 0.20352333680000E+04 0.46979088884982E-02
 0.46322562359000E+03 0.24332477647552E-01
 0.13120019598000E+03 0.97399968307759E-01
 0.42853015891000E+02 0.30195584253780E+00
 0.15584185766000E+02 0.66233609137875E+00
 s    2 1.00
 0.62067138508000E+01 0.65595308539952E+00
 0.25764896527000E+01 0.37585633285142E+00
 s    1 1.00
 0.57696339419000E+00 0.10000000000000E+01
 s    1 1.00
 0.22972831358000E+00 0.10000000000000E+01
 s    1 1.00
 0.95164440028000E-01 0.10000000000000E+01
 s    1 1.00
 0.48475401370000E-01 0.10000000000000E+01
 p    4 1.00
 0.34697232244000E+02 0.11327220003114E-01
 0.79582622826000E+01 0.76169659202087E-01
 0.23780826883000E+01 0.30192252202676E+00
 0.81433208183000E+00 0.72785027349547E+00
 p    1 1.00
 0.28887547253000E+00 0.10000000000000E+01
 p    1 1.00
 0.10056823671000E+00 0.10000000000000E+01
 d    1 1.00
 0.10970000000000E+01 0.10000000000000E+01
 d    1 1.00
 0.31800000000000E+00 0.10000000000000E+01
 d    1 1.00
 0.90985336424000E-01 0.10000000000000E+01
 f    1 1.00
 0.76100000000000E+00 0.10000000000000E+01
 
    2 0
 s    6 1.00
 0.13575349682000E+05 0.60645503603591E-03
 0.20352333680000E+04 0.46979088884982E-02
 0.46322562359000E+03 0.24332477647552E-01
 0.13120019598000E+03 0.97399968307759E-01
 0.42853015891000E+02 0.30195584253780E+00
 0.15584185766000E+02 0.66233609137875E+00
 s    2 1.00
 0.62067138508000E+01 0.65595308539952E+00
 0.25764896527000E+01 0.37585633285142E+00
 s    1 1.00
 0.57696339419000E+00 0.10000000000000E+01
 s    1 1.00
 0.22972831358000E+00 0.10000000000000E+01
 s    1 1.00
 0.95164440028000E-01 0.10000000000000E+01
 s    1 1.00
 0.48475401370000E-01 0.10000000000000E+01
 p    4 1.00
 0.34697232244000E+02 0.11327220003114E-01
 0.79582622826000E+01 0.76169659202087E-01
 0.23780826883000E+01 0.30192252202676E+00
 0.81433208183000E+00 0.72785027349547E+00
 p    1 1.00
 0.28887547253000E+00 0.10000000000000E+01
 p    1 1.00
 0.10056823671000E+00 0.10000000000000E+01
 d    1 1.00
 0.10970000000000E+01 0.10000000000000E+01
 d    1 1.00
 0.31800000000000E+00 0.10000000000000E+01
 d    1 1.00
 0.90985336424000E-01 0.10000000000000E+01
 f    1 1.00
 0.76100000000000E+00 0.10000000000000E+01
 
    3 0
 s    6 1.00
 0.13575349682000E+05 0.60645503603591E-03
 0.20352333680000E+04 0.46979088884982E-02
 0.46322562359000E+03 0.24332477647552E-01
 0.13120019598000E+03 0.97399968307759E-01
 0.42853015891000E+02 0.30195584253780E+00
 0.15584185766000E+02 0.66233609137875E+00
 s    2 1.00
 0.62067138508000E+01 0.65595308539952E+00
 0.25764896527000E+01 0.37585633285142E+00
 s    1 1.00
 0.57696339419000E+00 0.10000000000000E+01
 s    1 1.00
 0.22972831358000E+00 0.10000000000000E+01
 s    1 1.00
 0.95164440028000E-01 0.10000000000000E+01
 s    1 1.00
 0.48475401370000E-01 0.10000000000000E+01
 p    4 1.00
 0.34697232244000E+02 0.11327220003114E-01
 0.79582622826000E+01 0.76169659202087E-01
 0.23780826883000E+01 0.30192252202676E+00
 0.81433208183000E+00 0.72785027349547E+00
 p    1 1.00
 0.28887547253000E+00 0.10000000000000E+01
 p    1 1.00
 0.10056823671000E+00 0.10000000000000E+01
 d    1 1.00
 0.10970000000000E+01 0.10000000000000E+01
 d    1 1.00
 0.31800000000000E+00 0.10000000000000E+01
 d    1 1.00
 0.90985336424000E-01 0.10000000000000E+01
 f    1 1.00
 0.76100000000000E+00 0.10000000000000E+01
 
    4 0
 s    6 1.00
 0.13575349682000E+05 0.60645503603591E-03
 0.20352333680000E+04 0.46979088884982E-02
 0.46322562359000E+03 0.24332477647552E-01
 0.13120019598000E+03 0.97399968307759E-01
 0.42853015891000E+02 0.30195584253780E+00
 0.15584185766000E+02 0.66233609137875E+00
 s    2 1.00
 0.62067138508000E+01 0.65595308539952E+00
 0.25764896527000E+01 0.37585633285142E+00
 s    1 1.00
 0.57696339419000E+00 0.10000000000000E+01
 s    1 1.00
 0.22972831358000E+00 0.10000000000000E+01
 s    1 1.00
 0.95164440028000E-01 0.10000000000000E+01
 s    1 1.00
 0.48475401370000E-01 0.10000000000000E+01
 p    4 1.00
 0.34697232244000E+02 0.11327220003114E-01
 0.79582622826000E+01 0.76169659202087E-01
 0.23780826883000E+01 0.30192252202676E+00
 0.81433208183000E+00 0.72785027349547E+00
 p    1 1.00
 0.28887547253000E+00 0.10000000000000E+01
 p    1 1.00
 0.10056823671000E+00 0.10000000000000E+01
 d    1 1.00
 0.10970000000000E+01 0.10000000000000E+01
 d    1 1.00
 0.31800000000000E+00 0.10000000000000E+01
 d    1 1.00
 0.90985336424000E-01 0.10000000000000E+01
 f    1 1.00
 0.76100000000000E+00 0.10000000000000E+01
 
    5 0
 s    6 1.00
 0.13575349682000E+05 0.60645503603591E-03
 0.20352333680000E+04 0.46979088884982E-02
 0.46322562359000E+03 0.24332477647552E-01
 0.13120019598000E+03 0.97399968307759E-01
 0.42853015891000E+02 0.30195584253780E+00
 0.15584185766000E+02 0.66233609137875E+00
 s    2 1.00
 0.62067138508000E+01 0.65595308539952E+00
 0.25764896527000E+01 0.37585633285142E+00
 s    1 1.00
 0.57696339419000E+00 0.10000000000000E+01
 s    1 1.00
 0.22972831358000E+00 0.10000000000000E+01
 s    1 1.00
 0.95164440028000E-01 0.10000000000000E+01
 s    1 1.00
 0.48475401370000E-01 0.10000000000000E+01
 p    4 1.00
 0.34697232244000E+02 0.11327220003114E-01
 0.79582622826000E+01 0.76169659202087E-01
 0.23780826883000E+01 0.30192252202676E+00
 0.81433208183000E+00 0.72785027349547E+00
 p    1 1.00
 0.28887547253000E+00 0.10000000000000E+01
 p    1 1.00
 0.10056823671000E+00 0.10000000000000E+01
 d    1 1.00
 0.10970000000000E+01 0.10000000000000E+01
 d    1 1.00
 0.31800000000000E+00 0.10000000000000E+01
 d    1 1.00
 0.90985336424000E-01 0.10000000000000E+01
 f    1 1.00
 0.76100000000000E+00 0.10000000000000E+01
 
    6 0
 s    6 1.00
 0.13575349682000E+05 0.60645503603591E-03
 0.20352333680000E+04 0.46979088884982E-02
 0.46322562359000E+03 0.24332477647552E-01
 0.13120019598000E+03 0.97399968307759E-01
 0.42853015891000E+02 0.30195584253780E+00
 0.15584185766000E+02 0.66233609137875E+00
 s    2 1.00
 0.62067138508000E+01 0.65595308539952E+00
 0.25764896527000E+01 0.37585633285142E+00
 s    1 1.00
 0.57696339419000E+00 0.10000000000000E+01
 s    1 1.00
 0.22972831358000E+00 0.10000000000000E+01
 s    1 1.00
 0.95164440028000E-01 0.10000000000000E+01
 s    1 1.00
 0.48475401370000E-01 0.10000000000000E+01
 p    4 1.00
 0.34697232244000E+02 0.11327220003114E-01
 0.79582622826000E+01 0.76169659202087E-01
 0.23780826883000E+01 0.30192252202676E+00
 0.81433208183000E+00 0.72785027349547E+00
 p    1 1.00
 0.28887547253000E+00 0.10000000000000E+01
 p    1 1.00
 0.10056823671000E+00 0.10000000000000E+01
 d    1 1.00
 0.10970000000000E+01 0.10000000000000E+01
 d    1 1.00
 0.31800000000000E+00 0.10000000000000E+01
 d    1 1.00
 0.90985336424000E-01 0.10000000000000E+01
 f    1 1.00
 0.76100000000000E+00 0.10000000000000E+01
 
    7 0
 s    3 1.00
 0.34061341000000E+02 0.25439307208879E-01
 0.51235746000000E+01 0.19008594890375E+00
 0.11646626000000E+01 0.85244113011042E+00
 s    1 1.00
 0.32723041000000E+00 0.10000000000000E+01
 s    1 1.00
 0.10307241000000E+00 0.10000000000000E+01
 p    1 1.00
 0.80000000000000E+00 0.10000000000000E+01
 p    1 1.00
 0.95774129632000E-01 0.10000000000000E+01
 
    8 0
 s    3 1.00
 0.34061341000000E+02 0.25439307208879E-01
 0.51235746000000E+01 0.19008594890375E+00
 0.11646626000000E+01 0.85244113011042E+00
 s    1 1.00
 0.32723041000000E+00 0.10000000000000E+01
 s    1 1.00
 0.10307241000000E+00 0.10000000000000E+01
 p    1 1.00
 0.80000000000000E+00 0.10000000000000E+01
 p    1 1.00
 0.95774129632000E-01 0.10000000000000E+01
 
    9 0
 s    3 1.00
 0.34061341000000E+02 0.25439307208879E-01
 0.51235746000000E+01 0.19008594890375E+00
 0.11646626000000E+01 0.85244113011042E+00
 s    1 1.00
 0.32723041000000E+00 0.10000000000000E+01
 s    1 1.00
 0.10307241000000E+00 0.10000000000000E+01
 p    1 1.00
 0.80000000000000E+00 0.10000000000000E+01
 p    1 1.00
 0.95774129632000E-01 0.10000000000000E+01
 
   10 0
 s    3 1.00
 0.34061341000000E+02 0.25439307208879E-01
 0.51235746000000E+01 0.19008594890375E+00
 0.11646626000000E+01 0.85244113011042E+00
 s    1 1.00
 0.32723041000000E+00 0.10000000000000E+01
 s    1 1.00
 0.10307241000000E+00 0.10000000000000E+01
 p    1 1.00
 0.80000000000000E+00 0.10000000000000E+01
 p    1 1.00
 0.95774129632000E-01 0.10000000000000E+01
 
   11 0
 s    6 1.00
 0.19730800647000E+05 0.58626402628763E-03
 0.29578958745000E+04 0.45428820586397E-02
 0.67322133595000E+03 0.23558413450084E-01
 0.19068249494000E+03 0.94709193292923E-01
 0.62295441898000E+02 0.29719784913376E+00
 0.22654161182000E+02 0.66916246895232E+00
 s    2 1.00
 0.89791477428000E+01 0.64596683630063E+00
 0.36863002370000E+01 0.38700574393705E+00
 s    1 1.00
 0.84660076805000E+00 0.10000000000000E+01
 s    1 1.00
 0.33647133771000E+00 0.10000000000000E+01
 s    1 1.00
 0.13647653675000E+00 0.10000000000000E+01
 s    1 1.00
 0.68441605847000E-01 0.10000000000000E+01
 p    4 1.00
 0.49200380510000E+02 0.11448825101764E-01
 0.11346790537000E+02 0.78422337970864E-01
 0.34273972411000E+01 0.30818094738830E+00
 0.11785525134000E+01 0.72027196368413E+00
 p    1 1.00
 0.41642204972000E+00 0.10000000000000E+01
 p    1 1.00
 0.14260826011000E+00 0.10000000000000E+01
 d    1 1.00
 0.16540000000000E+01 0.10000000000000E+01
 d    1 1.00
 0.46900000000000E+00 0.10000000000000E+01
 d    1 1.00
 0.12829642058000E+00 0.10000000000000E+01
 f    1 1.00
 0.10930000000000E+01 0.10000000000000E+01
 
   12 0
 s    6 1.00
 0.27032382631000E+05 0.57227335211155E-03
 0.40523871392000E+04 0.44353233492995E-02
 0.92232722710000E+03 0.23020107706038E-01
 0.26124070989000E+03 0.92822490667928E-01
 0.85354641351000E+02 0.29378500009671E+00
 0.31035035245000E+02 0.67401604501641E+00
 s    2 1.00
 0.12260860728000E+02 0.63839937025506E+00
 0.49987076005000E+01 0.39534587125718E+00
 s    1 1.00
 0.11703108158000E+01 0.10000000000000E+01
 s    1 1.00
 0.46474740994000E+00 0.10000000000000E+01
 s    1 1.00
 0.18504536357000E+00 0.10000000000000E+01
 s    1 1.00
 0.70288026270000E-01 0.10000000000000E+01
 p    4 1.00
 0.63274954801000E+02 0.12018332222616E-01
 0.14627049379000E+02 0.83005421790056E-01
 0.44501223456000E+01 0.31991743925964E+00
 0.15275799647000E+01 0.70715542916104E+00
 p    1 1.00
 0.52935117943000E+00 0.10000000000000E+01
 p    1 1.00
 0.17478421270000E+00 0.10000000000000E+01
 p    1 1.00
 0.51112745706000E-01 0.10000000000000E+01
 d    1 1.00
 0.23140000000000E+01 0.10000000000000E+01
 d    1 1.00
 0.64500000000000E+00 0.10000000000000E+01
 d    1 1.00
 0.14696477366000E+00 0.10000000000000E+01
 f    1 1.00
 0.14280000000000E+01 0.10000000000000E+01
 
   13 0
 s    6 1.00
 0.27032382631000E+05 0.57227335211155E-03
 0.40523871392000E+04 0.44353233492995E-02
 0.92232722710000E+03 0.23020107706038E-01
 0.26124070989000E+03 0.92822490667928E-01
 0.85354641351000E+02 0.29378500009671E+00
 0.31035035245000E+02 0.67401604501641E+00
 s    2 1.00
 0.12260860728000E+02 0.63839937025506E+00
 0.49987076005000E+01 0.39534587125718E+00
 s    1 1.00
 0.11703108158000E+01 0.10000000000000E+01
 s    1 1.00
 0.46474740994000E+00 0.10000000000000E+01
 s    1 1.00
 0.18504536357000E+00 0.10000000000000E+01
 s    1 1.00
 0.70288026270000E-01 0.10000000000000E+01
 p    4 1.00
 0.63274954801000E+02 0.12018332222616E-01
 0.14627049379000E+02 0.83005421790056E-01
 0.44501223456000E+01 0.31991743925964E+00
 0.15275799647000E+01 0.70715542916104E+00
 p    1 1.00
 0.52935117943000E+00 0.10000000000000E+01
 p    1 1.00
 0.17478421270000E+00 0.10000000000000E+01
 p    1 1.00
 0.51112745706000E-01 0.10000000000000E+01
 d    1 1.00
 0.23140000000000E+01 0.10000000000000E+01
 d    1 1.00
 0.64500000000000E+00 0.10000000000000E+01
 d    1 1.00
 0.14696477366000E+00 0.10000000000000E+01
 f    1 1.00
 0.14280000000000E+01 0.10000000000000E+01
 
   14 0
 s    6 1.00
 0.19730800647000E+05 0.58626402628763E-03
 0.29578958745000E+04 0.45428820586397E-02
 0.67322133595000E+03 0.23558413450084E-01
 0.19068249494000E+03 0.94709193292923E-01
 0.62295441898000E+02 0.29719784913376E+00
 0.22654161182000E+02 0.66916246895232E+00
 s    2 1.00
 0.89791477428000E+01 0.64596683630063E+00
 0.36863002370000E+01 0.38700574393705E+00
 s    1 1.00
 0.84660076805000E+00 0.10000000000000E+01
 s    1 1.00
 0.33647133771000E+00 0.10000000000000E+01
 s    1 1.00
 0.13647653675000E+00 0.10000000000000E+01
 s    1 1.00
 0.68441605847000E-01 0.10000000000000E+01
 p    4 1.00
 0.49200380510000E+02 0.11448825101764E-01
 0.11346790537000E+02 0.78422337970864E-01
 0.34273972411000E+01 0.30818094738830E+00
 0.11785525134000E+01 0.72027196368413E+00
 p    1 1.00
 0.41642204972000E+00 0.10000000000000E+01
 p    1 1.00
 0.14260826011000E+00 0.10000000000000E+01
 d    1 1.00
 0.16540000000000E+01 0.10000000000000E+01
 d    1 1.00
 0.46900000000000E+00 0.10000000000000E+01
 d    1 1.00
 0.12829642058000E+00 0.10000000000000E+01
 f    1 1.00
 0.10930000000000E+01 0.10000000000000E+01
 
   15 0
 s    3 1.00
 0.34061341000000E+02 0.25439307208879E-01
 0.51235746000000E+01 0.19008594890375E+00
 0.11646626000000E+01 0.85244113011042E+00
 s    1 1.00
 0.32723041000000E+00 0.10000000000000E+01
 s    1 1.00
 0.10307241000000E+00 0.10000000000000E+01
 p    1 1.00
 0.80000000000000E+00 0.10000000000000E+01
 p    1 1.00
 0.95774129632000E-01 0.10000000000000E+01
 
   16 0
 s    3 1.00
 0.34061341000000E+02 0.25439307208879E-01
 0.51235746000000E+01 0.19008594890375E+00
 0.11646626000000E+01 0.85244113011042E+00
 s    1 1.00
 0.32723041000000E+00 0.10000000000000E+01
 s    1 1.00
 0.10307241000000E+00 0.10000000000000E+01
 p    1 1.00
 0.80000000000000E+00 0.10000000000000E+01
 p    1 1.00
 0.95774129632000E-01 0.10000000000000E+01
 
[MO]
 Sym= X
 Ene= -0.148438
 Spin= Alpha
 Occup= -0.148438
         1    2.597155E-04
         2    6.045094E-04
         3   -1.815094E-03
         4    4.851093E-03
         5   -3.013912E-02
         6    1.707855E-02
         7    3.049637E-03
         8    1.123176E-04
         9   -2.289543E-02
        10   -3.628920E-03
        11    5.935046E-04
        12   -2.117008E-02
        13   -4.150635E-02
        14    1.822106E-02
        15   -1.256444E-02
        16   -2.795258E-05
        17    4.679317E-05
        18   -1.884059E-05
        19    1.411337E-05
        20   -6.200147E-03
        21    3.575058E-03
        22    9.987652E-04
        23   -5.767999E-04
        24   -4.219653E-04
        25    1.057259E-03
        26   -1.403009E-02
        27    6.795408E-03
        28    4.120053E-03
        29   -3.825108E-03
        30   -2.949443E-04
        31   -2.181165E-03
        32    3.836488E-03
        33   -9.304123E-03
        34   -3.178944E-05
        35    6.433433E-06
        36    4.581193E-05
        37    1.566161E-05
        38   -4.130469E-06
        39    7.477874E-04
        40    2.698840E-05
        41   -4.500888E-06
        42   -8.092506E-04
        43    6.602973E-04
        44   -2.342069E-05
        45   -4.849707E-05
        46   -3.034509E-04
        47    4.738892E-03
        48    7.407043E-02
        49   -8.856078E-03
        50   -4.088922E-04
        51    1.214034E-06
        52   -1.877265E-01
        53   -1.448436E-03
        54    8.377850E-06
        55   -1.948102E-01
        56   -1.825735E-02
        57   -3.323321E-04
        58   -1.851187E-01
        59   -1.065170E-04
        60    9.992589E-05
        61    6.591068E-06
        62   -6.980155E-08
        63   -5.083994E-04
        64    3.809287E-07
        65   -6.109628E-04
        66    9.947896E-04
        67   -3.838268E-04
        68   -1.659778E-06
        69   -2.659503E-03
        70    3.498336E-07
        71   -1.805226E-02
        72    2.017253E-02
        73   -2.120266E-03
        74    6.103855E-05
        75    3.363044E-03
        76   -2.044616E-05
        77    5.276591E-06
        78    1.238657E-08
        79    1.028962E-03
        80   -7.751555E-06
        81    2.015369E-08
        82   -5.899069E-04
        83    6.722655E-07
        84   -3.677202E-08
        85   -7.905910E-04
        86   -3.369684E-08
        87    2.597832E-04
        88    6.046424E-04
        89   -1.814826E-03
        90    4.849567E-03
        91   -3.099089E-02
        92    1.707680E-02
        93    3.051414E-03
        94   -1.141972E-04
        95   -2.291317E-02
        96   -3.606171E-03
        97   -5.917780E-04
        98   -2.118819E-02
        99   -4.163403E-02
       100   -1.852908E-02
       101   -1.259715E-02
       102   -2.805193E-05
       103    4.684192E-05
       104   -1.878998E-05
       105   -1.425955E-05
       106   -6.199841E-03
       107   -3.575169E-03
       108    9.941665E-04
       109   -5.726040E-04
       110   -4.215625E-04
       111   -1.056137E-03
       112   -1.402896E-02
       113   -6.795307E-03
       114    4.184472E-03
       115   -3.897484E-03
       116   -2.869879E-04
       117    2.117659E-03
       118    3.813691E-03
       119    9.286670E-03
       120   -3.177210E-05
       121   -6.412535E-06
       122    4.591163E-05
       123    1.571190E-05
       124    4.095040E-06
       125    7.476862E-04
       126    2.691484E-05
       127    4.508278E-06
       128   -8.092831E-04
       129   -6.602868E-04
       130   -1.594461E-04
       131   -3.449255E-04
       132   -7.379650E-04
       133    1.416115E-02
       134   -5.490052E-03
       135   -2.061334E-02
       136   -2.632730E-03
       137    8.740658E-04
       138    1.603799E-01
       139   -1.430494E-02
       140    8.970715E-03
       141    1.626872E-01
       142   -1.598463E-02
       143   -1.169280E-02
       144    1.001665E-01
       145   -2.224773E-04
       146    2.614283E-04
       147   -3.895100E-05
       148   -1.215849E-06
       149   -1.096665E-03
       150    3.369194E-03
       151   -1.094229E-03
       152    1.174978E-03
       153   -8.074851E-05
       154   -2.412918E-03
       155   -4.904360E-03
       156    5.507235E-03
       157   -1.076347E-02
       158    8.004321E-03
       159    2.759146E-03
       160    1.673083E-02
       161    4.373540E-03
       162   -1.109925E-02
       163   -2.936887E-05
       164    1.143961E-05
       165   -9.461640E-04
       166   -2.265094E-05
       167    2.765508E-05
       168    2.442275E-04
       169    6.205341E-05
       170   -4.300293E-05
       171    1.025185E-03
       172   -3.807851E-04
       173    1.493418E-03
       174    3.405494E-03
       175   -3.261686E-03
       176   -3.214050E-02
       177    6.841547E-02
       178   -9.202130E-03
       179    1.254270E-02
       180   -1.769121E-06
       181    1.337410E-01
       182    2.714748E-04
       183   -6.367770E-06
       184    1.365971E-01
       185   -6.165469E-02
       186    4.362324E-04
       187    1.378452E-01
       188   -7.229496E-04
       189    4.200649E-04
       190    3.028847E-04
       191   -1.805068E-07
       192    9.707181E-03
       193    4.389805E-07
       194    2.612322E-03
       195   -5.830522E-03
       196    3.218200E-03
       197   -1.244919E-06
       198    2.417160E-02
       199   -8.772548E-07
       200    1.185155E-02
       201   -1.298608E-02
       202    1.134526E-03
       203    1.003803E-04
       204    1.470810E-02
       205    1.832644E-05
       206    1.631580E-04
       207    3.052891E-09
       208   -4.766582E-04
       209   -1.200121E-04
       210   -2.815197E-08
       211   -9.366807E-04
       212   -9.888725E-05
       213    2.405609E-08
       214    1.576185E-03
       215    4.323062E-09
       216   -1.597870E-04
       217   -3.456565E-04
       218   -7.360633E-04
       219    1.415980E-02
       220   -6.567698E-03
       221   -2.059508E-02
       222   -2.631485E-03
       223   -8.701708E-04
       224    1.603953E-01
       225   -1.431668E-02
       226   -8.971484E-03
       227    1.627067E-01
       228   -1.585891E-02
       229    1.213615E-02
       230    1.001435E-01
       231   -2.223828E-04
       232    2.615508E-04
       233   -3.916802E-05
       234    9.628578E-07
       235   -1.096300E-03
       236   -3.369275E-03
       237   -1.098236E-03
       238    1.178463E-03
       239   -8.022689E-05
       240    2.413958E-03
       241   -4.903464E-03
       242   -5.507559E-03
       243   -1.070397E-02
       244    7.944393E-03
       245    2.759579E-03
       246   -1.679432E-02
       247    4.399840E-03
       248    1.112275E-02
       249   -2.944961E-05
       250   -1.147362E-05
       251   -9.463437E-04
       252   -2.267783E-05
       253   -2.759744E-05
       254    2.444059E-04
       255    6.218862E-05
       256    4.299091E-05
       257    1.025247E-03
       258    3.808105E-04
       259    6.463510E-04
       260    3.836157E-04
       261    2.345067E-02
       262   -6.797445E-06
       263   -3.212930E-06
       264   -9.850501E-04
       265   -7.263323E-03
       266   -1.173973E-03
       267    4.798416E-03
       268    6.478895E-04
       269    3.816668E-04
       270    2.343992E-02
       271   -6.455179E-06
       272    2.824958E-06
       273   -9.857757E-04
       274   -7.325525E-03
       275    1.149341E-03
       276    4.796254E-03
       277    7.334790E-04
       278    3.727023E-03
       279   -5.317137E-02
       280   -3.220789E-05
       281    1.712731E-04
       282    6.495814E-03
       283   -1.576320E-03
       284   -4.631994E-03
       285    5.056018E-04
       286    7.359903E-04
       287    3.726052E-03
       288   -5.328642E-02
       289   -3.205161E-05
       290   -1.711126E-04
       291    6.496626E-03
       292   -1.546450E-03
       293    4.659087E-03
       294    4.992829E-04
       295    9.415403E-05
       296    2.205730E-04
       297   -2.428780E-04
       298   -5.926843E-04
       299    1.104415E-02
       300    1.388309E-03
       301    1.451415E-03
       302   -9.258052E-07
       303   -1.705489E-02
       304    9.032595E-04
       305   -9.108555E-07
       306   -1.910309E-02
       307   -3.881099E-03
       308    4.970106E-07
       309   -3.263908E-03
       310   -7.472965E-05
       311    6.795834E-05
       312    6.771316E-06
       313   -1.371438E-07
       314    3.804607E-03
       315   -1.028031E-08
       316   -1.460073E-04
       317    7.658777E-05
       318    6.941957E-05
       319   -3.257632E-07
       320    1.149060E-02
       321   -1.985002E-09
       322    6.831427E-04
       323   -3.913530E-03
       324    3.230388E-03
       325   -8.522069E-06
       326    2.903317E-03
       327    3.654118E-06
       328    9.589183E-06
       329    2.936366E-08
       330    3.603386E-05
       331   -4.561699E-06
       332   -3.167641E-08
       333   -6.407990E-04
       334   -8.303540E-06
       335   -7.719081E-09
       336    5.924545E-04
       337   -3.694685E-09
       338    2.397070E-05
       339    5.295735E-05
       340   -1.555169E-05
       341   -8.721281E-04
       342    8.978279E-03
       343    1.755745E-03
       344   -1.529575E-03
       345    6.681245E-05
       346    6.351275E-02
       347   -1.547416E-03
       348    2.311007E-04
       349    5.897495E-02
       350   -2.460534E-03
       351    8.215975E-04
       352    4.736958E-02
       353   -4.679300E-04
       354    2.679173E-04
       355    5.540444E-03
       356   -3.069179E-06
       357    9.440728E-06
       358   -6.371549E-06
       359   -1.177616E-05
       360    2.358066E-05
       361    3.905988E-04
       362    2.482169E-05
       363    1.709692E-05
       364   -4.191861E-05
       365   -3.626189E-05
       366   -4.045818E-04
       367    1.289508E-03
       368    9.613684E-05
       369   -7.828970E-06
       370   -8.830787E-05
       371   -4.315305E-06
       372   -5.219347E-04
       373    2.299613E-04
       374    2.462416E-06
       375    1.591451E-06
       376   -4.556818E-05
       377   -4.598384E-06
       378    1.945651E-06
       379   -7.848923E-05
       380    1.294707E-06
       381   -4.080807E-06
       382    1.396254E-04
       383   -1.060599E-04
       384    2.397727E-05
       385    5.298330E-05
       386   -1.565366E-05
       387   -8.716443E-04
       388    8.986268E-03
       389    1.743044E-03
       390   -1.534315E-03
       391   -6.007681E-05
       392    6.351179E-02
       393   -1.551853E-03
       394   -2.252705E-04
       395    5.897443E-02
       396   -2.457842E-03
       397   -8.206413E-04
       398    4.736288E-02
       399   -4.625468E-04
       400   -2.698618E-04
       401    5.540997E-03
       402   -3.004723E-06
       403    9.339491E-06
       404   -6.334767E-06
       405    1.176948E-05
       406    2.356200E-05
       407   -3.906053E-04
       408    2.488854E-05
       409    1.692529E-05
       410   -4.181383E-05
       411    3.617966E-05
       412   -4.045163E-04
       413   -1.289360E-03
       414    9.700895E-05
       415   -8.794862E-06
       416   -8.821409E-05
       417    4.899531E-06
       418   -5.217942E-04
       419   -2.292361E-04
       420    2.451903E-06
       421   -1.565094E-06
       422   -4.557107E-05
       423   -4.578309E-06
       424   -1.963902E-06
       425   -7.848136E-05
       426    1.288737E-06
       427    4.063696E-06
       428    1.396214E-04
       429    1.060557E-04
       430   -6.826633E-03
       431   -1.623158E-02
       432    2.529680E-02
       433    4.171113E-02
       434    1.410082E-02
       435    9.270928E-02
       436   -2.524164E-02
       437    5.163699E-06
       438   -2.492790E-01
       439   -2.891974E-02
       440    1.503745E-06
       441   -2.456232E-01
       442   -3.315634E-02
       443   -4.261260E-05
       444   -2.021070E-01
       445    1.869486E-04
       446    4.139265E-05
       447   -2.283412E-04
       448   -1.134094E-07
       449    1.130530E-03
       450    1.804508E-07
       451    3.788449E-04
       452    2.324142E-03
       453   -2.702987E-03
       454    1.465020E-06
       455    4.298635E-03
       456    8.280505E-07
       457    3.251610E-03
       458    5.897655E-03
       459   -9.149265E-03
       460    3.490645E-06
       461    2.725086E-03
       462    3.803381E-06
       463   -2.107283E-04
       464    3.066851E-08
       465    9.088010E-04
       466   -1.237690E-04
       467    8.758947E-09
       468   -4.274987E-04
       469    4.064907E-04
       470   -4.990508E-08
       471   -7.917858E-04
       472    4.736759E-09
       473   -1.379215E-02
       474   -2.687608E-02
       475   -5.099277E-02
       476   -3.182950E-03
       477   -2.741409E-03
       478   -1.250467E-02
       479    2.472669E-04
       480   -5.682341E-03
       481   -1.493558E-02
       482   -1.378873E-02
       483   -2.684388E-02
       484   -5.084809E-02
       485   -3.181043E-03
       486    2.738763E-03
       487   -1.250692E-02
       488    2.750368E-04
       489    5.667849E-03
       490   -1.494577E-02
 Sym= X
 Ene= -0.787181
 Spin= Alpha
 Occup= -0.787181
         1    3.019767E-05
         2    6.943123E-05
         3   -1.979465E-04
         4    4.333947E-04
         5    6.344127E-03
         6    4.457536E-04
         7   -7.718505E-05
         8   -1.190640E-04
         9    1.385421E-01
        10   -8.995495E-04
        11    1.404052E-04
        12    1.392642E-01
        13    4.988010E-03
        14   -5.058888E-03
        15    7.448887E-02
        16    7.204287E-06
        17   -2.898901E-06
        18   -4.305386E-06
        19   -7.122798E-07
        20   -3.813612E-03
        21   -3.818271E-04
        22    1.777536E-04
        23   -1.255563E-04
        24   -5.219724E-05
        25   -1.736013E-06
        26   -8.206138E-03
        27    5.493647E-04
        28   -1.062312E-03
        29    1.119765E-03
        30   -5.745293E-05
        31   -4.800404E-04
        32   -5.313900E-03
        33    3.218979E-03
        34   -5.670941E-06
        35   -3.858181E-07
        36   -8.263102E-04
        37    1.535940E-06
        38    3.197289E-07
        39    1.008965E-03
        40    6.072426E-06
        41    1.979003E-07
        42    9.964677E-05
        43    3.885696E-05
        44    3.260649E-08
        45    2.606590E-08
        46    2.817099E-06
        47   -1.256321E-05
        48   -9.584811E-04
        49   -5.103097E-05
        50   -1.082447E-06
        51    8.182258E-05
        52    4.814224E-06
        53    5.966266E-06
        54    4.276647E-04
        55    3.255519E-06
        56    4.084587E-04
        57   -9.314843E-03
        58    1.622609E-05
        59    3.130569E-09
        60   -8.003902E-08
        61    7.690845E-08
        62   -6.361355E-06