[Molden Format]
[Title]
ADC(2) - opt by CAM-B3LYP gaussian                                              
[Atoms] AU
 c     1    6 0.12593230616935E+01 0.22795690751954E+01 -.36278607975490E-01
 c     2    6 0.25504236399298E+01 0.18897261300000E-05 -.34511714041240E-01
 c     3    6 0.12593268411458E+01 -.22795652957431E+01 -.36289946332290E-01
 c     4    6 -.13369660030996E+01 -.22791608943507E+01 -.39583738981910E-01
 c     5    6 -.26856068523561E+01 -.18897261300000E-05 -.40110972572980E-01
 c     6    6 -.13369678928258E+01 0.22791590046246E+01 -.39570510898980E-01
 h     7    1 0.23068095955089E+01 0.40296066523382E+01 -.33243707806080E-01
 h     8    1 0.23068152646873E+01 -.40296028728859E+01 -.33262605067400E-01
 h     9    1 -.23553205188504E+01 -.40525668248527E+01 -.45200005048840E-01
 h    10    1 -.23553280777549E+01 0.40525630454004E+01 -.45173548882980E-01
 n    11    7 0.52878147756133E+01 0.00000000000000E+00 -.27472484196240E-01
 o    12    8 0.63764576548767E+01 -.20283488830896E+01 -.24482937454020E-01
 o    13    8 0.63764614343290E+01 0.20283469933635E+01 -.24515062798280E-01
 n    14    7 -.52636676188715E+01 0.00000000000000E+00 -.10786332361533E+00
 h    15    1 -.61947904866021E+01 -.16076731691957E+01 0.28377485852069E+00
 h    16    1 -.61947848174237E+01 0.16076731691957E+01 0.28378430715135E+00
[GTO]
    1 0
 s    6 1.00
 0.13575349682000E+05 0.60645503603591E-03
 0.20352333680000E+04 0.46979088884982E-02
 0.46322562359000E+03 0.24332477647552E-01
 0.13120019598000E+03 0.97399968307759E-01
 0.42853015891000E+02 0.30195584253780E+00
 0.15584185766000E+02 0.66233609137875E+00
 s    2 1.00
 0.62067138508000E+01 0.65595308539952E+00
 0.25764896527000E+01 0.37585633285142E+00
 s    1 1.00
 0.57696339419000E+00 0.10000000000000E+01
 s    1 1.00
 0.22972831358000E+00 0.10000000000000E+01
 s    1 1.00
 0.95164440028000E-01 0.10000000000000E+01
 s    1 1.00
 0.48475401370000E-01 0.10000000000000E+01
 p    4 1.00
 0.34697232244000E+02 0.11327220003114E-01
 0.79582622826000E+01 0.76169659202087E-01
 0.23780826883000E+01 0.30192252202676E+00
 0.81433208183000E+00 0.72785027349547E+00
 p    1 1.00
 0.28887547253000E+00 0.10000000000000E+01
 p    1 1.00
 0.10056823671000E+00 0.10000000000000E+01
 d    1 1.00
 0.10970000000000E+01 0.10000000000000E+01
 d    1 1.00
 0.31800000000000E+00 0.10000000000000E+01
 d    1 1.00
 0.90985336424000E-01 0.10000000000000E+01
 f    1 1.00
 0.76100000000000E+00 0.10000000000000E+01
 
    2 0
 s    6 1.00
 0.13575349682000E+05 0.60645503603591E-03
 0.20352333680000E+04 0.46979088884982E-02
 0.46322562359000E+03 0.24332477647552E-01
 0.13120019598000E+03 0.97399968307759E-01
 0.42853015891000E+02 0.30195584253780E+00
 0.15584185766000E+02 0.66233609137875E+00
 s    2 1.00
 0.62067138508000E+01 0.65595308539952E+00
 0.25764896527000E+01 0.37585633285142E+00
 s    1 1.00
 0.57696339419000E+00 0.10000000000000E+01
 s    1 1.00
 0.22972831358000E+00 0.10000000000000E+01
 s    1 1.00
 0.95164440028000E-01 0.10000000000000E+01
 s    1 1.00
 0.48475401370000E-01 0.10000000000000E+01
 p    4 1.00
 0.34697232244000E+02 0.11327220003114E-01
 0.79582622826000E+01 0.76169659202087E-01
 0.23780826883000E+01 0.30192252202676E+00
 0.81433208183000E+00 0.72785027349547E+00
 p    1 1.00
 0.28887547253000E+00 0.10000000000000E+01
 p    1 1.00
 0.10056823671000E+00 0.10000000000000E+01
 d    1 1.00
 0.10970000000000E+01 0.10000000000000E+01
 d    1 1.00
 0.31800000000000E+00 0.10000000000000E+01
 d    1 1.00
 0.90985336424000E-01 0.10000000000000E+01
 f    1 1.00
 0.76100000000000E+00 0.10000000000000E+01
 
    3 0
 s    6 1.00
 0.13575349682000E+05 0.60645503603591E-03
 0.20352333680000E+04 0.46979088884982E-02
 0.46322562359000E+03 0.24332477647552E-01
 0.13120019598000E+03 0.97399968307759E-01
 0.42853015891000E+02 0.30195584253780E+00
 0.15584185766000E+02 0.66233609137875E+00
 s    2 1.00
 0.62067138508000E+01 0.65595308539952E+00
 0.25764896527000E+01 0.37585633285142E+00
 s    1 1.00
 0.57696339419000E+00 0.10000000000000E+01
 s    1 1.00
 0.22972831358000E+00 0.10000000000000E+01
 s    1 1.00
 0.95164440028000E-01 0.10000000000000E+01
 s    1 1.00
 0.48475401370000E-01 0.10000000000000E+01
 p    4 1.00
 0.34697232244000E+02 0.11327220003114E-01
 0.79582622826000E+01 0.76169659202087E-01
 0.23780826883000E+01 0.30192252202676E+00
 0.81433208183000E+00 0.72785027349547E+00
 p    1 1.00
 0.28887547253000E+00 0.10000000000000E+01
 p    1 1.00
 0.10056823671000E+00 0.10000000000000E+01
 d    1 1.00
 0.10970000000000E+01 0.10000000000000E+01
 d    1 1.00
 0.31800000000000E+00 0.10000000000000E+01
 d    1 1.00
 0.90985336424000E-01 0.10000000000000E+01
 f    1 1.00
 0.76100000000000E+00 0.10000000000000E+01
 
    4 0
 s    6 1.00
 0.13575349682000E+05 0.60645503603591E-03
 0.20352333680000E+04 0.46979088884982E-02
 0.46322562359000E+03 0.24332477647552E-01
 0.13120019598000E+03 0.97399968307759E-01
 0.42853015891000E+02 0.30195584253780E+00
 0.15584185766000E+02 0.66233609137875E+00
 s    2 1.00
 0.62067138508000E+01 0.65595308539952E+00
 0.25764896527000E+01 0.37585633285142E+00
 s    1 1.00
 0.57696339419000E+00 0.10000000000000E+01
 s    1 1.00
 0.22972831358000E+00 0.10000000000000E+01
 s    1 1.00
 0.95164440028000E-01 0.10000000000000E+01
 s    1 1.00
 0.48475401370000E-01 0.10000000000000E+01
 p    4 1.00
 0.34697232244000E+02 0.11327220003114E-01
 0.79582622826000E+01 0.76169659202087E-01
 0.23780826883000E+01 0.30192252202676E+00
 0.81433208183000E+00 0.72785027349547E+00
 p    1 1.00
 0.28887547253000E+00 0.10000000000000E+01
 p    1 1.00
 0.10056823671000E+00 0.10000000000000E+01
 d    1 1.00
 0.10970000000000E+01 0.10000000000000E+01
 d    1 1.00
 0.31800000000000E+00 0.10000000000000E+01
 d    1 1.00
 0.90985336424000E-01 0.10000000000000E+01
 f    1 1.00
 0.76100000000000E+00 0.10000000000000E+01
 
    5 0
 s    6 1.00
 0.13575349682000E+05 0.60645503603591E-03
 0.20352333680000E+04 0.46979088884982E-02
 0.46322562359000E+03 0.24332477647552E-01
 0.13120019598000E+03 0.97399968307759E-01
 0.42853015891000E+02 0.30195584253780E+00
 0.15584185766000E+02 0.66233609137875E+00
 s    2 1.00
 0.62067138508000E+01 0.65595308539952E+00
 0.25764896527000E+01 0.37585633285142E+00
 s    1 1.00
 0.57696339419000E+00 0.10000000000000E+01
 s    1 1.00
 0.22972831358000E+00 0.10000000000000E+01
 s    1 1.00
 0.95164440028000E-01 0.10000000000000E+01
 s    1 1.00
 0.48475401370000E-01 0.10000000000000E+01
 p    4 1.00
 0.34697232244000E+02 0.11327220003114E-01
 0.79582622826000E+01 0.76169659202087E-01
 0.23780826883000E+01 0.30192252202676E+00
 0.81433208183000E+00 0.72785027349547E+00
 p    1 1.00
 0.28887547253000E+00 0.10000000000000E+01
 p    1 1.00
 0.10056823671000E+00 0.10000000000000E+01
 d    1 1.00
 0.10970000000000E+01 0.10000000000000E+01
 d    1 1.00
 0.31800000000000E+00 0.10000000000000E+01
 d    1 1.00
 0.90985336424000E-01 0.10000000000000E+01
 f    1 1.00
 0.76100000000000E+00 0.10000000000000E+01
 
    6 0
 s    6 1.00
 0.13575349682000E+05 0.60645503603591E-03
 0.20352333680000E+04 0.46979088884982E-02
 0.46322562359000E+03 0.24332477647552E-01
 0.13120019598000E+03 0.97399968307759E-01
 0.42853015891000E+02 0.30195584253780E+00
 0.15584185766000E+02 0.66233609137875E+00
 s    2 1.00
 0.62067138508000E+01 0.65595308539952E+00
 0.25764896527000E+01 0.37585633285142E+00
 s    1 1.00
 0.57696339419000E+00 0.10000000000000E+01
 s    1 1.00
 0.22972831358000E+00 0.10000000000000E+01
 s    1 1.00
 0.95164440028000E-01 0.10000000000000E+01
 s    1 1.00
 0.48475401370000E-01 0.10000000000000E+01
 p    4 1.00
 0.34697232244000E+02 0.11327220003114E-01
 0.79582622826000E+01 0.76169659202087E-01
 0.23780826883000E+01 0.30192252202676E+00
 0.81433208183000E+00 0.72785027349547E+00
 p    1 1.00
 0.28887547253000E+00 0.10000000000000E+01
 p    1 1.00
 0.10056823671000E+00 0.10000000000000E+01
 d    1 1.00
 0.10970000000000E+01 0.10000000000000E+01
 d    1 1.00
 0.31800000000000E+00 0.10000000000000E+01
 d    1 1.00
 0.90985336424000E-01 0.10000000000000E+01
 f    1 1.00
 0.76100000000000E+00 0.10000000000000E+01
 
    7 0
 s    3 1.00
 0.34061341000000E+02 0.25439307208879E-01
 0.51235746000000E+01 0.19008594890375E+00
 0.11646626000000E+01 0.85244113011042E+00
 s    1 1.00
 0.32723041000000E+00 0.10000000000000E+01
 s    1 1.00
 0.10307241000000E+00 0.10000000000000E+01
 p    1 1.00
 0.80000000000000E+00 0.10000000000000E+01
 p    1 1.00
 0.95774129632000E-01 0.10000000000000E+01
 
    8 0
 s    3 1.00
 0.34061341000000E+02 0.25439307208879E-01
 0.51235746000000E+01 0.19008594890375E+00
 0.11646626000000E+01 0.85244113011042E+00
 s    1 1.00
 0.32723041000000E+00 0.10000000000000E+01
 s    1 1.00
 0.10307241000000E+00 0.10000000000000E+01
 p    1 1.00
 0.80000000000000E+00 0.10000000000000E+01
 p    1 1.00
 0.95774129632000E-01 0.10000000000000E+01
 
    9 0
 s    3 1.00
 0.34061341000000E+02 0.25439307208879E-01
 0.51235746000000E+01 0.19008594890375E+00
 0.11646626000000E+01 0.85244113011042E+00
 s    1 1.00
 0.32723041000000E+00 0.10000000000000E+01
 s    1 1.00
 0.10307241000000E+00 0.10000000000000E+01
 p    1 1.00
 0.80000000000000E+00 0.10000000000000E+01
 p    1 1.00
 0.95774129632000E-01 0.10000000000000E+01
 
   10 0
 s    3 1.00
 0.34061341000000E+02 0.25439307208879E-01
 0.51235746000000E+01 0.19008594890375E+00
 0.11646626000000E+01 0.85244113011042E+00
 s    1 1.00
 0.32723041000000E+00 0.10000000000000E+01
 s    1 1.00
 0.10307241000000E+00 0.10000000000000E+01
 p    1 1.00
 0.80000000000000E+00 0.10000000000000E+01
 p    1 1.00
 0.95774129632000E-01 0.10000000000000E+01
 
   11 0
 s    6 1.00
 0.19730800647000E+05 0.58626402628763E-03
 0.29578958745000E+04 0.45428820586397E-02
 0.67322133595000E+03 0.23558413450084E-01
 0.19068249494000E+03 0.94709193292923E-01
 0.62295441898000E+02 0.29719784913376E+00
 0.22654161182000E+02 0.66916246895232E+00
 s    2 1.00
 0.89791477428000E+01 0.64596683630063E+00
 0.36863002370000E+01 0.38700574393705E+00
 s    1 1.00
 0.84660076805000E+00 0.10000000000000E+01
 s    1 1.00
 0.33647133771000E+00 0.10000000000000E+01
 s    1 1.00
 0.13647653675000E+00 0.10000000000000E+01
 s    1 1.00
 0.68441605847000E-01 0.10000000000000E+01
 p    4 1.00
 0.49200380510000E+02 0.11448825101764E-01
 0.11346790537000E+02 0.78422337970864E-01
 0.34273972411000E+01 0.30818094738830E+00
 0.11785525134000E+01 0.72027196368413E+00
 p    1 1.00
 0.41642204972000E+00 0.10000000000000E+01
 p    1 1.00
 0.14260826011000E+00 0.10000000000000E+01
 d    1 1.00
 0.16540000000000E+01 0.10000000000000E+01
 d    1 1.00
 0.46900000000000E+00 0.10000000000000E+01
 d    1 1.00
 0.12829642058000E+00 0.10000000000000E+01
 f    1 1.00
 0.10930000000000E+01 0.10000000000000E+01
 
   12 0
 s    6 1.00
 0.27032382631000E+05 0.57227335211155E-03
 0.40523871392000E+04 0.44353233492995E-02
 0.92232722710000E+03 0.23020107706038E-01
 0.26124070989000E+03 0.92822490667928E-01
 0.85354641351000E+02 0.29378500009671E+00
 0.31035035245000E+02 0.67401604501641E+00
 s    2 1.00
 0.12260860728000E+02 0.63839937025506E+00
 0.49987076005000E+01 0.39534587125718E+00
 s    1 1.00
 0.11703108158000E+01 0.10000000000000E+01
 s    1 1.00
 0.46474740994000E+00 0.10000000000000E+01
 s    1 1.00
 0.18504536357000E+00 0.10000000000000E+01
 s    1 1.00
 0.70288026270000E-01 0.10000000000000E+01
 p    4 1.00
 0.63274954801000E+02 0.12018332222616E-01
 0.14627049379000E+02 0.83005421790056E-01
 0.44501223456000E+01 0.31991743925964E+00
 0.15275799647000E+01 0.70715542916104E+00
 p    1 1.00
 0.52935117943000E+00 0.10000000000000E+01
 p    1 1.00
 0.17478421270000E+00 0.10000000000000E+01
 p    1 1.00
 0.51112745706000E-01 0.10000000000000E+01
 d    1 1.00
 0.23140000000000E+01 0.10000000000000E+01
 d    1 1.00
 0.64500000000000E+00 0.10000000000000E+01
 d    1 1.00
 0.14696477366000E+00 0.10000000000000E+01
 f    1 1.00
 0.14280000000000E+01 0.10000000000000E+01
 
   13 0
 s    6 1.00
 0.27032382631000E+05 0.57227335211155E-03
 0.40523871392000E+04 0.44353233492995E-02
 0.92232722710000E+03 0.23020107706038E-01
 0.26124070989000E+03 0.92822490667928E-01
 0.85354641351000E+02 0.29378500009671E+00
 0.31035035245000E+02 0.67401604501641E+00
 s    2 1.00
 0.12260860728000E+02 0.63839937025506E+00
 0.49987076005000E+01 0.39534587125718E+00
 s    1 1.00
 0.11703108158000E+01 0.10000000000000E+01
 s    1 1.00
 0.46474740994000E+00 0.10000000000000E+01
 s    1 1.00
 0.18504536357000E+00 0.10000000000000E+01
 s    1 1.00
 0.70288026270000E-01 0.10000000000000E+01
 p    4 1.00
 0.63274954801000E+02 0.12018332222616E-01
 0.14627049379000E+02 0.83005421790056E-01
 0.44501223456000E+01 0.31991743925964E+00
 0.15275799647000E+01 0.70715542916104E+00
 p    1 1.00
 0.52935117943000E+00 0.10000000000000E+01
 p    1 1.00
 0.17478421270000E+00 0.10000000000000E+01
 p    1 1.00
 0.51112745706000E-01 0.10000000000000E+01
 d    1 1.00
 0.23140000000000E+01 0.10000000000000E+01
 d    1 1.00
 0.64500000000000E+00 0.10000000000000E+01
 d    1 1.00
 0.14696477366000E+00 0.10000000000000E+01
 f    1 1.00
 0.14280000000000E+01 0.10000000000000E+01
 
   14 0
 s    6 1.00
 0.19730800647000E+05 0.58626402628763E-03
 0.29578958745000E+04 0.45428820586397E-02
 0.67322133595000E+03 0.23558413450084E-01
 0.19068249494000E+03 0.94709193292923E-01
 0.62295441898000E+02 0.29719784913376E+00
 0.22654161182000E+02 0.66916246895232E+00
 s    2 1.00
 0.89791477428000E+01 0.64596683630063E+00
 0.36863002370000E+01 0.38700574393705E+00
 s    1 1.00
 0.84660076805000E+00 0.10000000000000E+01
 s    1 1.00
 0.33647133771000E+00 0.10000000000000E+01
 s    1 1.00
 0.13647653675000E+00 0.10000000000000E+01
 s    1 1.00
 0.68441605847000E-01 0.10000000000000E+01
 p    4 1.00
 0.49200380510000E+02 0.11448825101764E-01
 0.11346790537000E+02 0.78422337970864E-01
 0.34273972411000E+01 0.30818094738830E+00
 0.11785525134000E+01 0.72027196368413E+00
 p    1 1.00
 0.41642204972000E+00 0.10000000000000E+01
 p    1 1.00
 0.14260826011000E+00 0.10000000000000E+01
 d    1 1.00
 0.16540000000000E+01 0.10000000000000E+01
 d    1 1.00
 0.46900000000000E+00 0.10000000000000E+01
 d    1 1.00
 0.12829642058000E+00 0.10000000000000E+01
 f    1 1.00
 0.10930000000000E+01 0.10000000000000E+01
 
   15 0
 s    3 1.00
 0.34061341000000E+02 0.25439307208879E-01
 0.51235746000000E+01 0.19008594890375E+00
 0.11646626000000E+01 0.85244113011042E+00
 s    1 1.00
 0.32723041000000E+00 0.10000000000000E+01
 s    1 1.00
 0.10307241000000E+00 0.10000000000000E+01
 p    1 1.00
 0.80000000000000E+00 0.10000000000000E+01
 p    1 1.00
 0.95774129632000E-01 0.10000000000000E+01
 
   16 0
 s    3 1.00
 0.34061341000000E+02 0.25439307208879E-01
 0.51235746000000E+01 0.19008594890375E+00
 0.11646626000000E+01 0.85244113011042E+00
 s    1 1.00
 0.32723041000000E+00 0.10000000000000E+01
 s    1 1.00
 0.10307241000000E+00 0.10000000000000E+01
 p    1 1.00
 0.80000000000000E+00 0.10000000000000E+01
 p    1 1.00
 0.95774129632000E-01 0.10000000000000E+01
 
[MO]
 Sym= X
 Ene= -0.095225
 Spin= Alpha
 Occup= -0.095225
         1    3.952549E-04
         2    9.147428E-04
         3   -2.467128E-03
         4    5.275871E-03
         5   -3.436474E-02
         6    2.059831E-02
         7    5.523743E-03
         8    1.693151E-05
         9    1.945324E-02
        10   -3.000803E-03
        11    6.766964E-04
        12    2.054313E-02
        13   -4.817835E-02
        14    1.737066E-02
        15    3.078931E-03
        16   -1.081812E-04
        17    1.223777E-04
        18   -1.419649E-05
        19    3.853309E-05
        20   -5.550611E-03
        21    2.010851E-03
        22    1.110695E-03
        23   -6.333549E-04
        24   -4.773396E-04
        25    1.346682E-03
        26   -1.244296E-02
        27    4.147818E-03
        28    4.373384E-03
        29   -3.923009E-03
        30   -4.503752E-04
        31   -2.873485E-03
        32    5.547971E-03
        33   -1.008480E-02
        34   -3.252706E-05
        35    7.510016E-06
        36   -2.955474E-04
        37    1.606749E-05
        38   -4.214628E-06
        39    8.683858E-04
        40    2.757215E-05
        41   -5.861116E-06
        42   -4.718674E-04
        43    4.644381E-04
        44   -1.369982E-06
        45    3.814023E-06
        46   -5.277648E-04
        47    6.069840E-03
        48    7.415897E-02
        49   -1.222176E-02
        50   -2.113690E-03
        51    1.089577E-06
        52   -1.127525E-01
        53   -3.139318E-03
        54    4.515153E-06
        55   -1.186540E-01
        56   -1.908297E-02
        57   -3.896050E-04
        58   -1.511145E-01
        59   -2.251174E-04
        60    2.146447E-04
        61    1.047273E-05
        62   -6.172196E-08
        63   -1.356669E-03
        64    3.700570E-07
        65   -8.646794E-04
        66    1.345180E-03
        67   -4.805008E-04
        68   -1.017164E-06
        69   -3.907584E-03
        70    3.977514E-07
        71   -2.272369E-02
        72    2.493000E-02
        73   -2.206312E-03
        74    6.481787E-05
        75    7.585118E-04
        76   -2.450582E-05
        77   -4.708770E-06
        78   -2.221702E-08
        79    4.749729E-04
        80   -5.264170E-06
        81    3.846241E-08
        82   -3.098626E-04
        83    1.158165E-05
        84   -8.655144E-09
        85   -3.273804E-04
        86   -3.502477E-08
        87    3.949963E-04
        88    9.141319E-04
        89   -2.464990E-03
        90    5.273449E-03
        91   -3.545994E-02
        92    2.060928E-02
        93    5.527795E-03
        94   -2.095664E-05
        95    1.943574E-02
        96   -2.977201E-03
        97   -6.804173E-04
        98    2.052577E-02
        99   -4.826367E-02
       100   -1.775516E-02
       101    3.040210E-03
       102   -1.083096E-04
       103    1.224862E-04
       104   -1.417657E-05
       105   -3.877699E-05
       106   -5.550317E-03
       107   -2.010930E-03
       108    1.105565E-03
       109   -6.290832E-04
       110   -4.764813E-04
       111   -1.346585E-03
       112   -1.244195E-02
       113   -4.147918E-03
       114    4.432599E-03
       115   -3.992272E-03
       116   -4.403273E-04
       117    2.807646E-03
       118    5.520064E-03
       119    1.005827E-02
       120   -3.248982E-05
       121   -7.496304E-06
       122   -2.954593E-04
       123    1.609423E-05
       124    4.153276E-06
       125    8.683013E-04
       126    2.749544E-05
       127    5.904070E-06
       128   -4.719011E-04
       129   -4.644355E-04
       130   -2.596042E-04
       131   -5.684978E-04
       132   -7.038444E-04
       133    1.782757E-02
       134    1.035635E-04
       135   -2.475244E-02
       136   -5.184003E-03
       137    1.546029E-03
       138    1.622444E-01
       139   -1.900214E-02
       140    1.132240E-02
       141    1.643069E-01
       142   -1.962742E-02
       143   -1.563700E-02
       144    9.682510E-02
       145   -3.662002E-04
       146    4.236341E-04
       147   -5.743390E-05
       148    5.490341E-06
       149    1.741149E-04
       150    2.971443E-03
       151   -1.357678E-03
       152    1.505314E-03
       153   -1.476357E-04
       154   -2.979940E-03
       155   -2.482590E-03
       156    4.628731E-03
       157   -1.302081E-02
       158    9.787853E-03
       159    3.232953E-03
       160    1.959400E-02
       161    5.232553E-03
       162   -1.370126E-02
       163   -3.823606E-05
       164    1.937439E-05
       165   -9.901313E-04
       166   -3.290520E-05
       167    2.869606E-05
       168    3.967527E-04
       169    8.420426E-05
       170   -5.468953E-05
       171    9.316479E-04
       172   -2.492614E-04
       173    1.921806E-03
       174    4.377115E-03
       175   -4.414704E-03
       176   -3.739235E-02
       177    8.906443E-02
       178   -9.427793E-03
       179    1.862660E-02
       180   -2.822783E-06
       181    1.016308E-01
       182    2.096176E-03
       183   -9.444763E-06
       184    1.051501E-01
       185   -7.766905E-02
       186    4.164604E-04
       187    1.347485E-01
       188   -1.031091E-03
       189    6.543942E-04
       190    3.766969E-04
       191   -2.330718E-07
       192    1.104060E-02
       193    4.298726E-07
       194    3.195539E-03
       195   -7.040826E-03
       196    3.845287E-03
       197   -2.093218E-06
       198    2.676227E-02
       199   -6.082038E-07
       200    1.594904E-02
       201   -1.700491E-02
       202    1.055877E-03
       203    1.100882E-04
       204    1.460699E-02
       205    2.702450E-05
       206    2.156106E-04
       207   -1.157171E-08
       208   -2.051780E-04
       209   -1.501430E-04
       210   -2.941820E-08
       211   -1.269810E-03
       212   -1.391290E-04
       213    4.494327E-08
       214    1.545086E-03
       215    1.785626E-08
       216   -2.600175E-04
       217   -5.693956E-04
       218   -7.020847E-04
       219    1.783065E-02
       220   -1.119111E-03
       221   -2.471768E-02
       222   -5.181231E-03
       223   -1.540664E-03
       224    1.622593E-01
       225   -1.901600E-02
       226   -1.132490E-02
       227    1.643261E-01
       228   -1.959451E-02
       229    1.610400E-02
       230    9.678240E-02
       231   -3.661046E-04
       232    4.237416E-04
       233   -5.763708E-05
       234   -5.865502E-06
       235    1.744740E-04
       236   -2.971549E-03
       237   -1.362136E-03
       238    1.509626E-03
       239   -1.474898E-04
       240    2.981320E-03
       241   -2.481615E-03
       242   -4.628742E-03
       243   -1.295733E-02
       244    9.724304E-03
       245    3.233028E-03
       246   -1.964672E-02
       247    5.267688E-03
       248    1.373298E-02
       249   -3.829041E-05
       250   -1.941142E-05
       251   -9.902913E-04
       252   -3.297401E-05
       253   -2.862765E-05
       254    3.969213E-04
       255    8.434599E-05
       256    5.467080E-05
       257    9.316938E-04
       258    2.492764E-04
       259    1.241019E-03
       260    1.213872E-03
       261    2.999736E-02
       262   -1.799783E-07
       263   -7.978946E-05
       264    5.492523E-04
       265   -8.618755E-03
       266   -1.899201E-03
       267    5.237179E-03
       268    1.244321E-03
       269    1.213437E-03
       270    2.995945E-02
       271    4.573044E-08
       272    7.950479E-05
       273    5.484935E-04
       274   -8.677918E-03
       275    1.872393E-03
       276    5.230301E-03
       277    1.430842E-03
       278    5.368177E-03
       279   -6.473140E-02
       280   -5.048709E-05
       281    2.935152E-04
       282    6.386970E-03
       283   -3.496214E-03
       284   -5.406759E-03
       285   -2.078548E-03
       286    1.433983E-03
       287    5.365343E-03
       288   -6.484354E-02
       289   -5.020611E-05
       290   -2.931360E-04
       291    6.387775E-03
       292   -3.463914E-03
       293    5.435613E-03
       294   -2.086878E-03
       295    1.898538E-04
       296    4.460129E-04
       297   -5.233338E-04
       298   -1.440306E-03
       299    1.371529E-02
       300    4.136755E-03
       301    3.344157E-03
       302   -1.884489E-06
       303   -2.370608E-02
       304    2.553723E-03
       305   -1.815832E-06
       306   -2.531574E-02
       307   -4.359380E-03
       308    4.002980E-06
       309   -2.276133E-03
       310   -1.675352E-04
       311    1.817073E-04
       312   -1.417210E-05
       313   -3.597704E-07
       314    2.374632E-03
       315    1.009137E-08
       316   -4.002685E-04
       317    3.582659E-04
       318    4.200254E-05
       319   -9.310916E-07
       320    7.399283E-03
       321    2.563936E-08
       322    7.638996E-04
       323   -4.663329E-03
       324    3.899429E-03
       325   -1.018624E-05
       326    1.056780E-03
       327    3.288529E-06
       328    1.104961E-05
       329    7.557142E-08
       330    7.422351E-05
       331   -1.753844E-06
       332   -1.034188E-07
       333   -4.275446E-04
       334   -1.307076E-05
       335    2.029078E-09
       336    3.279633E-04
       337   -2.418609E-09
       338    4.878361E-05
       339    1.121196E-04
       340   -1.002211E-04
       341   -1.297159E-03
       342    1.075535E-02
       343    1.788079E-03
       344   -3.888206E-03
       345    1.712586E-06
       346    3.732074E-02
       347   -3.665922E-03
       348    1.593413E-04
       349    3.484470E-02
       350   -4.226226E-03
       351    8.700017E-04
       352    3.041165E-02
       353   -7.101611E-04
       354    1.909532E-04
       355    4.023106E-03
       356   -2.576578E-06
       357    1.852188E-05
       358   -1.594530E-05
       359   -3.133207E-05
       360    1.039180E-04
       361    1.021289E-04
       362    4.393774E-05
       363    3.075796E-05
       364   -7.469570E-05
       365   -7.658955E-05
       366   -1.258968E-05
       367    4.100052E-04
       368    1.352926E-04
       369   -1.058087E-05
       370   -1.247118E-04
       371   -1.516904E-05
       372    1.071078E-04
       373    8.785529E-05
       374    5.325896E-06
       375    1.182122E-06
       376   -2.683729E-06
       377   -1.051448E-05
       378    5.905524E-06
       379   -5.019678E-05
       380    3.369042E-06
       381   -7.491507E-06
       382    5.379738E-05
       383   -3.280277E-05
       384    4.880018E-05
       385    1.121695E-04
       386   -1.002836E-04
       387   -1.296653E-03
       388    1.076433E-02
       389    1.777601E-03
       390   -3.904644E-03
       391    1.488223E-05
       392    3.732071E-02
       393   -3.680909E-03
       394   -1.450233E-04
       395    3.484494E-02
       396   -4.231040E-03
       397   -8.624531E-04
       398    3.040698E-02
       399   -7.074751E-04
       400   -1.912008E-04
       401    4.024039E-03
       402   -2.415095E-06
       403    1.830112E-05
       404   -1.588603E-05
       405    3.132283E-05
       406    1.039014E-04
       407   -1.021438E-04
       408    4.428686E-05
       409    3.031157E-05
       410   -7.459843E-05
       411    7.657510E-05
       412   -1.257147E-05
       413   -4.099059E-04
       414    1.370421E-04
       415   -1.233520E-05
       416   -1.247069E-04
       417    1.542991E-05
       418    1.073219E-04
       419   -8.760562E-05
       420    5.303963E-06
       421   -1.124292E-06
       422   -2.687594E-06
       423   -1.047763E-05
       424   -5.963600E-06
       425   -5.019182E-05
       426    3.361621E-06
       427    7.471996E-06
       428    5.379760E-05
       429    3.280259E-05
       430   -8.359532E-03
       431   -1.986563E-02
       432    3.091988E-02
       433    5.107600E-02
       434    1.254552E-02
       435    1.010175E-01
       436   -3.346621E-02
       437    7.012596E-06
       438   -3.064931E-01
       439   -3.789937E-02
       440    2.594966E-06
       441   -3.007678E-01
       442   -4.545982E-02
       443   -4.752733E-05
       444   -2.376590E-01
       445    2.077805E-04
       446    1.336704E-04
       447   -3.414510E-04
       448   -1.664235E-07
       449    5.495585E-04
       450    2.365724E-07
       451    3.052745E-04
       452    3.146930E-03
       453   -3.452205E-03
       454    1.720812E-06
       455    2.925366E-03
       456    9.787196E-07
       457    2.713740E-03
       458    8.361129E-03
       459   -1.107487E-02
       460    4.579817E-06
       461    2.423046E-03
       462    4.491423E-06
       463   -2.416132E-04
       464    4.394097E-08
       465    1.217437E-03
       466   -1.653865E-04
       467    8.976361E-09
       468   -7.080598E-04
       469    4.895447E-04
       470   -6.792936E-08
       471   -9.253033E-04
       472    1.141309E-09
       473   -1.539604E-02
       474   -3.126812E-02
       475   -6.056934E-02
       476   -4.035492E-03
       477   -3.305872E-03
       478   -1.503243E-02
       479   -1.289286E-03
       480   -6.557332E-03
       481   -1.535474E-02
       482   -1.539113E-02
       483   -3.122859E-02
       484   -6.040032E-02
       485   -4.033090E-03
       486    3.302646E-03
       487   -1.503511E-02
       488   -1.257212E-03
       489    6.540312E-03
       490   -1.536853E-02
 Sym= X
 Ene= -0.838216
 Spin= Alpha
 Occup= -0.838216
         1   -2.544655E-05
         2   -5.848124E-05
         3    1.526172E-04
         4   -2.501901E-04
         5   -9.876306E-04
         6   -5.388944E-04
         7    8.651424E-05
         8    1.329369E-04
         9   -1.072282E-01
        10    5.692565E-04
        11   -5.252518E-05
        12   -1.075197E-01
        13   -1.208017E-03
        14    1.352812E-03
        15   -7.309788E-02
        16   -5.427755E-06
        17    3.198740E-06
        18    2.229014E-06
        19    2.467437E-06
        20    2.589371E-03
        21    3.591995E-04
        22   -1.016009E-04
        23    7.870209E-05
        24    2.289877E-05
        25    3.457283E-06
        26    4.027835E-03
        27    4.025656E-05
        28   -6.940064E-05
        29    1.298106E-04
        30   -6.041001E-05
        31    2.051506E-05
        32   -1.901604E-06
        33    2.008911E-03
        34    4.375240E-06
        35    2.009887E-07
        36    7.315392E-04
        37   -9.392828E-07
        38   -1.184838E-07
        39   -8.659874E-04
        40   -4.930718E-06
        41   -1.511708E-07
        42   -1.154754E-04
        43    4.725597E-05
        44    4.072200E-08
        45    1.388441E-07
        46   -3.049495E-06
        47    1.199821E-05
        48    6.721774E-04
        49    6.728536E-05
        50   -6.259476E-08
        51   -8.166303E-05
        52   -1.975232E-06
        53   -7.641726E-06
        54   -2.907001E-04
        55   -5.397546E-07
        56   -2.696450E-04
        57    2.165819E-03
        58    9.117045E-06
        59   -5.185306E-08
        60    7.083208E-08
        61   -1.897902E-08
        62    8.078481E-06