[Molden Format]
[Title]
ADC(2) - opt by CAM-B3LYP gaussian                                              
[Atoms] AU
 c     1    6 0.12593230616935E+01 0.22795690751954E+01 -.36278607975490E-01
 c     2    6 0.25504236399298E+01 0.18897261300000E-05 -.34511714041240E-01
 c     3    6 0.12593268411458E+01 -.22795652957431E+01 -.36289946332290E-01
 c     4    6 -.13369660030996E+01 -.22791608943507E+01 -.39583738981910E-01
 c     5    6 -.26856068523561E+01 -.18897261300000E-05 -.40110972572980E-01
 c     6    6 -.13369678928258E+01 0.22791590046246E+01 -.39570510898980E-01
 h     7    1 0.23068095955089E+01 0.40296066523382E+01 -.33243707806080E-01
 h     8    1 0.23068152646873E+01 -.40296028728859E+01 -.33262605067400E-01
 h     9    1 -.23553205188504E+01 -.40525668248527E+01 -.45200005048840E-01
 h    10    1 -.23553280777549E+01 0.40525630454004E+01 -.45173548882980E-01
 n    11    7 0.52878147756133E+01 0.00000000000000E+00 -.27472484196240E-01
 o    12    8 0.63764576548767E+01 -.20283488830896E+01 -.24482937454020E-01
 o    13    8 0.63764614343290E+01 0.20283469933635E+01 -.24515062798280E-01
 n    14    7 -.52636676188715E+01 0.00000000000000E+00 -.10786332361533E+00
 h    15    1 -.61947904866021E+01 -.16076731691957E+01 0.28377485852069E+00
 h    16    1 -.61947848174237E+01 0.16076731691957E+01 0.28378430715135E+00
[GTO]
    1 0
 s    6 1.00
 0.13575349682000E+05 0.60645503603591E-03
 0.20352333680000E+04 0.46979088884982E-02
 0.46322562359000E+03 0.24332477647552E-01
 0.13120019598000E+03 0.97399968307759E-01
 0.42853015891000E+02 0.30195584253780E+00
 0.15584185766000E+02 0.66233609137875E+00
 s    2 1.00
 0.62067138508000E+01 0.65595308539952E+00
 0.25764896527000E+01 0.37585633285142E+00
 s    1 1.00
 0.57696339419000E+00 0.10000000000000E+01
 s    1 1.00
 0.22972831358000E+00 0.10000000000000E+01
 s    1 1.00
 0.95164440028000E-01 0.10000000000000E+01
 s    1 1.00
 0.48475401370000E-01 0.10000000000000E+01
 p    4 1.00
 0.34697232244000E+02 0.11327220003114E-01
 0.79582622826000E+01 0.76169659202087E-01
 0.23780826883000E+01 0.30192252202676E+00
 0.81433208183000E+00 0.72785027349547E+00
 p    1 1.00
 0.28887547253000E+00 0.10000000000000E+01
 p    1 1.00
 0.10056823671000E+00 0.10000000000000E+01
 d    1 1.00
 0.10970000000000E+01 0.10000000000000E+01
 d    1 1.00
 0.31800000000000E+00 0.10000000000000E+01
 d    1 1.00
 0.90985336424000E-01 0.10000000000000E+01
 f    1 1.00
 0.76100000000000E+00 0.10000000000000E+01
 
    2 0
 s    6 1.00
 0.13575349682000E+05 0.60645503603591E-03
 0.20352333680000E+04 0.46979088884982E-02
 0.46322562359000E+03 0.24332477647552E-01
 0.13120019598000E+03 0.97399968307759E-01
 0.42853015891000E+02 0.30195584253780E+00
 0.15584185766000E+02 0.66233609137875E+00
 s    2 1.00
 0.62067138508000E+01 0.65595308539952E+00
 0.25764896527000E+01 0.37585633285142E+00
 s    1 1.00
 0.57696339419000E+00 0.10000000000000E+01
 s    1 1.00
 0.22972831358000E+00 0.10000000000000E+01
 s    1 1.00
 0.95164440028000E-01 0.10000000000000E+01
 s    1 1.00
 0.48475401370000E-01 0.10000000000000E+01
 p    4 1.00
 0.34697232244000E+02 0.11327220003114E-01
 0.79582622826000E+01 0.76169659202087E-01
 0.23780826883000E+01 0.30192252202676E+00
 0.81433208183000E+00 0.72785027349547E+00
 p    1 1.00
 0.28887547253000E+00 0.10000000000000E+01
 p    1 1.00
 0.10056823671000E+00 0.10000000000000E+01
 d    1 1.00
 0.10970000000000E+01 0.10000000000000E+01
 d    1 1.00
 0.31800000000000E+00 0.10000000000000E+01
 d    1 1.00
 0.90985336424000E-01 0.10000000000000E+01
 f    1 1.00
 0.76100000000000E+00 0.10000000000000E+01
 
    3 0
 s    6 1.00
 0.13575349682000E+05 0.60645503603591E-03
 0.20352333680000E+04 0.46979088884982E-02
 0.46322562359000E+03 0.24332477647552E-01
 0.13120019598000E+03 0.97399968307759E-01
 0.42853015891000E+02 0.30195584253780E+00
 0.15584185766000E+02 0.66233609137875E+00
 s    2 1.00
 0.62067138508000E+01 0.65595308539952E+00
 0.25764896527000E+01 0.37585633285142E+00
 s    1 1.00
 0.57696339419000E+00 0.10000000000000E+01
 s    1 1.00
 0.22972831358000E+00 0.10000000000000E+01
 s    1 1.00
 0.95164440028000E-01 0.10000000000000E+01
 s    1 1.00
 0.48475401370000E-01 0.10000000000000E+01
 p    4 1.00
 0.34697232244000E+02 0.11327220003114E-01
 0.79582622826000E+01 0.76169659202087E-01
 0.23780826883000E+01 0.30192252202676E+00
 0.81433208183000E+00 0.72785027349547E+00
 p    1 1.00
 0.28887547253000E+00 0.10000000000000E+01
 p    1 1.00
 0.10056823671000E+00 0.10000000000000E+01
 d    1 1.00
 0.10970000000000E+01 0.10000000000000E+01
 d    1 1.00
 0.31800000000000E+00 0.10000000000000E+01
 d    1 1.00
 0.90985336424000E-01 0.10000000000000E+01
 f    1 1.00
 0.76100000000000E+00 0.10000000000000E+01
 
    4 0
 s    6 1.00
 0.13575349682000E+05 0.60645503603591E-03
 0.20352333680000E+04 0.46979088884982E-02
 0.46322562359000E+03 0.24332477647552E-01
 0.13120019598000E+03 0.97399968307759E-01
 0.42853015891000E+02 0.30195584253780E+00
 0.15584185766000E+02 0.66233609137875E+00
 s    2 1.00
 0.62067138508000E+01 0.65595308539952E+00
 0.25764896527000E+01 0.37585633285142E+00
 s    1 1.00
 0.57696339419000E+00 0.10000000000000E+01
 s    1 1.00
 0.22972831358000E+00 0.10000000000000E+01
 s    1 1.00
 0.95164440028000E-01 0.10000000000000E+01
 s    1 1.00
 0.48475401370000E-01 0.10000000000000E+01
 p    4 1.00
 0.34697232244000E+02 0.11327220003114E-01
 0.79582622826000E+01 0.76169659202087E-01
 0.23780826883000E+01 0.30192252202676E+00
 0.81433208183000E+00 0.72785027349547E+00
 p    1 1.00
 0.28887547253000E+00 0.10000000000000E+01
 p    1 1.00
 0.10056823671000E+00 0.10000000000000E+01
 d    1 1.00
 0.10970000000000E+01 0.10000000000000E+01
 d    1 1.00
 0.31800000000000E+00 0.10000000000000E+01
 d    1 1.00
 0.90985336424000E-01 0.10000000000000E+01
 f    1 1.00
 0.76100000000000E+00 0.10000000000000E+01
 
    5 0
 s    6 1.00
 0.13575349682000E+05 0.60645503603591E-03
 0.20352333680000E+04 0.46979088884982E-02
 0.46322562359000E+03 0.24332477647552E-01
 0.13120019598000E+03 0.97399968307759E-01
 0.42853015891000E+02 0.30195584253780E+00
 0.15584185766000E+02 0.66233609137875E+00
 s    2 1.00
 0.62067138508000E+01 0.65595308539952E+00
 0.25764896527000E+01 0.37585633285142E+00
 s    1 1.00
 0.57696339419000E+00 0.10000000000000E+01
 s    1 1.00
 0.22972831358000E+00 0.10000000000000E+01
 s    1 1.00
 0.95164440028000E-01 0.10000000000000E+01
 s    1 1.00
 0.48475401370000E-01 0.10000000000000E+01
 p    4 1.00
 0.34697232244000E+02 0.11327220003114E-01
 0.79582622826000E+01 0.76169659202087E-01
 0.23780826883000E+01 0.30192252202676E+00
 0.81433208183000E+00 0.72785027349547E+00
 p    1 1.00
 0.28887547253000E+00 0.10000000000000E+01
 p    1 1.00
 0.10056823671000E+00 0.10000000000000E+01
 d    1 1.00
 0.10970000000000E+01 0.10000000000000E+01
 d    1 1.00
 0.31800000000000E+00 0.10000000000000E+01
 d    1 1.00
 0.90985336424000E-01 0.10000000000000E+01
 f    1 1.00
 0.76100000000000E+00 0.10000000000000E+01
 
    6 0
 s    6 1.00
 0.13575349682000E+05 0.60645503603591E-03
 0.20352333680000E+04 0.46979088884982E-02
 0.46322562359000E+03 0.24332477647552E-01
 0.13120019598000E+03 0.97399968307759E-01
 0.42853015891000E+02 0.30195584253780E+00
 0.15584185766000E+02 0.66233609137875E+00
 s    2 1.00
 0.62067138508000E+01 0.65595308539952E+00
 0.25764896527000E+01 0.37585633285142E+00
 s    1 1.00
 0.57696339419000E+00 0.10000000000000E+01
 s    1 1.00
 0.22972831358000E+00 0.10000000000000E+01
 s    1 1.00
 0.95164440028000E-01 0.10000000000000E+01
 s    1 1.00
 0.48475401370000E-01 0.10000000000000E+01
 p    4 1.00
 0.34697232244000E+02 0.11327220003114E-01
 0.79582622826000E+01 0.76169659202087E-01
 0.23780826883000E+01 0.30192252202676E+00
 0.81433208183000E+00 0.72785027349547E+00
 p    1 1.00
 0.28887547253000E+00 0.10000000000000E+01
 p    1 1.00
 0.10056823671000E+00 0.10000000000000E+01
 d    1 1.00
 0.10970000000000E+01 0.10000000000000E+01
 d    1 1.00
 0.31800000000000E+00 0.10000000000000E+01
 d    1 1.00
 0.90985336424000E-01 0.10000000000000E+01
 f    1 1.00
 0.76100000000000E+00 0.10000000000000E+01
 
    7 0
 s    3 1.00
 0.34061341000000E+02 0.25439307208879E-01
 0.51235746000000E+01 0.19008594890375E+00
 0.11646626000000E+01 0.85244113011042E+00
 s    1 1.00
 0.32723041000000E+00 0.10000000000000E+01
 s    1 1.00
 0.10307241000000E+00 0.10000000000000E+01
 p    1 1.00
 0.80000000000000E+00 0.10000000000000E+01
 p    1 1.00
 0.95774129632000E-01 0.10000000000000E+01
 
    8 0
 s    3 1.00
 0.34061341000000E+02 0.25439307208879E-01
 0.51235746000000E+01 0.19008594890375E+00
 0.11646626000000E+01 0.85244113011042E+00
 s    1 1.00
 0.32723041000000E+00 0.10000000000000E+01
 s    1 1.00
 0.10307241000000E+00 0.10000000000000E+01
 p    1 1.00
 0.80000000000000E+00 0.10000000000000E+01
 p    1 1.00
 0.95774129632000E-01 0.10000000000000E+01
 
    9 0
 s    3 1.00
 0.34061341000000E+02 0.25439307208879E-01
 0.51235746000000E+01 0.19008594890375E+00
 0.11646626000000E+01 0.85244113011042E+00
 s    1 1.00
 0.32723041000000E+00 0.10000000000000E+01
 s    1 1.00
 0.10307241000000E+00 0.10000000000000E+01
 p    1 1.00
 0.80000000000000E+00 0.10000000000000E+01
 p    1 1.00
 0.95774129632000E-01 0.10000000000000E+01
 
   10 0
 s    3 1.00
 0.34061341000000E+02 0.25439307208879E-01
 0.51235746000000E+01 0.19008594890375E+00
 0.11646626000000E+01 0.85244113011042E+00
 s    1 1.00
 0.32723041000000E+00 0.10000000000000E+01
 s    1 1.00
 0.10307241000000E+00 0.10000000000000E+01
 p    1 1.00
 0.80000000000000E+00 0.10000000000000E+01
 p    1 1.00
 0.95774129632000E-01 0.10000000000000E+01
 
   11 0
 s    6 1.00
 0.19730800647000E+05 0.58626402628763E-03
 0.29578958745000E+04 0.45428820586397E-02
 0.67322133595000E+03 0.23558413450084E-01
 0.19068249494000E+03 0.94709193292923E-01
 0.62295441898000E+02 0.29719784913376E+00
 0.22654161182000E+02 0.66916246895232E+00
 s    2 1.00
 0.89791477428000E+01 0.64596683630063E+00
 0.36863002370000E+01 0.38700574393705E+00
 s    1 1.00
 0.84660076805000E+00 0.10000000000000E+01
 s    1 1.00
 0.33647133771000E+00 0.10000000000000E+01
 s    1 1.00
 0.13647653675000E+00 0.10000000000000E+01
 s    1 1.00
 0.68441605847000E-01 0.10000000000000E+01
 p    4 1.00
 0.49200380510000E+02 0.11448825101764E-01
 0.11346790537000E+02 0.78422337970864E-01
 0.34273972411000E+01 0.30818094738830E+00
 0.11785525134000E+01 0.72027196368413E+00
 p    1 1.00
 0.41642204972000E+00 0.10000000000000E+01
 p    1 1.00
 0.14260826011000E+00 0.10000000000000E+01
 d    1 1.00
 0.16540000000000E+01 0.10000000000000E+01
 d    1 1.00
 0.46900000000000E+00 0.10000000000000E+01
 d    1 1.00
 0.12829642058000E+00 0.10000000000000E+01
 f    1 1.00
 0.10930000000000E+01 0.10000000000000E+01
 
   12 0
 s    6 1.00
 0.27032382631000E+05 0.57227335211155E-03
 0.40523871392000E+04 0.44353233492995E-02
 0.92232722710000E+03 0.23020107706038E-01
 0.26124070989000E+03 0.92822490667928E-01
 0.85354641351000E+02 0.29378500009671E+00
 0.31035035245000E+02 0.67401604501641E+00
 s    2 1.00
 0.12260860728000E+02 0.63839937025506E+00
 0.49987076005000E+01 0.39534587125718E+00
 s    1 1.00
 0.11703108158000E+01 0.10000000000000E+01
 s    1 1.00
 0.46474740994000E+00 0.10000000000000E+01
 s    1 1.00
 0.18504536357000E+00 0.10000000000000E+01
 s    1 1.00
 0.70288026270000E-01 0.10000000000000E+01
 p    4 1.00
 0.63274954801000E+02 0.12018332222616E-01
 0.14627049379000E+02 0.83005421790056E-01
 0.44501223456000E+01 0.31991743925964E+00
 0.15275799647000E+01 0.70715542916104E+00
 p    1 1.00
 0.52935117943000E+00 0.10000000000000E+01
 p    1 1.00
 0.17478421270000E+00 0.10000000000000E+01
 p    1 1.00
 0.51112745706000E-01 0.10000000000000E+01
 d    1 1.00
 0.23140000000000E+01 0.10000000000000E+01
 d    1 1.00
 0.64500000000000E+00 0.10000000000000E+01
 d    1 1.00
 0.14696477366000E+00 0.10000000000000E+01
 f    1 1.00
 0.14280000000000E+01 0.10000000000000E+01
 
   13 0
 s    6 1.00
 0.27032382631000E+05 0.57227335211155E-03
 0.40523871392000E+04 0.44353233492995E-02
 0.92232722710000E+03 0.23020107706038E-01
 0.26124070989000E+03 0.92822490667928E-01
 0.85354641351000E+02 0.29378500009671E+00
 0.31035035245000E+02 0.67401604501641E+00
 s    2 1.00
 0.12260860728000E+02 0.63839937025506E+00
 0.49987076005000E+01 0.39534587125718E+00
 s    1 1.00
 0.11703108158000E+01 0.10000000000000E+01
 s    1 1.00
 0.46474740994000E+00 0.10000000000000E+01
 s    1 1.00
 0.18504536357000E+00 0.10000000000000E+01
 s    1 1.00
 0.70288026270000E-01 0.10000000000000E+01
 p    4 1.00
 0.63274954801000E+02 0.12018332222616E-01
 0.14627049379000E+02 0.83005421790056E-01
 0.44501223456000E+01 0.31991743925964E+00
 0.15275799647000E+01 0.70715542916104E+00
 p    1 1.00
 0.52935117943000E+00 0.10000000000000E+01
 p    1 1.00
 0.17478421270000E+00 0.10000000000000E+01
 p    1 1.00
 0.51112745706000E-01 0.10000000000000E+01
 d    1 1.00
 0.23140000000000E+01 0.10000000000000E+01
 d    1 1.00
 0.64500000000000E+00 0.10000000000000E+01
 d    1 1.00
 0.14696477366000E+00 0.10000000000000E+01
 f    1 1.00
 0.14280000000000E+01 0.10000000000000E+01
 
   14 0
 s    6 1.00
 0.19730800647000E+05 0.58626402628763E-03
 0.29578958745000E+04 0.45428820586397E-02
 0.67322133595000E+03 0.23558413450084E-01
 0.19068249494000E+03 0.94709193292923E-01
 0.62295441898000E+02 0.29719784913376E+00
 0.22654161182000E+02 0.66916246895232E+00
 s    2 1.00
 0.89791477428000E+01 0.64596683630063E+00
 0.36863002370000E+01 0.38700574393705E+00
 s    1 1.00
 0.84660076805000E+00 0.10000000000000E+01
 s    1 1.00
 0.33647133771000E+00 0.10000000000000E+01
 s    1 1.00
 0.13647653675000E+00 0.10000000000000E+01
 s    1 1.00
 0.68441605847000E-01 0.10000000000000E+01
 p    4 1.00
 0.49200380510000E+02 0.11448825101764E-01
 0.11346790537000E+02 0.78422337970864E-01
 0.34273972411000E+01 0.30818094738830E+00
 0.11785525134000E+01 0.72027196368413E+00
 p    1 1.00
 0.41642204972000E+00 0.10000000000000E+01
 p    1 1.00
 0.14260826011000E+00 0.10000000000000E+01
 d    1 1.00
 0.16540000000000E+01 0.10000000000000E+01
 d    1 1.00
 0.46900000000000E+00 0.10000000000000E+01
 d    1 1.00
 0.12829642058000E+00 0.10000000000000E+01
 f    1 1.00
 0.10930000000000E+01 0.10000000000000E+01
 
   15 0
 s    3 1.00
 0.34061341000000E+02 0.25439307208879E-01
 0.51235746000000E+01 0.19008594890375E+00
 0.11646626000000E+01 0.85244113011042E+00
 s    1 1.00
 0.32723041000000E+00 0.10000000000000E+01
 s    1 1.00
 0.10307241000000E+00 0.10000000000000E+01
 p    1 1.00
 0.80000000000000E+00 0.10000000000000E+01
 p    1 1.00
 0.95774129632000E-01 0.10000000000000E+01
 
   16 0
 s    3 1.00
 0.34061341000000E+02 0.25439307208879E-01
 0.51235746000000E+01 0.19008594890375E+00
 0.11646626000000E+01 0.85244113011042E+00
 s    1 1.00
 0.32723041000000E+00 0.10000000000000E+01
 s    1 1.00
 0.10307241000000E+00 0.10000000000000E+01
 p    1 1.00
 0.80000000000000E+00 0.10000000000000E+01
 p    1 1.00
 0.95774129632000E-01 0.10000000000000E+01
 
[MO]
 Sym= X
 Ene= -0.953351
 Spin= Alpha
 Occup= -0.953351
         1    5.440929E-03
         2    1.247942E-02
         3   -2.576587E-02
         4    6.117816E-03
         5   -1.841524E-01
         6   -3.347039E-02
         7   -4.955256E-02
         8   -2.068166E-02
         9   -9.590947E-05
        10   -5.747543E-02
        11   -1.813365E-02
        12   -9.187635E-05
        13   -3.155862E-02
        14    5.325569E-02
        15   -4.047696E-05
        16    1.708264E-03
        17   -1.920983E-03
        18    2.127187E-04
        19   -5.751987E-04
        20    1.185008E-06
        21   -2.708451E-06
        22    1.015768E-02
        23   -7.093076E-03
        24   -3.064606E-03
        25   -2.114842E-03
        26    1.527513E-05
        27   -4.159543E-06
        28   -5.935959E-03
        29    2.189469E-03
        30    3.746490E-03
        31    8.545593E-03
        32    1.115313E-04
        33   -3.469718E-05
        34   -7.824752E-05
        35    9.516822E-05
        36    4.369289E-07
        37   -5.635920E-05
        38   -2.172710E-04
        39    3.777018E-08
        40    1.613393E-04
        41    8.958947E-05
        42   -6.239718E-07
        43   -7.448305E-07
        44   -9.155687E-07
        45   -2.049248E-06
        46    2.567466E-06
        47    9.206490E-06
        48    6.772975E-05
        49    6.828743E-06
        50    1.512116E-05
        51   -1.780633E-02
        52   -1.379140E-05
        53    1.300185E-05
        54   -2.866787E-02
        55   -1.434107E-05
        56   -1.373125E-05
        57    1.423467E-01
        58   -2.185811E-05
        59    5.988283E-07
        60   -5.402102E-07
        61   -5.861811E-08
        62    1.235355E-03
        63    2.471865E-07
        64    2.119582E-06
        65    5.760590E-07
        66   -5.742039E-07
        67   -1.855157E-09
        68   -4.052491E-03
        69    6.637557E-08
        70   -5.306706E-06
        71   -1.828070E-05
        72    1.932430E-05
        73   -1.043597E-06
        74   -3.081961E-02
        75    2.517372E-06
        76   -2.257414E-04
        77    1.053960E-07
        78   -5.784504E-04
        79    1.271239E-07
        80   -7.583890E-08
        81    6.040080E-04
        82   -6.890596E-08
        83   -6.556461E-08
        84    1.720646E-04
        85   -1.016486E-07
        86    7.611045E-07
        87   -5.440983E-03
        88   -1.247954E-02
        89    2.576671E-02
        90   -6.120848E-03
        91    1.839774E-01
        92    3.346501E-02
        93    4.954365E-02
        94   -2.069104E-02
        95    7.668814E-05
        96    5.747088E-02
        97   -1.814184E-02
        98    7.249506E-05
        99    3.154226E-02
       100    5.320640E-02
       101    4.518266E-05
       102   -1.707711E-03
       103    1.920398E-03
       104   -2.126875E-04
       105   -5.753103E-04
       106   -1.261650E-06
       107   -3.317887E-06
       108   -1.015763E-02
       109    7.092649E-03
       110    3.064979E-03
       111   -2.114868E-03
       112   -1.559737E-05
       113   -4.713503E-06
       114    5.925999E-03
       115   -2.178716E-03
       116   -3.747283E-03
       117    8.552734E-03
       118   -1.110295E-04
       119   -3.012258E-05
       120    7.826210E-05
       121    9.507022E-05
       122   -2.765260E-07
       123    5.634019E-05
       124   -2.171645E-04
       125   -1.121606E-07
       126   -1.613398E-04
       127    8.961442E-05
       128    4.831591E-07
       129   -8.016799E-07
       130    3.129368E-03
       131    7.105717E-03
       132   -1.378839E-02
       133    1.056874E-02
       134   -7.050881E-02
       135   -1.163577E-02
       136   -3.598526E-02
       137    1.041956E-02
       138   -6.236797E-05
       139   -3.256999E-03
       140    1.011635E-03
       141   -7.525424E-05
       142   -2.546472E-03
       143    2.038198E-03
       144    9.940310E-05
       145   -9.007062E-04
       146    7.926365E-04
       147    1.080698E-04
       148   -9.209753E-04
       149   -2.038462E-06
       150   -1.109284E-06
       151    4.823289E-03
       152   -3.119691E-03
       153   -1.703598E-03
       154   -8.173694E-04
       155    2.912771E-05
       156   -1.762185E-05
       157    4.652933E-03
       158   -5.774202E-03
       159    1.121269E-03
       160   -2.080654E-03
       161   -1.594473E-04
       162    2.872513E-05
       163   -1.933637E-05
       164    1.400113E-05
       165    1.307444E-06
       166   -3.229810E-05
       167    5.708920E-06
       168   -8.321102E-07
       169    5.824056E-05
       170   -2.449341E-05
       171   -9.220098E-07
       172    1.452639E-06
       173   -3.366506E-07
       174   -7.700448E-07
       175    1.414977E-06
       176    6.259292E-08
       177   -6.001424E-05
       178   -3.822525E-06
       179   -1.711169E-06
       180   -3.059675E-02
       181    5.463850E-06
       182    2.017762E-07
       183   -3.412712E-02
       184    5.083278E-06
       185   -2.890270E-06
       186   -2.492978E-02
       187    9.406197E-07
       188    2.003057E-07
       189   -1.793499E-07
       190   -2.095578E-08
       191   -5.146687E-04
       192   -5.601427E-07
       193    1.203377E-05
       194   -4.834500E-07
       195    5.857529E-07
       196   -1.023029E-07
       197   -4.240180E-03
       198   -1.130154E-06
       199   -4.611053E-05
       200    7.765653E-06
       201   -9.226390E-06
       202    1.460738E-06
       203   -2.518599E-03
       204    3.688246E-07
       205    2.397367E-04
       206   -1.661234E-08
       207   -2.524784E-04
       208   -6.146691E-08
       209    1.348103E-08
       210    1.990453E-04
       211    1.127145E-07
       212    8.806761E-09
       213    1.396900E-04
       214   -3.024801E-08
       215   -1.230109E-06
       216   -3.129650E-03
       217   -7.106365E-03
       218    1.378944E-02
       219   -1.057053E-02
       220    7.064103E-02
       221    1.164237E-02
       222    3.599488E-02
       223    1.041702E-02
       224    5.521769E-05
       225    3.268382E-03
       226    1.010909E-03
       227    6.774309E-05
       228    2.556154E-03
       229    1.978754E-03
       230   -1.039640E-04
       231    9.010216E-04
       232   -7.929622E-04
       233   -1.080594E-04
       234   -9.206190E-04
       235    1.462264E-06
       236   -1.196656E-06
       237   -4.822614E-03
       238    3.119340E-03
       239    1.703275E-03
       240   -8.173621E-04
       241   -3.017731E-05
       242   -1.773977E-05
       243   -4.644975E-03
       244    5.766053E-03
       245   -1.121079E-03
       246   -2.085331E-03
       247    1.594846E-04
       248    2.889154E-05
       249    1.939703E-05
       250    1.394359E-05
       251   -1.256759E-06
       252    3.228092E-05
       253    5.785356E-06
       254    7.593838E-07
       255   -5.830477E-05
       256   -2.449265E-05
       257    9.267353E-07
       258    1.508197E-06
       259   -2.475148E-02
       260   -3.518305E-02
       261   -3.442042E-02
       262    2.572392E-03
       263    3.594348E-03
       264    5.729718E-06
       265    8.032407E-03
       266   -6.896852E-04
       267   -1.611124E-05
       268    2.475191E-02
       269    3.518357E-02
       270    3.440277E-02
       271   -2.572895E-03
       272    3.594308E-03
       273   -6.455364E-06
       274   -8.019482E-03
       275   -6.873384E-04
       276    1.807316E-05
       277   -2.199058E-04
       278   -6.792035E-05
       279    1.968875E-02
       280   -7.175061E-04
       281    2.650887E-04
       282   -3.752510E-06
       283   -3.829305E-05
       284    1.476519E-03
       285   -4.296260E-05
       286    2.156810E-04
       287    6.099589E-05
       288   -1.966034E-02
       289    7.174909E-04
       290    2.656885E-04
       291    3.519929E-06
       292    4.765114E-05
       293    1.474871E-03
       294    4.422042E-05
       295   -3.143291E-07
       296   -7.292381E-07
       297    6.444367E-07
       298    3.166506E-06
       299    3.579039E-05
       300    6.200903E-06
       301   -1.316128E-05
       302   -4.641106E-02
       303    2.787745E-06
       304   -1.181599E-05
       305   -3.456948E-02
       306    2.274660E-06
       307    3.504095E-06
       308    7.635636E-03
       309   -4.533567E-06
       310    1.070749E-06
       311   -1.233342E-06
       312    1.625930E-07
       313   -9.924335E-03
       314    3.772585E-07
       315   -2.576078E-05
       316    3.248167E-06
       317   -3.209062E-06
       318   -3.910488E-08
       319   -2.661676E-02
       320    7.366223E-07
       321   -7.020496E-05
       322   -2.382188E-06
       323    2.394309E-07
       324    2.142757E-06
       325    5.817092E-03
       326   -3.857121E-06
       327    3.661400E-05
       328   -2.533245E-09
       329    2.137453E-03
       330   -1.004441E-08
       331   -1.818512E-08
       332   -3.054892E-03
       333   -7.539006E-09
       334    2.158382E-08
       335    1.871983E-04
       336    2.101500E-08
       337   -1.000099E-05
       338   -3.940436E-04
       339   -1.070840E-03
       340    1.151150E-03
       341   -6.580891E-03
       342    4.558874E-03
       343   -2.087161E-02
       344    2.543108E-01
       345    2.315271E-01
       346    6.609430E-04
       347    2.309984E-01
       348    2.026506E-01
       349    5.988724E-04
       350    1.730949E-01
       351    1.439945E-01
       352    4.672536E-04
       353    2.959452E-02
       354    1.462699E-02
       355    7.733573E-05
       356   -2.160502E-03
       357    2.895397E-03
       358   -7.348955E-04
       359   -1.942485E-04
       360   -4.135424E-06
       361   -6.469232E-07
       362   -6.607621E-03
       363    7.523579E-03
       364   -9.159583E-04
       365    6.711321E-04
       366   -1.569151E-05
       367    2.728344E-06
       368   -8.268629E-03
       369    7.091014E-03
       370    1.177615E-03
       371    6.714262E-04
       372   -2.196142E-05
       373    1.078668E-05
       374    2.599779E-04
       375    7.963614E-04
       376    9.821351E-07
       377   -4.976109E-04
       378   -8.718034E-04
       379    1.541976E-07
       380    1.488139E-04
       381   -1.966276E-04
       382   -1.471870E-06
       383   -2.070690E-06
       384    3.939481E-04
       385    1.070615E-03
       386   -1.150526E-03
       387    6.583821E-03
       388   -4.563851E-03
       389    2.086823E-02
       390   -2.542536E-01
       391    2.315200E-01
       392   -6.547345E-04
       393   -2.309477E-01
       394    2.026436E-01
       395   -5.935457E-04
       396   -1.730612E-01
       397    1.439927E-01
       398   -4.562104E-04
       399   -2.959093E-02
       400    1.462555E-02
       401   -7.588856E-05
       402    2.160340E-03
       403   -2.895426E-03
       404    7.350860E-04
       405   -1.947559E-04
       406    4.121388E-06
       407   -7.101803E-07
       408    6.606922E-03
       409   -7.523539E-03
       410    9.166176E-04
       411    6.700723E-04
       412    1.556845E-05
       413    2.213923E-06
       414    8.268300E-03
       415   -7.091779E-03
       416   -1.176521E-03
       417    6.717953E-04
       418    2.374149E-05
       419    7.160688E-06
       420   -2.600544E-04
       421    7.962889E-04
       422   -1.003821E-06
       423    4.977394E-04
       424   -8.716276E-04
       425   -1.320307E-07
       426   -1.488398E-04
       427   -1.967061E-04
       428    1.478797E-06
       429   -2.043770E-06
       430    4.231633E-07
       431    1.000958E-06
       432   -1.585382E-06
       433   -2.251040E-06
       434   -3.903357E-06
       435   -8.227575E-06
       436    3.335177E-06
       437    1.163346E-02
       438    2.062877E-05
       439    3.860109E-06
       440    8.877577E-03
       441    1.996269E-05
       442    9.183240E-06
       443    5.117502E-03
       444    1.407737E-05
       445   -9.349703E-10
       446   -3.056796E-08
       447    3.150293E-08
       448   -6.234573E-04
       449    1.231964E-07
       450    1.630226E-04
       451    1.948219E-07
       452   -4.425029E-07
       453    2.476809E-07
       454   -1.748886E-03
       455    3.024012E-07
       456    2.261468E-04
       457    1.578375E-06
       458   -1.534214E-06
       459   -4.416051E-08
       460    1.196093E-03
       461    1.052292E-07
       462   -1.715863E-04
       463    1.841179E-08
       464    9.853917E-05
       465   -1.013563E-07
       466    1.087026E-08
       467   -1.078123E-04
       468    8.285373E-08
       469   -3.557227E-08
       470   -2.439186E-05
       471    5.312996E-08
       472   -3.283202E-05
       473   -6.321099E-03
       474   -9.740695E-03
       475   -1.221849E-02
       476   -5.033355E-04
       477   -5.985434E-04
       478    2.239278E-04
       479   -1.445981E-03
       480   -1.325645E-03
       481    4.164562E-04
       482    6.322413E-03
       483    9.744867E-03
       484    1.222655E-02
       485    5.039721E-04
       486   -5.990033E-04
       487   -2.219064E-04
       488    1.447400E-03
       489   -1.324861E-03
       490   -4.150126E-04
 Sym= X
 Ene= 0.953351
 Spin= Alpha
 Occup= 0.953351
         1   -7.182721E-05
         2   -1.339827E-04
         3    4.326201E-04
         4   -1.025311E-03
         5    9.322851E-01
         6    1.091730E-01
         7    1.059303E-03
         8    1.508077E-03
         9   -1.797546E-01
        10    1.362988E-02
        11   -9.521803E-05
        12   -2.011254E-01
        13    1.900550E-01
        14   -3.928036E-01
        15    1.352640E-01
        16   -5.901217E-05
        17    5.172602E-05
        18    7.286157E-06
        19    3.294010E-05
        20   -5.156939E-03
        21    5.577080E-04
        22   -2.097355E-03
        23    1.977364E-03
        24    1.199918E-04
        25   -3.121696E-04
        26   -1.610902E-02
        27   -4.846429E-03
        28   -7.176990E-02
        29    7.495156E-02
        30   -3.181662E-03
        31   -1.135708E-01
        32    1.228526E-01
        33   -1.580417E-01
        34    5.518957E-05
        35    2.743199E-05
        36    1.780364E-04
        37    2.722715E-05
        38   -8.821551E-06
        39    2.367384E-04
        40   -1.012717E-04
        41   -2.798232E-05
        42   -4.755994E-04
        43   -8.386057E-05
        44   -1.828937E-05
        45   -3.480110E-05
        46   -1.328495E-04
        47    1.607003E-03
        48    1.888002E-02
        49   -4.549191E-02
        50    3.323962E-05
        51   -2.889367E-04
        52    3.604678E-07
        53    2.209443E-04
        54   -5.767382E-03
        55    4.214284E-05
        56   -3.007633E-02
        57   -8.689513E-01
        58   -1.457331E-03
        59    5.052998E-06
        60   -5.353736E-06
        61    3.007384E-07
        62    7.829917E-05