[Molden Format]
[Title]
ADC(2) - opt by CAM-B3LYP gaussian                                              
[Atoms] AU
 c     1    6 -.12588699998532E+01 -.22834089986974E+01 -.24579904026210E-01
 c     2    6 -.25576598737242E+01 0.00000000000000E+00 -.23328905326240E-01
 c     3    6 -.12588681101271E+01 0.22834089986974E+01 -.24585573204610E-01
 c     4    6 0.13319747639512E+01 0.22851362083829E+01 -.26548998656670E-01
 c     5    6 0.26868460402678E+01 0.00000000000000E+00 -.25991529447470E-01
 c     6    6 0.13319728742250E+01 -.22851362083829E+01 -.26541439752140E-01
 h     7    1 -.22976467859220E+01 -.40383900994038E+01 -.22042001829740E-01
 h     8    1 -.22976448961959E+01 0.40383919891299E+01 -.22053340186540E-01
 h     9    1 0.23511286338561E+01 0.40572968093633E+01 -.28790213850280E-01
 h    10    1 0.23511267441300E+01 -.40572968093633E+01 -.28775096041210E-01
 n    11    7 -.52730224718766E+01 0.00000000000000E+00 -.17674844736640E-01
 o    12    8 -.63812882673039E+01 0.20269372576683E+01 -.15259774738810E-01
 o    13    8 -.63812844878516E+01 -.20269372576683E+01 -.15276782274010E-01
 n    14    7 0.52436643953234E+01 0.00000000000000E+00 -.69084844181800E-01
 h    15    1 0.62047866654136E+01 0.16174392738504E+01 0.18526851385235E+00
 h    16    1 0.62047847756874E+01 -.16174411635765E+01 0.18526473440008E+00
[GTO]
    1 0
 s    6 1.00
 0.13575349682000E+05 0.60645503603591E-03
 0.20352333680000E+04 0.46979088884982E-02
 0.46322562359000E+03 0.24332477647552E-01
 0.13120019598000E+03 0.97399968307759E-01
 0.42853015891000E+02 0.30195584253780E+00
 0.15584185766000E+02 0.66233609137875E+00
 s    2 1.00
 0.62067138508000E+01 0.65595308539952E+00
 0.25764896527000E+01 0.37585633285142E+00
 s    1 1.00
 0.57696339419000E+00 0.10000000000000E+01
 s    1 1.00
 0.22972831358000E+00 0.10000000000000E+01
 s    1 1.00
 0.95164440028000E-01 0.10000000000000E+01
 s    1 1.00
 0.48475401370000E-01 0.10000000000000E+01
 p    4 1.00
 0.34697232244000E+02 0.11327220003114E-01
 0.79582622826000E+01 0.76169659202087E-01
 0.23780826883000E+01 0.30192252202676E+00
 0.81433208183000E+00 0.72785027349547E+00
 p    1 1.00
 0.28887547253000E+00 0.10000000000000E+01
 p    1 1.00
 0.10056823671000E+00 0.10000000000000E+01
 d    1 1.00
 0.10970000000000E+01 0.10000000000000E+01
 d    1 1.00
 0.31800000000000E+00 0.10000000000000E+01
 d    1 1.00
 0.90985336424000E-01 0.10000000000000E+01
 f    1 1.00
 0.76100000000000E+00 0.10000000000000E+01
 
    2 0
 s    6 1.00
 0.13575349682000E+05 0.60645503603591E-03
 0.20352333680000E+04 0.46979088884982E-02
 0.46322562359000E+03 0.24332477647552E-01
 0.13120019598000E+03 0.97399968307759E-01
 0.42853015891000E+02 0.30195584253780E+00
 0.15584185766000E+02 0.66233609137875E+00
 s    2 1.00
 0.62067138508000E+01 0.65595308539952E+00
 0.25764896527000E+01 0.37585633285142E+00
 s    1 1.00
 0.57696339419000E+00 0.10000000000000E+01
 s    1 1.00
 0.22972831358000E+00 0.10000000000000E+01
 s    1 1.00
 0.95164440028000E-01 0.10000000000000E+01
 s    1 1.00
 0.48475401370000E-01 0.10000000000000E+01
 p    4 1.00
 0.34697232244000E+02 0.11327220003114E-01
 0.79582622826000E+01 0.76169659202087E-01
 0.23780826883000E+01 0.30192252202676E+00
 0.81433208183000E+00 0.72785027349547E+00
 p    1 1.00
 0.28887547253000E+00 0.10000000000000E+01
 p    1 1.00
 0.10056823671000E+00 0.10000000000000E+01
 d    1 1.00
 0.10970000000000E+01 0.10000000000000E+01
 d    1 1.00
 0.31800000000000E+00 0.10000000000000E+01
 d    1 1.00
 0.90985336424000E-01 0.10000000000000E+01
 f    1 1.00
 0.76100000000000E+00 0.10000000000000E+01
 
    3 0
 s    6 1.00
 0.13575349682000E+05 0.60645503603591E-03
 0.20352333680000E+04 0.46979088884982E-02
 0.46322562359000E+03 0.24332477647552E-01
 0.13120019598000E+03 0.97399968307759E-01
 0.42853015891000E+02 0.30195584253780E+00
 0.15584185766000E+02 0.66233609137875E+00
 s    2 1.00
 0.62067138508000E+01 0.65595308539952E+00
 0.25764896527000E+01 0.37585633285142E+00
 s    1 1.00
 0.57696339419000E+00 0.10000000000000E+01
 s    1 1.00
 0.22972831358000E+00 0.10000000000000E+01
 s    1 1.00
 0.95164440028000E-01 0.10000000000000E+01
 s    1 1.00
 0.48475401370000E-01 0.10000000000000E+01
 p    4 1.00
 0.34697232244000E+02 0.11327220003114E-01
 0.79582622826000E+01 0.76169659202087E-01
 0.23780826883000E+01 0.30192252202676E+00
 0.81433208183000E+00 0.72785027349547E+00
 p    1 1.00
 0.28887547253000E+00 0.10000000000000E+01
 p    1 1.00
 0.10056823671000E+00 0.10000000000000E+01
 d    1 1.00
 0.10970000000000E+01 0.10000000000000E+01
 d    1 1.00
 0.31800000000000E+00 0.10000000000000E+01
 d    1 1.00
 0.90985336424000E-01 0.10000000000000E+01
 f    1 1.00
 0.76100000000000E+00 0.10000000000000E+01
 
    4 0
 s    6 1.00
 0.13575349682000E+05 0.60645503603591E-03
 0.20352333680000E+04 0.46979088884982E-02
 0.46322562359000E+03 0.24332477647552E-01
 0.13120019598000E+03 0.97399968307759E-01
 0.42853015891000E+02 0.30195584253780E+00
 0.15584185766000E+02 0.66233609137875E+00
 s    2 1.00
 0.62067138508000E+01 0.65595308539952E+00
 0.25764896527000E+01 0.37585633285142E+00
 s    1 1.00
 0.57696339419000E+00 0.10000000000000E+01
 s    1 1.00
 0.22972831358000E+00 0.10000000000000E+01
 s    1 1.00
 0.95164440028000E-01 0.10000000000000E+01
 s    1 1.00
 0.48475401370000E-01 0.10000000000000E+01
 p    4 1.00
 0.34697232244000E+02 0.11327220003114E-01
 0.79582622826000E+01 0.76169659202087E-01
 0.23780826883000E+01 0.30192252202676E+00
 0.81433208183000E+00 0.72785027349547E+00
 p    1 1.00
 0.28887547253000E+00 0.10000000000000E+01
 p    1 1.00
 0.10056823671000E+00 0.10000000000000E+01
 d    1 1.00
 0.10970000000000E+01 0.10000000000000E+01
 d    1 1.00
 0.31800000000000E+00 0.10000000000000E+01
 d    1 1.00
 0.90985336424000E-01 0.10000000000000E+01
 f    1 1.00
 0.76100000000000E+00 0.10000000000000E+01
 
    5 0
 s    6 1.00
 0.13575349682000E+05 0.60645503603591E-03
 0.20352333680000E+04 0.46979088884982E-02
 0.46322562359000E+03 0.24332477647552E-01
 0.13120019598000E+03 0.97399968307759E-01
 0.42853015891000E+02 0.30195584253780E+00
 0.15584185766000E+02 0.66233609137875E+00
 s    2 1.00
 0.62067138508000E+01 0.65595308539952E+00
 0.25764896527000E+01 0.37585633285142E+00
 s    1 1.00
 0.57696339419000E+00 0.10000000000000E+01
 s    1 1.00
 0.22972831358000E+00 0.10000000000000E+01
 s    1 1.00
 0.95164440028000E-01 0.10000000000000E+01
 s    1 1.00
 0.48475401370000E-01 0.10000000000000E+01
 p    4 1.00
 0.34697232244000E+02 0.11327220003114E-01
 0.79582622826000E+01 0.76169659202087E-01
 0.23780826883000E+01 0.30192252202676E+00
 0.81433208183000E+00 0.72785027349547E+00
 p    1 1.00
 0.28887547253000E+00 0.10000000000000E+01
 p    1 1.00
 0.10056823671000E+00 0.10000000000000E+01
 d    1 1.00
 0.10970000000000E+01 0.10000000000000E+01
 d    1 1.00
 0.31800000000000E+00 0.10000000000000E+01
 d    1 1.00
 0.90985336424000E-01 0.10000000000000E+01
 f    1 1.00
 0.76100000000000E+00 0.10000000000000E+01
 
    6 0
 s    6 1.00
 0.13575349682000E+05 0.60645503603591E-03
 0.20352333680000E+04 0.46979088884982E-02
 0.46322562359000E+03 0.24332477647552E-01
 0.13120019598000E+03 0.97399968307759E-01
 0.42853015891000E+02 0.30195584253780E+00
 0.15584185766000E+02 0.66233609137875E+00
 s    2 1.00
 0.62067138508000E+01 0.65595308539952E+00
 0.25764896527000E+01 0.37585633285142E+00
 s    1 1.00
 0.57696339419000E+00 0.10000000000000E+01
 s    1 1.00
 0.22972831358000E+00 0.10000000000000E+01
 s    1 1.00
 0.95164440028000E-01 0.10000000000000E+01
 s    1 1.00
 0.48475401370000E-01 0.10000000000000E+01
 p    4 1.00
 0.34697232244000E+02 0.11327220003114E-01
 0.79582622826000E+01 0.76169659202087E-01
 0.23780826883000E+01 0.30192252202676E+00
 0.81433208183000E+00 0.72785027349547E+00
 p    1 1.00
 0.28887547253000E+00 0.10000000000000E+01
 p    1 1.00
 0.10056823671000E+00 0.10000000000000E+01
 d    1 1.00
 0.10970000000000E+01 0.10000000000000E+01
 d    1 1.00
 0.31800000000000E+00 0.10000000000000E+01
 d    1 1.00
 0.90985336424000E-01 0.10000000000000E+01
 f    1 1.00
 0.76100000000000E+00 0.10000000000000E+01
 
    7 0
 s    3 1.00
 0.34061341000000E+02 0.25439307208879E-01
 0.51235746000000E+01 0.19008594890375E+00
 0.11646626000000E+01 0.85244113011042E+00
 s    1 1.00
 0.32723041000000E+00 0.10000000000000E+01
 s    1 1.00
 0.10307241000000E+00 0.10000000000000E+01
 p    1 1.00
 0.80000000000000E+00 0.10000000000000E+01
 p    1 1.00
 0.95774129632000E-01 0.10000000000000E+01
 
    8 0
 s    3 1.00
 0.34061341000000E+02 0.25439307208879E-01
 0.51235746000000E+01 0.19008594890375E+00
 0.11646626000000E+01 0.85244113011042E+00
 s    1 1.00
 0.32723041000000E+00 0.10000000000000E+01
 s    1 1.00
 0.10307241000000E+00 0.10000000000000E+01
 p    1 1.00
 0.80000000000000E+00 0.10000000000000E+01
 p    1 1.00
 0.95774129632000E-01 0.10000000000000E+01
 
    9 0
 s    3 1.00
 0.34061341000000E+02 0.25439307208879E-01
 0.51235746000000E+01 0.19008594890375E+00
 0.11646626000000E+01 0.85244113011042E+00
 s    1 1.00
 0.32723041000000E+00 0.10000000000000E+01
 s    1 1.00
 0.10307241000000E+00 0.10000000000000E+01
 p    1 1.00
 0.80000000000000E+00 0.10000000000000E+01
 p    1 1.00
 0.95774129632000E-01 0.10000000000000E+01
 
   10 0
 s    3 1.00
 0.34061341000000E+02 0.25439307208879E-01
 0.51235746000000E+01 0.19008594890375E+00
 0.11646626000000E+01 0.85244113011042E+00
 s    1 1.00
 0.32723041000000E+00 0.10000000000000E+01
 s    1 1.00
 0.10307241000000E+00 0.10000000000000E+01
 p    1 1.00
 0.80000000000000E+00 0.10000000000000E+01
 p    1 1.00
 0.95774129632000E-01 0.10000000000000E+01
 
   11 0
 s    6 1.00
 0.19730800647000E+05 0.58626402628763E-03
 0.29578958745000E+04 0.45428820586397E-02
 0.67322133595000E+03 0.23558413450084E-01
 0.19068249494000E+03 0.94709193292923E-01
 0.62295441898000E+02 0.29719784913376E+00
 0.22654161182000E+02 0.66916246895232E+00
 s    2 1.00
 0.89791477428000E+01 0.64596683630063E+00
 0.36863002370000E+01 0.38700574393705E+00
 s    1 1.00
 0.84660076805000E+00 0.10000000000000E+01
 s    1 1.00
 0.33647133771000E+00 0.10000000000000E+01
 s    1 1.00
 0.13647653675000E+00 0.10000000000000E+01
 s    1 1.00
 0.68441605847000E-01 0.10000000000000E+01
 p    4 1.00
 0.49200380510000E+02 0.11448825101764E-01
 0.11346790537000E+02 0.78422337970864E-01
 0.34273972411000E+01 0.30818094738830E+00
 0.11785525134000E+01 0.72027196368413E+00
 p    1 1.00
 0.41642204972000E+00 0.10000000000000E+01
 p    1 1.00
 0.14260826011000E+00 0.10000000000000E+01
 d    1 1.00
 0.16540000000000E+01 0.10000000000000E+01
 d    1 1.00
 0.46900000000000E+00 0.10000000000000E+01
 d    1 1.00
 0.12829642058000E+00 0.10000000000000E+01
 f    1 1.00
 0.10930000000000E+01 0.10000000000000E+01
 
   12 0
 s    6 1.00
 0.27032382631000E+05 0.57227335211155E-03
 0.40523871392000E+04 0.44353233492995E-02
 0.92232722710000E+03 0.23020107706038E-01
 0.26124070989000E+03 0.92822490667928E-01
 0.85354641351000E+02 0.29378500009671E+00
 0.31035035245000E+02 0.67401604501641E+00
 s    2 1.00
 0.12260860728000E+02 0.63839937025506E+00
 0.49987076005000E+01 0.39534587125718E+00
 s    1 1.00
 0.11703108158000E+01 0.10000000000000E+01
 s    1 1.00
 0.46474740994000E+00 0.10000000000000E+01
 s    1 1.00
 0.18504536357000E+00 0.10000000000000E+01
 s    1 1.00
 0.70288026270000E-01 0.10000000000000E+01
 p    4 1.00
 0.63274954801000E+02 0.12018332222616E-01
 0.14627049379000E+02 0.83005421790056E-01
 0.44501223456000E+01 0.31991743925964E+00
 0.15275799647000E+01 0.70715542916104E+00
 p    1 1.00
 0.52935117943000E+00 0.10000000000000E+01
 p    1 1.00
 0.17478421270000E+00 0.10000000000000E+01
 p    1 1.00
 0.51112745706000E-01 0.10000000000000E+01
 d    1 1.00
 0.23140000000000E+01 0.10000000000000E+01
 d    1 1.00
 0.64500000000000E+00 0.10000000000000E+01
 d    1 1.00
 0.14696477366000E+00 0.10000000000000E+01
 f    1 1.00
 0.14280000000000E+01 0.10000000000000E+01
 
   13 0
 s    6 1.00
 0.27032382631000E+05 0.57227335211155E-03
 0.40523871392000E+04 0.44353233492995E-02
 0.92232722710000E+03 0.23020107706038E-01
 0.26124070989000E+03 0.92822490667928E-01
 0.85354641351000E+02 0.29378500009671E+00
 0.31035035245000E+02 0.67401604501641E+00
 s    2 1.00
 0.12260860728000E+02 0.63839937025506E+00
 0.49987076005000E+01 0.39534587125718E+00
 s    1 1.00
 0.11703108158000E+01 0.10000000000000E+01
 s    1 1.00
 0.46474740994000E+00 0.10000000000000E+01
 s    1 1.00
 0.18504536357000E+00 0.10000000000000E+01
 s    1 1.00
 0.70288026270000E-01 0.10000000000000E+01
 p    4 1.00
 0.63274954801000E+02 0.12018332222616E-01
 0.14627049379000E+02 0.83005421790056E-01
 0.44501223456000E+01 0.31991743925964E+00
 0.15275799647000E+01 0.70715542916104E+00
 p    1 1.00
 0.52935117943000E+00 0.10000000000000E+01
 p    1 1.00
 0.17478421270000E+00 0.10000000000000E+01
 p    1 1.00
 0.51112745706000E-01 0.10000000000000E+01
 d    1 1.00
 0.23140000000000E+01 0.10000000000000E+01
 d    1 1.00
 0.64500000000000E+00 0.10000000000000E+01
 d    1 1.00
 0.14696477366000E+00 0.10000000000000E+01
 f    1 1.00
 0.14280000000000E+01 0.10000000000000E+01
 
   14 0
 s    6 1.00
 0.19730800647000E+05 0.58626402628763E-03
 0.29578958745000E+04 0.45428820586397E-02
 0.67322133595000E+03 0.23558413450084E-01
 0.19068249494000E+03 0.94709193292923E-01
 0.62295441898000E+02 0.29719784913376E+00
 0.22654161182000E+02 0.66916246895232E+00
 s    2 1.00
 0.89791477428000E+01 0.64596683630063E+00
 0.36863002370000E+01 0.38700574393705E+00
 s    1 1.00
 0.84660076805000E+00 0.10000000000000E+01
 s    1 1.00
 0.33647133771000E+00 0.10000000000000E+01
 s    1 1.00
 0.13647653675000E+00 0.10000000000000E+01
 s    1 1.00
 0.68441605847000E-01 0.10000000000000E+01
 p    4 1.00
 0.49200380510000E+02 0.11448825101764E-01
 0.11346790537000E+02 0.78422337970864E-01
 0.34273972411000E+01 0.30818094738830E+00
 0.11785525134000E+01 0.72027196368413E+00
 p    1 1.00
 0.41642204972000E+00 0.10000000000000E+01
 p    1 1.00
 0.14260826011000E+00 0.10000000000000E+01
 d    1 1.00
 0.16540000000000E+01 0.10000000000000E+01
 d    1 1.00
 0.46900000000000E+00 0.10000000000000E+01
 d    1 1.00
 0.12829642058000E+00 0.10000000000000E+01
 f    1 1.00
 0.10930000000000E+01 0.10000000000000E+01
 
   15 0
 s    3 1.00
 0.34061341000000E+02 0.25439307208879E-01
 0.51235746000000E+01 0.19008594890375E+00
 0.11646626000000E+01 0.85244113011042E+00
 s    1 1.00
 0.32723041000000E+00 0.10000000000000E+01
 s    1 1.00
 0.10307241000000E+00 0.10000000000000E+01
 p    1 1.00
 0.80000000000000E+00 0.10000000000000E+01
 p    1 1.00
 0.95774129632000E-01 0.10000000000000E+01
 
   16 0
 s    3 1.00
 0.34061341000000E+02 0.25439307208879E-01
 0.51235746000000E+01 0.19008594890375E+00
 0.11646626000000E+01 0.85244113011042E+00
 s    1 1.00
 0.32723041000000E+00 0.10000000000000E+01
 s    1 1.00
 0.10307241000000E+00 0.10000000000000E+01
 p    1 1.00
 0.80000000000000E+00 0.10000000000000E+01
 p    1 1.00
 0.95774129632000E-01 0.10000000000000E+01
 
[MO]
 Sym= X
 Ene= -0.899521
 Spin= Alpha
 Occup= -0.899521
         1    8.282495E-04
         2    1.919906E-03
         3    1.377631E-03
         4   -3.561390E-02
         5   -2.544398E-01
         6    4.047178E-02
         7    1.882491E-02
         8   -3.767470E-02
         9   -3.990018E-05
        10    2.124853E-03
        11   -3.443701E-02
        12   -4.114934E-05
        13    7.336898E-03
        14   -7.995478E-02
        15   -1.337947E-04
        16    1.848570E-03
        17   -2.063665E-03
        18    2.150950E-04
        19    1.540870E-04
        20   -1.136801E-06
        21   -4.114348E-07
        22   -3.126970E-03
        23   -2.204531E-05
        24    3.149016E-03
        25    8.462754E-04
        26    1.476675E-06
        27   -4.054316E-06
        28    1.589442E-04
        29   -1.611548E-03
        30    1.452604E-03
        31   -1.434362E-02
        32   -2.008853E-05
        33    2.128098E-05
        34   -1.623628E-04
        35   -4.210542E-04
        36    4.203395E-07
        37    1.776208E-04
        38    4.660163E-04
        39   -3.741931E-07
        40    4.021171E-05
        41    9.888718E-05
        42   -1.897515E-07
        43   -9.012984E-07
        44   -1.360986E-02
        45   -3.074449E-02
        46    4.483744E-02
        47    8.208543E-02
        48    1.765310E-01
        49   -3.959747E-02
        50   -1.332842E-01
        51   -3.429097E-07
        52    1.630309E-04
        53   -9.832274E-02
        54   -5.906838E-07
        55    1.072980E-04
        56    9.062230E-02
        57    8.265347E-06
        58   -2.730465E-04
        59    4.946153E-03
        60   -4.212064E-03
        61   -7.340895E-04
        62    6.372882E-10
        63   -1.495325E-05
        64    3.206328E-07
        65    6.664637E-04
        66   -2.701952E-04
        67   -3.962684E-04
        68    1.499652E-07
        69    7.659604E-07
        70    1.775227E-06
        71   -3.774613E-02
        72    3.799375E-02
        73   -2.476223E-04
        74   -1.072246E-06
        75    1.047068E-04
        76   -1.479395E-05
        77   -1.053995E-03
        78   -3.863275E-09
        79   -1.889204E-06
        80    8.408153E-04
        81    6.633770E-09
        82    4.511618E-06
        83    5.732667E-04
        84   -1.450642E-09
        85   -1.976985E-06
        86    8.652252E-08
        87    8.283175E-04
        88    1.920069E-03
        89    1.377409E-03
        90   -3.561707E-02
        91   -2.544632E-01
        92    4.047727E-02
        93    1.882572E-02
        94    3.767489E-02
        95   -1.844836E-05
        96    2.124167E-03
        97    3.443692E-02
        98   -2.119621E-05
        99    7.340086E-03
       100    7.995167E-02
       101   -1.424100E-04
       102    1.848573E-03
       103   -2.063692E-03
       104    2.151184E-04
       105   -1.540946E-04
       106   -5.899244E-07
       107    2.889208E-07
       108   -3.127033E-03
       109   -2.200615E-05
       110    3.149039E-03
       111   -8.462429E-04
       112    2.990435E-06
       113    4.835780E-06
       114    1.550784E-04
       115   -1.606985E-03
       116    1.451907E-03
       117    1.434517E-02
       118   -5.418507E-05
       119   -4.515977E-05
       120   -1.623713E-04
       121    4.210670E-04
       122    3.399328E-07
       123    1.776328E-04
       124   -4.660236E-04
       125   -2.455759E-07
       126    4.021120E-05
       127   -9.889701E-05
       128   -2.104919E-07
       129    8.442352E-07
       130   -1.650511E-03
       131   -3.752221E-03
       132    2.911821E-03
       133    3.248213E-02
       134    1.120444E-01
       135   -3.338781E-02
       136   -2.022193E-02
       137   -8.293917E-03
       138    4.124955E-05
       139   -3.290249E-02
       140   -7.148409E-03
       141    6.168531E-05
       142   -3.888109E-02
       143   -4.762114E-02
       144    2.362125E-04
       145    5.744576E-04
       146   -4.631478E-04
       147   -1.113098E-04
       148   -1.355681E-03
       149    3.028132E-07
       150    1.408565E-06
       151    3.808558E-03
       152   -1.688786E-03
       153   -2.119771E-03
       154   -2.171620E-03
       155   -1.139185E-05
       156   -5.401341E-06
       157    5.772264E-03
       158   -5.512416E-03
       159   -2.598474E-04
       160    1.885529E-02
       161   -9.396516E-05
       162   -4.075270E-05
       163   -2.459764E-04
       164   -2.303913E-04
       165   -6.176157E-07
       166    1.652777E-04
       167    3.103081E-04
       168    7.018108E-07
       169    1.647343E-04
       170   -1.205730E-06
       171    1.268076E-07
       172   -4.097854E-08
       173   -1.929321E-03
       174   -4.427019E-03
       175    8.922225E-03
       176    7.502897E-04
       177    3.924981E-02
       178    3.635419E-02
       179   -6.294406E-03
       180   -2.147332E-08
       181   -1.542067E-06
       182   -3.290732E-03
       183   -1.482640E-07
       184    3.780371E-05
       185    1.965590E-02
       186    1.266361E-05
       187    2.600337E-05
       188    2.723214E-04
       189   -2.641125E-04
       190   -8.208942E-06
       191   -2.001852E-09
       192   -1.611783E-06
       193    4.225285E-07
       194   -3.524625E-04
       195   -4.366178E-04
       196    7.890803E-04
       197   -1.917765E-08
       198    1.237457E-05
       199    9.447249E-07
       200    1.279319E-02
       201   -1.352267E-02
       202    7.294778E-04
       203   -4.903998E-06
       204    2.186585E-04
       205    1.824555E-05
       206    3.159987E-05
       207   -6.897412E-09
       208   -2.699379E-07
       209   -4.334297E-05
       210    4.526208E-09
       211    5.317865E-07
       212    9.472932E-07
       213    4.727641E-09
       214   -1.696268E-07
       215   -6.412776E-08
       216   -1.650516E-03
       217   -3.752233E-03
       218    2.912049E-03
       219    3.248049E-02
       220    1.120908E-01
       221   -3.338519E-02
       222   -2.022157E-02
       223    8.293658E-03
       224    1.839638E-05
       225   -3.290093E-02
       226    7.147749E-03
       227    3.864013E-05
       228   -3.887430E-02
       229    4.763161E-02
       230    2.082978E-04
       231    5.744450E-04
       232   -4.631516E-04
       233   -1.112935E-04
       234    1.355702E-03
       235    7.754131E-07
       236   -1.436755E-06
       237    3.808260E-03
       238   -1.688521E-03
       239   -2.119739E-03
       240    2.171379E-03
       241   -9.924310E-06
       242    5.045083E-06
       243    5.764685E-03
       244   -5.504015E-03
       245   -2.606699E-04
       246   -1.885495E-02
       247   -6.062509E-05
       248    6.035159E-05
       249   -2.459681E-04
       250    2.303885E-04
       251   -4.638226E-07
       252    1.652682E-04
       253   -3.103055E-04
       254    5.258959E-07
       255    1.647327E-04
       256    1.206838E-06
       257    9.638741E-08
       258    4.034245E-08
       259    4.111839E-03
       260    5.369093E-03
       261    2.078851E-02
       262    2.013967E-03
       263    6.447341E-04
       264   -5.286314E-06
       265    6.901016E-03
       266    3.495304E-04
       267   -9.967021E-06
       268    4.111633E-03
       269    5.368893E-03
       270    2.079076E-02
       271    2.013938E-03
       272   -6.447328E-04
       273   -4.540915E-06
       274    6.896605E-03
       275   -3.532191E-04
       276    3.471497E-06
       277   -9.858112E-03
       278   -1.601150E-02
       279   -1.595804E-02
       280   -4.338874E-05
       281    1.464713E-03
       282   -1.547909E-06
       283   -7.074455E-03
       284    2.883314E-03
       285    8.114528E-05
       286   -9.858032E-03
       287   -1.601220E-02
       288   -1.597485E-02
       289   -4.338788E-05
       290   -1.464685E-03
       291   -2.177782E-06
       292   -7.067654E-03
       293   -2.880312E-03
       294    8.272408E-05
       295   -2.019993E-03
       296   -4.637852E-03
       297    3.188790E-03
       298    3.062402E-02
       299    1.617885E-01
       300   -1.570069E-02
       301    1.077515E-01
       302   -4.377752E-07
       303   -2.268831E-04
       304    1.003176E-01
       305   -7.473069E-07
       306   -2.132536E-04
       307    1.027879E-01
       308    7.578476E-07
       309   -1.931906E-04
       310    1.165176E-02
       311   -1.292957E-02
       312    1.277806E-03
       313    8.222406E-08
       314   -2.764840E-05
       315   -3.173637E-07
       316    3.313702E-02
       317   -3.445825E-02
       318    1.321225E-03
       319    2.527835E-07
       320   -8.346500E-05
       321   -1.315353E-06
       322   -1.424434E-02
       323    4.862246E-03
       324    9.382092E-03
       325   -2.045090E-06
       326    6.033777E-05
       327   -1.713364E-06
       328   -9.484515E-05
       329    1.882557E-08
       330    9.902893E-07
       331    3.532471E-04
       332   -2.612649E-08
       333   -8.311642E-07
       334   -2.259989E-04
       335    8.693371E-10
       336   -4.974483E-07
       337    9.051601E-08
       338    1.022863E-03
       339    2.603743E-03
       340   -3.213086E-03
       341    6.468797E-03
       342    2.963942E-03
       343    2.174678E-02
       344   -3.090697E-01
       345   -6.324672E-02
       346    6.917950E-04
       347   -2.720345E-01
       348   -6.052024E-02
       349    6.097844E-04
       350   -2.062742E-01
       351   -5.171518E-02
       352    4.640893E-04
       353   -1.583332E-02
       354   -9.105181E-03
       355    3.056203E-05
       356   -9.749487E-04
       357    2.300285E-04
       358    7.449202E-04
       359    2.604202E-03
       360    4.248525E-06
       361   -5.924306E-06
       362   -3.820598E-03
       363    1.714956E-03
       364    2.105642E-03
       365    5.963301E-03
       366    1.469856E-05
       367   -1.402311E-05
       368   -3.938759E-03
       369    3.346766E-03
       370    5.919929E-04
       371    6.222890E-03
       372    4.260666E-06
       373   -1.722620E-05
       374    2.716792E-04
       375   -5.319070E-04
       376   -1.224319E-06
       377   -5.984387E-04
       378    9.684923E-04
       379    2.504124E-07
       380    2.339428E-04
       381   -2.548641E-04
       382    1.392183E-06
       383   -3.108889E-06
       384    1.022827E-03
       385    2.603651E-03
       386   -3.212913E-03
       387    6.468979E-03
       388    2.968000E-03
       389    2.174913E-02
       390   -3.090734E-01
       391    6.324956E-02
       392    7.065935E-04
       393   -2.720378E-01
       394    6.052271E-02
       395    6.250690E-04
       396   -2.062781E-01
       397    5.171647E-02
       398    4.588852E-04
       399   -1.583283E-02
       400    9.105006E-03
       401    3.530758E-05
       402   -9.749705E-04
       403    2.300742E-04
       404    7.448963E-04
       405   -2.604194E-03
       406    4.405937E-06
       407    6.057438E-06
       408   -3.820708E-03
       409    1.715043E-03
       410    2.105665E-03
       411   -5.963367E-03
       412    1.544560E-05
       413    1.384902E-05
       414   -3.938908E-03
       415    3.346738E-03
       416    5.921699E-04
       417   -6.223453E-03
       418    1.211763E-05
       419    9.941976E-06
       420    2.716779E-04
       421    5.319162E-04
       422   -1.143566E-06
       423   -5.984322E-04
       424   -9.685026E-04
       425    1.217951E-07
       426    2.339381E-04
       427    2.548621E-04
       428    1.412460E-06
       429    3.204187E-06
       430   -3.634815E-04
       431   -8.601733E-04
       432    1.115269E-03
       433    4.801008E-03
       434   -1.657293E-02
       435   -2.345653E-02
       436    2.239892E-04
       437    5.637839E-08
       438    1.911246E-05
       439   -7.566151E-04
       440    1.916505E-07
       441    1.724181E-06
       442    4.725749E-04
       443    9.848681E-08
       444   -1.946044E-04
       445    3.001154E-05
       446   -2.347914E-05
       447   -6.532407E-06
       448    5.745914E-09
       449    3.264230E-06
       450    2.024266E-08
       451    1.307087E-04
       452   -2.854237E-04
       453    1.547151E-04
       454    2.593801E-09
       455   -8.972764E-06
       456    1.551917E-08
       457    5.720583E-04
       458   -3.863233E-04
       459   -1.857350E-04
       460    5.736142E-07
       461    4.132323E-05
       462   -8.766799E-07
       463    3.842895E-07
       464   -1.298999E-09
       465    2.453626E-06
       466    9.532045E-06
       467    1.037296E-09
       468    6.266888E-08
       469   -1.004762E-05
       470    7.054944E-10
       471   -3.354554E-06
       472   -8.587376E-09
       473    8.156306E-05
       474    7.475487E-04
       475   -1.085447E-03
       476   -4.317280E-05
       477   -1.895698E-04
       478   -2.864334E-05
       479    1.824796E-03
       480    6.848789E-04
       481   -3.032381E-04
       482    8.146644E-05
       483    7.472753E-04
       484   -1.083880E-03
       485   -4.311942E-05
       486    1.895938E-04
       487   -2.877498E-05
       488    1.825900E-03
       489   -6.824836E-04
       490   -3.052664E-04
 Sym= X
 Ene= 0.899521
 Spin= Alpha
 Occup= 0.899521
         1    2.019319E-05
         2    4.792579E-05
         3   -1.423813E-04
         4    8.598561E-05
         5    3.146315E-02
         6   -3.142796E-04
         7   -2.132440E-04
         8   -6.556298E-05
         9   -9.901652E-02
        10   -3.098773E-04
        11   -1.227574E-05
        12   -9.852147E-02
        13    2.092018E-02
        14   -1.566464E-02
        15   -5.531328E-02
        16   -6.783325E-06
        17    2.292219E-06
        18    4.491106E-06
        19   -2.486642E-06
        20    3.754715E-04
        21   -6.011453E-04
        22    9.449829E-05
        23   -2.980641E-05
        24   -6.469188E-05
        25    1.243022E-05
        26    5.093606E-03
        27    2.230105E-04
        28    6.693290E-03
        29   -7.114511E-03
        30    4.212211E-04
        31    2.241553E-04
        32    5.513903E-03
        33    1.667519E-02
        34    2.888252E-06
        35   -1.344803E-06
        36    1.818934E-04
        37   -3.652896E-06
        38    2.286128E-07
        39    1.367974E-04
        40   -2.221013E-07
        41    1.575630E-06
        42   -3.808331E-04
        43   -3.721268E-05
        44    6.526196E-06
        45    1.137899E-05
        46    8.490296E-05
        47   -1.731436E-03
        48    6.165550E-02
        49    6.248164E-03
        50   -1.542471E-05
        51   -1.717464E-07
        52    1.299508E-03
        53   -2.438166E-04
        54    3.274592E-06
        55   -2.253066E-03
        56    2.082930E-02
        57   -5.328868E-05
        58   -6.418500E-02
        59   -3.247477E-05
        60   -4.326731E-06
        61    3.680150E-05
        62    1.842016E-07