[Molden Format]
[Title]
ADC(2) - opt by CAM-B3LYP gaussian                                              
[Atoms] AU
 c     1    6 -.12588699998532E+01 -.22834089986974E+01 -.24579904026210E-01
 c     2    6 -.25576598737242E+01 0.00000000000000E+00 -.23328905326240E-01
 c     3    6 -.12588681101271E+01 0.22834089986974E+01 -.24585573204610E-01
 c     4    6 0.13319747639512E+01 0.22851362083829E+01 -.26548998656670E-01
 c     5    6 0.26868460402678E+01 0.00000000000000E+00 -.25991529447470E-01
 c     6    6 0.13319728742250E+01 -.22851362083829E+01 -.26541439752140E-01
 h     7    1 -.22976467859220E+01 -.40383900994038E+01 -.22042001829740E-01
 h     8    1 -.22976448961959E+01 0.40383919891299E+01 -.22053340186540E-01
 h     9    1 0.23511286338561E+01 0.40572968093633E+01 -.28790213850280E-01
 h    10    1 0.23511267441300E+01 -.40572968093633E+01 -.28775096041210E-01
 n    11    7 -.52730224718766E+01 0.00000000000000E+00 -.17674844736640E-01
 o    12    8 -.63812882673039E+01 0.20269372576683E+01 -.15259774738810E-01
 o    13    8 -.63812844878516E+01 -.20269372576683E+01 -.15276782274010E-01
 n    14    7 0.52436643953234E+01 0.00000000000000E+00 -.69084844181800E-01
 h    15    1 0.62047866654136E+01 0.16174392738504E+01 0.18526851385235E+00
 h    16    1 0.62047847756874E+01 -.16174411635765E+01 0.18526473440008E+00
[GTO]
    1 0
 s    6 1.00
 0.13575349682000E+05 0.60645503603591E-03
 0.20352333680000E+04 0.46979088884982E-02
 0.46322562359000E+03 0.24332477647552E-01
 0.13120019598000E+03 0.97399968307759E-01
 0.42853015891000E+02 0.30195584253780E+00
 0.15584185766000E+02 0.66233609137875E+00
 s    2 1.00
 0.62067138508000E+01 0.65595308539952E+00
 0.25764896527000E+01 0.37585633285142E+00
 s    1 1.00
 0.57696339419000E+00 0.10000000000000E+01
 s    1 1.00
 0.22972831358000E+00 0.10000000000000E+01
 s    1 1.00
 0.95164440028000E-01 0.10000000000000E+01
 s    1 1.00
 0.48475401370000E-01 0.10000000000000E+01
 p    4 1.00
 0.34697232244000E+02 0.11327220003114E-01
 0.79582622826000E+01 0.76169659202087E-01
 0.23780826883000E+01 0.30192252202676E+00
 0.81433208183000E+00 0.72785027349547E+00
 p    1 1.00
 0.28887547253000E+00 0.10000000000000E+01
 p    1 1.00
 0.10056823671000E+00 0.10000000000000E+01
 d    1 1.00
 0.10970000000000E+01 0.10000000000000E+01
 d    1 1.00
 0.31800000000000E+00 0.10000000000000E+01
 d    1 1.00
 0.90985336424000E-01 0.10000000000000E+01
 f    1 1.00
 0.76100000000000E+00 0.10000000000000E+01
 
    2 0
 s    6 1.00
 0.13575349682000E+05 0.60645503603591E-03
 0.20352333680000E+04 0.46979088884982E-02
 0.46322562359000E+03 0.24332477647552E-01
 0.13120019598000E+03 0.97399968307759E-01
 0.42853015891000E+02 0.30195584253780E+00
 0.15584185766000E+02 0.66233609137875E+00
 s    2 1.00
 0.62067138508000E+01 0.65595308539952E+00
 0.25764896527000E+01 0.37585633285142E+00
 s    1 1.00
 0.57696339419000E+00 0.10000000000000E+01
 s    1 1.00
 0.22972831358000E+00 0.10000000000000E+01
 s    1 1.00
 0.95164440028000E-01 0.10000000000000E+01
 s    1 1.00
 0.48475401370000E-01 0.10000000000000E+01
 p    4 1.00
 0.34697232244000E+02 0.11327220003114E-01
 0.79582622826000E+01 0.76169659202087E-01
 0.23780826883000E+01 0.30192252202676E+00
 0.81433208183000E+00 0.72785027349547E+00
 p    1 1.00
 0.28887547253000E+00 0.10000000000000E+01
 p    1 1.00
 0.10056823671000E+00 0.10000000000000E+01
 d    1 1.00
 0.10970000000000E+01 0.10000000000000E+01
 d    1 1.00
 0.31800000000000E+00 0.10000000000000E+01
 d    1 1.00
 0.90985336424000E-01 0.10000000000000E+01
 f    1 1.00
 0.76100000000000E+00 0.10000000000000E+01
 
    3 0
 s    6 1.00
 0.13575349682000E+05 0.60645503603591E-03
 0.20352333680000E+04 0.46979088884982E-02
 0.46322562359000E+03 0.24332477647552E-01
 0.13120019598000E+03 0.97399968307759E-01
 0.42853015891000E+02 0.30195584253780E+00
 0.15584185766000E+02 0.66233609137875E+00
 s    2 1.00
 0.62067138508000E+01 0.65595308539952E+00
 0.25764896527000E+01 0.37585633285142E+00
 s    1 1.00
 0.57696339419000E+00 0.10000000000000E+01
 s    1 1.00
 0.22972831358000E+00 0.10000000000000E+01
 s    1 1.00
 0.95164440028000E-01 0.10000000000000E+01
 s    1 1.00
 0.48475401370000E-01 0.10000000000000E+01
 p    4 1.00
 0.34697232244000E+02 0.11327220003114E-01
 0.79582622826000E+01 0.76169659202087E-01
 0.23780826883000E+01 0.30192252202676E+00
 0.81433208183000E+00 0.72785027349547E+00
 p    1 1.00
 0.28887547253000E+00 0.10000000000000E+01
 p    1 1.00
 0.10056823671000E+00 0.10000000000000E+01
 d    1 1.00
 0.10970000000000E+01 0.10000000000000E+01
 d    1 1.00
 0.31800000000000E+00 0.10000000000000E+01
 d    1 1.00
 0.90985336424000E-01 0.10000000000000E+01
 f    1 1.00
 0.76100000000000E+00 0.10000000000000E+01
 
    4 0
 s    6 1.00
 0.13575349682000E+05 0.60645503603591E-03
 0.20352333680000E+04 0.46979088884982E-02
 0.46322562359000E+03 0.24332477647552E-01
 0.13120019598000E+03 0.97399968307759E-01
 0.42853015891000E+02 0.30195584253780E+00
 0.15584185766000E+02 0.66233609137875E+00
 s    2 1.00
 0.62067138508000E+01 0.65595308539952E+00
 0.25764896527000E+01 0.37585633285142E+00
 s    1 1.00
 0.57696339419000E+00 0.10000000000000E+01
 s    1 1.00
 0.22972831358000E+00 0.10000000000000E+01
 s    1 1.00
 0.95164440028000E-01 0.10000000000000E+01
 s    1 1.00
 0.48475401370000E-01 0.10000000000000E+01
 p    4 1.00
 0.34697232244000E+02 0.11327220003114E-01
 0.79582622826000E+01 0.76169659202087E-01
 0.23780826883000E+01 0.30192252202676E+00
 0.81433208183000E+00 0.72785027349547E+00
 p    1 1.00
 0.28887547253000E+00 0.10000000000000E+01
 p    1 1.00
 0.10056823671000E+00 0.10000000000000E+01
 d    1 1.00
 0.10970000000000E+01 0.10000000000000E+01
 d    1 1.00
 0.31800000000000E+00 0.10000000000000E+01
 d    1 1.00
 0.90985336424000E-01 0.10000000000000E+01
 f    1 1.00
 0.76100000000000E+00 0.10000000000000E+01
 
    5 0
 s    6 1.00
 0.13575349682000E+05 0.60645503603591E-03
 0.20352333680000E+04 0.46979088884982E-02
 0.46322562359000E+03 0.24332477647552E-01
 0.13120019598000E+03 0.97399968307759E-01
 0.42853015891000E+02 0.30195584253780E+00
 0.15584185766000E+02 0.66233609137875E+00
 s    2 1.00
 0.62067138508000E+01 0.65595308539952E+00
 0.25764896527000E+01 0.37585633285142E+00
 s    1 1.00
 0.57696339419000E+00 0.10000000000000E+01
 s    1 1.00
 0.22972831358000E+00 0.10000000000000E+01
 s    1 1.00
 0.95164440028000E-01 0.10000000000000E+01
 s    1 1.00
 0.48475401370000E-01 0.10000000000000E+01
 p    4 1.00
 0.34697232244000E+02 0.11327220003114E-01
 0.79582622826000E+01 0.76169659202087E-01
 0.23780826883000E+01 0.30192252202676E+00
 0.81433208183000E+00 0.72785027349547E+00
 p    1 1.00
 0.28887547253000E+00 0.10000000000000E+01
 p    1 1.00
 0.10056823671000E+00 0.10000000000000E+01
 d    1 1.00
 0.10970000000000E+01 0.10000000000000E+01
 d    1 1.00
 0.31800000000000E+00 0.10000000000000E+01
 d    1 1.00
 0.90985336424000E-01 0.10000000000000E+01
 f    1 1.00
 0.76100000000000E+00 0.10000000000000E+01
 
    6 0
 s    6 1.00
 0.13575349682000E+05 0.60645503603591E-03
 0.20352333680000E+04 0.46979088884982E-02
 0.46322562359000E+03 0.24332477647552E-01
 0.13120019598000E+03 0.97399968307759E-01
 0.42853015891000E+02 0.30195584253780E+00
 0.15584185766000E+02 0.66233609137875E+00
 s    2 1.00
 0.62067138508000E+01 0.65595308539952E+00
 0.25764896527000E+01 0.37585633285142E+00
 s    1 1.00
 0.57696339419000E+00 0.10000000000000E+01
 s    1 1.00
 0.22972831358000E+00 0.10000000000000E+01
 s    1 1.00
 0.95164440028000E-01 0.10000000000000E+01
 s    1 1.00
 0.48475401370000E-01 0.10000000000000E+01
 p    4 1.00
 0.34697232244000E+02 0.11327220003114E-01
 0.79582622826000E+01 0.76169659202087E-01
 0.23780826883000E+01 0.30192252202676E+00
 0.81433208183000E+00 0.72785027349547E+00
 p    1 1.00
 0.28887547253000E+00 0.10000000000000E+01
 p    1 1.00
 0.10056823671000E+00 0.10000000000000E+01
 d    1 1.00
 0.10970000000000E+01 0.10000000000000E+01
 d    1 1.00
 0.31800000000000E+00 0.10000000000000E+01
 d    1 1.00
 0.90985336424000E-01 0.10000000000000E+01
 f    1 1.00
 0.76100000000000E+00 0.10000000000000E+01
 
    7 0
 s    3 1.00
 0.34061341000000E+02 0.25439307208879E-01
 0.51235746000000E+01 0.19008594890375E+00
 0.11646626000000E+01 0.85244113011042E+00
 s    1 1.00
 0.32723041000000E+00 0.10000000000000E+01
 s    1 1.00
 0.10307241000000E+00 0.10000000000000E+01
 p    1 1.00
 0.80000000000000E+00 0.10000000000000E+01
 p    1 1.00
 0.95774129632000E-01 0.10000000000000E+01
 
    8 0
 s    3 1.00
 0.34061341000000E+02 0.25439307208879E-01
 0.51235746000000E+01 0.19008594890375E+00
 0.11646626000000E+01 0.85244113011042E+00
 s    1 1.00
 0.32723041000000E+00 0.10000000000000E+01
 s    1 1.00
 0.10307241000000E+00 0.10000000000000E+01
 p    1 1.00
 0.80000000000000E+00 0.10000000000000E+01
 p    1 1.00
 0.95774129632000E-01 0.10000000000000E+01
 
    9 0
 s    3 1.00
 0.34061341000000E+02 0.25439307208879E-01
 0.51235746000000E+01 0.19008594890375E+00
 0.11646626000000E+01 0.85244113011042E+00
 s    1 1.00
 0.32723041000000E+00 0.10000000000000E+01
 s    1 1.00
 0.10307241000000E+00 0.10000000000000E+01
 p    1 1.00
 0.80000000000000E+00 0.10000000000000E+01
 p    1 1.00
 0.95774129632000E-01 0.10000000000000E+01
 
   10 0
 s    3 1.00
 0.34061341000000E+02 0.25439307208879E-01
 0.51235746000000E+01 0.19008594890375E+00
 0.11646626000000E+01 0.85244113011042E+00
 s    1 1.00
 0.32723041000000E+00 0.10000000000000E+01
 s    1 1.00
 0.10307241000000E+00 0.10000000000000E+01
 p    1 1.00
 0.80000000000000E+00 0.10000000000000E+01
 p    1 1.00
 0.95774129632000E-01 0.10000000000000E+01
 
   11 0
 s    6 1.00
 0.19730800647000E+05 0.58626402628763E-03
 0.29578958745000E+04 0.45428820586397E-02
 0.67322133595000E+03 0.23558413450084E-01
 0.19068249494000E+03 0.94709193292923E-01
 0.62295441898000E+02 0.29719784913376E+00
 0.22654161182000E+02 0.66916246895232E+00
 s    2 1.00
 0.89791477428000E+01 0.64596683630063E+00
 0.36863002370000E+01 0.38700574393705E+00
 s    1 1.00
 0.84660076805000E+00 0.10000000000000E+01
 s    1 1.00
 0.33647133771000E+00 0.10000000000000E+01
 s    1 1.00
 0.13647653675000E+00 0.10000000000000E+01
 s    1 1.00
 0.68441605847000E-01 0.10000000000000E+01
 p    4 1.00
 0.49200380510000E+02 0.11448825101764E-01
 0.11346790537000E+02 0.78422337970864E-01
 0.34273972411000E+01 0.30818094738830E+00
 0.11785525134000E+01 0.72027196368413E+00
 p    1 1.00
 0.41642204972000E+00 0.10000000000000E+01
 p    1 1.00
 0.14260826011000E+00 0.10000000000000E+01
 d    1 1.00
 0.16540000000000E+01 0.10000000000000E+01
 d    1 1.00
 0.46900000000000E+00 0.10000000000000E+01
 d    1 1.00
 0.12829642058000E+00 0.10000000000000E+01
 f    1 1.00
 0.10930000000000E+01 0.10000000000000E+01
 
   12 0
 s    6 1.00
 0.27032382631000E+05 0.57227335211155E-03
 0.40523871392000E+04 0.44353233492995E-02
 0.92232722710000E+03 0.23020107706038E-01
 0.26124070989000E+03 0.92822490667928E-01
 0.85354641351000E+02 0.29378500009671E+00
 0.31035035245000E+02 0.67401604501641E+00
 s    2 1.00
 0.12260860728000E+02 0.63839937025506E+00
 0.49987076005000E+01 0.39534587125718E+00
 s    1 1.00
 0.11703108158000E+01 0.10000000000000E+01
 s    1 1.00
 0.46474740994000E+00 0.10000000000000E+01
 s    1 1.00
 0.18504536357000E+00 0.10000000000000E+01
 s    1 1.00
 0.70288026270000E-01 0.10000000000000E+01
 p    4 1.00
 0.63274954801000E+02 0.12018332222616E-01
 0.14627049379000E+02 0.83005421790056E-01
 0.44501223456000E+01 0.31991743925964E+00
 0.15275799647000E+01 0.70715542916104E+00
 p    1 1.00
 0.52935117943000E+00 0.10000000000000E+01
 p    1 1.00
 0.17478421270000E+00 0.10000000000000E+01
 p    1 1.00
 0.51112745706000E-01 0.10000000000000E+01
 d    1 1.00
 0.23140000000000E+01 0.10000000000000E+01
 d    1 1.00
 0.64500000000000E+00 0.10000000000000E+01
 d    1 1.00
 0.14696477366000E+00 0.10000000000000E+01
 f    1 1.00
 0.14280000000000E+01 0.10000000000000E+01
 
   13 0
 s    6 1.00
 0.27032382631000E+05 0.57227335211155E-03
 0.40523871392000E+04 0.44353233492995E-02
 0.92232722710000E+03 0.23020107706038E-01
 0.26124070989000E+03 0.92822490667928E-01
 0.85354641351000E+02 0.29378500009671E+00
 0.31035035245000E+02 0.67401604501641E+00
 s    2 1.00
 0.12260860728000E+02 0.63839937025506E+00
 0.49987076005000E+01 0.39534587125718E+00
 s    1 1.00
 0.11703108158000E+01 0.10000000000000E+01
 s    1 1.00
 0.46474740994000E+00 0.10000000000000E+01
 s    1 1.00
 0.18504536357000E+00 0.10000000000000E+01
 s    1 1.00
 0.70288026270000E-01 0.10000000000000E+01
 p    4 1.00
 0.63274954801000E+02 0.12018332222616E-01
 0.14627049379000E+02 0.83005421790056E-01
 0.44501223456000E+01 0.31991743925964E+00
 0.15275799647000E+01 0.70715542916104E+00
 p    1 1.00
 0.52935117943000E+00 0.10000000000000E+01
 p    1 1.00
 0.17478421270000E+00 0.10000000000000E+01
 p    1 1.00
 0.51112745706000E-01 0.10000000000000E+01
 d    1 1.00
 0.23140000000000E+01 0.10000000000000E+01
 d    1 1.00
 0.64500000000000E+00 0.10000000000000E+01
 d    1 1.00
 0.14696477366000E+00 0.10000000000000E+01
 f    1 1.00
 0.14280000000000E+01 0.10000000000000E+01
 
   14 0
 s    6 1.00
 0.19730800647000E+05 0.58626402628763E-03
 0.29578958745000E+04 0.45428820586397E-02
 0.67322133595000E+03 0.23558413450084E-01
 0.19068249494000E+03 0.94709193292923E-01
 0.62295441898000E+02 0.29719784913376E+00
 0.22654161182000E+02 0.66916246895232E+00
 s    2 1.00
 0.89791477428000E+01 0.64596683630063E+00
 0.36863002370000E+01 0.38700574393705E+00
 s    1 1.00
 0.84660076805000E+00 0.10000000000000E+01
 s    1 1.00
 0.33647133771000E+00 0.10000000000000E+01
 s    1 1.00
 0.13647653675000E+00 0.10000000000000E+01
 s    1 1.00
 0.68441605847000E-01 0.10000000000000E+01
 p    4 1.00
 0.49200380510000E+02 0.11448825101764E-01
 0.11346790537000E+02 0.78422337970864E-01
 0.34273972411000E+01 0.30818094738830E+00
 0.11785525134000E+01 0.72027196368413E+00
 p    1 1.00
 0.41642204972000E+00 0.10000000000000E+01
 p    1 1.00
 0.14260826011000E+00 0.10000000000000E+01
 d    1 1.00
 0.16540000000000E+01 0.10000000000000E+01
 d    1 1.00
 0.46900000000000E+00 0.10000000000000E+01
 d    1 1.00
 0.12829642058000E+00 0.10000000000000E+01
 f    1 1.00
 0.10930000000000E+01 0.10000000000000E+01
 
   15 0
 s    3 1.00
 0.34061341000000E+02 0.25439307208879E-01
 0.51235746000000E+01 0.19008594890375E+00
 0.11646626000000E+01 0.85244113011042E+00
 s    1 1.00
 0.32723041000000E+00 0.10000000000000E+01
 s    1 1.00
 0.10307241000000E+00 0.10000000000000E+01
 p    1 1.00
 0.80000000000000E+00 0.10000000000000E+01
 p    1 1.00
 0.95774129632000E-01 0.10000000000000E+01
 
   16 0
 s    3 1.00
 0.34061341000000E+02 0.25439307208879E-01
 0.51235746000000E+01 0.19008594890375E+00
 0.11646626000000E+01 0.85244113011042E+00
 s    1 1.00
 0.32723041000000E+00 0.10000000000000E+01
 s    1 1.00
 0.10307241000000E+00 0.10000000000000E+01
 p    1 1.00
 0.80000000000000E+00 0.10000000000000E+01
 p    1 1.00
 0.95774129632000E-01 0.10000000000000E+01
 
[MO]
 Sym= X
 Ene= -0.055879
 Spin= Alpha
 Occup= -0.055879
         1   -8.761847E-04
         2   -1.978310E-03
         3    3.699200E-03
         4   -2.364167E-04
         5   -4.023675E-03
         6   -1.571255E-02
         7    7.480447E-03
         8   -5.168742E-04
         9   -4.443264E-03
        10    7.295338E-04
        11    1.308084E-04
        12   -6.106356E-03
        13   -4.385415E-02
        14    8.122611E-03
        15   -1.266711E-02
        16    2.027109E-04
        17   -1.696618E-04
        18   -3.304904E-05
        19   -2.032412E-05
        20   -3.187329E-03
        21    1.607214E-03
        22   -6.082898E-04
        23    3.780444E-04
        24    2.302454E-04
        25   -1.106024E-03
        26   -7.445930E-03
        27    3.217299E-03
        28   -5.251177E-03
        29    4.625523E-03
        30    6.256544E-04
        31    2.847867E-03
        32    4.600849E-03
        33   -1.500736E-02
        34   -3.047344E-06
        35    1.129474E-05
        36    6.233473E-05
        37   -4.434158E-06
        38   -1.336703E-05
        39   -4.398135E-04
        40    8.522599E-06
        41   -1.786453E-06
        42    3.561827E-04
        43   -2.726006E-04
        44    2.701382E-04
        45    6.165488E-04
        46   -4.925574E-04
        47   -6.562545E-03
        48   -4.574989E-02
        49    1.053771E-02
        50   -2.024554E-03
        51   -2.474383E-06
        52    8.547361E-02
        53   -2.750039E-03
        54    8.008726E-06
        55    8.877129E-02
        56   -1.828905E-02
        57   -1.464524E-03
        58    1.389271E-01
        59    2.643115E-04
        60   -2.575339E-04
        61   -6.777632E-06
        62   -1.968741E-08
        63   -7.952017E-04
        64   -9.087391E-07
        65    8.238480E-04
        66   -1.230845E-03
        67    4.069975E-04
        68    1.653344E-06
        69   -2.673667E-03
        70   -2.316596E-06
        71    1.571339E-02
        72   -1.684469E-02
        73    1.131298E-03
        74   -2.377571E-04
        75    1.511528E-03
        76   -4.369672E-05
        77   -2.115753E-06
        78   -6.641227E-08
        79   -4.192049E-04
        80   -1.056247E-05
        81    1.118531E-07
        82    2.675057E-04
        83    1.340105E-05
        84   -2.275170E-08
        85    2.949167E-04
        86   -1.302188E-07
        87   -8.726026E-04
        88   -1.970467E-03
        89    3.698148E-03
        90   -3.485835E-04
        91   -1.817286E-03
        92   -1.567888E-02
        93    7.492085E-03
        94    5.091541E-04
        95   -4.494901E-03
        96    7.126219E-04
        97   -1.328478E-04
        98   -6.160184E-03
        99   -4.491236E-02
       100   -9.604882E-03
       101   -1.265284E-02
       102    2.024852E-04
       103   -1.699944E-04
       104   -3.249079E-05
       105    2.095433E-05
       106   -3.189056E-03
       107   -1.607139E-03
       108   -6.122620E-04
       109    3.779209E-04
       110    2.343411E-04
       111    1.104946E-03
       112   -7.448645E-03
       113   -3.217023E-03
       114   -5.530718E-03
       115    4.929994E-03
       116    6.007239E-04
       117   -2.606469E-03
       118    4.551246E-03
       119    1.495368E-02
       120   -3.451710E-06
       121   -1.129071E-05
       122    6.272520E-05
       123   -4.006326E-06
       124    1.335846E-05
       125   -4.403197E-04
       126    8.637281E-06
       127    1.789622E-06
       128    3.561650E-04
       129    2.725786E-04
       130    6.827921E-04
       131    1.509474E-03
       132   -7.261813E-04
       133   -1.805726E-02
       134    1.681504E-02
       135    1.617186E-02
       136   -8.615069E-03
       137    1.876669E-03
       138   -7.304451E-02
       139   -1.804610E-02
       140    9.528497E-03
       141   -7.673675E-02
       142   -3.352698E-02
       143   -9.698091E-03
       144   -4.269043E-02
       145    4.942385E-04
       146   -5.885047E-04
       147    9.426615E-05
       148   -2.241141E-05
       149    1.081912E-03
       150    2.199920E-04
       151    1.010977E-03
       152   -1.377724E-03
       153    3.667471E-04
       154    2.510168E-03
       155   -5.414958E-05
       156   -3.897569E-05
       157    1.087290E-02
       158   -8.650275E-03
       159   -2.222627E-03
       160   -1.196830E-02
       161    5.714566E-03
       162   -2.030017E-02
       163   -2.225837E-05
       164    2.951298E-05
       165    2.313495E-04
       166   -5.344490E-05
       167    9.130639E-06
       168   -1.696315E-05
       169    8.330764E-05
       170   -4.872645E-05
       171   -2.934247E-04
       172   -9.623365E-05
       173   -1.582148E-03
       174   -3.600648E-03
       175    3.741706E-03
       176    2.790939E-02
       177   -3.083918E-02
       178    1.286150E-02
       179    2.262503E-02
       180    9.774732E-07
       181    4.602662E-02
       182    6.925850E-03
       183   -2.143133E-05
       184    3.924323E-02
       185   -4.366243E-02
       186    1.322471E-03
       187   -1.111836E-01
       188    1.184845E-03
       189   -8.515320E-04
       190   -3.333134E-04
       191    2.148683E-07
       192    1.130361E-02
       193   -8.957933E-07
       194   -2.274788E-03
       195    5.391883E-03
       196   -3.117095E-03
       197    4.948699E-06
       198    2.494273E-02
       199   -3.878535E-06
       200   -1.162815E-02
       201    1.337813E-02
       202   -1.749984E-03
       203   -3.217119E-04
       204    1.567676E-02
       205    4.643927E-05
       206    2.175047E-04
       207    4.603945E-08
       208   -1.063978E-03
       209   -1.299872E-04
       210   -1.889090E-07
       211    2.214869E-03
       212   -1.618260E-04
       213    1.271406E-07
       214   -7.873922E-04
       215    2.394979E-07
       216    6.869084E-04
       217    1.518549E-03
       218   -7.287788E-04
       219   -1.817208E-02
       220    1.911890E-02
       221    1.614759E-02
       222   -8.620831E-03
       223   -1.859865E-03
       224   -7.298063E-02
       225   -1.802311E-02
       226   -9.538188E-03
       227   -7.667852E-02
       228   -3.254195E-02
       229    1.125725E-02
       230   -4.255621E-02
       231    4.941568E-04
       232   -5.891610E-04
       233    9.500418E-05
       234    2.301131E-05
       235    1.080470E-03
       236   -2.198702E-04
       237    1.004863E-03
       238   -1.378231E-03
       239    3.733685E-04
       240   -2.513720E-03
       241   -5.542003E-05
       242    3.890682E-05
       243    1.054865E-02
       244   -8.320913E-03
       245   -2.227733E-03
       246    1.218784E-02
       247    5.782773E-03
       248    2.035698E-02
       249   -2.182177E-05
       250   -2.960431E-05
       251    2.310633E-04
       252   -5.403123E-05
       253   -9.046697E-06
       254   -1.663674E-05
       255    8.330821E-05
       256    4.876505E-05
       257   -2.933672E-04
       258    9.621474E-05
       259   -1.002958E-03
       260   -1.238583E-03
       261   -2.764948E-02
       262    7.218526E-05
       263   -1.098506E-04
       264   -2.549574E-04
       265   -6.489109E-03
       266   -1.719638E-03
       267   -9.022725E-03
       268   -1.013695E-03
       269   -1.248007E-03
       270   -2.740395E-02
       271    7.234313E-05
       272    1.106213E-04
       273   -2.569795E-04
       274   -6.651318E-03
       275    1.593240E-03
       276   -9.004615E-03
       277   -2.841243E-03
       278   -6.602036E-03
       279    4.702961E-02
       280   -1.064896E-05
       281    4.888829E-04
       282   -2.908182E-03
       283   -4.332655E-03
       284   -3.388087E-03
       285    1.028773E-02
       286   -2.855467E-03
       287   -6.613119E-03
       288    4.732305E-02
       289   -8.852175E-06
       290   -4.898734E-04
       291   -2.905983E-03
       292   -4.186171E-03
       293    3.531250E-03
       294    1.029898E-02
       295   -2.744384E-04
       296   -6.441994E-04
       297    8.181591E-04
       298    2.255110E-03
       299   -1.143385E-02
       300   -4.447224E-03
       301    3.707944E-03
       302    3.716775E-06
       303    1.058612E-02
       304    3.011244E-03
       305    2.330335E-06
       306    1.264866E-02
       307   -3.706845E-03
       308    2.041442E-05
       309   -5.332376E-04
       310    7.943957E-05
       311   -9.184121E-05
       312    1.240164E-05
       313    1.044666E-07
       314    2.067658E-03
       315    1.809842E-07
       316    1.746335E-04
       317   -1.365051E-04
       318   -3.812836E-05
       319    1.017299E-07
       320    6.246691E-03
       321    3.018305E-07
       322   -1.064072E-03
       323    3.734624E-03
       324   -2.670552E-03
       325    4.303887E-05
       326   -6.777521E-05
       327    6.030074E-06
       328    1.132112E-05
       329    9.149627E-08
       330    2.681373E-05
       331   -1.432401E-06
       332   -9.796497E-08
       333    3.098795E-04
       334   -1.375647E-05
       335   -2.479016E-08
       336   -3.458538E-04
       337   -5.235987E-08
       338   -1.015640E-04
       339   -2.425861E-04
       340    3.139230E-04
       341    1.294646E-03
       342   -7.722157E-03
       343   -4.681111E-04
       344   -1.506032E-03
       345    9.347843E-04
       346   -3.967964E-02
       347   -1.478450E-03
       348    9.687461E-04
       349   -3.688351E-02
       350   -2.723239E-03
       351    9.987699E-04
       352   -2.990173E-02
       353   -3.770282E-04
       354    8.378730E-05
       355   -4.020490E-03
       356    1.831325E-05
       357   -3.230757E-05
       358    1.399432E-05
       359    1.171648E-05
       360    1.053226E-05
       361    2.235043E-04
       362    9.053270E-06
       363   -7.840227E-05
       364    6.934900E-05
       365    2.844097E-05
       366   -2.589317E-04
       367    7.206072E-04
       368   -1.080645E-04
       369    4.649345E-05
       370    6.157110E-05
       371    9.399677E-05
       372    4.600491E-04
       373    1.571224E-04
       374    3.919314E-06
       375    8.718294E-06
       376    3.258511E-05
       377   -7.601998E-06
       378   -4.584664E-06
       379    3.990951E-05
       380    2.343687E-06
       381   -7.112154E-06
       382   -8.362703E-05
       383    6.608370E-05
       384   -1.025152E-04
       385   -2.449187E-04
       386    3.175189E-04
       387    1.299224E-03
       388   -7.754104E-03
       389   -4.470343E-04
       390   -1.521001E-03
       391   -9.311816E-04
       392   -3.969006E-02
       393   -1.492379E-03
       394   -9.653031E-04
       395   -3.689382E-02
       396   -2.698181E-03
       397   -1.005292E-03
       398   -2.990123E-02
       399   -3.677578E-04
       400   -8.644714E-05
       401   -4.022613E-03
       402    1.818064E-05
       403   -3.226214E-05
       404    1.408150E-05
       405   -1.191094E-05
       406    1.048767E-05
       407   -2.236050E-04
       408    9.290569E-06
       409   -7.852583E-05
       410    6.923526E-05
       411   -2.873145E-05
       412   -2.590182E-04
       413   -7.208335E-04
       414   -1.090758E-04
       415    4.854476E-05
       416    6.053099E-05
       417   -9.263354E-05
       418    4.606270E-04
       419   -1.570623E-04
       420    3.937540E-06
       421   -8.686380E-06
       422    3.259925E-05
       423   -7.632437E-06
       424    4.528175E-06
       425    3.991741E-05
       426    2.349673E-06
       427    7.125828E-06
       428   -8.365389E-05
       429   -6.611467E-05
       430    6.871662E-03
       431    1.627160E-02
       432   -2.517777E-02
       433   -3.953126E-02
       434   -2.243038E-02
       435   -7.471598E-02
       436   -3.277069E-02
       437    2.040050E-05
       438    3.933753E-01
       439   -3.560671E-02
       440    2.236784E-06
       441    3.845670E-01
       442   -3.589354E-02
       443   -1.675222E-04
       444    2.861230E-01
       445   -4.525465E-05
       446   -2.425508E-04
       447    2.878054E-04
       448    5.235165E-07
       449   -1.615290E-03
       450    5.271107E-07
       451   -1.044961E-05
       452   -2.851272E-03
       453    2.861721E-03
       454   -8.074022E-06
       455   -2.253923E-03
       456    2.192319E-06
       457   -6.258695E-04
       458   -6.379489E-03
       459    7.005359E-03
       460   -3.209389E-05
       461    1.395620E-04
       462    1.496183E-05
       463   -1.739674E-04
       464    3.640954E-08
       465   -1.920337E-03
       466   -1.569131E-04
       467   -3.428942E-09
       468    1.464789E-03
       469    3.903149E-04
       470   -4.541958E-08
       471    1.111613E-03
       472    6.687275E-08
       473    9.867419E-03
       474    2.144119E-02
       475    3.987847E-02
       476   -3.510429E-03
       477   -2.515211E-03
       478    1.883061E-02
       479   -9.272277E-04
       480   -4.683093E-03
       481    1.445921E-02
       482    9.853085E-03
       483    2.129476E-02
       484    3.929605E-02
       485   -3.502464E-03
       486    2.501117E-03
       487    1.883749E-02
       488   -8.656932E-04
       489    4.584606E-03
       490    1.449521E-02
 Sym= X
 Ene= -0.830869
 Spin= Alpha
 Occup= -0.830869
         1    2.265318E-05
         2    5.257498E-05
         3   -8.968254E-05
         4   -7.319616E-05
         5   -1.213940E-02
         6   -7.415526E-04
         7    6.632251E-04
         8   -2.053091E-04
         9   -1.882866E-01
        10    2.365896E-04
        11   -5.569330E-05
        12   -1.887562E-01
        13    4.786453E-03
        14   -7.431376E-03
        15   -1.099492E-01
        16    1.587499E-05
        17   -2.360913E-05
        18    7.734143E-06
        19    1.469074E-05
        20   -4.965112E-03
        21   -5.412082E-04
        22   -4.947539E-07
        23   -1.342388E-05
        24    1.391863E-05
        25    2.590195E-05
        26   -9.532721E-03
        27    4.153919E-04
        28    8.407967E-04
        29   -1.018959E-03
        30    1.781623E-04
        31    6.703547E-04
        32   -2.787451E-03
        33   -5.195806E-04
        34   -2.757893E-06
        35   -2.672109E-06
        36    1.161331E-03
        37    1.775206E-06
        38    2.577226E-06
        39   -1.404592E-03
        40    1.924896E-06
        41    1.007784E-06
        42   -1.534972E-04
        43   -3.358157E-06
        44    2.006750E-07
        45    4.455926E-07
        46    7.589091E-07
        47   -3.409794E-05
        48    2.146223E-03
        49    1.134666E-04
        50   -3.898234E-06
        51    7.599160E-04
        52    1.129717E-05
        53   -6.018597E-06
        54    8.438584E-04
        55    1.987640E-05
        56    1.027952E-03
        57   -1.220601E-02
        58    9.008614E-05
        59    2.285606E-07
        60   -3.666469E-07
        61    1.380864E-07
        62    3.272915E-05