[Molden Format]
[Title]
ADC(2) - opt by CAM-B3LYP gaussian                                              
[Atoms] AU
 c     1    6 -.12588699998532E+01 -.22834089986974E+01 -.24579904026210E-01
 c     2    6 -.25576598737242E+01 0.00000000000000E+00 -.23328905326240E-01
 c     3    6 -.12588681101271E+01 0.22834089986974E+01 -.24585573204610E-01
 c     4    6 0.13319747639512E+01 0.22851362083829E+01 -.26548998656670E-01
 c     5    6 0.26868460402678E+01 0.00000000000000E+00 -.25991529447470E-01
 c     6    6 0.13319728742250E+01 -.22851362083829E+01 -.26541439752140E-01
 h     7    1 -.22976467859220E+01 -.40383900994038E+01 -.22042001829740E-01
 h     8    1 -.22976448961959E+01 0.40383919891299E+01 -.22053340186540E-01
 h     9    1 0.23511286338561E+01 0.40572968093633E+01 -.28790213850280E-01
 h    10    1 0.23511267441300E+01 -.40572968093633E+01 -.28775096041210E-01
 n    11    7 -.52730224718766E+01 0.00000000000000E+00 -.17674844736640E-01
 o    12    8 -.63812882673039E+01 0.20269372576683E+01 -.15259774738810E-01
 o    13    8 -.63812844878516E+01 -.20269372576683E+01 -.15276782274010E-01
 n    14    7 0.52436643953234E+01 0.00000000000000E+00 -.69084844181800E-01
 h    15    1 0.62047866654136E+01 0.16174392738504E+01 0.18526851385235E+00
 h    16    1 0.62047847756874E+01 -.16174411635765E+01 0.18526473440008E+00
[GTO]
    1 0
 s    6 1.00
 0.13575349682000E+05 0.60645503603591E-03
 0.20352333680000E+04 0.46979088884982E-02
 0.46322562359000E+03 0.24332477647552E-01
 0.13120019598000E+03 0.97399968307759E-01
 0.42853015891000E+02 0.30195584253780E+00
 0.15584185766000E+02 0.66233609137875E+00
 s    2 1.00
 0.62067138508000E+01 0.65595308539952E+00
 0.25764896527000E+01 0.37585633285142E+00
 s    1 1.00
 0.57696339419000E+00 0.10000000000000E+01
 s    1 1.00
 0.22972831358000E+00 0.10000000000000E+01
 s    1 1.00
 0.95164440028000E-01 0.10000000000000E+01
 s    1 1.00
 0.48475401370000E-01 0.10000000000000E+01
 p    4 1.00
 0.34697232244000E+02 0.11327220003114E-01
 0.79582622826000E+01 0.76169659202087E-01
 0.23780826883000E+01 0.30192252202676E+00
 0.81433208183000E+00 0.72785027349547E+00
 p    1 1.00
 0.28887547253000E+00 0.10000000000000E+01
 p    1 1.00
 0.10056823671000E+00 0.10000000000000E+01
 d    1 1.00
 0.10970000000000E+01 0.10000000000000E+01
 d    1 1.00
 0.31800000000000E+00 0.10000000000000E+01
 d    1 1.00
 0.90985336424000E-01 0.10000000000000E+01
 f    1 1.00
 0.76100000000000E+00 0.10000000000000E+01
 
    2 0
 s    6 1.00
 0.13575349682000E+05 0.60645503603591E-03
 0.20352333680000E+04 0.46979088884982E-02
 0.46322562359000E+03 0.24332477647552E-01
 0.13120019598000E+03 0.97399968307759E-01
 0.42853015891000E+02 0.30195584253780E+00
 0.15584185766000E+02 0.66233609137875E+00
 s    2 1.00
 0.62067138508000E+01 0.65595308539952E+00
 0.25764896527000E+01 0.37585633285142E+00
 s    1 1.00
 0.57696339419000E+00 0.10000000000000E+01
 s    1 1.00
 0.22972831358000E+00 0.10000000000000E+01
 s    1 1.00
 0.95164440028000E-01 0.10000000000000E+01
 s    1 1.00
 0.48475401370000E-01 0.10000000000000E+01
 p    4 1.00
 0.34697232244000E+02 0.11327220003114E-01
 0.79582622826000E+01 0.76169659202087E-01
 0.23780826883000E+01 0.30192252202676E+00
 0.81433208183000E+00 0.72785027349547E+00
 p    1 1.00
 0.28887547253000E+00 0.10000000000000E+01
 p    1 1.00
 0.10056823671000E+00 0.10000000000000E+01
 d    1 1.00
 0.10970000000000E+01 0.10000000000000E+01
 d    1 1.00
 0.31800000000000E+00 0.10000000000000E+01
 d    1 1.00
 0.90985336424000E-01 0.10000000000000E+01
 f    1 1.00
 0.76100000000000E+00 0.10000000000000E+01
 
    3 0
 s    6 1.00
 0.13575349682000E+05 0.60645503603591E-03
 0.20352333680000E+04 0.46979088884982E-02
 0.46322562359000E+03 0.24332477647552E-01
 0.13120019598000E+03 0.97399968307759E-01
 0.42853015891000E+02 0.30195584253780E+00
 0.15584185766000E+02 0.66233609137875E+00
 s    2 1.00
 0.62067138508000E+01 0.65595308539952E+00
 0.25764896527000E+01 0.37585633285142E+00
 s    1 1.00
 0.57696339419000E+00 0.10000000000000E+01
 s    1 1.00
 0.22972831358000E+00 0.10000000000000E+01
 s    1 1.00
 0.95164440028000E-01 0.10000000000000E+01
 s    1 1.00
 0.48475401370000E-01 0.10000000000000E+01
 p    4 1.00
 0.34697232244000E+02 0.11327220003114E-01
 0.79582622826000E+01 0.76169659202087E-01
 0.23780826883000E+01 0.30192252202676E+00
 0.81433208183000E+00 0.72785027349547E+00
 p    1 1.00
 0.28887547253000E+00 0.10000000000000E+01
 p    1 1.00
 0.10056823671000E+00 0.10000000000000E+01
 d    1 1.00
 0.10970000000000E+01 0.10000000000000E+01
 d    1 1.00
 0.31800000000000E+00 0.10000000000000E+01
 d    1 1.00
 0.90985336424000E-01 0.10000000000000E+01
 f    1 1.00
 0.76100000000000E+00 0.10000000000000E+01
 
    4 0
 s    6 1.00
 0.13575349682000E+05 0.60645503603591E-03
 0.20352333680000E+04 0.46979088884982E-02
 0.46322562359000E+03 0.24332477647552E-01
 0.13120019598000E+03 0.97399968307759E-01
 0.42853015891000E+02 0.30195584253780E+00
 0.15584185766000E+02 0.66233609137875E+00
 s    2 1.00
 0.62067138508000E+01 0.65595308539952E+00
 0.25764896527000E+01 0.37585633285142E+00
 s    1 1.00
 0.57696339419000E+00 0.10000000000000E+01
 s    1 1.00
 0.22972831358000E+00 0.10000000000000E+01
 s    1 1.00
 0.95164440028000E-01 0.10000000000000E+01
 s    1 1.00
 0.48475401370000E-01 0.10000000000000E+01
 p    4 1.00
 0.34697232244000E+02 0.11327220003114E-01
 0.79582622826000E+01 0.76169659202087E-01
 0.23780826883000E+01 0.30192252202676E+00
 0.81433208183000E+00 0.72785027349547E+00
 p    1 1.00
 0.28887547253000E+00 0.10000000000000E+01
 p    1 1.00
 0.10056823671000E+00 0.10000000000000E+01
 d    1 1.00
 0.10970000000000E+01 0.10000000000000E+01
 d    1 1.00
 0.31800000000000E+00 0.10000000000000E+01
 d    1 1.00
 0.90985336424000E-01 0.10000000000000E+01
 f    1 1.00
 0.76100000000000E+00 0.10000000000000E+01
 
    5 0
 s    6 1.00
 0.13575349682000E+05 0.60645503603591E-03
 0.20352333680000E+04 0.46979088884982E-02
 0.46322562359000E+03 0.24332477647552E-01
 0.13120019598000E+03 0.97399968307759E-01
 0.42853015891000E+02 0.30195584253780E+00
 0.15584185766000E+02 0.66233609137875E+00
 s    2 1.00
 0.62067138508000E+01 0.65595308539952E+00
 0.25764896527000E+01 0.37585633285142E+00
 s    1 1.00
 0.57696339419000E+00 0.10000000000000E+01
 s    1 1.00
 0.22972831358000E+00 0.10000000000000E+01
 s    1 1.00
 0.95164440028000E-01 0.10000000000000E+01
 s    1 1.00
 0.48475401370000E-01 0.10000000000000E+01
 p    4 1.00
 0.34697232244000E+02 0.11327220003114E-01
 0.79582622826000E+01 0.76169659202087E-01
 0.23780826883000E+01 0.30192252202676E+00
 0.81433208183000E+00 0.72785027349547E+00
 p    1 1.00
 0.28887547253000E+00 0.10000000000000E+01
 p    1 1.00
 0.10056823671000E+00 0.10000000000000E+01
 d    1 1.00
 0.10970000000000E+01 0.10000000000000E+01
 d    1 1.00
 0.31800000000000E+00 0.10000000000000E+01
 d    1 1.00
 0.90985336424000E-01 0.10000000000000E+01
 f    1 1.00
 0.76100000000000E+00 0.10000000000000E+01
 
    6 0
 s    6 1.00
 0.13575349682000E+05 0.60645503603591E-03
 0.20352333680000E+04 0.46979088884982E-02
 0.46322562359000E+03 0.24332477647552E-01
 0.13120019598000E+03 0.97399968307759E-01
 0.42853015891000E+02 0.30195584253780E+00
 0.15584185766000E+02 0.66233609137875E+00
 s    2 1.00
 0.62067138508000E+01 0.65595308539952E+00
 0.25764896527000E+01 0.37585633285142E+00
 s    1 1.00
 0.57696339419000E+00 0.10000000000000E+01
 s    1 1.00
 0.22972831358000E+00 0.10000000000000E+01
 s    1 1.00
 0.95164440028000E-01 0.10000000000000E+01
 s    1 1.00
 0.48475401370000E-01 0.10000000000000E+01
 p    4 1.00
 0.34697232244000E+02 0.11327220003114E-01
 0.79582622826000E+01 0.76169659202087E-01
 0.23780826883000E+01 0.30192252202676E+00
 0.81433208183000E+00 0.72785027349547E+00
 p    1 1.00
 0.28887547253000E+00 0.10000000000000E+01
 p    1 1.00
 0.10056823671000E+00 0.10000000000000E+01
 d    1 1.00
 0.10970000000000E+01 0.10000000000000E+01
 d    1 1.00
 0.31800000000000E+00 0.10000000000000E+01
 d    1 1.00
 0.90985336424000E-01 0.10000000000000E+01
 f    1 1.00
 0.76100000000000E+00 0.10000000000000E+01
 
    7 0
 s    3 1.00
 0.34061341000000E+02 0.25439307208879E-01
 0.51235746000000E+01 0.19008594890375E+00
 0.11646626000000E+01 0.85244113011042E+00
 s    1 1.00
 0.32723041000000E+00 0.10000000000000E+01
 s    1 1.00
 0.10307241000000E+00 0.10000000000000E+01
 p    1 1.00
 0.80000000000000E+00 0.10000000000000E+01
 p    1 1.00
 0.95774129632000E-01 0.10000000000000E+01
 
    8 0
 s    3 1.00
 0.34061341000000E+02 0.25439307208879E-01
 0.51235746000000E+01 0.19008594890375E+00
 0.11646626000000E+01 0.85244113011042E+00
 s    1 1.00
 0.32723041000000E+00 0.10000000000000E+01
 s    1 1.00
 0.10307241000000E+00 0.10000000000000E+01
 p    1 1.00
 0.80000000000000E+00 0.10000000000000E+01
 p    1 1.00
 0.95774129632000E-01 0.10000000000000E+01
 
    9 0
 s    3 1.00
 0.34061341000000E+02 0.25439307208879E-01
 0.51235746000000E+01 0.19008594890375E+00
 0.11646626000000E+01 0.85244113011042E+00
 s    1 1.00
 0.32723041000000E+00 0.10000000000000E+01
 s    1 1.00
 0.10307241000000E+00 0.10000000000000E+01
 p    1 1.00
 0.80000000000000E+00 0.10000000000000E+01
 p    1 1.00
 0.95774129632000E-01 0.10000000000000E+01
 
   10 0
 s    3 1.00
 0.34061341000000E+02 0.25439307208879E-01
 0.51235746000000E+01 0.19008594890375E+00
 0.11646626000000E+01 0.85244113011042E+00
 s    1 1.00
 0.32723041000000E+00 0.10000000000000E+01
 s    1 1.00
 0.10307241000000E+00 0.10000000000000E+01
 p    1 1.00
 0.80000000000000E+00 0.10000000000000E+01
 p    1 1.00
 0.95774129632000E-01 0.10000000000000E+01
 
   11 0
 s    6 1.00
 0.19730800647000E+05 0.58626402628763E-03
 0.29578958745000E+04 0.45428820586397E-02
 0.67322133595000E+03 0.23558413450084E-01
 0.19068249494000E+03 0.94709193292923E-01
 0.62295441898000E+02 0.29719784913376E+00
 0.22654161182000E+02 0.66916246895232E+00
 s    2 1.00
 0.89791477428000E+01 0.64596683630063E+00
 0.36863002370000E+01 0.38700574393705E+00
 s    1 1.00
 0.84660076805000E+00 0.10000000000000E+01
 s    1 1.00
 0.33647133771000E+00 0.10000000000000E+01
 s    1 1.00
 0.13647653675000E+00 0.10000000000000E+01
 s    1 1.00
 0.68441605847000E-01 0.10000000000000E+01
 p    4 1.00
 0.49200380510000E+02 0.11448825101764E-01
 0.11346790537000E+02 0.78422337970864E-01
 0.34273972411000E+01 0.30818094738830E+00
 0.11785525134000E+01 0.72027196368413E+00
 p    1 1.00
 0.41642204972000E+00 0.10000000000000E+01
 p    1 1.00
 0.14260826011000E+00 0.10000000000000E+01
 d    1 1.00
 0.16540000000000E+01 0.10000000000000E+01
 d    1 1.00
 0.46900000000000E+00 0.10000000000000E+01
 d    1 1.00
 0.12829642058000E+00 0.10000000000000E+01
 f    1 1.00
 0.10930000000000E+01 0.10000000000000E+01
 
   12 0
 s    6 1.00
 0.27032382631000E+05 0.57227335211155E-03
 0.40523871392000E+04 0.44353233492995E-02
 0.92232722710000E+03 0.23020107706038E-01
 0.26124070989000E+03 0.92822490667928E-01
 0.85354641351000E+02 0.29378500009671E+00
 0.31035035245000E+02 0.67401604501641E+00
 s    2 1.00
 0.12260860728000E+02 0.63839937025506E+00
 0.49987076005000E+01 0.39534587125718E+00
 s    1 1.00
 0.11703108158000E+01 0.10000000000000E+01
 s    1 1.00
 0.46474740994000E+00 0.10000000000000E+01
 s    1 1.00
 0.18504536357000E+00 0.10000000000000E+01
 s    1 1.00
 0.70288026270000E-01 0.10000000000000E+01
 p    4 1.00
 0.63274954801000E+02 0.12018332222616E-01
 0.14627049379000E+02 0.83005421790056E-01
 0.44501223456000E+01 0.31991743925964E+00
 0.15275799647000E+01 0.70715542916104E+00
 p    1 1.00
 0.52935117943000E+00 0.10000000000000E+01
 p    1 1.00
 0.17478421270000E+00 0.10000000000000E+01
 p    1 1.00
 0.51112745706000E-01 0.10000000000000E+01
 d    1 1.00
 0.23140000000000E+01 0.10000000000000E+01
 d    1 1.00
 0.64500000000000E+00 0.10000000000000E+01
 d    1 1.00
 0.14696477366000E+00 0.10000000000000E+01
 f    1 1.00
 0.14280000000000E+01 0.10000000000000E+01
 
   13 0
 s    6 1.00
 0.27032382631000E+05 0.57227335211155E-03
 0.40523871392000E+04 0.44353233492995E-02
 0.92232722710000E+03 0.23020107706038E-01
 0.26124070989000E+03 0.92822490667928E-01
 0.85354641351000E+02 0.29378500009671E+00
 0.31035035245000E+02 0.67401604501641E+00
 s    2 1.00
 0.12260860728000E+02 0.63839937025506E+00
 0.49987076005000E+01 0.39534587125718E+00
 s    1 1.00
 0.11703108158000E+01 0.10000000000000E+01
 s    1 1.00
 0.46474740994000E+00 0.10000000000000E+01
 s    1 1.00
 0.18504536357000E+00 0.10000000000000E+01
 s    1 1.00
 0.70288026270000E-01 0.10000000000000E+01
 p    4 1.00
 0.63274954801000E+02 0.12018332222616E-01
 0.14627049379000E+02 0.83005421790056E-01
 0.44501223456000E+01 0.31991743925964E+00
 0.15275799647000E+01 0.70715542916104E+00
 p    1 1.00
 0.52935117943000E+00 0.10000000000000E+01
 p    1 1.00
 0.17478421270000E+00 0.10000000000000E+01
 p    1 1.00
 0.51112745706000E-01 0.10000000000000E+01
 d    1 1.00
 0.23140000000000E+01 0.10000000000000E+01
 d    1 1.00
 0.64500000000000E+00 0.10000000000000E+01
 d    1 1.00
 0.14696477366000E+00 0.10000000000000E+01
 f    1 1.00
 0.14280000000000E+01 0.10000000000000E+01
 
   14 0
 s    6 1.00
 0.19730800647000E+05 0.58626402628763E-03
 0.29578958745000E+04 0.45428820586397E-02
 0.67322133595000E+03 0.23558413450084E-01
 0.19068249494000E+03 0.94709193292923E-01
 0.62295441898000E+02 0.29719784913376E+00
 0.22654161182000E+02 0.66916246895232E+00
 s    2 1.00
 0.89791477428000E+01 0.64596683630063E+00
 0.36863002370000E+01 0.38700574393705E+00
 s    1 1.00
 0.84660076805000E+00 0.10000000000000E+01
 s    1 1.00
 0.33647133771000E+00 0.10000000000000E+01
 s    1 1.00
 0.13647653675000E+00 0.10000000000000E+01
 s    1 1.00
 0.68441605847000E-01 0.10000000000000E+01
 p    4 1.00
 0.49200380510000E+02 0.11448825101764E-01
 0.11346790537000E+02 0.78422337970864E-01
 0.34273972411000E+01 0.30818094738830E+00
 0.11785525134000E+01 0.72027196368413E+00
 p    1 1.00
 0.41642204972000E+00 0.10000000000000E+01
 p    1 1.00
 0.14260826011000E+00 0.10000000000000E+01
 d    1 1.00
 0.16540000000000E+01 0.10000000000000E+01
 d    1 1.00
 0.46900000000000E+00 0.10000000000000E+01
 d    1 1.00
 0.12829642058000E+00 0.10000000000000E+01
 f    1 1.00
 0.10930000000000E+01 0.10000000000000E+01
 
   15 0
 s    3 1.00
 0.34061341000000E+02 0.25439307208879E-01
 0.51235746000000E+01 0.19008594890375E+00
 0.11646626000000E+01 0.85244113011042E+00
 s    1 1.00
 0.32723041000000E+00 0.10000000000000E+01
 s    1 1.00
 0.10307241000000E+00 0.10000000000000E+01
 p    1 1.00
 0.80000000000000E+00 0.10000000000000E+01
 p    1 1.00
 0.95774129632000E-01 0.10000000000000E+01
 
   16 0
 s    3 1.00
 0.34061341000000E+02 0.25439307208879E-01
 0.51235746000000E+01 0.19008594890375E+00
 0.11646626000000E+01 0.85244113011042E+00
 s    1 1.00
 0.32723041000000E+00 0.10000000000000E+01
 s    1 1.00
 0.10307241000000E+00 0.10000000000000E+01
 p    1 1.00
 0.80000000000000E+00 0.10000000000000E+01
 p    1 1.00
 0.95774129632000E-01 0.10000000000000E+01
 
[MO]
 Sym= X
 Ene= -0.852749
 Spin= Alpha
 Occup= -0.852749
         1   -1.488902E-04
         2   -3.461376E-04
         3    9.782883E-04
         4   -2.166598E-03
         5   -1.141647E-02
         6   -9.346786E-03
         7    1.428082E-03
         8    2.074714E-04
         9    3.819658E-02
        10   -1.968668E-03
        11    3.688252E-04
        12    3.612102E-02
        13   -3.143816E-02
        14    9.034720E-03
        15    7.897482E-03
        16    2.131154E-06
        17   -1.255974E-05
        18    1.042859E-05
        19   -1.067844E-05
        20   -6.310509E-03
        21    4.251376E-03
        22   -5.603376E-04
        23    3.362072E-04
        24    2.241304E-04
        25   -5.929042E-04
        26   -1.428799E-02
        27    7.921056E-03
        28   -4.613918E-03
        29    4.301318E-03
        30    3.125994E-04
        31    9.085456E-04
        32    7.742544E-04
        33   -1.032096E-02
        34   -1.621427E-05
        35    6.190550E-06
        36   -2.228952E-04
        37    6.953951E-06
        38   -6.420879E-06
        39   -6.328816E-04
        40    1.479977E-05
        41   -1.884615E-06
        42    9.319269E-04
        43   -7.399337E-04
        44    2.317232E-05
        45    5.079729E-05
        46    1.057447E-04
        47   -2.227164E-03
        48   -4.604002E-02
        49    4.148799E-03
        50    4.269410E-04
        51    3.451581E-06
        52    2.223671E-01
        53   -2.456857E-04
        54    2.479492E-05
        55    2.302770E-01
        56   -1.479411E-02
        57   -1.402290E-03
        58    2.103450E-01
        59    3.344278E-05
        60   -3.012459E-05
        61   -3.318193E-06
        62    2.641246E-07
        63   -3.973502E-04
        64    8.326981E-07
        65    3.100887E-04
        66   -5.207852E-04
        67    2.106965E-04
        68    4.620678E-06
        69   -2.926538E-03
        70    1.430964E-06
        71    7.385390E-03
        72   -8.370053E-03
        73    9.846637E-04
        74   -2.450392E-04
        75    5.808081E-03
        76   -2.621497E-05
        77    7.230151E-06
        78    8.414035E-08
        79   -1.278955E-03
        80   -5.505668E-06
        81    6.599990E-09
        82    7.448447E-04
        83   -4.194598E-06
        84   -1.194861E-07
        85    9.710531E-04
        86    1.066722E-07
        87   -1.498653E-04
        88   -3.484941E-04
        89    9.917928E-04
        90   -2.250837E-03
        91   -9.115901E-03
        92   -9.263439E-03
        93    1.424149E-03
        94   -2.092195E-04
        95    3.823515E-02
        96   -1.963798E-03
        97   -3.530975E-04
        98    3.615696E-02
        99   -3.240841E-02
       100   -1.051896E-02
       101    8.003214E-03
       102    1.776326E-06
       103   -1.235278E-05
       104    1.057645E-05
       105    1.102169E-05
       106   -6.310266E-03
       107   -4.251597E-03
       108   -5.588108E-04
       109    3.324909E-04
       110    2.263199E-04
       111    5.887251E-04
       112   -1.428503E-02
       113   -7.920299E-03
       114   -4.892987E-03
       115    4.609476E-03
       116    2.835102E-04
       117   -7.035551E-04
       118    7.637415E-04
       119    1.028336E-02
       120   -1.642277E-05
       121   -6.178784E-06
       122   -2.230744E-04
       123    7.266126E-06
       124    6.452739E-06
       125   -6.326957E-04
       126    1.476733E-05
       127    1.836969E-06
       128    9.319814E-04
       129    7.398511E-04
       130    8.920589E-05
       131    1.906234E-04
       132    5.380714E-04
       133   -8.769486E-03
       134    2.798122E-02
       135    1.026027E-02
       136   -1.096908E-03
       137    5.841065E-04
       138   -1.464530E-01
       139   -7.625585E-03
       140    5.220372E-03
       141   -1.494070E-01
       142   -2.338566E-02
       143   -5.329933E-03
       144   -9.071623E-02
       145    1.217393E-04
       146   -1.461569E-04
       147    2.441769E-05
       148   -5.128448E-07
       149   -1.204411E-03
       150    2.930621E-03
       151    5.262771E-04
       152   -6.369112E-04
       153    1.106341E-04
       154    1.427951E-03
       155   -4.672555E-03
       156    5.009685E-03
       157    7.161554E-03
       158   -5.629145E-03
       159   -1.532409E-03
       160   -7.076962E-03
       161    3.133878E-03
       162   -1.139893E-02
       163   -1.264614E-05
       164    8.112989E-06
       165    8.020612E-04
       166   -1.587715E-05
       167    1.439059E-05
       168   -1.474886E-04
       169    3.284373E-05
       170   -2.527531E-05
       171   -9.285895E-04
       172    3.622195E-04
       173   -9.006371E-04
       174   -2.051806E-03
       175    2.029740E-03
       176    1.857724E-02
       177   -7.078659E-03
       178    9.184108E-03
       179    7.464085E-03
       180    1.815913E-06
       181   -1.154402E-01
       182    4.856071E-04
       183   -1.132819E-05
       184   -1.179409E-01
       185   -1.968355E-02
       186    1.487947E-03
       187   -1.300621E-01
       188    3.958945E-04
       189   -2.217845E-04
       190   -1.741100E-04
       191    1.031613E-07
       192    9.210823E-03
       193    6.965217E-07
       194   -1.535003E-03
       195    3.430025E-03
       196   -1.895022E-03
       197    3.159282E-06
       198    2.296231E-02
       199   -2.186342E-06
       200   -4.719927E-03
       201    5.922537E-03
       202   -1.202609E-03
       203   -2.859160E-04
       204    1.861322E-02
       205    8.616219E-06
       206    9.694117E-05
       207    3.920280E-08
       208    3.609749E-04
       209   -6.816230E-05
       210   -1.072834E-07
       211    9.388284E-04
       212   -6.189792E-05
       213    5.468735E-08
       214   -1.423127E-03
       215    4.408383E-08
       216    8.954767E-05
       217    1.912079E-04
       218    5.445643E-04
       219   -8.854329E-03
       220    3.058048E-02
       221    1.030242E-02
       222   -1.101599E-03
       223   -5.782228E-04
       224   -1.464768E-01
       225   -7.625065E-03
       226   -5.232294E-03
       227   -1.494406E-01
       228   -2.228955E-02
       229    7.057925E-03
       230   -9.064440E-02
       231    1.215531E-04
       232   -1.467454E-04
       233    2.519231E-05
       234    5.500455E-07
       235   -1.203670E-03
       236   -2.930781E-03
       237    5.264414E-04
       238   -6.384598E-04
       239    1.120184E-04
       240   -1.430144E-03
       241   -4.669251E-03
       242   -5.009893E-03
       243    6.872086E-03
       244   -5.324603E-03
       245   -1.547483E-03
       246    7.316782E-03
       247    3.147929E-03
       248    1.144901E-02
       249   -1.254271E-05
       250   -8.167959E-06
       251    8.024781E-04
       252   -1.612837E-05
       253   -1.431910E-05
       254   -1.479218E-04
       255    3.295619E-05
       256    2.527756E-05
       257   -9.287155E-04
       258   -3.622203E-04
       259   -3.204180E-04
       260   -2.071626E-04
       261   -1.466477E-02
       262   -1.133404E-05
       263   -2.058102E-06
       264    1.427458E-03
       265   -4.474446E-03
       266   -1.664597E-04
       267   -6.776421E-03
       268   -3.203491E-04
       269   -1.996125E-04
       270   -1.446487E-02
       271   -1.006855E-05
       272    1.142637E-06
       273    1.429309E-03
       274   -4.625529E-03
       275    4.262572E-05
       276   -6.752783E-03
       277   -3.271965E-04
       278   -1.940426E-03
       279    2.819168E-02
       280   -9.789256E-06
       281    8.046499E-05
       282   -6.019537E-03
       283   -1.205820E-03
       284   -2.249221E-03
       285    1.096128E-03
       286   -3.318033E-04
       287   -1.943365E-03
       288    2.857914E-02
       289   -9.510008E-06
       290   -8.055560E-05
       291   -6.021059E-03
       292   -1.083560E-03
       293    2.394439E-03
       294    1.123578E-03
       295   -3.520028E-05
       296   -8.095020E-05
       297    6.088243E-05
       298    3.499389E-04
       299   -5.470763E-03
       300    1.321049E-03
       301    3.650351E-04
       302    1.960740E-06
       303    9.618414E-03
       304    1.176743E-04
       305    2.798127E-06
       306    1.262304E-02
       307   -2.417188E-03
       308    2.640137E-05
       309    8.608800E-03
       310    1.953690E-05
       311   -2.744893E-06
       312   -1.679200E-05
       313   -6.238248E-07
       314    5.011121E-03
       315   -5.555774E-08
       316    1.036214E-05
       317    5.757067E-05
       318   -6.793281E-05
       319   -2.444356E-06
       320    1.485705E-02
       321   -3.863726E-07
       322   -9.518070E-04
       323    2.444315E-03
       324   -1.492508E-03
       325    3.975540E-05
       326    3.497709E-03
       327    5.155693E-06
       328    6.421593E-06
       329   -1.401556E-07
       330    8.582254E-05
       331   -4.541140E-06
       332    2.286985E-07
       333    7.434585E-04
       334   -4.074332E-06
       335   -4.065995E-08
       336   -8.586015E-04
       337    3.319954E-08
       338   -1.409737E-05
       339   -3.144371E-05
       340    9.370911E-06
       341    4.443493E-04
       342   -4.870809E-03
       343   -7.365616E-04
       344   -1.966026E-04
       345    1.129217E-04
       346   -9.437730E-02
       347   -2.628395E-04
       348    2.217076E-04
       349   -8.731795E-02
       350   -1.308586E-03
       351    3.676259E-04
       352   -6.894736E-02
       353   -1.245678E-04
       354    1.890482E-04
       355   -8.156347E-03
       356    3.070228E-06
       357   -4.030574E-06
       358    9.603457E-07
       359    6.601046E-07
       360   -8.140356E-05
       361    6.876306E-04
       362   -1.166827E-05
       363   -9.221318E-06
       364    2.088959E-05
       365    1.074332E-05
       366   -8.485559E-04
       367    2.216473E-03
       368   -7.834423E-05
       369    6.235749E-05
       370    1.598674E-05
       371    9.014532E-05
       372   -4.018457E-04
       373    4.395877E-04
       374    7.376486E-07
       375    1.489094E-06
       376    1.038432E-04
       377   -1.332431E-06
       378   -2.109202E-07
       379    9.341142E-05
       380    3.427718E-07
       381   -1.786909E-06
       382   -2.327317E-04
       383    1.919772E-04
       384   -1.380655E-05
       385   -3.075835E-05
       386    8.875015E-06
       387    4.396878E-04
       388   -4.881428E-03
       389   -6.902879E-04
       390   -1.570376E-04
       391   -1.441600E-04
       392   -9.437070E-02
       393   -2.269569E-04
       394   -2.480495E-04
       395   -8.731236E-02
       396   -1.244059E-03
       397   -3.908040E-04
       398   -6.893560E-02
       399   -1.021152E-04
       400   -1.955797E-04
       401   -8.160795E-03
       402    3.334957E-06
       403   -4.398474E-06
       404    1.063517E-06
       405   -7.068297E-07
       406   -8.142249E-05
       407   -6.875841E-04
       408   -1.040434E-05
       409   -1.009062E-05
       410    2.049496E-05
       411   -1.002706E-05
       412   -8.483600E-04
       413   -2.216290E-03
       414   -7.697554E-05
       415    6.236961E-05
       416    1.460593E-05
       417   -8.980211E-05
       418   -4.027194E-04
       419   -4.386494E-04
       420    7.721231E-07
       421   -1.589177E-06
       422    1.038408E-04
       423   -1.368132E-06
       424    3.347118E-07
       425    9.340339E-05
       426    3.322199E-07
       427    1.797393E-06
       428   -2.327204E-04
       429   -1.919670E-04
       430    4.161504E-03
       431    9.872936E-03
       432   -1.535667E-02
       433   -2.365831E-02
       434   -2.067059E-02
       435   -6.170692E-02
       436   -1.449827E-02
       437    9.837969E-06
       438    2.296493E-01
       439   -1.653260E-02
       440   -1.331196E-06
       441    2.272910E-01
       442   -1.412874E-02
       443   -1.168779E-04
       444    1.890001E-01
       445   -8.113959E-05
       446    3.776634E-08
       447    8.110183E-05
       448    2.111564E-07
       449    8.906753E-04
       450    3.186197E-07
       451   -2.164709E-04
       452   -1.242448E-03
       453    1.458919E-03
       454   -4.602048E-06
       455    3.846203E-03
       456    1.500722E-06
       457   -1.811504E-03
       458   -2.241416E-03
       459    4.052921E-03
       460   -1.510365E-05
       461    2.089835E-03
       462    1.259473E-05
       463   -1.219772E-04
       464    1.521299E-08
       465   -8.884726E-04
       466   -7.107524E-05
       467   -1.655538E-08
       468    4.458028E-04
       469    2.347248E-04
       470   -3.854986E-09
       471    7.462083E-04
       472    2.698379E-08
       473    8.177010E-03
       474    1.528591E-02
       475    2.557122E-02
       476   -1.899789E-03
       477   -1.601646E-03
       478    1.176079E-02
       479    1.583446E-03
       480   -3.097841E-03
       481    1.430124E-02
       482    8.170800E-03
       483    1.520176E-02
       484    2.520143E-02
       485   -1.895517E-03
       486    1.593481E-03
       487    1.176534E-02
       488    1.625757E-03
       489    3.042722E-03
       490    1.432258E-02
 Sym= X
 Ene= 0.852749
 Spin= Alpha
 Occup= 0.852749
         1    3.636345E-05
         2    8.821653E-05
         3   -3.762948E-04
         4    8.513153E-04
         5    9.417244E-02
         6   -5.200499E-03
         7   -2.599169E-04
         8   -6.252495E-05
         9   -1.365894E-01
        10    1.363579E-05
        11    1.300849E-04
        12   -1.395165E-01
        13    4.678177E-02
        14   -3.231912E-02
        15   -9.038251E-02
        16   -1.899184E-05
        17    3.166823E-06
        18    1.582501E-05
        19   -1.284550E-06
        20   -1.271684E-03
        21    1.134489E-03
        22    2.906275E-04
        23   -1.269356E-04
        24   -1.636919E-04
        25   -8.401525E-06
        26    1.724113E-03
        27    4.802061E-03
        28    1.767390E-02
        29   -1.833597E-02
        30    6.620726E-04
        31    3.641656E-03
        32    3.737195E-03
        33    1.816647E-02
        34    8.851436E-06
        35   -7.820043E-07
        36    1.323746E-04
        37   -8.777202E-06
        38   -1.124659E-06
        39    1.695946E-05
        40   -3.098245E-06
        41    2.173828E-06
        42   -1.945587E-04
        43   -1.810754E-04
        44    2.203685E-05
        45    4.192701E-05
        46    2.342608E-04
        47   -4.626607E-03
        48    1.442521E-01
        49    2.074026E-02
        50    6.461990E-05
        51   -2.720237E-07
        52    6.737284E-02
        53   -3.358169E-04
        54    9.300518E-06
        55    7.378119E-02
        56    5.370105E-02
        57    5.042893E-04
        58    4.788392E-02
        59   -3.657930E-05
        60   -1.532897E-05
        61    5.190827E-05
        62    1.199666E-07