[Molden Format]
[Title]
ADC(2) - opt by CAM-B3LYP gaussian                                              
[Atoms] AU
 c     1    6 -.12588699998532E+01 -.22834089986974E+01 -.24579904026210E-01
 c     2    6 -.25576598737242E+01 0.00000000000000E+00 -.23328905326240E-01
 c     3    6 -.12588681101271E+01 0.22834089986974E+01 -.24585573204610E-01
 c     4    6 0.13319747639512E+01 0.22851362083829E+01 -.26548998656670E-01
 c     5    6 0.26868460402678E+01 0.00000000000000E+00 -.25991529447470E-01
 c     6    6 0.13319728742250E+01 -.22851362083829E+01 -.26541439752140E-01
 h     7    1 -.22976467859220E+01 -.40383900994038E+01 -.22042001829740E-01
 h     8    1 -.22976448961959E+01 0.40383919891299E+01 -.22053340186540E-01
 h     9    1 0.23511286338561E+01 0.40572968093633E+01 -.28790213850280E-01
 h    10    1 0.23511267441300E+01 -.40572968093633E+01 -.28775096041210E-01
 n    11    7 -.52730224718766E+01 0.00000000000000E+00 -.17674844736640E-01
 o    12    8 -.63812882673039E+01 0.20269372576683E+01 -.15259774738810E-01
 o    13    8 -.63812844878516E+01 -.20269372576683E+01 -.15276782274010E-01
 n    14    7 0.52436643953234E+01 0.00000000000000E+00 -.69084844181800E-01
 h    15    1 0.62047866654136E+01 0.16174392738504E+01 0.18526851385235E+00
 h    16    1 0.62047847756874E+01 -.16174411635765E+01 0.18526473440008E+00
[GTO]
    1 0
 s    6 1.00
 0.13575349682000E+05 0.60645503603591E-03
 0.20352333680000E+04 0.46979088884982E-02
 0.46322562359000E+03 0.24332477647552E-01
 0.13120019598000E+03 0.97399968307759E-01
 0.42853015891000E+02 0.30195584253780E+00
 0.15584185766000E+02 0.66233609137875E+00
 s    2 1.00
 0.62067138508000E+01 0.65595308539952E+00
 0.25764896527000E+01 0.37585633285142E+00
 s    1 1.00
 0.57696339419000E+00 0.10000000000000E+01
 s    1 1.00
 0.22972831358000E+00 0.10000000000000E+01
 s    1 1.00
 0.95164440028000E-01 0.10000000000000E+01
 s    1 1.00
 0.48475401370000E-01 0.10000000000000E+01
 p    4 1.00
 0.34697232244000E+02 0.11327220003114E-01
 0.79582622826000E+01 0.76169659202087E-01
 0.23780826883000E+01 0.30192252202676E+00
 0.81433208183000E+00 0.72785027349547E+00
 p    1 1.00
 0.28887547253000E+00 0.10000000000000E+01
 p    1 1.00
 0.10056823671000E+00 0.10000000000000E+01
 d    1 1.00
 0.10970000000000E+01 0.10000000000000E+01
 d    1 1.00
 0.31800000000000E+00 0.10000000000000E+01
 d    1 1.00
 0.90985336424000E-01 0.10000000000000E+01
 f    1 1.00
 0.76100000000000E+00 0.10000000000000E+01
 
    2 0
 s    6 1.00
 0.13575349682000E+05 0.60645503603591E-03
 0.20352333680000E+04 0.46979088884982E-02
 0.46322562359000E+03 0.24332477647552E-01
 0.13120019598000E+03 0.97399968307759E-01
 0.42853015891000E+02 0.30195584253780E+00
 0.15584185766000E+02 0.66233609137875E+00
 s    2 1.00
 0.62067138508000E+01 0.65595308539952E+00
 0.25764896527000E+01 0.37585633285142E+00
 s    1 1.00
 0.57696339419000E+00 0.10000000000000E+01
 s    1 1.00
 0.22972831358000E+00 0.10000000000000E+01
 s    1 1.00
 0.95164440028000E-01 0.10000000000000E+01
 s    1 1.00
 0.48475401370000E-01 0.10000000000000E+01
 p    4 1.00
 0.34697232244000E+02 0.11327220003114E-01
 0.79582622826000E+01 0.76169659202087E-01
 0.23780826883000E+01 0.30192252202676E+00
 0.81433208183000E+00 0.72785027349547E+00
 p    1 1.00
 0.28887547253000E+00 0.10000000000000E+01
 p    1 1.00
 0.10056823671000E+00 0.10000000000000E+01
 d    1 1.00
 0.10970000000000E+01 0.10000000000000E+01
 d    1 1.00
 0.31800000000000E+00 0.10000000000000E+01
 d    1 1.00
 0.90985336424000E-01 0.10000000000000E+01
 f    1 1.00
 0.76100000000000E+00 0.10000000000000E+01
 
    3 0
 s    6 1.00
 0.13575349682000E+05 0.60645503603591E-03
 0.20352333680000E+04 0.46979088884982E-02
 0.46322562359000E+03 0.24332477647552E-01
 0.13120019598000E+03 0.97399968307759E-01
 0.42853015891000E+02 0.30195584253780E+00
 0.15584185766000E+02 0.66233609137875E+00
 s    2 1.00
 0.62067138508000E+01 0.65595308539952E+00
 0.25764896527000E+01 0.37585633285142E+00
 s    1 1.00
 0.57696339419000E+00 0.10000000000000E+01
 s    1 1.00
 0.22972831358000E+00 0.10000000000000E+01
 s    1 1.00
 0.95164440028000E-01 0.10000000000000E+01
 s    1 1.00
 0.48475401370000E-01 0.10000000000000E+01
 p    4 1.00
 0.34697232244000E+02 0.11327220003114E-01
 0.79582622826000E+01 0.76169659202087E-01
 0.23780826883000E+01 0.30192252202676E+00
 0.81433208183000E+00 0.72785027349547E+00
 p    1 1.00
 0.28887547253000E+00 0.10000000000000E+01
 p    1 1.00
 0.10056823671000E+00 0.10000000000000E+01
 d    1 1.00
 0.10970000000000E+01 0.10000000000000E+01
 d    1 1.00
 0.31800000000000E+00 0.10000000000000E+01
 d    1 1.00
 0.90985336424000E-01 0.10000000000000E+01
 f    1 1.00
 0.76100000000000E+00 0.10000000000000E+01
 
    4 0
 s    6 1.00
 0.13575349682000E+05 0.60645503603591E-03
 0.20352333680000E+04 0.46979088884982E-02
 0.46322562359000E+03 0.24332477647552E-01
 0.13120019598000E+03 0.97399968307759E-01
 0.42853015891000E+02 0.30195584253780E+00
 0.15584185766000E+02 0.66233609137875E+00
 s    2 1.00
 0.62067138508000E+01 0.65595308539952E+00
 0.25764896527000E+01 0.37585633285142E+00
 s    1 1.00
 0.57696339419000E+00 0.10000000000000E+01
 s    1 1.00
 0.22972831358000E+00 0.10000000000000E+01
 s    1 1.00
 0.95164440028000E-01 0.10000000000000E+01
 s    1 1.00
 0.48475401370000E-01 0.10000000000000E+01
 p    4 1.00
 0.34697232244000E+02 0.11327220003114E-01
 0.79582622826000E+01 0.76169659202087E-01
 0.23780826883000E+01 0.30192252202676E+00
 0.81433208183000E+00 0.72785027349547E+00
 p    1 1.00
 0.28887547253000E+00 0.10000000000000E+01
 p    1 1.00
 0.10056823671000E+00 0.10000000000000E+01
 d    1 1.00
 0.10970000000000E+01 0.10000000000000E+01
 d    1 1.00
 0.31800000000000E+00 0.10000000000000E+01
 d    1 1.00
 0.90985336424000E-01 0.10000000000000E+01
 f    1 1.00
 0.76100000000000E+00 0.10000000000000E+01
 
    5 0
 s    6 1.00
 0.13575349682000E+05 0.60645503603591E-03
 0.20352333680000E+04 0.46979088884982E-02
 0.46322562359000E+03 0.24332477647552E-01
 0.13120019598000E+03 0.97399968307759E-01
 0.42853015891000E+02 0.30195584253780E+00
 0.15584185766000E+02 0.66233609137875E+00
 s    2 1.00
 0.62067138508000E+01 0.65595308539952E+00
 0.25764896527000E+01 0.37585633285142E+00
 s    1 1.00
 0.57696339419000E+00 0.10000000000000E+01
 s    1 1.00
 0.22972831358000E+00 0.10000000000000E+01
 s    1 1.00
 0.95164440028000E-01 0.10000000000000E+01
 s    1 1.00
 0.48475401370000E-01 0.10000000000000E+01
 p    4 1.00
 0.34697232244000E+02 0.11327220003114E-01
 0.79582622826000E+01 0.76169659202087E-01
 0.23780826883000E+01 0.30192252202676E+00
 0.81433208183000E+00 0.72785027349547E+00
 p    1 1.00
 0.28887547253000E+00 0.10000000000000E+01
 p    1 1.00
 0.10056823671000E+00 0.10000000000000E+01
 d    1 1.00
 0.10970000000000E+01 0.10000000000000E+01
 d    1 1.00
 0.31800000000000E+00 0.10000000000000E+01
 d    1 1.00
 0.90985336424000E-01 0.10000000000000E+01
 f    1 1.00
 0.76100000000000E+00 0.10000000000000E+01
 
    6 0
 s    6 1.00
 0.13575349682000E+05 0.60645503603591E-03
 0.20352333680000E+04 0.46979088884982E-02
 0.46322562359000E+03 0.24332477647552E-01
 0.13120019598000E+03 0.97399968307759E-01
 0.42853015891000E+02 0.30195584253780E+00
 0.15584185766000E+02 0.66233609137875E+00
 s    2 1.00
 0.62067138508000E+01 0.65595308539952E+00
 0.25764896527000E+01 0.37585633285142E+00
 s    1 1.00
 0.57696339419000E+00 0.10000000000000E+01
 s    1 1.00
 0.22972831358000E+00 0.10000000000000E+01
 s    1 1.00
 0.95164440028000E-01 0.10000000000000E+01
 s    1 1.00
 0.48475401370000E-01 0.10000000000000E+01
 p    4 1.00
 0.34697232244000E+02 0.11327220003114E-01
 0.79582622826000E+01 0.76169659202087E-01
 0.23780826883000E+01 0.30192252202676E+00
 0.81433208183000E+00 0.72785027349547E+00
 p    1 1.00
 0.28887547253000E+00 0.10000000000000E+01
 p    1 1.00
 0.10056823671000E+00 0.10000000000000E+01
 d    1 1.00
 0.10970000000000E+01 0.10000000000000E+01
 d    1 1.00
 0.31800000000000E+00 0.10000000000000E+01
 d    1 1.00
 0.90985336424000E-01 0.10000000000000E+01
 f    1 1.00
 0.76100000000000E+00 0.10000000000000E+01
 
    7 0
 s    3 1.00
 0.34061341000000E+02 0.25439307208879E-01
 0.51235746000000E+01 0.19008594890375E+00
 0.11646626000000E+01 0.85244113011042E+00
 s    1 1.00
 0.32723041000000E+00 0.10000000000000E+01
 s    1 1.00
 0.10307241000000E+00 0.10000000000000E+01
 p    1 1.00
 0.80000000000000E+00 0.10000000000000E+01
 p    1 1.00
 0.95774129632000E-01 0.10000000000000E+01
 
    8 0
 s    3 1.00
 0.34061341000000E+02 0.25439307208879E-01
 0.51235746000000E+01 0.19008594890375E+00
 0.11646626000000E+01 0.85244113011042E+00
 s    1 1.00
 0.32723041000000E+00 0.10000000000000E+01
 s    1 1.00
 0.10307241000000E+00 0.10000000000000E+01
 p    1 1.00
 0.80000000000000E+00 0.10000000000000E+01
 p    1 1.00
 0.95774129632000E-01 0.10000000000000E+01
 
    9 0
 s    3 1.00
 0.34061341000000E+02 0.25439307208879E-01
 0.51235746000000E+01 0.19008594890375E+00
 0.11646626000000E+01 0.85244113011042E+00
 s    1 1.00
 0.32723041000000E+00 0.10000000000000E+01
 s    1 1.00
 0.10307241000000E+00 0.10000000000000E+01
 p    1 1.00
 0.80000000000000E+00 0.10000000000000E+01
 p    1 1.00
 0.95774129632000E-01 0.10000000000000E+01
 
   10 0
 s    3 1.00
 0.34061341000000E+02 0.25439307208879E-01
 0.51235746000000E+01 0.19008594890375E+00
 0.11646626000000E+01 0.85244113011042E+00
 s    1 1.00
 0.32723041000000E+00 0.10000000000000E+01
 s    1 1.00
 0.10307241000000E+00 0.10000000000000E+01
 p    1 1.00
 0.80000000000000E+00 0.10000000000000E+01
 p    1 1.00
 0.95774129632000E-01 0.10000000000000E+01
 
   11 0
 s    6 1.00
 0.19730800647000E+05 0.58626402628763E-03
 0.29578958745000E+04 0.45428820586397E-02
 0.67322133595000E+03 0.23558413450084E-01
 0.19068249494000E+03 0.94709193292923E-01
 0.62295441898000E+02 0.29719784913376E+00
 0.22654161182000E+02 0.66916246895232E+00
 s    2 1.00
 0.89791477428000E+01 0.64596683630063E+00
 0.36863002370000E+01 0.38700574393705E+00
 s    1 1.00
 0.84660076805000E+00 0.10000000000000E+01
 s    1 1.00
 0.33647133771000E+00 0.10000000000000E+01
 s    1 1.00
 0.13647653675000E+00 0.10000000000000E+01
 s    1 1.00
 0.68441605847000E-01 0.10000000000000E+01
 p    4 1.00
 0.49200380510000E+02 0.11448825101764E-01
 0.11346790537000E+02 0.78422337970864E-01
 0.34273972411000E+01 0.30818094738830E+00
 0.11785525134000E+01 0.72027196368413E+00
 p    1 1.00
 0.41642204972000E+00 0.10000000000000E+01
 p    1 1.00
 0.14260826011000E+00 0.10000000000000E+01
 d    1 1.00
 0.16540000000000E+01 0.10000000000000E+01
 d    1 1.00
 0.46900000000000E+00 0.10000000000000E+01
 d    1 1.00
 0.12829642058000E+00 0.10000000000000E+01
 f    1 1.00
 0.10930000000000E+01 0.10000000000000E+01
 
   12 0
 s    6 1.00
 0.27032382631000E+05 0.57227335211155E-03
 0.40523871392000E+04 0.44353233492995E-02
 0.92232722710000E+03 0.23020107706038E-01
 0.26124070989000E+03 0.92822490667928E-01
 0.85354641351000E+02 0.29378500009671E+00
 0.31035035245000E+02 0.67401604501641E+00
 s    2 1.00
 0.12260860728000E+02 0.63839937025506E+00
 0.49987076005000E+01 0.39534587125718E+00
 s    1 1.00
 0.11703108158000E+01 0.10000000000000E+01
 s    1 1.00
 0.46474740994000E+00 0.10000000000000E+01
 s    1 1.00
 0.18504536357000E+00 0.10000000000000E+01
 s    1 1.00
 0.70288026270000E-01 0.10000000000000E+01
 p    4 1.00
 0.63274954801000E+02 0.12018332222616E-01
 0.14627049379000E+02 0.83005421790056E-01
 0.44501223456000E+01 0.31991743925964E+00
 0.15275799647000E+01 0.70715542916104E+00
 p    1 1.00
 0.52935117943000E+00 0.10000000000000E+01
 p    1 1.00
 0.17478421270000E+00 0.10000000000000E+01
 p    1 1.00
 0.51112745706000E-01 0.10000000000000E+01
 d    1 1.00
 0.23140000000000E+01 0.10000000000000E+01
 d    1 1.00
 0.64500000000000E+00 0.10000000000000E+01
 d    1 1.00
 0.14696477366000E+00 0.10000000000000E+01
 f    1 1.00
 0.14280000000000E+01 0.10000000000000E+01
 
   13 0
 s    6 1.00
 0.27032382631000E+05 0.57227335211155E-03
 0.40523871392000E+04 0.44353233492995E-02
 0.92232722710000E+03 0.23020107706038E-01
 0.26124070989000E+03 0.92822490667928E-01
 0.85354641351000E+02 0.29378500009671E+00
 0.31035035245000E+02 0.67401604501641E+00
 s    2 1.00
 0.12260860728000E+02 0.63839937025506E+00
 0.49987076005000E+01 0.39534587125718E+00
 s    1 1.00
 0.11703108158000E+01 0.10000000000000E+01
 s    1 1.00
 0.46474740994000E+00 0.10000000000000E+01
 s    1 1.00
 0.18504536357000E+00 0.10000000000000E+01
 s    1 1.00
 0.70288026270000E-01 0.10000000000000E+01
 p    4 1.00
 0.63274954801000E+02 0.12018332222616E-01
 0.14627049379000E+02 0.83005421790056E-01
 0.44501223456000E+01 0.31991743925964E+00
 0.15275799647000E+01 0.70715542916104E+00
 p    1 1.00
 0.52935117943000E+00 0.10000000000000E+01
 p    1 1.00
 0.17478421270000E+00 0.10000000000000E+01
 p    1 1.00
 0.51112745706000E-01 0.10000000000000E+01
 d    1 1.00
 0.23140000000000E+01 0.10000000000000E+01
 d    1 1.00
 0.64500000000000E+00 0.10000000000000E+01
 d    1 1.00
 0.14696477366000E+00 0.10000000000000E+01
 f    1 1.00
 0.14280000000000E+01 0.10000000000000E+01
 
   14 0
 s    6 1.00
 0.19730800647000E+05 0.58626402628763E-03
 0.29578958745000E+04 0.45428820586397E-02
 0.67322133595000E+03 0.23558413450084E-01
 0.19068249494000E+03 0.94709193292923E-01
 0.62295441898000E+02 0.29719784913376E+00
 0.22654161182000E+02 0.66916246895232E+00
 s    2 1.00
 0.89791477428000E+01 0.64596683630063E+00
 0.36863002370000E+01 0.38700574393705E+00
 s    1 1.00
 0.84660076805000E+00 0.10000000000000E+01
 s    1 1.00
 0.33647133771000E+00 0.10000000000000E+01
 s    1 1.00
 0.13647653675000E+00 0.10000000000000E+01
 s    1 1.00
 0.68441605847000E-01 0.10000000000000E+01
 p    4 1.00
 0.49200380510000E+02 0.11448825101764E-01
 0.11346790537000E+02 0.78422337970864E-01
 0.34273972411000E+01 0.30818094738830E+00
 0.11785525134000E+01 0.72027196368413E+00
 p    1 1.00
 0.41642204972000E+00 0.10000000000000E+01
 p    1 1.00
 0.14260826011000E+00 0.10000000000000E+01
 d    1 1.00
 0.16540000000000E+01 0.10000000000000E+01
 d    1 1.00
 0.46900000000000E+00 0.10000000000000E+01
 d    1 1.00
 0.12829642058000E+00 0.10000000000000E+01
 f    1 1.00
 0.10930000000000E+01 0.10000000000000E+01
 
   15 0
 s    3 1.00
 0.34061341000000E+02 0.25439307208879E-01
 0.51235746000000E+01 0.19008594890375E+00
 0.11646626000000E+01 0.85244113011042E+00
 s    1 1.00
 0.32723041000000E+00 0.10000000000000E+01
 s    1 1.00
 0.10307241000000E+00 0.10000000000000E+01
 p    1 1.00
 0.80000000000000E+00 0.10000000000000E+01
 p    1 1.00
 0.95774129632000E-01 0.10000000000000E+01
 
   16 0
 s    3 1.00
 0.34061341000000E+02 0.25439307208879E-01
 0.51235746000000E+01 0.19008594890375E+00
 0.11646626000000E+01 0.85244113011042E+00
 s    1 1.00
 0.32723041000000E+00 0.10000000000000E+01
 s    1 1.00
 0.10307241000000E+00 0.10000000000000E+01
 p    1 1.00
 0.80000000000000E+00 0.10000000000000E+01
 p    1 1.00
 0.95774129632000E-01 0.10000000000000E+01
 
[MO]
 Sym= X
 Ene= -0.893812
 Spin= Alpha
 Occup= -0.893812
         1   -1.799651E-04
         2   -4.179952E-04
         3    1.141213E-03
         4   -2.322265E-03
         5   -1.020817E-02
         6   -1.063632E-02
         7    1.572870E-03
         8    1.903637E-04
         9    2.060316E-02
        10   -2.255833E-03
        11    3.922576E-04
        12    1.876774E-02
        13   -3.375926E-02
        14    9.151969E-03
        15    1.551717E-03
        16    3.606852E-06
        17   -1.365671E-05
        18    1.004986E-05
        19   -1.374164E-05
        20   -6.272704E-03
        21    3.712952E-03
        22   -6.180068E-04
        23    3.750497E-04
        24    2.429571E-04
        25   -6.828317E-04
        26   -1.412896E-02
        27    7.029130E-03
        28   -4.834369E-03
        29    4.511733E-03
        30    3.226362E-04
        31    1.133940E-03
        32    1.712722E-03
        33   -1.079803E-02
        34   -1.789465E-05
        35    6.900999E-06
        36   -7.728850E-05
        37    6.819314E-06
        38   -7.212099E-06
        39   -7.121527E-04
        40    1.718887E-05
        41   -2.046562E-06
        42    8.158461E-04
        43   -6.804268E-04
        44    2.175169E-05
        45    4.721870E-05
        46    1.471196E-04
        47   -2.651416E-03
        48   -4.763384E-02
        49    5.330344E-03
        50    3.990000E-04
        51    8.627987E-07
        52    1.972714E-01
        53   -4.008438E-04
        54    2.105491E-05
        55    2.048399E-01
        56   -1.590911E-02
        57   -1.537122E-03
        58    2.009793E-01
        59    3.482662E-05
        60   -3.255207E-05
        61   -2.274557E-06
        62    1.218282E-07
        63   -8.670523E-04
        64    1.136857E-06
        65    3.619812E-04
        66   -5.990017E-04
        67    2.370205E-04
        68    4.602097E-06
        69   -3.671329E-03
        70    1.906177E-06
        71    8.677201E-03
        72   -9.715022E-03
        73    1.037821E-03
        74   -2.595727E-04
        75    4.818324E-03
        76   -2.811900E-05
        77    7.489203E-06
        78    4.421793E-08
        79   -1.094864E-03
        80   -6.810121E-06
        81    3.710814E-08
        82    6.705482E-04
        83   -3.237699E-06
        84   -9.643272E-08
        85    7.983658E-04
        86    1.373370E-07
        87   -1.804743E-04
        88   -4.192784E-04
        89    1.152428E-03
        90   -2.407308E-03
        91   -7.631563E-03
        92   -1.056215E-02
        93    1.573095E-03
        94   -1.902559E-04
        95    2.065715E-02
        96   -2.246206E-03
        97   -3.766749E-04
        98    1.881901E-02
        99   -3.478813E-02
       100   -1.077039E-02
       101    1.675525E-03
       102    3.341045E-06
       103   -1.357333E-05
       104    1.023228E-05
       105    1.393506E-05
       106   -6.272071E-03
       107   -3.713194E-03
       108   -6.151479E-04
       109    3.704061E-04
       110    2.447419E-04
       111    6.790211E-04
       112   -1.412535E-02
       113   -7.028641E-03
       114   -5.126666E-03
       115    4.834808E-03
       116    2.918574E-04
       117   -9.142882E-04
       118    1.701749E-03
       119    1.075247E-02
       120   -1.810283E-05
       121   -6.873445E-06
       122   -7.756309E-05
       123    7.141130E-06
       124    7.214886E-06
       125   -7.118591E-04
       126    1.714637E-05
       127    2.006808E-06
       128    8.159209E-04
       129    6.803637E-04
       130    1.198480E-04
       131    2.589869E-04
       132    5.421469E-04
       133   -1.002085E-02
       134    2.781938E-02
       135    1.184452E-02
       136   -1.264080E-03
       137    6.821218E-04
       138   -1.535497E-01
       139   -8.648624E-03
       140    5.921963E-03
       141   -1.564477E-01
       142   -2.422330E-02
       143   -6.658790E-03
       144   -9.338903E-02
       145    1.422804E-04
       146   -1.719184E-04
       147    2.963795E-05
       148   -4.211773E-06
       149   -6.988442E-04
       150    2.900899E-03
       151    5.773576E-04
       152   -7.137451E-04
       153    1.363875E-04
       154    1.618117E-03
       155   -3.802333E-03
       156    4.883988E-03
       157    7.979728E-03
       158   -6.316264E-03
       159   -1.663464E-03
       160   -8.053170E-03
       161    3.578600E-03
       162   -1.276224E-02
       163   -1.374673E-05
       164    9.724784E-06
       165    8.603040E-04
       166   -1.878987E-05
       167    1.555114E-05
       168   -2.262908E-04
       169    3.723305E-05
       170   -2.859831E-05
       171   -9.279281E-04
       172    3.222546E-04
       173   -1.084130E-03
       174   -2.469706E-03
       175    2.568208E-03
       176    2.065029E-02
       177   -1.389760E-02
       178    8.940519E-03
       179    8.804948E-03
       180    2.198766E-06
       181   -1.075163E-01
       182    5.745442E-04
       183   -1.301033E-05
       184   -1.103372E-01
       185   -2.391542E-02
       186    1.590589E-03
       187   -1.327108E-01
       188    4.586420E-04
       189   -2.581737E-04
       190   -2.004683E-04
       191    9.130439E-08
       192    1.009221E-02
       193    9.944303E-07
       194   -1.778449E-03
       195    3.898819E-03
       196   -2.120370E-03
       197    3.704098E-06
       198    2.483673E-02
       199   -1.503238E-06
       200   -5.471975E-03
       201    6.681704E-03
       202   -1.209728E-03
       203   -3.088763E-04
       204    1.933887E-02
       205    1.246856E-05
       206    1.116324E-04
       207    2.919673E-08
       208    2.801768E-04
       209   -7.822974E-05
       210   -1.036629E-07
       211    1.092736E-03
       212   -7.154078E-05
       213    6.449136E-08
       214   -1.468633E-03
       215   -6.175480E-09
       216    1.202003E-04
       217    2.595996E-04
       218    5.487170E-04
       219   -1.010813E-02
       220    3.067669E-02
       221    1.187793E-02
       222   -1.265669E-03
       223   -6.783129E-04
       224   -1.535891E-01
       225   -8.648895E-03
       226   -5.938204E-03
       227   -1.564972E-01
       228   -2.308704E-02
       229    8.516081E-03
       230   -9.331185E-02
       231    1.420052E-04
       232   -1.724270E-04
       233    3.042180E-05
       234    4.142555E-06
       235   -6.976933E-04
       236   -2.901115E-03
       237    5.782842E-04
       238   -7.160320E-04
       239    1.377477E-04
       240   -1.620682E-03
       241   -3.798465E-03
       242   -4.884089E-03
       243    7.671593E-03
       244   -5.992087E-03
       245   -1.679505E-03
       246    8.302924E-03
       247    3.596250E-03
       248    1.281833E-02
       249   -1.363500E-05
       250   -9.794753E-06
       251    8.608233E-04
       252   -1.905799E-05
       253   -1.547335E-05
       254   -2.268387E-04
       255    3.735126E-05
       256    2.861439E-05
       257   -9.280771E-04
       258   -3.222597E-04
       259   -3.364590E-04
       260   -2.077612E-04
       261   -1.674390E-02
       262   -1.226601E-05
       263    4.474202E-07
       264    8.051100E-04
       265   -4.988843E-03
       266   -3.186589E-04
       267   -6.904938E-03
       268   -3.365350E-04
       269   -1.993024E-04
       270   -1.651946E-02
       271   -1.097328E-05
       272   -1.327026E-06
       273    8.076326E-04
       274   -5.145558E-03
       275    1.895449E-04
       276   -6.874760E-03
       277   -4.090404E-04
       278   -2.254310E-03
       279    3.229150E-02
       280   -9.218542E-06
       281    9.535951E-05
       282   -6.223677E-03
       283   -1.778343E-03
       284   -2.528671E-03
       285    2.160802E-03
       286   -4.118411E-04
       287   -2.253249E-03
       288    3.270303E-02
       289   -8.986925E-06
       290   -9.514500E-05
       291   -6.225861E-03
       292   -1.649227E-03
       293    2.682657E-03
       294    2.190036E-03
       295   -4.082223E-05
       296   -9.427744E-05
       297    7.517899E-05
       298    3.969850E-04
       299   -6.642964E-03
       300    7.820427E-04
       301    3.935073E-04
       302   -1.177896E-07
       303    2.096652E-02
       304    1.040361E-04
       305    6.276834E-07
       306    2.339014E-02
       307   -2.938600E-03
       308    3.232134E-05
       309    9.726940E-03
       310    1.793135E-05
       311   -3.452409E-06
       312   -1.447894E-05
       313   -6.013794E-08
       314    4.369427E-03
       315   -3.748402E-08
       316   -3.805952E-06
       317    6.658099E-05
       318   -6.277503E-05
       319   -7.581092E-07
       320    1.316053E-02
       321   -3.094280E-07
       322   -9.692913E-04
       323    2.690683E-03
       324   -1.721392E-03
       325    4.440866E-05
       326    2.986274E-03
       327    4.505977E-06
       328    6.525130E-06
       329   -3.522624E-09
       330    8.658707E-06
       331   -4.724532E-06
       332    3.172755E-08
       333    6.864123E-04
       334   -4.029848E-06
       335   -2.700145E-08
       336   -6.980292E-04
       337    3.743226E-08
       338   -1.206955E-05
       339   -2.606369E-05
       340   -3.705549E-06
       341    4.797820E-04
       342   -5.524188E-03
       343   -8.465736E-04
       344   -1.609076E-04
       345    1.089953E-04
       346   -7.833701E-02
       347   -2.461183E-04
       348    2.347179E-04
       349   -7.265847E-02
       350   -1.362729E-03
       351    4.583542E-04
       352   -5.950175E-02
       353   -1.556019E-04
       354    1.965047E-04
       355   -7.454563E-03
       356    3.438902E-06
       357   -3.923526E-06
       358    4.846238E-07
       359    6.973867E-09
       360    1.584703E-05
       361    4.581231E-04
       362   -1.167442E-05
       363   -9.672013E-06
       364    2.134643E-05
       365    1.029287E-05
       366   -4.948432E-04
       367    1.535912E-03
       368   -7.720298E-05
       369    5.402876E-05
       370    2.317421E-05
       371    8.157909E-05
       372   -1.115991E-04
       373    2.425785E-04
       374    6.968675E-07
       375    1.513998E-06
       376    6.281439E-05
       377   -1.256407E-06
       378   -3.809828E-07
       379    8.258284E-05
       380    3.214612E-07
       381   -1.650259E-06
       382   -1.668572E-04
       383    1.321344E-04
       384   -1.187801E-05
       385   -2.563272E-05
       386   -3.867355E-06
       387    4.750540E-04
       388   -5.539437E-03
       389   -8.055627E-04
       390   -1.533621E-04
       391   -1.127009E-04
       392   -7.833105E-02
       393   -2.396420E-04
       394   -2.372401E-04
       395   -7.265325E-02
       396   -1.316207E-03
       397   -4.654367E-04
       398   -5.949199E-02
       399   -1.369827E-04
       400   -2.014182E-04
       401   -7.459776E-03
       402    3.435657E-06
       403   -3.956096E-06
       404    5.204391E-07
       405   -5.131918E-08
       406    1.582280E-05
       407   -4.580830E-04
       408   -1.111115E-05
       409   -9.800075E-06
       410    2.091123E-05
       411   -9.764806E-06
       412   -4.946911E-04
       413   -1.535732E-03
       414   -7.686245E-05
       415    5.500445E-05
       416    2.185801E-05
       417   -8.051332E-05
       418   -1.126283E-04
       419   -2.420046E-04
       420    7.003992E-07
       421   -1.522638E-06
       422    6.281444E-05
       423   -1.245179E-06
       424    4.003275E-07
       425    8.257339E-05
       426    3.054953E-07
       427    1.642506E-06
       428   -1.668478E-04
       429   -1.321259E-04
       430    4.738242E-03
       431    1.123724E-02
       432   -1.744913E-02
       433   -2.694646E-02
       434   -2.141181E-02
       435   -6.525082E-02
       436   -1.666856E-02
       437    1.244881E-05
       438    2.590015E-01
       439   -1.901057E-02
       440   -1.655239E-07
       441    2.558820E-01
       442   -1.746811E-02
       443   -1.306531E-04
       444    2.088970E-01
       445   -9.293245E-05
       446   -1.610996E-05
       447    1.090424E-04
       448    2.746741E-07
       449    6.935901E-04
       450    3.835811E-07
       451   -2.057565E-04
       452   -1.476879E-03
       453    1.682636E-03
       454   -5.129479E-06
       455    3.466722E-03
       456    1.696231E-06
       457   -1.635635E-03
       458   -2.891374E-03
       459    4.527009E-03
       460   -1.685240E-05
       461    2.098138E-03
       462    1.355325E-05
       463   -1.321593E-04
       464    2.159192E-08
       465   -1.041187E-03
       466   -8.470023E-05
       467   -1.773650E-08
       468    5.725492E-04
       469    2.620105E-04
       470   -1.123210E-08
       471    8.243495E-04
       472    2.617836E-08
       473    8.859759E-03
       474    1.690764E-02
       475    2.840738E-02
       476   -2.167361E-03
       477   -1.795431E-03
       478    1.313043E-02
       479    1.246541E-03
       480   -3.329486E-03
       481    1.498901E-02
       482    8.851532E-03
       483    1.681120E-02
       484    2.799629E-02
       485   -2.162365E-03
       486    1.786133E-03
       487    1.313546E-02
       488    1.293598E-03
       489    3.267500E-03
       490    1.501326E-02
 Sym= X
 Ene= 0.893812
 Spin= Alpha
 Occup= 0.893812
         1    6.153392E-03
         2    1.334463E-02
         3   -3.103051E-03
         4   -2.884089E-01
         5   -8.693046E+00
         6    4.262007E-01
         7    1.838406E-02
         8    5.007814E-02
         9    1.236863E-03
        10    8.600161E-02
        11    7.380238E-03
        12    5.446434E-04
        13    3.912378E+00
        14   -3.830057E+00
        15    6.020168E-03
        16   -9.368317E-04
        17    8.181049E-05
        18    8.550213E-04
        19    1.938203E-03
        20   -6.105463E-05
        21    1.743213E-05
        22    1.541579E-02
        23   -2.123150E-02
        24    5.815716E-03
        25    2.026250E-02
        26   -2.695994E-04
        27   -1.781772E-04
        28    1.519027E+00
        29   -1.443588E+00
        30   -7.543952E-02
        31    1.037302E+00
        32    1.651040E-03
        33    4.154831E-03
        34    8.113449E-05
        35   -2.711738E-04
        36    1.299472E-05
        37    7.007239E-04
        38    4.794517E-04
        39   -2.401436E-05
        40   -8.095773E-04
        41   -1.156338E-04
        42    6.580116E-06
        43   -2.712400E-06
        44    1.181447E-07
        45    6.335217E-07
        46   -4.923502E-06
        47    8.758703E-05
        48    2.135329E-03
        49   -8.321774E-04
        50    1.300877E-05
        51    1.393674E-02
        52    4.972290E-06
        53   -9.536975E-06
        54   -1.024326E-01
        55    1.004538E-06
        56   -1.943675E-04
        57   -8.772420E+00
        58    1.041994E-04
        59    2.559174E-06
        60   -4.957566E-07
        61   -2.063417E-06
        62   -1.851637E-03