[Molden Format]
[Title]
ADC(2) - opt by CAM-B3LYP gaussian                                              
[Atoms] AU
 c     1    6 -.12588699998532E+01 -.22834089986974E+01 -.24579904026210E-01
 c     2    6 -.25576598737242E+01 0.00000000000000E+00 -.23328905326240E-01
 c     3    6 -.12588681101271E+01 0.22834089986974E+01 -.24585573204610E-01
 c     4    6 0.13319747639512E+01 0.22851362083829E+01 -.26548998656670E-01
 c     5    6 0.26868460402678E+01 0.00000000000000E+00 -.25991529447470E-01
 c     6    6 0.13319728742250E+01 -.22851362083829E+01 -.26541439752140E-01
 h     7    1 -.22976467859220E+01 -.40383900994038E+01 -.22042001829740E-01
 h     8    1 -.22976448961959E+01 0.40383919891299E+01 -.22053340186540E-01
 h     9    1 0.23511286338561E+01 0.40572968093633E+01 -.28790213850280E-01
 h    10    1 0.23511267441300E+01 -.40572968093633E+01 -.28775096041210E-01
 n    11    7 -.52730224718766E+01 0.00000000000000E+00 -.17674844736640E-01
 o    12    8 -.63812882673039E+01 0.20269372576683E+01 -.15259774738810E-01
 o    13    8 -.63812844878516E+01 -.20269372576683E+01 -.15276782274010E-01
 n    14    7 0.52436643953234E+01 0.00000000000000E+00 -.69084844181800E-01
 h    15    1 0.62047866654136E+01 0.16174392738504E+01 0.18526851385235E+00
 h    16    1 0.62047847756874E+01 -.16174411635765E+01 0.18526473440008E+00
[GTO]
    1 0
 s    6 1.00
 0.13575349682000E+05 0.60645503603591E-03
 0.20352333680000E+04 0.46979088884982E-02
 0.46322562359000E+03 0.24332477647552E-01
 0.13120019598000E+03 0.97399968307759E-01
 0.42853015891000E+02 0.30195584253780E+00
 0.15584185766000E+02 0.66233609137875E+00
 s    2 1.00
 0.62067138508000E+01 0.65595308539952E+00
 0.25764896527000E+01 0.37585633285142E+00
 s    1 1.00
 0.57696339419000E+00 0.10000000000000E+01
 s    1 1.00
 0.22972831358000E+00 0.10000000000000E+01
 s    1 1.00
 0.95164440028000E-01 0.10000000000000E+01
 s    1 1.00
 0.48475401370000E-01 0.10000000000000E+01
 p    4 1.00
 0.34697232244000E+02 0.11327220003114E-01
 0.79582622826000E+01 0.76169659202087E-01
 0.23780826883000E+01 0.30192252202676E+00
 0.81433208183000E+00 0.72785027349547E+00
 p    1 1.00
 0.28887547253000E+00 0.10000000000000E+01
 p    1 1.00
 0.10056823671000E+00 0.10000000000000E+01
 d    1 1.00
 0.10970000000000E+01 0.10000000000000E+01
 d    1 1.00
 0.31800000000000E+00 0.10000000000000E+01
 d    1 1.00
 0.90985336424000E-01 0.10000000000000E+01
 f    1 1.00
 0.76100000000000E+00 0.10000000000000E+01
 
    2 0
 s    6 1.00
 0.13575349682000E+05 0.60645503603591E-03
 0.20352333680000E+04 0.46979088884982E-02
 0.46322562359000E+03 0.24332477647552E-01
 0.13120019598000E+03 0.97399968307759E-01
 0.42853015891000E+02 0.30195584253780E+00
 0.15584185766000E+02 0.66233609137875E+00
 s    2 1.00
 0.62067138508000E+01 0.65595308539952E+00
 0.25764896527000E+01 0.37585633285142E+00
 s    1 1.00
 0.57696339419000E+00 0.10000000000000E+01
 s    1 1.00
 0.22972831358000E+00 0.10000000000000E+01
 s    1 1.00
 0.95164440028000E-01 0.10000000000000E+01
 s    1 1.00
 0.48475401370000E-01 0.10000000000000E+01
 p    4 1.00
 0.34697232244000E+02 0.11327220003114E-01
 0.79582622826000E+01 0.76169659202087E-01
 0.23780826883000E+01 0.30192252202676E+00
 0.81433208183000E+00 0.72785027349547E+00
 p    1 1.00
 0.28887547253000E+00 0.10000000000000E+01
 p    1 1.00
 0.10056823671000E+00 0.10000000000000E+01
 d    1 1.00
 0.10970000000000E+01 0.10000000000000E+01
 d    1 1.00
 0.31800000000000E+00 0.10000000000000E+01
 d    1 1.00
 0.90985336424000E-01 0.10000000000000E+01
 f    1 1.00
 0.76100000000000E+00 0.10000000000000E+01
 
    3 0
 s    6 1.00
 0.13575349682000E+05 0.60645503603591E-03
 0.20352333680000E+04 0.46979088884982E-02
 0.46322562359000E+03 0.24332477647552E-01
 0.13120019598000E+03 0.97399968307759E-01
 0.42853015891000E+02 0.30195584253780E+00
 0.15584185766000E+02 0.66233609137875E+00
 s    2 1.00
 0.62067138508000E+01 0.65595308539952E+00
 0.25764896527000E+01 0.37585633285142E+00
 s    1 1.00
 0.57696339419000E+00 0.10000000000000E+01
 s    1 1.00
 0.22972831358000E+00 0.10000000000000E+01
 s    1 1.00
 0.95164440028000E-01 0.10000000000000E+01
 s    1 1.00
 0.48475401370000E-01 0.10000000000000E+01
 p    4 1.00
 0.34697232244000E+02 0.11327220003114E-01
 0.79582622826000E+01 0.76169659202087E-01
 0.23780826883000E+01 0.30192252202676E+00
 0.81433208183000E+00 0.72785027349547E+00
 p    1 1.00
 0.28887547253000E+00 0.10000000000000E+01
 p    1 1.00
 0.10056823671000E+00 0.10000000000000E+01
 d    1 1.00
 0.10970000000000E+01 0.10000000000000E+01
 d    1 1.00
 0.31800000000000E+00 0.10000000000000E+01
 d    1 1.00
 0.90985336424000E-01 0.10000000000000E+01
 f    1 1.00
 0.76100000000000E+00 0.10000000000000E+01
 
    4 0
 s    6 1.00
 0.13575349682000E+05 0.60645503603591E-03
 0.20352333680000E+04 0.46979088884982E-02
 0.46322562359000E+03 0.24332477647552E-01
 0.13120019598000E+03 0.97399968307759E-01
 0.42853015891000E+02 0.30195584253780E+00
 0.15584185766000E+02 0.66233609137875E+00
 s    2 1.00
 0.62067138508000E+01 0.65595308539952E+00
 0.25764896527000E+01 0.37585633285142E+00
 s    1 1.00
 0.57696339419000E+00 0.10000000000000E+01
 s    1 1.00
 0.22972831358000E+00 0.10000000000000E+01
 s    1 1.00
 0.95164440028000E-01 0.10000000000000E+01
 s    1 1.00
 0.48475401370000E-01 0.10000000000000E+01
 p    4 1.00
 0.34697232244000E+02 0.11327220003114E-01
 0.79582622826000E+01 0.76169659202087E-01
 0.23780826883000E+01 0.30192252202676E+00
 0.81433208183000E+00 0.72785027349547E+00
 p    1 1.00
 0.28887547253000E+00 0.10000000000000E+01
 p    1 1.00
 0.10056823671000E+00 0.10000000000000E+01
 d    1 1.00
 0.10970000000000E+01 0.10000000000000E+01
 d    1 1.00
 0.31800000000000E+00 0.10000000000000E+01
 d    1 1.00
 0.90985336424000E-01 0.10000000000000E+01
 f    1 1.00
 0.76100000000000E+00 0.10000000000000E+01
 
    5 0
 s    6 1.00
 0.13575349682000E+05 0.60645503603591E-03
 0.20352333680000E+04 0.46979088884982E-02
 0.46322562359000E+03 0.24332477647552E-01
 0.13120019598000E+03 0.97399968307759E-01
 0.42853015891000E+02 0.30195584253780E+00
 0.15584185766000E+02 0.66233609137875E+00
 s    2 1.00
 0.62067138508000E+01 0.65595308539952E+00
 0.25764896527000E+01 0.37585633285142E+00
 s    1 1.00
 0.57696339419000E+00 0.10000000000000E+01
 s    1 1.00
 0.22972831358000E+00 0.10000000000000E+01
 s    1 1.00
 0.95164440028000E-01 0.10000000000000E+01
 s    1 1.00
 0.48475401370000E-01 0.10000000000000E+01
 p    4 1.00
 0.34697232244000E+02 0.11327220003114E-01
 0.79582622826000E+01 0.76169659202087E-01
 0.23780826883000E+01 0.30192252202676E+00
 0.81433208183000E+00 0.72785027349547E+00
 p    1 1.00
 0.28887547253000E+00 0.10000000000000E+01
 p    1 1.00
 0.10056823671000E+00 0.10000000000000E+01
 d    1 1.00
 0.10970000000000E+01 0.10000000000000E+01
 d    1 1.00
 0.31800000000000E+00 0.10000000000000E+01
 d    1 1.00
 0.90985336424000E-01 0.10000000000000E+01
 f    1 1.00
 0.76100000000000E+00 0.10000000000000E+01
 
    6 0
 s    6 1.00
 0.13575349682000E+05 0.60645503603591E-03
 0.20352333680000E+04 0.46979088884982E-02
 0.46322562359000E+03 0.24332477647552E-01
 0.13120019598000E+03 0.97399968307759E-01
 0.42853015891000E+02 0.30195584253780E+00
 0.15584185766000E+02 0.66233609137875E+00
 s    2 1.00
 0.62067138508000E+01 0.65595308539952E+00
 0.25764896527000E+01 0.37585633285142E+00
 s    1 1.00
 0.57696339419000E+00 0.10000000000000E+01
 s    1 1.00
 0.22972831358000E+00 0.10000000000000E+01
 s    1 1.00
 0.95164440028000E-01 0.10000000000000E+01
 s    1 1.00
 0.48475401370000E-01 0.10000000000000E+01
 p    4 1.00
 0.34697232244000E+02 0.11327220003114E-01
 0.79582622826000E+01 0.76169659202087E-01
 0.23780826883000E+01 0.30192252202676E+00
 0.81433208183000E+00 0.72785027349547E+00
 p    1 1.00
 0.28887547253000E+00 0.10000000000000E+01
 p    1 1.00
 0.10056823671000E+00 0.10000000000000E+01
 d    1 1.00
 0.10970000000000E+01 0.10000000000000E+01
 d    1 1.00
 0.31800000000000E+00 0.10000000000000E+01
 d    1 1.00
 0.90985336424000E-01 0.10000000000000E+01
 f    1 1.00
 0.76100000000000E+00 0.10000000000000E+01
 
    7 0
 s    3 1.00
 0.34061341000000E+02 0.25439307208879E-01
 0.51235746000000E+01 0.19008594890375E+00
 0.11646626000000E+01 0.85244113011042E+00
 s    1 1.00
 0.32723041000000E+00 0.10000000000000E+01
 s    1 1.00
 0.10307241000000E+00 0.10000000000000E+01
 p    1 1.00
 0.80000000000000E+00 0.10000000000000E+01
 p    1 1.00
 0.95774129632000E-01 0.10000000000000E+01
 
    8 0
 s    3 1.00
 0.34061341000000E+02 0.25439307208879E-01
 0.51235746000000E+01 0.19008594890375E+00
 0.11646626000000E+01 0.85244113011042E+00
 s    1 1.00
 0.32723041000000E+00 0.10000000000000E+01
 s    1 1.00
 0.10307241000000E+00 0.10000000000000E+01
 p    1 1.00
 0.80000000000000E+00 0.10000000000000E+01
 p    1 1.00
 0.95774129632000E-01 0.10000000000000E+01
 
    9 0
 s    3 1.00
 0.34061341000000E+02 0.25439307208879E-01
 0.51235746000000E+01 0.19008594890375E+00
 0.11646626000000E+01 0.85244113011042E+00
 s    1 1.00
 0.32723041000000E+00 0.10000000000000E+01
 s    1 1.00
 0.10307241000000E+00 0.10000000000000E+01
 p    1 1.00
 0.80000000000000E+00 0.10000000000000E+01
 p    1 1.00
 0.95774129632000E-01 0.10000000000000E+01
 
   10 0
 s    3 1.00
 0.34061341000000E+02 0.25439307208879E-01
 0.51235746000000E+01 0.19008594890375E+00
 0.11646626000000E+01 0.85244113011042E+00
 s    1 1.00
 0.32723041000000E+00 0.10000000000000E+01
 s    1 1.00
 0.10307241000000E+00 0.10000000000000E+01
 p    1 1.00
 0.80000000000000E+00 0.10000000000000E+01
 p    1 1.00
 0.95774129632000E-01 0.10000000000000E+01
 
   11 0
 s    6 1.00
 0.19730800647000E+05 0.58626402628763E-03
 0.29578958745000E+04 0.45428820586397E-02
 0.67322133595000E+03 0.23558413450084E-01
 0.19068249494000E+03 0.94709193292923E-01
 0.62295441898000E+02 0.29719784913376E+00
 0.22654161182000E+02 0.66916246895232E+00
 s    2 1.00
 0.89791477428000E+01 0.64596683630063E+00
 0.36863002370000E+01 0.38700574393705E+00
 s    1 1.00
 0.84660076805000E+00 0.10000000000000E+01
 s    1 1.00
 0.33647133771000E+00 0.10000000000000E+01
 s    1 1.00
 0.13647653675000E+00 0.10000000000000E+01
 s    1 1.00
 0.68441605847000E-01 0.10000000000000E+01
 p    4 1.00
 0.49200380510000E+02 0.11448825101764E-01
 0.11346790537000E+02 0.78422337970864E-01
 0.34273972411000E+01 0.30818094738830E+00
 0.11785525134000E+01 0.72027196368413E+00
 p    1 1.00
 0.41642204972000E+00 0.10000000000000E+01
 p    1 1.00
 0.14260826011000E+00 0.10000000000000E+01
 d    1 1.00
 0.16540000000000E+01 0.10000000000000E+01
 d    1 1.00
 0.46900000000000E+00 0.10000000000000E+01
 d    1 1.00
 0.12829642058000E+00 0.10000000000000E+01
 f    1 1.00
 0.10930000000000E+01 0.10000000000000E+01
 
   12 0
 s    6 1.00
 0.27032382631000E+05 0.57227335211155E-03
 0.40523871392000E+04 0.44353233492995E-02
 0.92232722710000E+03 0.23020107706038E-01
 0.26124070989000E+03 0.92822490667928E-01
 0.85354641351000E+02 0.29378500009671E+00
 0.31035035245000E+02 0.67401604501641E+00
 s    2 1.00
 0.12260860728000E+02 0.63839937025506E+00
 0.49987076005000E+01 0.39534587125718E+00
 s    1 1.00
 0.11703108158000E+01 0.10000000000000E+01
 s    1 1.00
 0.46474740994000E+00 0.10000000000000E+01
 s    1 1.00
 0.18504536357000E+00 0.10000000000000E+01
 s    1 1.00
 0.70288026270000E-01 0.10000000000000E+01
 p    4 1.00
 0.63274954801000E+02 0.12018332222616E-01
 0.14627049379000E+02 0.83005421790056E-01
 0.44501223456000E+01 0.31991743925964E+00
 0.15275799647000E+01 0.70715542916104E+00
 p    1 1.00
 0.52935117943000E+00 0.10000000000000E+01
 p    1 1.00
 0.17478421270000E+00 0.10000000000000E+01
 p    1 1.00
 0.51112745706000E-01 0.10000000000000E+01
 d    1 1.00
 0.23140000000000E+01 0.10000000000000E+01
 d    1 1.00
 0.64500000000000E+00 0.10000000000000E+01
 d    1 1.00
 0.14696477366000E+00 0.10000000000000E+01
 f    1 1.00
 0.14280000000000E+01 0.10000000000000E+01
 
   13 0
 s    6 1.00
 0.27032382631000E+05 0.57227335211155E-03
 0.40523871392000E+04 0.44353233492995E-02
 0.92232722710000E+03 0.23020107706038E-01
 0.26124070989000E+03 0.92822490667928E-01
 0.85354641351000E+02 0.29378500009671E+00
 0.31035035245000E+02 0.67401604501641E+00
 s    2 1.00
 0.12260860728000E+02 0.63839937025506E+00
 0.49987076005000E+01 0.39534587125718E+00
 s    1 1.00
 0.11703108158000E+01 0.10000000000000E+01
 s    1 1.00
 0.46474740994000E+00 0.10000000000000E+01
 s    1 1.00
 0.18504536357000E+00 0.10000000000000E+01
 s    1 1.00
 0.70288026270000E-01 0.10000000000000E+01
 p    4 1.00
 0.63274954801000E+02 0.12018332222616E-01
 0.14627049379000E+02 0.83005421790056E-01
 0.44501223456000E+01 0.31991743925964E+00
 0.15275799647000E+01 0.70715542916104E+00
 p    1 1.00
 0.52935117943000E+00 0.10000000000000E+01
 p    1 1.00
 0.17478421270000E+00 0.10000000000000E+01
 p    1 1.00
 0.51112745706000E-01 0.10000000000000E+01
 d    1 1.00
 0.23140000000000E+01 0.10000000000000E+01
 d    1 1.00
 0.64500000000000E+00 0.10000000000000E+01
 d    1 1.00
 0.14696477366000E+00 0.10000000000000E+01
 f    1 1.00
 0.14280000000000E+01 0.10000000000000E+01
 
   14 0
 s    6 1.00
 0.19730800647000E+05 0.58626402628763E-03
 0.29578958745000E+04 0.45428820586397E-02
 0.67322133595000E+03 0.23558413450084E-01
 0.19068249494000E+03 0.94709193292923E-01
 0.62295441898000E+02 0.29719784913376E+00
 0.22654161182000E+02 0.66916246895232E+00
 s    2 1.00
 0.89791477428000E+01 0.64596683630063E+00
 0.36863002370000E+01 0.38700574393705E+00
 s    1 1.00
 0.84660076805000E+00 0.10000000000000E+01
 s    1 1.00
 0.33647133771000E+00 0.10000000000000E+01
 s    1 1.00
 0.13647653675000E+00 0.10000000000000E+01
 s    1 1.00
 0.68441605847000E-01 0.10000000000000E+01
 p    4 1.00
 0.49200380510000E+02 0.11448825101764E-01
 0.11346790537000E+02 0.78422337970864E-01
 0.34273972411000E+01 0.30818094738830E+00
 0.11785525134000E+01 0.72027196368413E+00
 p    1 1.00
 0.41642204972000E+00 0.10000000000000E+01
 p    1 1.00
 0.14260826011000E+00 0.10000000000000E+01
 d    1 1.00
 0.16540000000000E+01 0.10000000000000E+01
 d    1 1.00
 0.46900000000000E+00 0.10000000000000E+01
 d    1 1.00
 0.12829642058000E+00 0.10000000000000E+01
 f    1 1.00
 0.10930000000000E+01 0.10000000000000E+01
 
   15 0
 s    3 1.00
 0.34061341000000E+02 0.25439307208879E-01
 0.51235746000000E+01 0.19008594890375E+00
 0.11646626000000E+01 0.85244113011042E+00
 s    1 1.00
 0.32723041000000E+00 0.10000000000000E+01
 s    1 1.00
 0.10307241000000E+00 0.10000000000000E+01
 p    1 1.00
 0.80000000000000E+00 0.10000000000000E+01
 p    1 1.00
 0.95774129632000E-01 0.10000000000000E+01
 
   16 0
 s    3 1.00
 0.34061341000000E+02 0.25439307208879E-01
 0.51235746000000E+01 0.19008594890375E+00
 0.11646626000000E+01 0.85244113011042E+00
 s    1 1.00
 0.32723041000000E+00 0.10000000000000E+01
 s    1 1.00
 0.10307241000000E+00 0.10000000000000E+01
 p    1 1.00
 0.80000000000000E+00 0.10000000000000E+01
 p    1 1.00
 0.95774129632000E-01 0.10000000000000E+01
 
[MO]
 Sym= X
 Ene= -0.072600
 Spin= Alpha
 Occup= -0.072600
         1    3.345105E-04
         2    7.655346E-04
         3   -1.566017E-03
         4    8.093913E-04
         5   -8.613566E-03
         6    1.007315E-02
         7   -4.535675E-03
         8   -6.328306E-04
         9    1.290838E-01
        10   -3.411938E-04
        11   -9.143841E-04
        12    1.272134E-01
        13    1.920384E-02
        14   -8.935717E-04
        15    4.931219E-02
        16   -1.133601E-04
        17    1.023975E-04
        18    1.096264E-05
        19    6.381964E-05
        20   -1.272358E-03
        21    4.411883E-03
        22    3.420503E-04
        23   -2.259459E-04
        24   -1.161044E-04
        25    7.744274E-04
        26   -3.276952E-03
        27    7.437150E-03
        28    1.652347E-03
        29   -1.451094E-03
        30   -2.012525E-04
        31   -1.864149E-03
        32   -6.928861E-03
        33    5.140748E-03
        34    3.600470E-06
        35   -1.223668E-05
        36   -1.058822E-03
        37    1.651519E-06
        38    1.155346E-05
        39    4.758172E-04
        40   -6.482056E-06
        41    4.863769E-06
        42    9.447418E-04
        43   -5.503159E-04
        44   -1.267868E-04
        45   -2.822702E-04
        46    6.572826E-05
        47    4.473249E-03
        48    1.166904E-02
        49   -9.427655E-03
        50    6.748709E-04
        51   -1.246615E-06
        52    2.129760E-01
        53    1.555013E-03
        54    6.809779E-06
        55    2.160029E-01
        56    8.152571E-03
        57    1.038073E-03
        58    7.975370E-02
        59   -1.307703E-04
        60    1.357166E-04
        61   -4.946246E-06
        62   -1.165671E-07
        63    2.639925E-03
        64   -4.906988E-06
        65   -5.597977E-04
        66    8.055845E-04
        67   -2.457868E-04
        68    1.713765E-06
        69    3.777594E-03
        70   -8.931897E-06
        71   -1.108104E-02
        72    1.144831E-02
        73   -3.672734E-04
        74    1.159686E-04
        75    7.753432E-03
        76    1.900599E-05
        77    3.125652E-07
        78    7.630282E-08
        79   -1.598120E-03
        80    1.078793E-05
        81   -3.378410E-08
        82    8.035486E-04
        83   -1.120729E-05
        84   -6.858687E-08
        85    1.340555E-03
        86   -5.083890E-07
        87    3.346790E-04
        88    7.659548E-04
        89   -1.568243E-03
        90    8.312926E-04
        91   -1.063889E-02
        92    1.011721E-02
        93   -4.535641E-03
        94    6.349333E-04
        95    1.288436E-01
        96   -3.258579E-04
        97    9.288094E-04
        98    1.269731E-01
        99    1.971538E-02
       100    1.902055E-03
       101    4.911582E-02
       102   -1.129932E-04
       103    1.021759E-04
       104    1.081723E-05
       105   -6.402627E-05
       106   -1.278480E-03
       107   -4.411329E-03
       108    3.427692E-04
       109   -2.262726E-04
       110   -1.164966E-04
       111   -7.781938E-04
       112   -3.286437E-03
       113   -7.435239E-03
       114    1.743749E-03
       115   -1.556321E-03
       116   -1.874275E-04
       117    1.735921E-03
       118   -6.915017E-03
       119   -5.080908E-03
       120    3.667982E-06
       121    1.229123E-05
       122   -1.057277E-03
       123    1.622962E-06
       124   -1.152763E-05
       125    4.740187E-04
       126   -6.544077E-06
       127   -4.962794E-06
       128    9.444674E-04
       129    5.501142E-04
       130   -2.667900E-04
       131   -5.914109E-04
       132   -2.749431E-05
       133    1.031213E-02
       134    3.610396E-03
       135   -1.166850E-02
       136    4.580329E-03
       137   -1.936173E-03
       138    2.404566E-02
       139    1.060114E-02
       140   -6.491510E-03
       141    2.393771E-02
       142    9.442996E-03
       143    9.121051E-03
       144    1.250861E-03
       145   -2.977523E-04
       146    3.461269E-04
       147   -4.837464E-05
       148   -2.527286E-05
       149   -3.993188E-03
       150    1.005630E-03
       151   -5.529140E-04
       152    7.848693E-04
       153   -2.319552E-04
       154   -1.615556E-03
       155   -7.087197E-03
       156    2.339428E-03
       157   -6.547752E-03
       158    5.464815E-03
       159    1.082938E-03
       160    7.659512E-03
       161   -3.414752E-03
       162    1.201492E-02
       163    1.403536E-05
       164   -2.312700E-05
       165   -2.104901E-04
       166    2.954401E-05
       167   -1.283487E-06
       168    4.777598E-04
       169   -4.837441E-05
       170    3.231161E-05
       171   -1.953577E-04
       172    4.017771E-04
       173    1.000096E-03
       174    2.260501E-03
       175   -2.555197E-03
       176   -1.413083E-02
       177    4.954362E-02
       178   -4.737497E-05
       179   -1.426688E-02
       180    3.435378E-06
       181   -9.989880E-02
       182   -3.224780E-03
       183    1.565133E-05
       184   -9.655411E-02
       185    3.537316E-02
       186   -6.829492E-04
       187    1.281436E-02
       188   -6.892696E-04
       189    4.944852E-04
       190    1.947843E-04
       191   -2.320439E-07
       192   -6.332357E-03
       193   -4.684303E-06
       194    1.726121E-03
       195   -3.500371E-03
       196    1.774250E-03
       197   -3.330839E-06
       198   -1.271828E-02
       199   -1.078595E-05
       200    7.040157E-03
       201   -7.255378E-03
       202    2.152216E-04
       203    1.708341E-04
       204   -3.980169E-03
       205   -3.464496E-05
       206   -1.246731E-04
       207   -1.984510E-08
       208    9.491862E-04
       209    7.143110E-05
       210    1.297352E-07
       211   -1.378567E-03
       212    9.583535E-05
       213   -1.031102E-07
       214    1.050997E-04
       215    7.829617E-07
       216   -2.663490E-04
       217   -5.903711E-04
       218   -3.344126E-05
       219    1.035339E-02
       220    1.910637E-03
       221   -1.160289E-02
       222    4.580839E-03
       223    1.927748E-03
       224    2.429354E-02
       225    1.059644E-02
       226    6.499773E-03
       227    2.418994E-02
       228    9.149437E-03
       229   -9.977369E-03
       230    1.309507E-03
       231   -2.978549E-04
       232    3.462114E-04
       233   -4.835653E-05
       234    2.490766E-05
       235   -3.999293E-03
       236   -1.004921E-03
       237   -5.523495E-04
       238    7.870224E-04
       239   -2.346729E-04
       240    1.617034E-03
       241   -7.097198E-03
       242   -2.339610E-03
       243   -6.401484E-03
       244    5.313877E-03
       245    1.087607E-03
       246   -7.725732E-03
       247   -3.453616E-03
       248   -1.205549E-02
       249    1.386657E-05
       250    2.318339E-05
       251   -2.120855E-04
       252    2.976708E-05
       253    1.224805E-06
       254    4.795632E-04
       255   -4.837103E-05
       256   -3.232858E-05
       257   -1.950207E-04
       258   -4.017126E-04
       259    1.280595E-03
       260    1.735109E-03
       261    1.731905E-02
       262    3.135891E-05
       263    1.552318E-04
       264    4.638599E-03
       265    3.983906E-03
       266    1.424159E-03
       267    2.124564E-03
       268    1.281478E-03
       269    1.730751E-03
       270    1.710727E-02
       271    3.073740E-05
       272   -1.547820E-04
       273    4.628258E-03
       274    4.023036E-03
       275   -1.385693E-03
       276    2.075993E-03
       277    1.051112E-03
       278    3.104071E-03
       279   -3.170357E-02
       280    4.391591E-05
       281   -2.066061E-04
       282    3.833000E-04
       283    4.657600E-03
       284    2.003711E-03
       285   -1.009617E-02
       286    1.055094E-03
       287    3.100763E-03
       288   -3.181782E-02
       289    4.311855E-05
       290    2.063275E-04
       291    3.938944E-04
       292    4.602936E-03
       293   -2.061735E-03
       294   -1.009699E-02
       295    1.374537E-04
       296    3.246538E-04
       297   -4.321538E-04
       298   -1.072919E-03
       299    9.550942E-03
       300    5.458983E-03
       301   -1.481012E-03
       302   -1.009863E-06
       303   -3.247767E-02
       304   -1.072326E-03
       305    3.070435E-06
       306   -3.074868E-02
       307    3.808899E-03
       308   -3.993362E-05
       309    4.833046E-03
       310    2.219086E-05
       311    2.188135E-07
       312   -2.240968E-05
       313    1.157815E-07
       314    4.513462E-03
       315   -5.047671E-06
       316    1.150000E-04
       317   -7.401988E-05
       318   -4.098012E-05
       319   -3.987652E-07
       320    1.269586E-02
       321   -1.507603E-05
       322    1.447862E-04
       323   -1.979000E-03
       324    1.834213E-03
       325   -3.321246E-05
       326    5.496752E-03
       327    3.847576E-06
       328   -3.000753E-06
       329    2.505147E-08
       330    2.309740E-04
       331    8.234278E-07
       332   -2.268656E-09
       333    5.841964E-04
       334    3.202505E-06
       335   -3.134141E-08
       336   -8.940805E-04
       337    7.804676E-07
       338    5.512533E-05
       339    1.318100E-04
       340   -1.639197E-04
       341   -7.103625E-04
       342    4.891470E-03
       343    5.511347E-04
       344   -5.516637E-04
       345   -6.415218E-04
       346   -9.115156E-02
       347   -3.747835E-04
       348   -6.706568E-04
       349   -8.374822E-02
       350    3.328525E-04
       351   -9.900814E-04
       352   -5.854510E-02
       353    2.360610E-04
       354   -2.068256E-05
       355   -4.991130E-03
       356   -1.235579E-05
       357    1.538252E-05
       358   -3.026735E-06
       359    6.892904E-06
       360   -3.490256E-04
       361    1.054700E-03
       362   -1.838077E-05
       363    4.316761E-05
       364   -2.478684E-05
       365    1.749415E-05
       366   -1.496669E-03
       367    3.213042E-03
       368   -1.772170E-06
       369    6.297744E-05
       370   -6.120527E-05
       371    6.148342E-05
       372   -1.751976E-03
       373    6.863726E-04
       374   -2.257499E-07
       375   -6.126770E-06
       376    1.734866E-04
       377    6.783003E-07
       378    6.773368E-06
       379    7.918546E-05
       380   -3.754250E-07
       381    1.446557E-06
       382   -3.119421E-04
       383    2.759908E-04
       384    5.516799E-05
       385    1.318621E-04
       386   -1.635823E-04
       387   -7.143078E-04
       388    4.927187E-03
       389    5.730833E-04
       390   -5.568061E-04
       391    6.487861E-04
       392   -9.088165E-02
       393   -3.778719E-04
       394    6.789676E-04
       395   -8.350230E-02
       396    3.058651E-04
       397    1.004407E-03
       398   -5.835211E-02
       399    2.391413E-04
       400    2.130786E-05
       401   -4.960562E-03
       402   -1.232761E-05
       403    1.540489E-05
       404   -3.077279E-06
       405   -6.879649E-06
       406   -3.475234E-04
       407   -1.052465E-03
       408   -1.899970E-05
       409    4.411191E-05
       410   -2.511220E-05
       411   -1.715465E-05
       412   -1.491664E-03
       413   -3.205805E-03
       414   -2.461887E-07
       415    6.143211E-05
       416   -6.118592E-05
       417   -6.685571E-05
       418   -1.746954E-03
       419   -6.776198E-04
       420   -2.307807E-07
       421    6.167316E-06
       422    1.730609E-04
       423    7.415562E-07
       424   -6.802688E-06
       425    7.914974E-05
       426   -4.319313E-07
       427   -1.471635E-06
       428   -3.113353E-04
       429   -2.752580E-04
       430   -4.137679E-03
       431   -9.785841E-03
       432    1.508363E-02
       433    2.404521E-02
       434    4.194576E-03
       435    2.704943E-02
       436    1.918318E-02
       437   -1.012974E-05
       438   -2.390924E-01
       439    2.152506E-02
       440   -1.588885E-07
       441   -2.322289E-01
       442    2.834958E-02
       443    1.096240E-04
       444   -1.578762E-01
       445    6.869659E-05
       446    1.597306E-04
       447   -2.284272E-04
       448   -3.426290E-07
       449    2.025330E-03
       450   -5.422492E-07
       451   -1.383010E-04
       452    1.970317E-03
       453   -1.832016E-03
       454    4.770806E-06
       455    4.287761E-03
       456   -1.614759E-06
       457   -1.483282E-03
       458    5.466390E-03
       459   -3.983108E-03
       460    1.579586E-05
       461    5.498732E-04
       462   -6.412836E-06
       463    8.647563E-05
       464   -1.939633E-08
       465    1.299876E-03
       466    1.051958E-04
       467    1.488996E-08
       468   -1.127034E-03
       469   -2.212150E-04
       470    1.113295E-08
       471   -6.169324E-04
       472    5.930726E-08
       473   -5.367135E-03
       474   -1.277182E-02
       475   -2.281300E-02
       476    2.253675E-03
       477    1.603294E-03
       478   -1.097181E-02
       479    2.953543E-03
       480    2.015949E-03
       481   -4.484118E-03
       482   -5.359372E-03
       483   -1.268363E-02
       484   -2.248047E-02
       485    2.248665E-03
       486   -1.595067E-03
       487   -1.097503E-02
       488    2.916409E-03
       489   -1.958354E-03
       490   -4.505735E-03
 Sym= X
 Ene= -0.778776
 Spin= Alpha
 Occup= -0.778776
         1   -2.023720E-04
         2   -4.690572E-04
         3    1.229688E-03
         4   -2.267848E-03
         5   -9.903789E-03
         6   -1.089445E-02
         7    1.865686E-03
         8    2.199249E-04
         9    2.231397E-02
        10   -2.110835E-03
        11    4.357530E-04
        12    2.042863E-02
        13   -3.448238E-02
        14    9.221280E-03
        15    1.724070E-03
        16    1.189178E-05
        17   -2.050857E-05
        18    8.616791E-06
        19   -1.392156E-05
        20   -6.181112E-03
        21    3.727076E-03
        22   -6.210707E-04
        23    3.774733E-04
        24    2.435974E-04
        25   -7.020479E-04
        26   -1.395187E-02
        27    7.044540E-03
        28   -4.886865E-03
        29    4.549460E-03
        30    3.374048E-04
        31    1.212871E-03
        32    1.738324E-03
        33   -1.114901E-02
        34   -1.731750E-05
        35    7.262319E-06
        36   -9.372321E-05
        37    6.564643E-06
        38   -7.365264E-06
        39   -6.933508E-04
        40    1.666922E-05
        41   -2.378160E-06
        42    8.190936E-04
        43   -6.749787E-04
        44    4.214715E-05
        45    9.299773E-05
        46    9.133018E-05
        47   -2.870050E-03
        48   -4.814256E-02
        49    5.538555E-03
        50    3.765249E-04
        51    1.250357E-06
        52    1.973329E-01
        53   -4.438749E-04
        54    2.118170E-05
        55    2.048356E-01
        56   -1.614567E-02
        57   -1.531972E-03
        58    2.018498E-01
        59    4.358321E-05
        60   -4.170924E-05
        61   -1.873966E-06
        62    1.318835E-07