[Molden Format]
[Title]
ADC(2) - opt by CAM-B3LYP gaussian                                              
[Atoms] AU
 c     1    6 -.12588699998532E+01 -.22834089986974E+01 -.24579904026210E-01
 c     2    6 -.25576598737242E+01 0.00000000000000E+00 -.23328905326240E-01
 c     3    6 -.12588681101271E+01 0.22834089986974E+01 -.24585573204610E-01
 c     4    6 0.13319747639512E+01 0.22851362083829E+01 -.26548998656670E-01
 c     5    6 0.26868460402678E+01 0.00000000000000E+00 -.25991529447470E-01
 c     6    6 0.13319728742250E+01 -.22851362083829E+01 -.26541439752140E-01
 h     7    1 -.22976467859220E+01 -.40383900994038E+01 -.22042001829740E-01
 h     8    1 -.22976448961959E+01 0.40383919891299E+01 -.22053340186540E-01
 h     9    1 0.23511286338561E+01 0.40572968093633E+01 -.28790213850280E-01
 h    10    1 0.23511267441300E+01 -.40572968093633E+01 -.28775096041210E-01
 n    11    7 -.52730224718766E+01 0.00000000000000E+00 -.17674844736640E-01
 o    12    8 -.63812882673039E+01 0.20269372576683E+01 -.15259774738810E-01
 o    13    8 -.63812844878516E+01 -.20269372576683E+01 -.15276782274010E-01
 n    14    7 0.52436643953234E+01 0.00000000000000E+00 -.69084844181800E-01
 h    15    1 0.62047866654136E+01 0.16174392738504E+01 0.18526851385235E+00
 h    16    1 0.62047847756874E+01 -.16174411635765E+01 0.18526473440008E+00
[GTO]
    1 0
 s    6 1.00
 0.13575349682000E+05 0.60645503603591E-03
 0.20352333680000E+04 0.46979088884982E-02
 0.46322562359000E+03 0.24332477647552E-01
 0.13120019598000E+03 0.97399968307759E-01
 0.42853015891000E+02 0.30195584253780E+00
 0.15584185766000E+02 0.66233609137875E+00
 s    2 1.00
 0.62067138508000E+01 0.65595308539952E+00
 0.25764896527000E+01 0.37585633285142E+00
 s    1 1.00
 0.57696339419000E+00 0.10000000000000E+01
 s    1 1.00
 0.22972831358000E+00 0.10000000000000E+01
 s    1 1.00
 0.95164440028000E-01 0.10000000000000E+01
 s    1 1.00
 0.48475401370000E-01 0.10000000000000E+01
 p    4 1.00
 0.34697232244000E+02 0.11327220003114E-01
 0.79582622826000E+01 0.76169659202087E-01
 0.23780826883000E+01 0.30192252202676E+00
 0.81433208183000E+00 0.72785027349547E+00
 p    1 1.00
 0.28887547253000E+00 0.10000000000000E+01
 p    1 1.00
 0.10056823671000E+00 0.10000000000000E+01
 d    1 1.00
 0.10970000000000E+01 0.10000000000000E+01
 d    1 1.00
 0.31800000000000E+00 0.10000000000000E+01
 d    1 1.00
 0.90985336424000E-01 0.10000000000000E+01
 f    1 1.00
 0.76100000000000E+00 0.10000000000000E+01
 
    2 0
 s    6 1.00
 0.13575349682000E+05 0.60645503603591E-03
 0.20352333680000E+04 0.46979088884982E-02
 0.46322562359000E+03 0.24332477647552E-01
 0.13120019598000E+03 0.97399968307759E-01
 0.42853015891000E+02 0.30195584253780E+00
 0.15584185766000E+02 0.66233609137875E+00
 s    2 1.00
 0.62067138508000E+01 0.65595308539952E+00
 0.25764896527000E+01 0.37585633285142E+00
 s    1 1.00
 0.57696339419000E+00 0.10000000000000E+01
 s    1 1.00
 0.22972831358000E+00 0.10000000000000E+01
 s    1 1.00
 0.95164440028000E-01 0.10000000000000E+01
 s    1 1.00
 0.48475401370000E-01 0.10000000000000E+01
 p    4 1.00
 0.34697232244000E+02 0.11327220003114E-01
 0.79582622826000E+01 0.76169659202087E-01
 0.23780826883000E+01 0.30192252202676E+00
 0.81433208183000E+00 0.72785027349547E+00
 p    1 1.00
 0.28887547253000E+00 0.10000000000000E+01
 p    1 1.00
 0.10056823671000E+00 0.10000000000000E+01
 d    1 1.00
 0.10970000000000E+01 0.10000000000000E+01
 d    1 1.00
 0.31800000000000E+00 0.10000000000000E+01
 d    1 1.00
 0.90985336424000E-01 0.10000000000000E+01
 f    1 1.00
 0.76100000000000E+00 0.10000000000000E+01
 
    3 0
 s    6 1.00
 0.13575349682000E+05 0.60645503603591E-03
 0.20352333680000E+04 0.46979088884982E-02
 0.46322562359000E+03 0.24332477647552E-01
 0.13120019598000E+03 0.97399968307759E-01
 0.42853015891000E+02 0.30195584253780E+00
 0.15584185766000E+02 0.66233609137875E+00
 s    2 1.00
 0.62067138508000E+01 0.65595308539952E+00
 0.25764896527000E+01 0.37585633285142E+00
 s    1 1.00
 0.57696339419000E+00 0.10000000000000E+01
 s    1 1.00
 0.22972831358000E+00 0.10000000000000E+01
 s    1 1.00
 0.95164440028000E-01 0.10000000000000E+01
 s    1 1.00
 0.48475401370000E-01 0.10000000000000E+01
 p    4 1.00
 0.34697232244000E+02 0.11327220003114E-01
 0.79582622826000E+01 0.76169659202087E-01
 0.23780826883000E+01 0.30192252202676E+00
 0.81433208183000E+00 0.72785027349547E+00
 p    1 1.00
 0.28887547253000E+00 0.10000000000000E+01
 p    1 1.00
 0.10056823671000E+00 0.10000000000000E+01
 d    1 1.00
 0.10970000000000E+01 0.10000000000000E+01
 d    1 1.00
 0.31800000000000E+00 0.10000000000000E+01
 d    1 1.00
 0.90985336424000E-01 0.10000000000000E+01
 f    1 1.00
 0.76100000000000E+00 0.10000000000000E+01
 
    4 0
 s    6 1.00
 0.13575349682000E+05 0.60645503603591E-03
 0.20352333680000E+04 0.46979088884982E-02
 0.46322562359000E+03 0.24332477647552E-01
 0.13120019598000E+03 0.97399968307759E-01
 0.42853015891000E+02 0.30195584253780E+00
 0.15584185766000E+02 0.66233609137875E+00
 s    2 1.00
 0.62067138508000E+01 0.65595308539952E+00
 0.25764896527000E+01 0.37585633285142E+00
 s    1 1.00
 0.57696339419000E+00 0.10000000000000E+01
 s    1 1.00
 0.22972831358000E+00 0.10000000000000E+01
 s    1 1.00
 0.95164440028000E-01 0.10000000000000E+01
 s    1 1.00
 0.48475401370000E-01 0.10000000000000E+01
 p    4 1.00
 0.34697232244000E+02 0.11327220003114E-01
 0.79582622826000E+01 0.76169659202087E-01
 0.23780826883000E+01 0.30192252202676E+00
 0.81433208183000E+00 0.72785027349547E+00
 p    1 1.00
 0.28887547253000E+00 0.10000000000000E+01
 p    1 1.00
 0.10056823671000E+00 0.10000000000000E+01
 d    1 1.00
 0.10970000000000E+01 0.10000000000000E+01
 d    1 1.00
 0.31800000000000E+00 0.10000000000000E+01
 d    1 1.00
 0.90985336424000E-01 0.10000000000000E+01
 f    1 1.00
 0.76100000000000E+00 0.10000000000000E+01
 
    5 0
 s    6 1.00
 0.13575349682000E+05 0.60645503603591E-03
 0.20352333680000E+04 0.46979088884982E-02
 0.46322562359000E+03 0.24332477647552E-01
 0.13120019598000E+03 0.97399968307759E-01
 0.42853015891000E+02 0.30195584253780E+00
 0.15584185766000E+02 0.66233609137875E+00
 s    2 1.00
 0.62067138508000E+01 0.65595308539952E+00
 0.25764896527000E+01 0.37585633285142E+00
 s    1 1.00
 0.57696339419000E+00 0.10000000000000E+01
 s    1 1.00
 0.22972831358000E+00 0.10000000000000E+01
 s    1 1.00
 0.95164440028000E-01 0.10000000000000E+01
 s    1 1.00
 0.48475401370000E-01 0.10000000000000E+01
 p    4 1.00
 0.34697232244000E+02 0.11327220003114E-01
 0.79582622826000E+01 0.76169659202087E-01
 0.23780826883000E+01 0.30192252202676E+00
 0.81433208183000E+00 0.72785027349547E+00
 p    1 1.00
 0.28887547253000E+00 0.10000000000000E+01
 p    1 1.00
 0.10056823671000E+00 0.10000000000000E+01
 d    1 1.00
 0.10970000000000E+01 0.10000000000000E+01
 d    1 1.00
 0.31800000000000E+00 0.10000000000000E+01
 d    1 1.00
 0.90985336424000E-01 0.10000000000000E+01
 f    1 1.00
 0.76100000000000E+00 0.10000000000000E+01
 
    6 0
 s    6 1.00
 0.13575349682000E+05 0.60645503603591E-03
 0.20352333680000E+04 0.46979088884982E-02
 0.46322562359000E+03 0.24332477647552E-01
 0.13120019598000E+03 0.97399968307759E-01
 0.42853015891000E+02 0.30195584253780E+00
 0.15584185766000E+02 0.66233609137875E+00
 s    2 1.00
 0.62067138508000E+01 0.65595308539952E+00
 0.25764896527000E+01 0.37585633285142E+00
 s    1 1.00
 0.57696339419000E+00 0.10000000000000E+01
 s    1 1.00
 0.22972831358000E+00 0.10000000000000E+01
 s    1 1.00
 0.95164440028000E-01 0.10000000000000E+01
 s    1 1.00
 0.48475401370000E-01 0.10000000000000E+01
 p    4 1.00
 0.34697232244000E+02 0.11327220003114E-01
 0.79582622826000E+01 0.76169659202087E-01
 0.23780826883000E+01 0.30192252202676E+00
 0.81433208183000E+00 0.72785027349547E+00
 p    1 1.00
 0.28887547253000E+00 0.10000000000000E+01
 p    1 1.00
 0.10056823671000E+00 0.10000000000000E+01
 d    1 1.00
 0.10970000000000E+01 0.10000000000000E+01
 d    1 1.00
 0.31800000000000E+00 0.10000000000000E+01
 d    1 1.00
 0.90985336424000E-01 0.10000000000000E+01
 f    1 1.00
 0.76100000000000E+00 0.10000000000000E+01
 
    7 0
 s    3 1.00
 0.34061341000000E+02 0.25439307208879E-01
 0.51235746000000E+01 0.19008594890375E+00
 0.11646626000000E+01 0.85244113011042E+00
 s    1 1.00
 0.32723041000000E+00 0.10000000000000E+01
 s    1 1.00
 0.10307241000000E+00 0.10000000000000E+01
 p    1 1.00
 0.80000000000000E+00 0.10000000000000E+01
 p    1 1.00
 0.95774129632000E-01 0.10000000000000E+01
 
    8 0
 s    3 1.00
 0.34061341000000E+02 0.25439307208879E-01
 0.51235746000000E+01 0.19008594890375E+00
 0.11646626000000E+01 0.85244113011042E+00
 s    1 1.00
 0.32723041000000E+00 0.10000000000000E+01
 s    1 1.00
 0.10307241000000E+00 0.10000000000000E+01
 p    1 1.00
 0.80000000000000E+00 0.10000000000000E+01
 p    1 1.00
 0.95774129632000E-01 0.10000000000000E+01
 
    9 0
 s    3 1.00
 0.34061341000000E+02 0.25439307208879E-01
 0.51235746000000E+01 0.19008594890375E+00
 0.11646626000000E+01 0.85244113011042E+00
 s    1 1.00
 0.32723041000000E+00 0.10000000000000E+01
 s    1 1.00
 0.10307241000000E+00 0.10000000000000E+01
 p    1 1.00
 0.80000000000000E+00 0.10000000000000E+01
 p    1 1.00
 0.95774129632000E-01 0.10000000000000E+01
 
   10 0
 s    3 1.00
 0.34061341000000E+02 0.25439307208879E-01
 0.51235746000000E+01 0.19008594890375E+00
 0.11646626000000E+01 0.85244113011042E+00
 s    1 1.00
 0.32723041000000E+00 0.10000000000000E+01
 s    1 1.00
 0.10307241000000E+00 0.10000000000000E+01
 p    1 1.00
 0.80000000000000E+00 0.10000000000000E+01
 p    1 1.00
 0.95774129632000E-01 0.10000000000000E+01
 
   11 0
 s    6 1.00
 0.19730800647000E+05 0.58626402628763E-03
 0.29578958745000E+04 0.45428820586397E-02
 0.67322133595000E+03 0.23558413450084E-01
 0.19068249494000E+03 0.94709193292923E-01
 0.62295441898000E+02 0.29719784913376E+00
 0.22654161182000E+02 0.66916246895232E+00
 s    2 1.00
 0.89791477428000E+01 0.64596683630063E+00
 0.36863002370000E+01 0.38700574393705E+00
 s    1 1.00
 0.84660076805000E+00 0.10000000000000E+01
 s    1 1.00
 0.33647133771000E+00 0.10000000000000E+01
 s    1 1.00
 0.13647653675000E+00 0.10000000000000E+01
 s    1 1.00
 0.68441605847000E-01 0.10000000000000E+01
 p    4 1.00
 0.49200380510000E+02 0.11448825101764E-01
 0.11346790537000E+02 0.78422337970864E-01
 0.34273972411000E+01 0.30818094738830E+00
 0.11785525134000E+01 0.72027196368413E+00
 p    1 1.00
 0.41642204972000E+00 0.10000000000000E+01
 p    1 1.00
 0.14260826011000E+00 0.10000000000000E+01
 d    1 1.00
 0.16540000000000E+01 0.10000000000000E+01
 d    1 1.00
 0.46900000000000E+00 0.10000000000000E+01
 d    1 1.00
 0.12829642058000E+00 0.10000000000000E+01
 f    1 1.00
 0.10930000000000E+01 0.10000000000000E+01
 
   12 0
 s    6 1.00
 0.27032382631000E+05 0.57227335211155E-03
 0.40523871392000E+04 0.44353233492995E-02
 0.92232722710000E+03 0.23020107706038E-01
 0.26124070989000E+03 0.92822490667928E-01
 0.85354641351000E+02 0.29378500009671E+00
 0.31035035245000E+02 0.67401604501641E+00
 s    2 1.00
 0.12260860728000E+02 0.63839937025506E+00
 0.49987076005000E+01 0.39534587125718E+00
 s    1 1.00
 0.11703108158000E+01 0.10000000000000E+01
 s    1 1.00
 0.46474740994000E+00 0.10000000000000E+01
 s    1 1.00
 0.18504536357000E+00 0.10000000000000E+01
 s    1 1.00
 0.70288026270000E-01 0.10000000000000E+01
 p    4 1.00
 0.63274954801000E+02 0.12018332222616E-01
 0.14627049379000E+02 0.83005421790056E-01
 0.44501223456000E+01 0.31991743925964E+00
 0.15275799647000E+01 0.70715542916104E+00
 p    1 1.00
 0.52935117943000E+00 0.10000000000000E+01
 p    1 1.00
 0.17478421270000E+00 0.10000000000000E+01
 p    1 1.00
 0.51112745706000E-01 0.10000000000000E+01
 d    1 1.00
 0.23140000000000E+01 0.10000000000000E+01
 d    1 1.00
 0.64500000000000E+00 0.10000000000000E+01
 d    1 1.00
 0.14696477366000E+00 0.10000000000000E+01
 f    1 1.00
 0.14280000000000E+01 0.10000000000000E+01
 
   13 0
 s    6 1.00
 0.27032382631000E+05 0.57227335211155E-03
 0.40523871392000E+04 0.44353233492995E-02
 0.92232722710000E+03 0.23020107706038E-01
 0.26124070989000E+03 0.92822490667928E-01
 0.85354641351000E+02 0.29378500009671E+00
 0.31035035245000E+02 0.67401604501641E+00
 s    2 1.00
 0.12260860728000E+02 0.63839937025506E+00
 0.49987076005000E+01 0.39534587125718E+00
 s    1 1.00
 0.11703108158000E+01 0.10000000000000E+01
 s    1 1.00
 0.46474740994000E+00 0.10000000000000E+01
 s    1 1.00
 0.18504536357000E+00 0.10000000000000E+01
 s    1 1.00
 0.70288026270000E-01 0.10000000000000E+01
 p    4 1.00
 0.63274954801000E+02 0.12018332222616E-01
 0.14627049379000E+02 0.83005421790056E-01
 0.44501223456000E+01 0.31991743925964E+00
 0.15275799647000E+01 0.70715542916104E+00
 p    1 1.00
 0.52935117943000E+00 0.10000000000000E+01
 p    1 1.00
 0.17478421270000E+00 0.10000000000000E+01
 p    1 1.00
 0.51112745706000E-01 0.10000000000000E+01
 d    1 1.00
 0.23140000000000E+01 0.10000000000000E+01
 d    1 1.00
 0.64500000000000E+00 0.10000000000000E+01
 d    1 1.00
 0.14696477366000E+00 0.10000000000000E+01
 f    1 1.00
 0.14280000000000E+01 0.10000000000000E+01
 
   14 0
 s    6 1.00
 0.19730800647000E+05 0.58626402628763E-03
 0.29578958745000E+04 0.45428820586397E-02
 0.67322133595000E+03 0.23558413450084E-01
 0.19068249494000E+03 0.94709193292923E-01
 0.62295441898000E+02 0.29719784913376E+00
 0.22654161182000E+02 0.66916246895232E+00
 s    2 1.00
 0.89791477428000E+01 0.64596683630063E+00
 0.36863002370000E+01 0.38700574393705E+00
 s    1 1.00
 0.84660076805000E+00 0.10000000000000E+01
 s    1 1.00
 0.33647133771000E+00 0.10000000000000E+01
 s    1 1.00
 0.13647653675000E+00 0.10000000000000E+01
 s    1 1.00
 0.68441605847000E-01 0.10000000000000E+01
 p    4 1.00
 0.49200380510000E+02 0.11448825101764E-01
 0.11346790537000E+02 0.78422337970864E-01
 0.34273972411000E+01 0.30818094738830E+00
 0.11785525134000E+01 0.72027196368413E+00
 p    1 1.00
 0.41642204972000E+00 0.10000000000000E+01
 p    1 1.00
 0.14260826011000E+00 0.10000000000000E+01
 d    1 1.00
 0.16540000000000E+01 0.10000000000000E+01
 d    1 1.00
 0.46900000000000E+00 0.10000000000000E+01
 d    1 1.00
 0.12829642058000E+00 0.10000000000000E+01
 f    1 1.00
 0.10930000000000E+01 0.10000000000000E+01
 
   15 0
 s    3 1.00
 0.34061341000000E+02 0.25439307208879E-01
 0.51235746000000E+01 0.19008594890375E+00
 0.11646626000000E+01 0.85244113011042E+00
 s    1 1.00
 0.32723041000000E+00 0.10000000000000E+01
 s    1 1.00
 0.10307241000000E+00 0.10000000000000E+01
 p    1 1.00
 0.80000000000000E+00 0.10000000000000E+01
 p    1 1.00
 0.95774129632000E-01 0.10000000000000E+01
 
   16 0
 s    3 1.00
 0.34061341000000E+02 0.25439307208879E-01
 0.51235746000000E+01 0.19008594890375E+00
 0.11646626000000E+01 0.85244113011042E+00
 s    1 1.00
 0.32723041000000E+00 0.10000000000000E+01
 s    1 1.00
 0.10307241000000E+00 0.10000000000000E+01
 p    1 1.00
 0.80000000000000E+00 0.10000000000000E+01
 p    1 1.00
 0.95774129632000E-01 0.10000000000000E+01
 
[MO]
 Sym= X
 Ene= -0.891240
 Spin= Alpha
 Occup= -0.891240
         1   -1.729390E-04
         2   -4.029588E-04
         3    1.126458E-03
         4   -2.382637E-03
         5   -9.611207E-03
         6   -1.089242E-02
         7    1.603164E-03
         8    2.712187E-04
         9    2.343283E-02
        10   -2.317679E-03
        11    4.742193E-04
        12    2.150864E-02
        13   -3.465994E-02
        14    9.380329E-03
        15    2.067926E-03
        16    1.754862E-06
        17   -1.262198E-05
        18    1.086712E-05
        19   -1.713724E-05
        20   -6.158429E-03
        21    3.753717E-03
        22   -6.323600E-04
        23    3.865019E-04
        24    2.458580E-04
        25   -7.110438E-04
        26   -1.391148E-02
        27    7.088802E-03
        28   -4.897905E-03
        29    4.559373E-03
        30    3.385314E-04
        31    1.211206E-03
        32    1.758788E-03
        33   -1.122080E-02
        34   -1.833950E-05
        35    7.673874E-06
        36   -1.047080E-04
        37    6.966991E-06
        38   -7.879897E-06
        39   -6.837418E-04
        40    1.763803E-05
        41   -2.415684E-06
        42    8.242223E-04
        43   -6.763312E-04
        44    1.842525E-05
        45    3.931536E-05
        46    1.751936E-04
        47   -2.774985E-03
        48   -4.864288E-02
        49    5.507839E-03
        50    5.020917E-04
        51    1.790337E-06
        52    1.986408E-01
        53   -3.579879E-04
        54    2.172632E-05
        55    2.060795E-01
        56   -1.632672E-02
        57   -1.526439E-03
        58    2.022079E-01
        59    3.293814E-05
        60   -3.047864E-05
        61   -2.459501E-06
        62    1.645880E-07
        63   -7.775987E-04
        64    7.676220E-07
        65    3.729015E-04
        66   -6.195793E-04
        67    2.466779E-04
        68    4.531350E-06
        69   -3.507858E-03
        70    1.139172E-06
        71    9.142902E-03
        72   -1.020397E-02
        73    1.061069E-03
        74   -2.590093E-04
        75    4.893387E-03
        76   -2.952296E-05
        77    8.223988E-06
        78    4.643807E-08
        79   -1.112119E-03
        80   -7.408065E-06
        81    3.833231E-08
        82    6.751509E-04
        83   -3.625572E-06
        84   -1.006355E-07
        85    8.169128E-04
        86    8.808210E-08
        87   -1.733928E-04
        88   -4.041246E-04
        89    1.137900E-03
        90   -2.470529E-03
        91   -7.086013E-03
        92   -1.081850E-02
        93    1.603396E-03
        94   -2.729271E-04
        95    2.346729E-02
        96   -2.310806E-03
        97   -4.602159E-04
        98    2.154038E-02
        99   -3.569663E-02
       100   -1.098460E-02
       101    2.176129E-03
       102    1.484499E-06
       103   -1.254472E-05
       104    1.106022E-05
       105    1.744713E-05
       106   -6.158290E-03
       107   -3.753910E-03
       108   -6.302033E-04
       109    3.822870E-04
       110    2.479164E-04
       111    7.073502E-04
       112   -1.390889E-02
       113   -7.088271E-03
       114   -5.191635E-03
       115    4.883495E-03
       116    3.081406E-04
       117   -9.892275E-04
       118    1.744427E-03
       119    1.117570E-02
       120   -1.856439E-05
       121   -7.652064E-06
       122   -1.048605E-04
       123    7.296382E-06
       124    7.886944E-06
       125   -6.835943E-04
       126    1.761036E-05
       127    2.379378E-06
       128    8.242794E-04
       129    6.762659E-04
       130    1.276067E-04
       131    2.764858E-04
       132    5.546605E-04
       133   -1.042504E-02
       134    2.776942E-02
       135    1.208566E-02
       136   -1.248959E-03
       137    7.402126E-04
       138   -1.482715E-01
       139   -8.871959E-03
       140    6.151429E-03
       141   -1.513058E-01
       142   -2.477894E-02
       143   -6.825383E-03
       144   -9.050452E-02
       145    1.465839E-04
       146   -1.783898E-04
       147    3.180596E-05
       148   -2.955161E-06
       149   -6.940732E-04
       150    2.746909E-03
       151    5.854242E-04
       152   -7.354742E-04
       153    1.500500E-04
       154    1.672468E-03
       155   -3.790736E-03
       156    4.610370E-03
       157    8.145243E-03
       158   -6.435063E-03
       159   -1.710180E-03
       160   -8.295779E-03
       161    3.723466E-03
       162   -1.327821E-02
       163   -1.352353E-05
       164    1.075836E-05
       165    8.113925E-04
       166   -1.988050E-05
       167    1.527441E-05
       168   -1.938102E-04
       169    3.802422E-05
       170   -2.970826E-05
       171   -8.947870E-04
       172    3.045607E-04
       173   -1.149297E-03
       174   -2.617430E-03
       175    2.746892E-03
       176    2.135241E-02
       177   -1.476024E-02
       178    9.302291E-03
       179    9.243916E-03
       180    1.187379E-06
       181   -9.906950E-02
       182    6.985254E-04
       183   -1.432235E-05
       184   -1.021942E-01
       185   -2.476454E-02
       186    1.574179E-03
       187   -1.329066E-01
       188    4.766231E-04
       189   -2.669293E-04
       190   -2.096939E-04
       191    1.346755E-07
       192    1.017609E-02
       193    6.248704E-07
       194   -1.830164E-03
       195    4.024420E-03
       196   -2.194257E-03
       197    3.830899E-06
       198    2.488051E-02
       199   -2.235809E-06
       200   -5.813694E-03
       201    7.068341E-03
       202   -1.254647E-03
       203   -3.102643E-04
       204    1.923880E-02
       205    1.455041E-05
       206    1.172956E-04
       207    3.020478E-08
       208    1.955940E-04
       209   -8.213279E-05
       210   -1.129898E-07
       211    1.168652E-03
       212   -7.523574E-05
       213    7.246588E-08
       214   -1.431069E-03
       215    5.177311E-08
       216    1.281392E-04
       217    2.774991E-04
       218    5.610057E-04
       219   -1.051490E-02
       220    3.057233E-02
       221    1.211673E-02
       222   -1.250895E-03
       223   -7.339720E-04
       224   -1.482907E-01
       225   -8.869887E-03
       226   -6.165942E-03
       227   -1.513348E-01
       228   -2.364250E-02
       229    8.662434E-03
       230   -9.041703E-02
       231    1.463314E-04
       232   -1.789184E-04
       233    3.258698E-05
       234    3.013750E-06
       235   -6.934154E-04
       236   -2.747066E-03
       237    5.856813E-04
       238   -7.375198E-04
       239    1.518385E-04
       240   -1.675023E-03
       241   -3.787716E-03
       242   -4.610465E-03
       243    7.834532E-03
       244   -6.109203E-03
       245   -1.725328E-03
       246    8.545564E-03
       247    3.744595E-03
       248    1.333409E-02
       249   -1.338705E-05
       250   -1.082682E-05
       251    8.117744E-04
       252   -2.016995E-05
       253   -1.519435E-05
       254   -1.942060E-04
       255    3.813056E-05
       256    2.972006E-05
       257   -8.949037E-04
       258   -3.045640E-04
       259   -3.845367E-04
       260   -2.679331E-04
       261   -1.728315E-02
       262   -1.727085E-05
       263   -4.169276E-06
       264    8.931020E-04
       265   -5.100269E-03
       266   -3.625612E-04
       267   -7.166065E-03
       268   -3.856689E-04
       269   -2.613795E-04
       270   -1.705973E-02
       271   -1.608406E-05
       272    3.414994E-06
       273    8.948060E-04
       274   -5.259234E-03
       275    2.326074E-04
       276   -7.138277E-03
       277   -4.028272E-04
       278   -2.285831E-03
       279    3.315483E-02
       280   -9.861339E-06
       281    9.438364E-05
       282   -6.026472E-03
       283   -1.869114E-03
       284   -2.589598E-03
       285    2.587204E-03
       286   -4.071492E-04
       287   -2.286914E-03
       288    3.355887E-02
       289   -9.461788E-06
       290   -9.433235E-05
       291   -6.027813E-03
       292   -1.737786E-03
       293    2.743414E-03
       294    2.615565E-03
       295   -3.232774E-05
       296   -7.384936E-05
       297    4.072786E-05
       298    3.468597E-04
       299   -7.173096E-03
       300    6.085658E-04
       301    3.411259E-04
       302    1.304524E-07
       303    1.899449E-02
       304    4.711634E-05
       305    8.651655E-07
       306    2.151007E-02
       307   -3.093671E-03
       308    3.032591E-05
       309    9.094898E-03
       310    1.223671E-05
       311    2.892204E-06
       312   -1.512891E-05
       313   -1.173035E-07
       314    4.412659E-03
       315    5.020504E-08
       316   -2.188838E-05
       317    8.571384E-05
       318   -6.382546E-05
       319   -9.355936E-07
       320    1.325544E-02
       321   -7.677333E-08
       322   -9.632636E-04
       323    2.758775E-03
       324   -1.795512E-03
       325    4.403603E-05
       326    2.958427E-03
       327    4.921873E-06
       328    6.576755E-06
       329   -1.940918E-08
       330    2.064410E-05
       331   -4.894768E-06
       332    5.409993E-08
       333    6.862726E-04
       334   -3.928876E-06
       335   -2.805978E-08
       336   -7.139696E-04
       337    1.297520E-08
       338   -2.330945E-05
       339   -5.346279E-05
       340    3.536475E-05
       341    5.464667E-04
       342   -5.655283E-03
       343   -8.653238E-04
       344   -2.558349E-05
       345    1.653979E-04
       346   -7.983710E-02
       347   -1.300056E-04
       348    2.885690E-04
       349   -7.402398E-02
       350   -1.287144E-03
       351    5.061260E-04
       352   -6.018190E-02
       353   -1.553617E-04
       354    2.007123E-04
       355   -7.473199E-03
       356    4.002013E-06
       357   -4.459689E-06
       358    4.576762E-07
       359   -7.986190E-07
       360    1.103517E-06
       361    4.875658E-04
       362   -1.005739E-05
       363   -1.149482E-05
       364    2.155222E-05
       365    8.434262E-06
       366   -5.433991E-04
       367    1.618518E-03
       368   -7.767040E-05
       369    5.290377E-05
       370    2.476663E-05
       371    7.668788E-05
       372   -1.273229E-04
       373    2.685347E-04
       374    6.239753E-07
       375    1.849342E-06
       376    6.829331E-05
       377   -1.096866E-06
       378   -8.477720E-07
       379    8.323311E-05
       380    2.597158E-07
       381   -1.633381E-06
       382   -1.748582E-04
       383    1.396496E-04
       384   -2.309205E-05
       385   -5.296552E-05
       386    3.508257E-05
       387    5.418282E-04
       388   -5.671741E-03
       389   -8.242735E-04
       390   -1.440932E-05
       391   -1.721210E-04
       392   -7.983661E-02
       393   -1.201981E-04
       394   -2.937163E-04
       395   -7.402390E-02
       396   -1.238876E-03
       397   -5.154509E-04
       398   -6.017520E-02
       399   -1.365279E-04
       400   -2.057882E-04
       401   -7.478388E-03
       402    4.027706E-06
       403   -4.528141E-06
       404    5.004350E-07
       405    7.548689E-07
       406    1.058724E-06
       407   -4.875699E-04
       408   -9.410837E-06
       409   -1.170974E-05
       410    2.112058E-05
       411   -7.897463E-06
       412   -5.433191E-04
       413   -1.618494E-03
       414   -7.725147E-05
       415    5.381472E-05
       416    2.343675E-05
       417   -7.574357E-05
       418   -1.282423E-04
       419   -2.679545E-04
       420    6.309513E-07
       421   -1.867735E-06
       422    6.829985E-05
       423   -1.090841E-06
       424    8.780728E-07
       425    8.322725E-05
       426    2.443308E-07
       427    1.627756E-06
       428   -1.748611E-04
       429   -1.396556E-04
       430    4.947173E-03
       431    1.173080E-02
       432   -1.819404E-02
       433   -2.812863E-02
       434   -2.190494E-02
       435   -6.623118E-02
       436   -1.737251E-02
       437    1.282859E-05
       438    2.679366E-01
       439   -1.976163E-02
       440   -1.643159E-07
       441    2.644735E-01
       442   -1.834035E-02
       443   -1.327706E-04
       444    2.144914E-01
       445   -9.762142E-05
       446   -2.437037E-05
       447    1.219918E-04
       448    2.958521E-07
       449    5.686018E-04
       450    3.813912E-07
       451   -2.140961E-04
       452   -1.549722E-03
       453    1.763818E-03
       454   -5.308556E-06
       455    3.165493E-03
       456    1.712924E-06
       457   -1.605043E-03
       458   -3.068397E-03
       459    4.673439E-03
       460   -1.800430E-05
       461    1.981876E-03
       462    1.372341E-05
       463   -1.333107E-04
       464    2.347115E-08
       465   -1.096220E-03
       466   -9.035293E-05
       467   -1.847955E-08
       468    6.258057E-04
       469    2.692080E-04
       470   -1.301030E-08
       471    8.449282E-04
       472    3.332006E-08
       473    8.984613E-03
       474    1.727972E-02
       475    2.913894E-02
       476   -2.246395E-03
       477   -1.847299E-03
       478    1.352041E-02
       479    1.169845E-03
       480   -3.424143E-03
       481    1.508246E-02
       482    8.976070E-03
       483    1.718009E-02
       484    2.871571E-02
       485   -2.241227E-03
       486    1.837693E-03
       487    1.352560E-02
       488    1.217862E-03
       489    3.359605E-03
       490    1.510753E-02
 Sym= X
 Ene= 0.891240
 Spin= Alpha
 Occup= 0.891240
         1   -1.323146E-02
         2   -2.935685E-02
         3    8.427481E-03
         4    5.058940E-01
         5    5.451415E+00
         6   -3.876247E+00
         7   -6.574066E-03
         8   -2.077641E-02
         9   -2.494850E-03
        10    6.597290E-02
        11    2.664758E-03
        12   -4.408280E-03
        13   -2.230355E-01
        14    2.304051E-01
        15   -3.113529E-02
        16    1.670154E-03
        17   -2.354235E-05
        18   -1.646612E-03
        19   -5.334387E-04
        20   -4.509132E-05
        21    1.221451E-04
        22    3.157559E-02
        23   -1.203052E-02
        24   -1.954508E-02
        25   -7.316806E-03
        26   -9.323410E-04
        27    4.087306E-04
        28    7.185545E-02
        29   -2.744153E-01
        30    2.025598E-01
        31    1.004085E+00
        32    1.157546E-02
        33   -2.436087E-02
        34    9.045234E-04
        35   -3.867584E-05
        36   -1.947128E-05
        37   -9.218758E-04
        38    1.229798E-04
        39   -1.373227E-05
        40   -2.916697E-04
        41   -7.109074E-05
        42    3.985573E-05
        43   -1.947772E-05
        44   -4.456802E-03
        45   -9.048971E-03
        46   -5.559591E-03
        47    3.255293E-01
        48    4.751579E+00
        49    2.012197E-01
        50   -1.964466E-02
        51   -7.411886E-06
        52    4.850413E-03
        53   -7.560849E-02
        54   -3.113752E-05
        55    2.314679E-03
        56   -1.686643E+00
        57    6.487423E-03
        58    1.058529E-01
        59    6.871223E-04
        60    2.613265E-03
        61   -3.300387E-03
        62    4.980678E-07