[Molden Format]
[Title]
ADC(2) - opt by CAM-B3LYP gaussian                                              
[Atoms] AU
 c     1    6 -.12588699998532E+01 -.22834089986974E+01 -.24579904026210E-01
 c     2    6 -.25576598737242E+01 0.00000000000000E+00 -.23328905326240E-01
 c     3    6 -.12588681101271E+01 0.22834089986974E+01 -.24585573204610E-01
 c     4    6 0.13319747639512E+01 0.22851362083829E+01 -.26548998656670E-01
 c     5    6 0.26868460402678E+01 0.00000000000000E+00 -.25991529447470E-01
 c     6    6 0.13319728742250E+01 -.22851362083829E+01 -.26541439752140E-01
 h     7    1 -.22976467859220E+01 -.40383900994038E+01 -.22042001829740E-01
 h     8    1 -.22976448961959E+01 0.40383919891299E+01 -.22053340186540E-01
 h     9    1 0.23511286338561E+01 0.40572968093633E+01 -.28790213850280E-01
 h    10    1 0.23511267441300E+01 -.40572968093633E+01 -.28775096041210E-01
 n    11    7 -.52730224718766E+01 0.00000000000000E+00 -.17674844736640E-01
 o    12    8 -.63812882673039E+01 0.20269372576683E+01 -.15259774738810E-01
 o    13    8 -.63812844878516E+01 -.20269372576683E+01 -.15276782274010E-01
 n    14    7 0.52436643953234E+01 0.00000000000000E+00 -.69084844181800E-01
 h    15    1 0.62047866654136E+01 0.16174392738504E+01 0.18526851385235E+00
 h    16    1 0.62047847756874E+01 -.16174411635765E+01 0.18526473440008E+00
[GTO]
    1 0
 s    6 1.00
 0.13575349682000E+05 0.60645503603591E-03
 0.20352333680000E+04 0.46979088884982E-02
 0.46322562359000E+03 0.24332477647552E-01
 0.13120019598000E+03 0.97399968307759E-01
 0.42853015891000E+02 0.30195584253780E+00
 0.15584185766000E+02 0.66233609137875E+00
 s    2 1.00
 0.62067138508000E+01 0.65595308539952E+00
 0.25764896527000E+01 0.37585633285142E+00
 s    1 1.00
 0.57696339419000E+00 0.10000000000000E+01
 s    1 1.00
 0.22972831358000E+00 0.10000000000000E+01
 s    1 1.00
 0.95164440028000E-01 0.10000000000000E+01
 s    1 1.00
 0.48475401370000E-01 0.10000000000000E+01
 p    4 1.00
 0.34697232244000E+02 0.11327220003114E-01
 0.79582622826000E+01 0.76169659202087E-01
 0.23780826883000E+01 0.30192252202676E+00
 0.81433208183000E+00 0.72785027349547E+00
 p    1 1.00
 0.28887547253000E+00 0.10000000000000E+01
 p    1 1.00
 0.10056823671000E+00 0.10000000000000E+01
 d    1 1.00
 0.10970000000000E+01 0.10000000000000E+01
 d    1 1.00
 0.31800000000000E+00 0.10000000000000E+01
 d    1 1.00
 0.90985336424000E-01 0.10000000000000E+01
 f    1 1.00
 0.76100000000000E+00 0.10000000000000E+01
 
    2 0
 s    6 1.00
 0.13575349682000E+05 0.60645503603591E-03
 0.20352333680000E+04 0.46979088884982E-02
 0.46322562359000E+03 0.24332477647552E-01
 0.13120019598000E+03 0.97399968307759E-01
 0.42853015891000E+02 0.30195584253780E+00
 0.15584185766000E+02 0.66233609137875E+00
 s    2 1.00
 0.62067138508000E+01 0.65595308539952E+00
 0.25764896527000E+01 0.37585633285142E+00
 s    1 1.00
 0.57696339419000E+00 0.10000000000000E+01
 s    1 1.00
 0.22972831358000E+00 0.10000000000000E+01
 s    1 1.00
 0.95164440028000E-01 0.10000000000000E+01
 s    1 1.00
 0.48475401370000E-01 0.10000000000000E+01
 p    4 1.00
 0.34697232244000E+02 0.11327220003114E-01
 0.79582622826000E+01 0.76169659202087E-01
 0.23780826883000E+01 0.30192252202676E+00
 0.81433208183000E+00 0.72785027349547E+00
 p    1 1.00
 0.28887547253000E+00 0.10000000000000E+01
 p    1 1.00
 0.10056823671000E+00 0.10000000000000E+01
 d    1 1.00
 0.10970000000000E+01 0.10000000000000E+01
 d    1 1.00
 0.31800000000000E+00 0.10000000000000E+01
 d    1 1.00
 0.90985336424000E-01 0.10000000000000E+01
 f    1 1.00
 0.76100000000000E+00 0.10000000000000E+01
 
    3 0
 s    6 1.00
 0.13575349682000E+05 0.60645503603591E-03
 0.20352333680000E+04 0.46979088884982E-02
 0.46322562359000E+03 0.24332477647552E-01
 0.13120019598000E+03 0.97399968307759E-01
 0.42853015891000E+02 0.30195584253780E+00
 0.15584185766000E+02 0.66233609137875E+00
 s    2 1.00
 0.62067138508000E+01 0.65595308539952E+00
 0.25764896527000E+01 0.37585633285142E+00
 s    1 1.00
 0.57696339419000E+00 0.10000000000000E+01
 s    1 1.00
 0.22972831358000E+00 0.10000000000000E+01
 s    1 1.00
 0.95164440028000E-01 0.10000000000000E+01
 s    1 1.00
 0.48475401370000E-01 0.10000000000000E+01
 p    4 1.00
 0.34697232244000E+02 0.11327220003114E-01
 0.79582622826000E+01 0.76169659202087E-01
 0.23780826883000E+01 0.30192252202676E+00
 0.81433208183000E+00 0.72785027349547E+00
 p    1 1.00
 0.28887547253000E+00 0.10000000000000E+01
 p    1 1.00
 0.10056823671000E+00 0.10000000000000E+01
 d    1 1.00
 0.10970000000000E+01 0.10000000000000E+01
 d    1 1.00
 0.31800000000000E+00 0.10000000000000E+01
 d    1 1.00
 0.90985336424000E-01 0.10000000000000E+01
 f    1 1.00
 0.76100000000000E+00 0.10000000000000E+01
 
    4 0
 s    6 1.00
 0.13575349682000E+05 0.60645503603591E-03
 0.20352333680000E+04 0.46979088884982E-02
 0.46322562359000E+03 0.24332477647552E-01
 0.13120019598000E+03 0.97399968307759E-01
 0.42853015891000E+02 0.30195584253780E+00
 0.15584185766000E+02 0.66233609137875E+00
 s    2 1.00
 0.62067138508000E+01 0.65595308539952E+00
 0.25764896527000E+01 0.37585633285142E+00
 s    1 1.00
 0.57696339419000E+00 0.10000000000000E+01
 s    1 1.00
 0.22972831358000E+00 0.10000000000000E+01
 s    1 1.00
 0.95164440028000E-01 0.10000000000000E+01
 s    1 1.00
 0.48475401370000E-01 0.10000000000000E+01
 p    4 1.00
 0.34697232244000E+02 0.11327220003114E-01
 0.79582622826000E+01 0.76169659202087E-01
 0.23780826883000E+01 0.30192252202676E+00
 0.81433208183000E+00 0.72785027349547E+00
 p    1 1.00
 0.28887547253000E+00 0.10000000000000E+01
 p    1 1.00
 0.10056823671000E+00 0.10000000000000E+01
 d    1 1.00
 0.10970000000000E+01 0.10000000000000E+01
 d    1 1.00
 0.31800000000000E+00 0.10000000000000E+01
 d    1 1.00
 0.90985336424000E-01 0.10000000000000E+01
 f    1 1.00
 0.76100000000000E+00 0.10000000000000E+01
 
    5 0
 s    6 1.00
 0.13575349682000E+05 0.60645503603591E-03
 0.20352333680000E+04 0.46979088884982E-02
 0.46322562359000E+03 0.24332477647552E-01
 0.13120019598000E+03 0.97399968307759E-01
 0.42853015891000E+02 0.30195584253780E+00
 0.15584185766000E+02 0.66233609137875E+00
 s    2 1.00
 0.62067138508000E+01 0.65595308539952E+00
 0.25764896527000E+01 0.37585633285142E+00
 s    1 1.00
 0.57696339419000E+00 0.10000000000000E+01
 s    1 1.00
 0.22972831358000E+00 0.10000000000000E+01
 s    1 1.00
 0.95164440028000E-01 0.10000000000000E+01
 s    1 1.00
 0.48475401370000E-01 0.10000000000000E+01
 p    4 1.00
 0.34697232244000E+02 0.11327220003114E-01
 0.79582622826000E+01 0.76169659202087E-01
 0.23780826883000E+01 0.30192252202676E+00
 0.81433208183000E+00 0.72785027349547E+00
 p    1 1.00
 0.28887547253000E+00 0.10000000000000E+01
 p    1 1.00
 0.10056823671000E+00 0.10000000000000E+01
 d    1 1.00
 0.10970000000000E+01 0.10000000000000E+01
 d    1 1.00
 0.31800000000000E+00 0.10000000000000E+01
 d    1 1.00
 0.90985336424000E-01 0.10000000000000E+01
 f    1 1.00
 0.76100000000000E+00 0.10000000000000E+01
 
    6 0
 s    6 1.00
 0.13575349682000E+05 0.60645503603591E-03
 0.20352333680000E+04 0.46979088884982E-02
 0.46322562359000E+03 0.24332477647552E-01
 0.13120019598000E+03 0.97399968307759E-01
 0.42853015891000E+02 0.30195584253780E+00
 0.15584185766000E+02 0.66233609137875E+00
 s    2 1.00
 0.62067138508000E+01 0.65595308539952E+00
 0.25764896527000E+01 0.37585633285142E+00
 s    1 1.00
 0.57696339419000E+00 0.10000000000000E+01
 s    1 1.00
 0.22972831358000E+00 0.10000000000000E+01
 s    1 1.00
 0.95164440028000E-01 0.10000000000000E+01
 s    1 1.00
 0.48475401370000E-01 0.10000000000000E+01
 p    4 1.00
 0.34697232244000E+02 0.11327220003114E-01
 0.79582622826000E+01 0.76169659202087E-01
 0.23780826883000E+01 0.30192252202676E+00
 0.81433208183000E+00 0.72785027349547E+00
 p    1 1.00
 0.28887547253000E+00 0.10000000000000E+01
 p    1 1.00
 0.10056823671000E+00 0.10000000000000E+01
 d    1 1.00
 0.10970000000000E+01 0.10000000000000E+01
 d    1 1.00
 0.31800000000000E+00 0.10000000000000E+01
 d    1 1.00
 0.90985336424000E-01 0.10000000000000E+01
 f    1 1.00
 0.76100000000000E+00 0.10000000000000E+01
 
    7 0
 s    3 1.00
 0.34061341000000E+02 0.25439307208879E-01
 0.51235746000000E+01 0.19008594890375E+00
 0.11646626000000E+01 0.85244113011042E+00
 s    1 1.00
 0.32723041000000E+00 0.10000000000000E+01
 s    1 1.00
 0.10307241000000E+00 0.10000000000000E+01
 p    1 1.00
 0.80000000000000E+00 0.10000000000000E+01
 p    1 1.00
 0.95774129632000E-01 0.10000000000000E+01
 
    8 0
 s    3 1.00
 0.34061341000000E+02 0.25439307208879E-01
 0.51235746000000E+01 0.19008594890375E+00
 0.11646626000000E+01 0.85244113011042E+00
 s    1 1.00
 0.32723041000000E+00 0.10000000000000E+01
 s    1 1.00
 0.10307241000000E+00 0.10000000000000E+01
 p    1 1.00
 0.80000000000000E+00 0.10000000000000E+01
 p    1 1.00
 0.95774129632000E-01 0.10000000000000E+01
 
    9 0
 s    3 1.00
 0.34061341000000E+02 0.25439307208879E-01
 0.51235746000000E+01 0.19008594890375E+00
 0.11646626000000E+01 0.85244113011042E+00
 s    1 1.00
 0.32723041000000E+00 0.10000000000000E+01
 s    1 1.00
 0.10307241000000E+00 0.10000000000000E+01
 p    1 1.00
 0.80000000000000E+00 0.10000000000000E+01
 p    1 1.00
 0.95774129632000E-01 0.10000000000000E+01
 
   10 0
 s    3 1.00
 0.34061341000000E+02 0.25439307208879E-01
 0.51235746000000E+01 0.19008594890375E+00
 0.11646626000000E+01 0.85244113011042E+00
 s    1 1.00
 0.32723041000000E+00 0.10000000000000E+01
 s    1 1.00
 0.10307241000000E+00 0.10000000000000E+01
 p    1 1.00
 0.80000000000000E+00 0.10000000000000E+01
 p    1 1.00
 0.95774129632000E-01 0.10000000000000E+01
 
   11 0
 s    6 1.00
 0.19730800647000E+05 0.58626402628763E-03
 0.29578958745000E+04 0.45428820586397E-02
 0.67322133595000E+03 0.23558413450084E-01
 0.19068249494000E+03 0.94709193292923E-01
 0.62295441898000E+02 0.29719784913376E+00
 0.22654161182000E+02 0.66916246895232E+00
 s    2 1.00
 0.89791477428000E+01 0.64596683630063E+00
 0.36863002370000E+01 0.38700574393705E+00
 s    1 1.00
 0.84660076805000E+00 0.10000000000000E+01
 s    1 1.00
 0.33647133771000E+00 0.10000000000000E+01
 s    1 1.00
 0.13647653675000E+00 0.10000000000000E+01
 s    1 1.00
 0.68441605847000E-01 0.10000000000000E+01
 p    4 1.00
 0.49200380510000E+02 0.11448825101764E-01
 0.11346790537000E+02 0.78422337970864E-01
 0.34273972411000E+01 0.30818094738830E+00
 0.11785525134000E+01 0.72027196368413E+00
 p    1 1.00
 0.41642204972000E+00 0.10000000000000E+01
 p    1 1.00
 0.14260826011000E+00 0.10000000000000E+01
 d    1 1.00
 0.16540000000000E+01 0.10000000000000E+01
 d    1 1.00
 0.46900000000000E+00 0.10000000000000E+01
 d    1 1.00
 0.12829642058000E+00 0.10000000000000E+01
 f    1 1.00
 0.10930000000000E+01 0.10000000000000E+01
 
   12 0
 s    6 1.00
 0.27032382631000E+05 0.57227335211155E-03
 0.40523871392000E+04 0.44353233492995E-02
 0.92232722710000E+03 0.23020107706038E-01
 0.26124070989000E+03 0.92822490667928E-01
 0.85354641351000E+02 0.29378500009671E+00
 0.31035035245000E+02 0.67401604501641E+00
 s    2 1.00
 0.12260860728000E+02 0.63839937025506E+00
 0.49987076005000E+01 0.39534587125718E+00
 s    1 1.00
 0.11703108158000E+01 0.10000000000000E+01
 s    1 1.00
 0.46474740994000E+00 0.10000000000000E+01
 s    1 1.00
 0.18504536357000E+00 0.10000000000000E+01
 s    1 1.00
 0.70288026270000E-01 0.10000000000000E+01
 p    4 1.00
 0.63274954801000E+02 0.12018332222616E-01
 0.14627049379000E+02 0.83005421790056E-01
 0.44501223456000E+01 0.31991743925964E+00
 0.15275799647000E+01 0.70715542916104E+00
 p    1 1.00
 0.52935117943000E+00 0.10000000000000E+01
 p    1 1.00
 0.17478421270000E+00 0.10000000000000E+01
 p    1 1.00
 0.51112745706000E-01 0.10000000000000E+01
 d    1 1.00
 0.23140000000000E+01 0.10000000000000E+01
 d    1 1.00
 0.64500000000000E+00 0.10000000000000E+01
 d    1 1.00
 0.14696477366000E+00 0.10000000000000E+01
 f    1 1.00
 0.14280000000000E+01 0.10000000000000E+01
 
   13 0
 s    6 1.00
 0.27032382631000E+05 0.57227335211155E-03
 0.40523871392000E+04 0.44353233492995E-02
 0.92232722710000E+03 0.23020107706038E-01
 0.26124070989000E+03 0.92822490667928E-01
 0.85354641351000E+02 0.29378500009671E+00
 0.31035035245000E+02 0.67401604501641E+00
 s    2 1.00
 0.12260860728000E+02 0.63839937025506E+00
 0.49987076005000E+01 0.39534587125718E+00
 s    1 1.00
 0.11703108158000E+01 0.10000000000000E+01
 s    1 1.00
 0.46474740994000E+00 0.10000000000000E+01
 s    1 1.00
 0.18504536357000E+00 0.10000000000000E+01
 s    1 1.00
 0.70288026270000E-01 0.10000000000000E+01
 p    4 1.00
 0.63274954801000E+02 0.12018332222616E-01
 0.14627049379000E+02 0.83005421790056E-01
 0.44501223456000E+01 0.31991743925964E+00
 0.15275799647000E+01 0.70715542916104E+00
 p    1 1.00
 0.52935117943000E+00 0.10000000000000E+01
 p    1 1.00
 0.17478421270000E+00 0.10000000000000E+01
 p    1 1.00
 0.51112745706000E-01 0.10000000000000E+01
 d    1 1.00
 0.23140000000000E+01 0.10000000000000E+01
 d    1 1.00
 0.64500000000000E+00 0.10000000000000E+01
 d    1 1.00
 0.14696477366000E+00 0.10000000000000E+01
 f    1 1.00
 0.14280000000000E+01 0.10000000000000E+01
 
   14 0
 s    6 1.00
 0.19730800647000E+05 0.58626402628763E-03
 0.29578958745000E+04 0.45428820586397E-02
 0.67322133595000E+03 0.23558413450084E-01
 0.19068249494000E+03 0.94709193292923E-01
 0.62295441898000E+02 0.29719784913376E+00
 0.22654161182000E+02 0.66916246895232E+00
 s    2 1.00
 0.89791477428000E+01 0.64596683630063E+00
 0.36863002370000E+01 0.38700574393705E+00
 s    1 1.00
 0.84660076805000E+00 0.10000000000000E+01
 s    1 1.00
 0.33647133771000E+00 0.10000000000000E+01
 s    1 1.00
 0.13647653675000E+00 0.10000000000000E+01
 s    1 1.00
 0.68441605847000E-01 0.10000000000000E+01
 p    4 1.00
 0.49200380510000E+02 0.11448825101764E-01
 0.11346790537000E+02 0.78422337970864E-01
 0.34273972411000E+01 0.30818094738830E+00
 0.11785525134000E+01 0.72027196368413E+00
 p    1 1.00
 0.41642204972000E+00 0.10000000000000E+01
 p    1 1.00
 0.14260826011000E+00 0.10000000000000E+01
 d    1 1.00
 0.16540000000000E+01 0.10000000000000E+01
 d    1 1.00
 0.46900000000000E+00 0.10000000000000E+01
 d    1 1.00
 0.12829642058000E+00 0.10000000000000E+01
 f    1 1.00
 0.10930000000000E+01 0.10000000000000E+01
 
   15 0
 s    3 1.00
 0.34061341000000E+02 0.25439307208879E-01
 0.51235746000000E+01 0.19008594890375E+00
 0.11646626000000E+01 0.85244113011042E+00
 s    1 1.00
 0.32723041000000E+00 0.10000000000000E+01
 s    1 1.00
 0.10307241000000E+00 0.10000000000000E+01
 p    1 1.00
 0.80000000000000E+00 0.10000000000000E+01
 p    1 1.00
 0.95774129632000E-01 0.10000000000000E+01
 
   16 0
 s    3 1.00
 0.34061341000000E+02 0.25439307208879E-01
 0.51235746000000E+01 0.19008594890375E+00
 0.11646626000000E+01 0.85244113011042E+00
 s    1 1.00
 0.32723041000000E+00 0.10000000000000E+01
 s    1 1.00
 0.10307241000000E+00 0.10000000000000E+01
 p    1 1.00
 0.80000000000000E+00 0.10000000000000E+01
 p    1 1.00
 0.95774129632000E-01 0.10000000000000E+01
 
[MO]
 Sym= X
 Ene= -0.080358
 Spin= Alpha
 Occup= -0.080358
         1   -1.370618E-04
         2   -3.145998E-04
         3    9.163386E-04
         4   -2.145750E-03
         5   -1.041737E-02
         6   -9.378004E-03
         7    4.074305E-04
         8   -6.725850E-04
         9    2.915251E-02
        10   -2.689647E-03
        11   -3.660708E-04
        12    2.717968E-02
        13   -2.957828E-02
        14    8.320086E-03
        15    6.342249E-03
        16   -1.712436E-05
        17    4.427012E-06
        18    1.269735E-05
        19    2.378345E-05
        20   -6.541740E-03
        21    4.087988E-03
        22   -5.496523E-04
        23    3.220373E-04
        24    2.276150E-04
        25   -5.309652E-04
        26   -1.470840E-02
        27    7.683633E-03
        28   -4.548394E-03
        29    4.307120E-03
        30    2.412747E-04
        31    8.910201E-04
        32    1.194899E-03
        33   -9.250827E-03
        34   -1.931961E-05
        35    1.380174E-07
        36   -1.490763E-04
        37    7.603663E-06
        38   -1.919587E-06
        39   -6.916453E-04
        40    1.831632E-05
        41    1.734417E-06
        42    8.916521E-04
        43   -7.430356E-04
        44    1.027949E-04
        45    2.333062E-04
        46   -2.141194E-04
        47   -2.310094E-03
        48   -4.385870E-02
        49    4.355152E-03
        50   -1.359456E-04
        51    1.429766E-06
        52    2.178734E-01
        53   -6.097433E-04
        54    2.348186E-05
        55    2.254788E-01
        56   -1.491061E-02
        57   -1.445467E-03
        58    2.029262E-01
        59    1.496837E-05
        60   -1.825101E-05
        61    3.282633E-06
        62    1.782787E-07
        63   -1.065281E-03
        64    1.873595E-06
        65    2.703602E-04
        66   -4.714340E-04
        67    2.010739E-04
        68    4.731232E-06
        69   -4.116008E-03
        70    3.649134E-06
        71    6.778819E-03
        72   -7.721528E-03
        73    9.427087E-04
        74   -2.479554E-04
        75    5.383349E-03
        76   -2.457027E-05
        77    6.274701E-06
        78    8.822993E-08
        79   -1.289965E-03
        80   -7.486649E-06
        81   -5.131180E-09
        82    8.362067E-04
        83   -9.317453E-07
        84   -1.132417E-07
        85    8.944629E-04
        86    2.459304E-07
        87   -1.378303E-04
        88   -3.164895E-04
        89    9.286272E-04
        90   -2.227879E-03
        91   -7.989365E-03
        92   -9.295267E-03
        93    4.016729E-04
        94    6.747173E-04
        95    2.924620E-02
        96   -2.681196E-03
        97    3.851757E-04
        98    2.727069E-02
        99   -3.054931E-02
       100   -9.848750E-03
       101    6.489645E-03
       102   -1.754185E-05
       103    4.686061E-06
       104    1.285579E-05
       105   -2.375957E-05
       106   -6.540086E-03
       107   -4.088353E-03
       108   -5.470374E-04
       109    3.175814E-04
       110    2.294559E-04
       111    5.263089E-04
       112   -1.470265E-02
       113   -7.682954E-03
       114   -4.827490E-03
       115    4.616101E-03
       116    2.113887E-04
       117   -6.868069E-04
       118    1.189460E-03
       119    9.210113E-03
       120   -1.951346E-05
       121   -1.099213E-07
       122   -1.495979E-04
       123    7.914686E-06
       124    1.935501E-06
       125   -6.910498E-04
       126    1.826536E-05
       127   -1.788026E-06
       128    8.917565E-04
       129    7.429599E-04
       130    7.227204E-06
       131    7.483082E-06
       132    7.739606E-04
       133   -8.187968E-03
       134    2.766176E-02
       135    1.051112E-02
       136   -9.206359E-05
       137    1.481515E-04
       138   -1.572493E-01
       139   -6.678607E-03
       140    4.767679E-03
       141   -1.599151E-01
       142   -2.102135E-02
       143   -6.131391E-03
       144   -9.739156E-02
       145    7.321170E-05
       146   -8.943792E-05
       147    1.622622E-05
       148   -2.694087E-05
       149   -1.072350E-03
       150    3.178060E-03
       151    4.538268E-04
       152   -5.449640E-04
       153    9.113720E-05
       154    1.350017E-03
       155   -4.449476E-03
       156    5.433968E-03
       157    7.008563E-03
       158   -5.551528E-03
       159   -1.457035E-03
       160   -6.985890E-03
       161    3.176229E-03
       162   -1.053546E-02
       163   -1.318730E-05
       164    1.121325E-06
       165    8.990821E-04
       166   -1.080343E-05
       167    2.181631E-05
       168   -2.231692E-04
       169    2.849605E-05
       170   -2.332073E-05
       171   -9.830760E-04
       172    3.826661E-04
       173   -9.285946E-04
       174   -2.117103E-03
       175    2.179606E-03
       176    1.837078E-02
       177   -1.045095E-02
       178    7.998184E-03
       179    5.306926E-03
       180    8.850668E-06
       181   -1.272425E-01
       182   -9.731237E-04
       183   -4.931326E-06
       184   -1.293258E-01
       185   -1.908731E-02
       186    1.535501E-03
       187   -1.291792E-01
       188    2.856399E-04
       189   -1.259867E-04
       190   -1.596531E-04
       191   -1.902853E-07
       192    9.324301E-03
       193    1.754942E-06
       194   -1.614427E-03
       195    3.454339E-03
       196   -1.839912E-03
       197    2.554904E-06
       198    2.343049E-02
       199   -3.264570E-08
       200   -4.069263E-03
       201    5.169807E-03
       202   -1.100545E-03
       203   -2.887130E-04
       204    1.885232E-02
       205    6.273949E-06
       206    8.476937E-05
       207    5.829995E-08
       208    4.787777E-04
       209   -6.423168E-05
       210   -9.900817E-08
       211    8.553496E-04
       212   -4.949837E-05
       213    2.079058E-08
       214   -1.497697E-03
       215   -1.232962E-07
       216    8.123700E-06
       217    9.308409E-06
       218    7.780458E-04
       219   -8.271920E-03
       220    3.039803E-02
       221    1.055539E-02
       222   -1.005451E-04
       223   -1.520827E-04
       224   -1.573302E-01
       225   -6.685143E-03
       226   -4.786820E-03
       227   -1.600069E-01
       228   -1.991811E-02
       229    7.916451E-03
       230   -9.734855E-02
       231    7.304534E-05
       232   -9.011790E-05
       233    1.707255E-05
       234    2.649541E-05
       235   -1.070222E-03
       236   -3.178378E-03
       237    4.550793E-04
       238   -5.470121E-04
       239    9.193285E-05
       240   -1.352591E-03
       241   -4.443769E-03
       242   -5.434242E-03
       243    6.718492E-03
       244   -5.244952E-03
       245   -1.473539E-03
       246    7.228142E-03
       247    3.185911E-03
       248    1.058749E-02
       249   -1.311862E-05
       250   -1.183455E-06
       251    8.998841E-04
       252   -1.105329E-05
       253   -2.176818E-05
       254   -2.240313E-04
       255    2.865377E-05
       256    2.335595E-05
       257   -9.832899E-04
       258   -3.826754E-04
       259    3.077345E-04
       260    7.117646E-04
       261   -1.424822E-02
       262    2.387641E-05
       263    8.212252E-05
       264    1.141927E-03
       265   -4.484001E-03
       266   -1.004621E-04
       267   -5.909140E-03
       268    3.103813E-04
       269    7.239817E-04
       270   -1.404235E-02
       271    2.536238E-05
       272   -8.335790E-05
       273    1.146064E-03
       274   -4.631716E-03
       275   -2.235919E-05
       276   -5.879366E-03
       277   -1.599119E-04
       278   -1.693871E-03
       279    2.816759E-02
       280    1.138977E-06
       281    4.793155E-05
       282   -6.407621E-03
       283   -1.246211E-03
       284   -2.284918E-03
       285    3.793673E-04
       286   -1.610634E-04
       287   -1.691211E-03
       288    2.857342E-02
       289    9.709836E-07
       290   -4.774531E-05
       291   -6.411568E-03
       292   -1.125476E-03
       293    2.432757E-03
       294    4.078614E-04
       295   -1.833710E-05
       296   -4.279553E-05
       297   -4.858877E-06
       298    3.373693E-04
       299   -5.035504E-03
       300    1.817506E-03
       301    6.603261E-04
       302    1.552530E-06
       303    4.550388E-02
       304    3.504246E-04
       305    1.945468E-06
       306    4.653454E-02
       307   -2.579768E-03
       308    2.812404E-05
       309    1.656491E-02
       310    2.591852E-05
       311   -1.448512E-05
       312   -1.143340E-05
       313   -5.407342E-07
       314    4.348993E-03
       315   -2.036879E-07
       316    3.179675E-05
       317    3.700725E-05
       318   -6.880400E-05
       319   -2.014922E-06
       320    1.349501E-02
       321   -7.915589E-07
       322   -9.357791E-04
       323    2.401646E-03
       324   -1.465867E-03
       325    4.328923E-05
       326    4.153091E-03
       327    3.912084E-06
       328    6.206915E-06
       329   -1.167939E-07
       330   -1.600988E-04
       331   -2.332688E-06
       332    1.884286E-07
       333    7.824350E-04
       334   -5.994762E-06
       335   -3.173313E-08
       336   -5.676399E-04
       337    8.512813E-08
       338    5.561577E-05
       339    1.375981E-04
       340   -2.320228E-04
       341    9.157693E-05
       342   -5.024950E-03
       343   -8.920753E-04
       344   -2.182563E-04
       345    1.027624E-04
       346   -6.591135E-02
       347   -2.850141E-04
       348    2.227683E-04
       349   -6.152495E-02
       350   -1.308849E-03
       351    3.609115E-04
       352   -5.445804E-02
       353   -1.402458E-04
       354    1.977265E-04
       355   -7.310543E-03
       356    5.233583E-06
       357   -6.095858E-06
       358    8.622754E-07
       359    1.889178E-06
       360    1.915074E-04
       361    1.614300E-04
       362   -2.482945E-06
       363   -1.752207E-05
       364    2.000501E-05
       365    1.665436E-05
       366    3.143450E-05
       367    6.982064E-04
       368   -6.583164E-05
       369    5.326945E-05
       370    1.256219E-05
       371    8.099505E-05
       372   -9.542181E-06
       373   -1.432650E-04
       374    1.386073E-06
       375    1.858283E-06
       376    1.376462E-06
       377   -2.050518E-06
       378   -5.230565E-07
       379    8.364016E-05
       380    1.909062E-07
       381   -1.970091E-06
       382   -8.548688E-05
       383    5.463332E-05
       384    5.578760E-05
       385    1.379942E-04
       386   -2.320963E-04
       387    8.776894E-05
       388   -5.042895E-03
       389   -8.514616E-04
       390   -1.845053E-04
       391   -1.298261E-04
       392   -6.589483E-02
       393   -2.549675E-04
       394   -2.458532E-04
       395   -6.150992E-02
       396   -1.244571E-03
       397   -3.835512E-04
       398   -5.444176E-02
       399   -1.182302E-04
       400   -2.049281E-04
       401   -7.315473E-03
       402    5.437374E-06
       403   -6.407397E-06
       404    9.700236E-07
       405   -1.941079E-06
       406    1.915220E-04
       407   -1.613005E-04
       408   -1.280587E-06
       409   -1.837289E-05
       410    1.965348E-05
       411   -1.599416E-05
       412    3.172586E-05
       413   -6.977401E-04
       414   -6.443798E-05
       415    5.321278E-05
       416    1.122520E-05
       417   -7.950838E-05
       418   -1.072170E-05
       419    1.439725E-04
       420    1.412920E-06
       421   -1.948569E-06
       422    1.364669E-06
       423   -2.086874E-06
       424    6.340989E-07
       425    8.362348E-05
       426    1.912424E-07
       427    1.980181E-06
       428   -8.545438E-05
       429   -5.459773E-05
       430    4.146652E-03
       431    9.847688E-03
       432   -1.531270E-02
       433   -2.354557E-02
       434   -2.039443E-02
       435   -6.048962E-02
       436   -1.237360E-02
       437    7.269621E-06
       438    2.230505E-01
       439   -1.457521E-02
       440   -3.279194E-06
       441    2.210332E-01
       442   -1.310008E-02
       443   -1.176711E-04
       444    1.851833E-01
       445   -1.116328E-04
       446    3.641195E-05
       447    7.522089E-05
       448    8.568511E-08
       449    1.047248E-03
       450    3.321478E-07
       451   -2.620067E-04
       452   -1.145972E-03
       453    1.407979E-03
       454   -4.667196E-06
       455    4.251343E-03
       456    1.536021E-06
       457   -1.730839E-03
       458   -2.148669E-03
       459    3.879508E-03
       460   -1.370670E-05
       461    2.311520E-03
       462    1.253461E-05
       463   -1.153679E-04
       464   -3.766543E-10
       465   -8.403013E-04
       466   -6.810338E-05
       467   -6.462376E-09
       468    3.936456E-04
       469    2.228856E-04
       470    6.967711E-09
       471    7.337369E-04
       472    4.400788E-09
       473    8.390284E-03
       474    1.548175E-02
       475    2.500835E-02
       476   -1.823358E-03
       477   -1.612717E-03
       478    1.148826E-02
       479    1.581322E-03
       480   -2.921666E-03
       481    1.433118E-02
       482    8.386603E-03
       483    1.540328E-02
       484    2.465015E-02
       485   -1.819435E-03
       486    1.605003E-03
       487    1.149259E-02
       488    1.622921E-03
       489    2.869003E-03
       490    1.435174E-02
 Sym= X
 Ene= -0.760756
 Spin= Alpha
 Occup= -0.760756
         1   -3.381793E-04
         2   -7.731097E-04
         3    1.579816E-03
         4   -8.952159E-04
         5    4.517054E-03
         6   -1.009460E-02
         7    5.908456E-03
         8    9.033744E-04
         9   -1.389774E-01
        10    1.410081E-03
        11    1.131360E-03
        12   -1.369051E-01
        13   -1.965378E-02
        14    1.393078E-03
        15   -5.191923E-02
        16    1.549874E-04
        17   -1.447985E-04
        18   -1.018883E-05
        19   -7.580122E-05
        20    3.813369E-04
        21   -4.314306E-03
        22   -3.045814E-04
        23    1.862441E-04
        24    1.183373E-04
        25   -7.716814E-04
        26    1.406204E-03
        27   -7.181131E-03
        28   -1.897461E-03
        29    1.674291E-03
        30    2.231704E-04
        31    1.659652E-03
        32    6.978802E-03
        33   -4.877984E-03
        34   -9.539295E-07
        35    1.385546E-05
        36    1.164459E-03
        37   -2.420655E-07
        38   -1.282408E-05
        39   -6.429639E-04
        40    1.521896E-06
        41   -5.764973E-06
        42   -9.193222E-04
        43    4.899464E-04
        44    1.905968E-04
        45    4.248300E-04
        46   -2.739023E-04
        47   -4.709164E-03
        48   -1.334034E-02
        49    9.209765E-03
        50   -1.061384E-03
        51    8.342882E-06
        52   -2.052786E-01
        53   -1.762593E-03
        54    1.437094E-06
        55   -2.071488E-01
        56   -8.158231E-03
        57   -1.232777E-03
        58   -6.700719E-02
        59    1.887688E-04
        60   -1.922762E-04
        61    3.507392E-06
        62    3.800117E-07