[Molden Format]
[Title]
ADC(2) - opt by CAM-B3LYP gaussian                                              
[Atoms] AU
 c     1    6 -.12588699998532E+01 -.22834089986974E+01 -.24579904026210E-01
 c     2    6 -.25576598737242E+01 0.00000000000000E+00 -.23328905326240E-01
 c     3    6 -.12588681101271E+01 0.22834089986974E+01 -.24585573204610E-01
 c     4    6 0.13319747639512E+01 0.22851362083829E+01 -.26548998656670E-01
 c     5    6 0.26868460402678E+01 0.00000000000000E+00 -.25991529447470E-01
 c     6    6 0.13319728742250E+01 -.22851362083829E+01 -.26541439752140E-01
 h     7    1 -.22976467859220E+01 -.40383900994038E+01 -.22042001829740E-01
 h     8    1 -.22976448961959E+01 0.40383919891299E+01 -.22053340186540E-01
 h     9    1 0.23511286338561E+01 0.40572968093633E+01 -.28790213850280E-01
 h    10    1 0.23511267441300E+01 -.40572968093633E+01 -.28775096041210E-01
 n    11    7 -.52730224718766E+01 0.00000000000000E+00 -.17674844736640E-01
 o    12    8 -.63812882673039E+01 0.20269372576683E+01 -.15259774738810E-01
 o    13    8 -.63812844878516E+01 -.20269372576683E+01 -.15276782274010E-01
 n    14    7 0.52436643953234E+01 0.00000000000000E+00 -.69084844181800E-01
 h    15    1 0.62047866654136E+01 0.16174392738504E+01 0.18526851385235E+00
 h    16    1 0.62047847756874E+01 -.16174411635765E+01 0.18526473440008E+00
[GTO]
    1 0
 s    6 1.00
 0.13575349682000E+05 0.60645503603591E-03
 0.20352333680000E+04 0.46979088884982E-02
 0.46322562359000E+03 0.24332477647552E-01
 0.13120019598000E+03 0.97399968307759E-01
 0.42853015891000E+02 0.30195584253780E+00
 0.15584185766000E+02 0.66233609137875E+00
 s    2 1.00
 0.62067138508000E+01 0.65595308539952E+00
 0.25764896527000E+01 0.37585633285142E+00
 s    1 1.00
 0.57696339419000E+00 0.10000000000000E+01
 s    1 1.00
 0.22972831358000E+00 0.10000000000000E+01
 s    1 1.00
 0.95164440028000E-01 0.10000000000000E+01
 s    1 1.00
 0.48475401370000E-01 0.10000000000000E+01
 p    4 1.00
 0.34697232244000E+02 0.11327220003114E-01
 0.79582622826000E+01 0.76169659202087E-01
 0.23780826883000E+01 0.30192252202676E+00
 0.81433208183000E+00 0.72785027349547E+00
 p    1 1.00
 0.28887547253000E+00 0.10000000000000E+01
 p    1 1.00
 0.10056823671000E+00 0.10000000000000E+01
 d    1 1.00
 0.10970000000000E+01 0.10000000000000E+01
 d    1 1.00
 0.31800000000000E+00 0.10000000000000E+01
 d    1 1.00
 0.90985336424000E-01 0.10000000000000E+01
 f    1 1.00
 0.76100000000000E+00 0.10000000000000E+01
 
    2 0
 s    6 1.00
 0.13575349682000E+05 0.60645503603591E-03
 0.20352333680000E+04 0.46979088884982E-02
 0.46322562359000E+03 0.24332477647552E-01
 0.13120019598000E+03 0.97399968307759E-01
 0.42853015891000E+02 0.30195584253780E+00
 0.15584185766000E+02 0.66233609137875E+00
 s    2 1.00
 0.62067138508000E+01 0.65595308539952E+00
 0.25764896527000E+01 0.37585633285142E+00
 s    1 1.00
 0.57696339419000E+00 0.10000000000000E+01
 s    1 1.00
 0.22972831358000E+00 0.10000000000000E+01
 s    1 1.00
 0.95164440028000E-01 0.10000000000000E+01
 s    1 1.00
 0.48475401370000E-01 0.10000000000000E+01
 p    4 1.00
 0.34697232244000E+02 0.11327220003114E-01
 0.79582622826000E+01 0.76169659202087E-01
 0.23780826883000E+01 0.30192252202676E+00
 0.81433208183000E+00 0.72785027349547E+00
 p    1 1.00
 0.28887547253000E+00 0.10000000000000E+01
 p    1 1.00
 0.10056823671000E+00 0.10000000000000E+01
 d    1 1.00
 0.10970000000000E+01 0.10000000000000E+01
 d    1 1.00
 0.31800000000000E+00 0.10000000000000E+01
 d    1 1.00
 0.90985336424000E-01 0.10000000000000E+01
 f    1 1.00
 0.76100000000000E+00 0.10000000000000E+01
 
    3 0
 s    6 1.00
 0.13575349682000E+05 0.60645503603591E-03
 0.20352333680000E+04 0.46979088884982E-02
 0.46322562359000E+03 0.24332477647552E-01
 0.13120019598000E+03 0.97399968307759E-01
 0.42853015891000E+02 0.30195584253780E+00
 0.15584185766000E+02 0.66233609137875E+00
 s    2 1.00
 0.62067138508000E+01 0.65595308539952E+00
 0.25764896527000E+01 0.37585633285142E+00
 s    1 1.00
 0.57696339419000E+00 0.10000000000000E+01
 s    1 1.00
 0.22972831358000E+00 0.10000000000000E+01
 s    1 1.00
 0.95164440028000E-01 0.10000000000000E+01
 s    1 1.00
 0.48475401370000E-01 0.10000000000000E+01
 p    4 1.00
 0.34697232244000E+02 0.11327220003114E-01
 0.79582622826000E+01 0.76169659202087E-01
 0.23780826883000E+01 0.30192252202676E+00
 0.81433208183000E+00 0.72785027349547E+00
 p    1 1.00
 0.28887547253000E+00 0.10000000000000E+01
 p    1 1.00
 0.10056823671000E+00 0.10000000000000E+01
 d    1 1.00
 0.10970000000000E+01 0.10000000000000E+01
 d    1 1.00
 0.31800000000000E+00 0.10000000000000E+01
 d    1 1.00
 0.90985336424000E-01 0.10000000000000E+01
 f    1 1.00
 0.76100000000000E+00 0.10000000000000E+01
 
    4 0
 s    6 1.00
 0.13575349682000E+05 0.60645503603591E-03
 0.20352333680000E+04 0.46979088884982E-02
 0.46322562359000E+03 0.24332477647552E-01
 0.13120019598000E+03 0.97399968307759E-01
 0.42853015891000E+02 0.30195584253780E+00
 0.15584185766000E+02 0.66233609137875E+00
 s    2 1.00
 0.62067138508000E+01 0.65595308539952E+00
 0.25764896527000E+01 0.37585633285142E+00
 s    1 1.00
 0.57696339419000E+00 0.10000000000000E+01
 s    1 1.00
 0.22972831358000E+00 0.10000000000000E+01
 s    1 1.00
 0.95164440028000E-01 0.10000000000000E+01
 s    1 1.00
 0.48475401370000E-01 0.10000000000000E+01
 p    4 1.00
 0.34697232244000E+02 0.11327220003114E-01
 0.79582622826000E+01 0.76169659202087E-01
 0.23780826883000E+01 0.30192252202676E+00
 0.81433208183000E+00 0.72785027349547E+00
 p    1 1.00
 0.28887547253000E+00 0.10000000000000E+01
 p    1 1.00
 0.10056823671000E+00 0.10000000000000E+01
 d    1 1.00
 0.10970000000000E+01 0.10000000000000E+01
 d    1 1.00
 0.31800000000000E+00 0.10000000000000E+01
 d    1 1.00
 0.90985336424000E-01 0.10000000000000E+01
 f    1 1.00
 0.76100000000000E+00 0.10000000000000E+01
 
    5 0
 s    6 1.00
 0.13575349682000E+05 0.60645503603591E-03
 0.20352333680000E+04 0.46979088884982E-02
 0.46322562359000E+03 0.24332477647552E-01
 0.13120019598000E+03 0.97399968307759E-01
 0.42853015891000E+02 0.30195584253780E+00
 0.15584185766000E+02 0.66233609137875E+00
 s    2 1.00
 0.62067138508000E+01 0.65595308539952E+00
 0.25764896527000E+01 0.37585633285142E+00
 s    1 1.00
 0.57696339419000E+00 0.10000000000000E+01
 s    1 1.00
 0.22972831358000E+00 0.10000000000000E+01
 s    1 1.00
 0.95164440028000E-01 0.10000000000000E+01
 s    1 1.00
 0.48475401370000E-01 0.10000000000000E+01
 p    4 1.00
 0.34697232244000E+02 0.11327220003114E-01
 0.79582622826000E+01 0.76169659202087E-01
 0.23780826883000E+01 0.30192252202676E+00
 0.81433208183000E+00 0.72785027349547E+00
 p    1 1.00
 0.28887547253000E+00 0.10000000000000E+01
 p    1 1.00
 0.10056823671000E+00 0.10000000000000E+01
 d    1 1.00
 0.10970000000000E+01 0.10000000000000E+01
 d    1 1.00
 0.31800000000000E+00 0.10000000000000E+01
 d    1 1.00
 0.90985336424000E-01 0.10000000000000E+01
 f    1 1.00
 0.76100000000000E+00 0.10000000000000E+01
 
    6 0
 s    6 1.00
 0.13575349682000E+05 0.60645503603591E-03
 0.20352333680000E+04 0.46979088884982E-02
 0.46322562359000E+03 0.24332477647552E-01
 0.13120019598000E+03 0.97399968307759E-01
 0.42853015891000E+02 0.30195584253780E+00
 0.15584185766000E+02 0.66233609137875E+00
 s    2 1.00
 0.62067138508000E+01 0.65595308539952E+00
 0.25764896527000E+01 0.37585633285142E+00
 s    1 1.00
 0.57696339419000E+00 0.10000000000000E+01
 s    1 1.00
 0.22972831358000E+00 0.10000000000000E+01
 s    1 1.00
 0.95164440028000E-01 0.10000000000000E+01
 s    1 1.00
 0.48475401370000E-01 0.10000000000000E+01
 p    4 1.00
 0.34697232244000E+02 0.11327220003114E-01
 0.79582622826000E+01 0.76169659202087E-01
 0.23780826883000E+01 0.30192252202676E+00
 0.81433208183000E+00 0.72785027349547E+00
 p    1 1.00
 0.28887547253000E+00 0.10000000000000E+01
 p    1 1.00
 0.10056823671000E+00 0.10000000000000E+01
 d    1 1.00
 0.10970000000000E+01 0.10000000000000E+01
 d    1 1.00
 0.31800000000000E+00 0.10000000000000E+01
 d    1 1.00
 0.90985336424000E-01 0.10000000000000E+01
 f    1 1.00
 0.76100000000000E+00 0.10000000000000E+01
 
    7 0
 s    3 1.00
 0.34061341000000E+02 0.25439307208879E-01
 0.51235746000000E+01 0.19008594890375E+00
 0.11646626000000E+01 0.85244113011042E+00
 s    1 1.00
 0.32723041000000E+00 0.10000000000000E+01
 s    1 1.00
 0.10307241000000E+00 0.10000000000000E+01
 p    1 1.00
 0.80000000000000E+00 0.10000000000000E+01
 p    1 1.00
 0.95774129632000E-01 0.10000000000000E+01
 
    8 0
 s    3 1.00
 0.34061341000000E+02 0.25439307208879E-01
 0.51235746000000E+01 0.19008594890375E+00
 0.11646626000000E+01 0.85244113011042E+00
 s    1 1.00
 0.32723041000000E+00 0.10000000000000E+01
 s    1 1.00
 0.10307241000000E+00 0.10000000000000E+01
 p    1 1.00
 0.80000000000000E+00 0.10000000000000E+01
 p    1 1.00
 0.95774129632000E-01 0.10000000000000E+01
 
    9 0
 s    3 1.00
 0.34061341000000E+02 0.25439307208879E-01
 0.51235746000000E+01 0.19008594890375E+00
 0.11646626000000E+01 0.85244113011042E+00
 s    1 1.00
 0.32723041000000E+00 0.10000000000000E+01
 s    1 1.00
 0.10307241000000E+00 0.10000000000000E+01
 p    1 1.00
 0.80000000000000E+00 0.10000000000000E+01
 p    1 1.00
 0.95774129632000E-01 0.10000000000000E+01
 
   10 0
 s    3 1.00
 0.34061341000000E+02 0.25439307208879E-01
 0.51235746000000E+01 0.19008594890375E+00
 0.11646626000000E+01 0.85244113011042E+00
 s    1 1.00
 0.32723041000000E+00 0.10000000000000E+01
 s    1 1.00
 0.10307241000000E+00 0.10000000000000E+01
 p    1 1.00
 0.80000000000000E+00 0.10000000000000E+01
 p    1 1.00
 0.95774129632000E-01 0.10000000000000E+01
 
   11 0
 s    6 1.00
 0.19730800647000E+05 0.58626402628763E-03
 0.29578958745000E+04 0.45428820586397E-02
 0.67322133595000E+03 0.23558413450084E-01
 0.19068249494000E+03 0.94709193292923E-01
 0.62295441898000E+02 0.29719784913376E+00
 0.22654161182000E+02 0.66916246895232E+00
 s    2 1.00
 0.89791477428000E+01 0.64596683630063E+00
 0.36863002370000E+01 0.38700574393705E+00
 s    1 1.00
 0.84660076805000E+00 0.10000000000000E+01
 s    1 1.00
 0.33647133771000E+00 0.10000000000000E+01
 s    1 1.00
 0.13647653675000E+00 0.10000000000000E+01
 s    1 1.00
 0.68441605847000E-01 0.10000000000000E+01
 p    4 1.00
 0.49200380510000E+02 0.11448825101764E-01
 0.11346790537000E+02 0.78422337970864E-01
 0.34273972411000E+01 0.30818094738830E+00
 0.11785525134000E+01 0.72027196368413E+00
 p    1 1.00
 0.41642204972000E+00 0.10000000000000E+01
 p    1 1.00
 0.14260826011000E+00 0.10000000000000E+01
 d    1 1.00
 0.16540000000000E+01 0.10000000000000E+01
 d    1 1.00
 0.46900000000000E+00 0.10000000000000E+01
 d    1 1.00
 0.12829642058000E+00 0.10000000000000E+01
 f    1 1.00
 0.10930000000000E+01 0.10000000000000E+01
 
   12 0
 s    6 1.00
 0.27032382631000E+05 0.57227335211155E-03
 0.40523871392000E+04 0.44353233492995E-02
 0.92232722710000E+03 0.23020107706038E-01
 0.26124070989000E+03 0.92822490667928E-01
 0.85354641351000E+02 0.29378500009671E+00
 0.31035035245000E+02 0.67401604501641E+00
 s    2 1.00
 0.12260860728000E+02 0.63839937025506E+00
 0.49987076005000E+01 0.39534587125718E+00
 s    1 1.00
 0.11703108158000E+01 0.10000000000000E+01
 s    1 1.00
 0.46474740994000E+00 0.10000000000000E+01
 s    1 1.00
 0.18504536357000E+00 0.10000000000000E+01
 s    1 1.00
 0.70288026270000E-01 0.10000000000000E+01
 p    4 1.00
 0.63274954801000E+02 0.12018332222616E-01
 0.14627049379000E+02 0.83005421790056E-01
 0.44501223456000E+01 0.31991743925964E+00
 0.15275799647000E+01 0.70715542916104E+00
 p    1 1.00
 0.52935117943000E+00 0.10000000000000E+01
 p    1 1.00
 0.17478421270000E+00 0.10000000000000E+01
 p    1 1.00
 0.51112745706000E-01 0.10000000000000E+01
 d    1 1.00
 0.23140000000000E+01 0.10000000000000E+01
 d    1 1.00
 0.64500000000000E+00 0.10000000000000E+01
 d    1 1.00
 0.14696477366000E+00 0.10000000000000E+01
 f    1 1.00
 0.14280000000000E+01 0.10000000000000E+01
 
   13 0
 s    6 1.00
 0.27032382631000E+05 0.57227335211155E-03
 0.40523871392000E+04 0.44353233492995E-02
 0.92232722710000E+03 0.23020107706038E-01
 0.26124070989000E+03 0.92822490667928E-01
 0.85354641351000E+02 0.29378500009671E+00
 0.31035035245000E+02 0.67401604501641E+00
 s    2 1.00
 0.12260860728000E+02 0.63839937025506E+00
 0.49987076005000E+01 0.39534587125718E+00
 s    1 1.00
 0.11703108158000E+01 0.10000000000000E+01
 s    1 1.00
 0.46474740994000E+00 0.10000000000000E+01
 s    1 1.00
 0.18504536357000E+00 0.10000000000000E+01
 s    1 1.00
 0.70288026270000E-01 0.10000000000000E+01
 p    4 1.00
 0.63274954801000E+02 0.12018332222616E-01
 0.14627049379000E+02 0.83005421790056E-01
 0.44501223456000E+01 0.31991743925964E+00
 0.15275799647000E+01 0.70715542916104E+00
 p    1 1.00
 0.52935117943000E+00 0.10000000000000E+01
 p    1 1.00
 0.17478421270000E+00 0.10000000000000E+01
 p    1 1.00
 0.51112745706000E-01 0.10000000000000E+01
 d    1 1.00
 0.23140000000000E+01 0.10000000000000E+01
 d    1 1.00
 0.64500000000000E+00 0.10000000000000E+01
 d    1 1.00
 0.14696477366000E+00 0.10000000000000E+01
 f    1 1.00
 0.14280000000000E+01 0.10000000000000E+01
 
   14 0
 s    6 1.00
 0.19730800647000E+05 0.58626402628763E-03
 0.29578958745000E+04 0.45428820586397E-02
 0.67322133595000E+03 0.23558413450084E-01
 0.19068249494000E+03 0.94709193292923E-01
 0.62295441898000E+02 0.29719784913376E+00
 0.22654161182000E+02 0.66916246895232E+00
 s    2 1.00
 0.89791477428000E+01 0.64596683630063E+00
 0.36863002370000E+01 0.38700574393705E+00
 s    1 1.00
 0.84660076805000E+00 0.10000000000000E+01
 s    1 1.00
 0.33647133771000E+00 0.10000000000000E+01
 s    1 1.00
 0.13647653675000E+00 0.10000000000000E+01
 s    1 1.00
 0.68441605847000E-01 0.10000000000000E+01
 p    4 1.00
 0.49200380510000E+02 0.11448825101764E-01
 0.11346790537000E+02 0.78422337970864E-01
 0.34273972411000E+01 0.30818094738830E+00
 0.11785525134000E+01 0.72027196368413E+00
 p    1 1.00
 0.41642204972000E+00 0.10000000000000E+01
 p    1 1.00
 0.14260826011000E+00 0.10000000000000E+01
 d    1 1.00
 0.16540000000000E+01 0.10000000000000E+01
 d    1 1.00
 0.46900000000000E+00 0.10000000000000E+01
 d    1 1.00
 0.12829642058000E+00 0.10000000000000E+01
 f    1 1.00
 0.10930000000000E+01 0.10000000000000E+01
 
   15 0
 s    3 1.00
 0.34061341000000E+02 0.25439307208879E-01
 0.51235746000000E+01 0.19008594890375E+00
 0.11646626000000E+01 0.85244113011042E+00
 s    1 1.00
 0.32723041000000E+00 0.10000000000000E+01
 s    1 1.00
 0.10307241000000E+00 0.10000000000000E+01
 p    1 1.00
 0.80000000000000E+00 0.10000000000000E+01
 p    1 1.00
 0.95774129632000E-01 0.10000000000000E+01
 
   16 0
 s    3 1.00
 0.34061341000000E+02 0.25439307208879E-01
 0.51235746000000E+01 0.19008594890375E+00
 0.11646626000000E+01 0.85244113011042E+00
 s    1 1.00
 0.32723041000000E+00 0.10000000000000E+01
 s    1 1.00
 0.10307241000000E+00 0.10000000000000E+01
 p    1 1.00
 0.80000000000000E+00 0.10000000000000E+01
 p    1 1.00
 0.95774129632000E-01 0.10000000000000E+01
 
[MO]
 Sym= X
 Ene= -0.895822
 Spin= Alpha
 Occup= -0.895822
         1    5.507685E-03
         2    1.263260E-02
         3   -2.600449E-02
         4    7.906242E-03
         5   -1.998903E-01
         6   -3.330059E-02
         7    3.583235E-02
         8    2.301366E-03
         9   -1.046043E-04
        10    4.582212E-02
        11    3.622447E-03
        12   -1.067514E-04
        13    8.753610E-02
        14   -9.873592E-02
        15   -1.204863E-04
        16    1.209060E-03
        17   -1.428822E-03
        18    2.197612E-04
        19    2.435058E-04
        20   -1.678063E-06
        21    5.889142E-07
        22    9.474893E-03
        23   -6.462409E-03
        24   -3.012485E-03
        25   -1.115276E-03
        26   -1.850162E-05
        27    9.004297E-07
        28    1.368908E-03
        29   -5.025443E-03
        30    3.656535E-03
        31    1.685559E-02
        32    8.138540E-06
        33   -5.511112E-06
        34    2.740915E-05
        35   -1.359108E-04
        36    4.255168E-07
        37    6.208997E-05
        38    2.027984E-04
        39   -3.003572E-07
        40   -9.886320E-05
        41   -2.045487E-05
        42   -2.705335E-07
        43   -5.088597E-07
        44   -9.836998E-08
        45   -2.238050E-07
        46    1.527121E-07
        47    3.314367E-06
        48    2.416924E-05
        49   -4.975352E-06
        50   -6.406683E-07
        51    2.726919E-02
        52   -1.415362E-05
        53    9.966016E-07
        54    3.695850E-02
        55   -1.474679E-05
        56    1.182380E-05
        57   -2.307691E-01
        58   -3.438203E-05
        59    3.024782E-08
        60   -1.665098E-08
        61   -1.359684E-08
        62    1.975982E-03
        63    7.977003E-08
        64   -4.558327E-07
        65   -3.403321E-07
        66    4.044803E-07
        67   -6.414814E-08
        68   -2.688877E-03
        69    6.269352E-07
        70    1.096050E-05
        71    2.767746E-06
        72   -2.292949E-06
        73   -4.747969E-07
        74   -4.048931E-02
        75   -1.277228E-06
        76    5.503845E-05
        77   -6.679648E-09
        78    5.248346E-04
        79    1.034857E-07
        80    1.216798E-08
        81   -5.162459E-04
        82   -8.310839E-08
        83   -3.206294E-09
        84   -1.878936E-04
        85   -5.573227E-08
        86    8.524084E-07
        87   -5.507672E-03
        88   -1.263257E-02
        89    2.600448E-02
        90   -7.905093E-03
        91    1.998780E-01
        92    3.330878E-02
        93   -3.583269E-02
        94    2.301709E-03
        95    1.010737E-04
        96   -4.582006E-02
        97    3.624328E-03
        98    1.040303E-04
        99   -8.753214E-02
       100   -9.871153E-02
       101    1.142369E-04
       102   -1.209062E-03
       103    1.428826E-03
       104   -2.197641E-04
       105    2.435113E-04
       106    2.546813E-06
       107    1.115778E-06
       108   -9.474504E-03
       109    6.462139E-03
       110    3.012364E-03
       111   -1.115955E-03
       112    2.046566E-05
       113    1.774620E-06
       114   -1.365082E-03
       115    5.020231E-03
       116   -3.655149E-03
       117    1.685799E-02
       118   -1.576339E-05
       119   -1.418023E-05
       120   -2.741042E-05
       121   -1.359003E-04
       122   -4.204529E-07
       123   -6.209013E-05
       124    2.027930E-04
       125    4.110355E-07
       126    9.886507E-05
       127   -2.046355E-05
       128    1.530613E-07
       129   -6.044082E-07
       130    2.729922E-03
       131    6.199864E-03
       132   -1.215601E-02
       133    1.251975E-02
       134   -7.878713E-02
       135   -1.118432E-02
       136    2.195942E-02
       137   -2.062913E-04
       138    6.038013E-05
       139   -6.613773E-03
       140    6.283365E-03
       141    5.000712E-05
       142   -5.632025E-02
       143    3.589721E-02
       144    8.251034E-05
       145   -5.548084E-04
       146    4.593682E-04
       147    9.544013E-05
       148   -1.372819E-04
       149   -1.068345E-06
       150   -7.014245E-07
       151    4.941587E-03
       152   -3.336602E-03
       153   -1.604985E-03
       154    2.194862E-04
       155   -1.659751E-05
       156    1.064405E-05
       157    1.263312E-02
       158   -1.357778E-02
       159    9.446576E-04
       160    4.767123E-03
       161    2.373317E-06
       162    2.059498E-05
       163   -1.451490E-05
       164    3.340355E-05
       165    1.045321E-07
       166    1.763290E-05
       167   -3.171057E-05
       168    1.476922E-07
       169    1.840888E-06
       170   -1.310499E-05
       171   -2.879367E-07
       172    7.886826E-07
       173    7.665198E-08
       174    1.792981E-07
       175   -2.705318E-07
       176   -1.679532E-06
       177   -3.071290E-05
       178    2.515486E-06
       179   -5.650042E-07
       180    9.942398E-03
       181    7.536075E-06
       182   -9.089693E-07
       183    1.681045E-02
       184    7.581336E-06
       185    1.750845E-05
       186    9.419541E-02
       187    9.076675E-06
       188   -3.286342E-08
       189    9.999559E-09
       190    2.286386E-08
       191    1.218766E-04
       192   -6.334864E-07
       193   -2.497962E-06
       194   -1.444706E-07
       195    4.890133E-08
       196    9.556931E-08
       197   -3.192500E-03
       198   -1.623998E-06
       199    3.092231E-05
       200   -2.930054E-06
       201    2.011847E-06
       202    9.182064E-07
       203   -1.403607E-02
       204   -2.004938E-07
       205    6.161584E-06
       206   -1.062486E-08
       207    1.256815E-04
       208   -2.757408E-08
       209    4.311502E-09
       210   -1.132955E-04
       211   -6.396242E-08
       212    9.943238E-09
       213   -5.532396E-05
       214    1.009569E-07
       215   -1.737441E-07
       216   -2.729959E-03
       217   -6.199947E-03
       218    1.215640E-02
       219   -1.252252E-02
       220    7.880913E-02
       221    1.117790E-02
       222   -2.195945E-02
       223   -2.062622E-04
       224   -3.997077E-05
       225    6.615266E-03
       226    6.283297E-03
       227   -3.032463E-05
       228    5.632313E-02
       229    3.591842E-02
       230   -5.243108E-05
       231    5.547842E-04
       232   -4.593586E-04
       233   -9.542564E-05
       234   -1.372721E-04
       235    1.214533E-06
       236   -3.095823E-07
       237   -4.941941E-03
       238    3.336885E-03
       239    1.605056E-03
       240    2.196621E-04
       241    1.704925E-05
       242    1.125145E-05
       243   -1.263823E-02
       244    1.358461E-02
       245   -9.463802E-04
       246    4.761928E-03
       247   -7.719873E-06
       248    1.742066E-05
       249    1.452073E-05
       250    3.341276E-05
       251   -2.274972E-07
       252   -1.764130E-05
       253   -3.172204E-05
       254   -1.080091E-07
       255   -1.840302E-06
       256   -1.310588E-05
       257    4.132287E-07
       258    8.383638E-07
       259   -1.247223E-02
       260   -1.700348E-02
       261   -3.526850E-02
       262   -1.645629E-03
       263   -2.218310E-03
       264    9.414787E-07
       265   -4.595569E-03
       266   -1.029236E-03
       267    2.991887E-05
       268    1.247233E-02
       269    1.700293E-02
       270    3.527513E-02
       271    1.645615E-03
       272   -2.218251E-03
       273   -1.193408E-06
       274    4.596855E-03
       275   -1.028543E-03
       276   -2.211146E-05
       277    2.452372E-03
       278    4.606432E-03
       279    1.801773E-02
       280    2.470950E-04
       281   -3.413766E-04
       282    3.236195E-06
       283   -2.697879E-03
       284    2.418237E-04
       285   -2.453338E-05
       286   -2.452396E-03
       287   -4.606285E-03
       288   -1.803271E-02
       289   -2.470967E-04
       290   -3.413393E-04
       291   -2.338711E-06
       292    2.698639E-03
       293    2.429555E-04
       294    2.537605E-05
       295    1.067359E-08
       296    2.316968E-08
       297   -7.638866E-09
       298   -5.548954E-07
       299    6.944897E-07
       300    8.919431E-07
       301    3.595569E-07
       302    3.413271E-02
       303   -3.290596E-06
       304    6.063816E-07
       305    2.583982E-02
       306   -4.525364E-06
       307    1.851007E-06
       308   -3.901057E-03
       309   -8.084265E-06
       310    6.924004E-08
       311   -9.493004E-08
       312    2.569000E-08
       313   -9.467017E-03
       314   -4.435053E-07
       315    2.021561E-05
       316    3.248836E-07
       317   -2.609629E-07
       318   -6.392075E-08
       319   -2.636424E-02
       320   -5.610036E-07
       321    5.668637E-05
       322   -1.413422E-08
       323    6.747754E-08
       324   -5.334332E-08
       325    8.723183E-03
       326    5.188343E-06
       327   -1.983146E-05
       328   -5.559719E-09
       329   -2.224050E-03
       330    1.758198E-08
       331    8.668908E-09
       332    3.125229E-03
       333   -4.001288E-08
       334   -1.209763E-09
       335   -1.413529E-04
       336    1.642417E-08
       337   -8.060692E-06
       338   -1.415722E-03
       339   -3.604093E-03
       340    5.301942E-03
       341   -1.303658E-03
       342    1.197045E-02
       343   -1.532252E-02
       344   -2.627623E-01
       345   -2.280953E-01
       346    5.632272E-04
       347   -2.386279E-01
       348   -1.999428E-01
       349    5.107817E-04
       350   -1.806594E-01
       351   -1.467697E-01
       352    3.961144E-04
       353   -2.943990E-02
       354   -1.534919E-02
       355    6.525714E-05
       356   -2.105914E-03
       357    2.711708E-03
       358   -6.057943E-04
       359   -1.804572E-05
       360    3.647083E-06
       361    1.050010E-07
       362   -6.379673E-03
       363    7.064046E-03
       364   -6.843727E-04
       365    1.241520E-03
       366    1.369357E-05
       367   -2.850285E-06
       368   -7.099785E-03
       369    6.456904E-03
       370    6.428811E-04
       371    1.590767E-03
       372    1.493030E-05
       373   -7.739747E-06
       374   -2.487723E-04
       375   -7.876464E-04
       376    5.484650E-07
       377    4.516090E-04
       378    8.843193E-04
       379    2.652364E-07
       380   -1.178460E-04
       381    1.724193E-04
       382   -1.001079E-06
       383   -1.726047E-06
       384    1.415815E-03
       385    3.604324E-03
       386   -5.302323E-03
       387    1.303205E-03
       388   -1.197095E-02
       389    1.532176E-02
       390    2.627587E-01
       391   -2.280938E-01
       392   -5.526223E-04
       393    2.386247E-01
       394   -1.999413E-01
       395   -5.016006E-04
       396    1.806566E-01
       397   -1.467676E-01
       398   -3.727381E-04
       399    2.943939E-02
       400   -1.534880E-02
       401   -6.411533E-05
       402    2.105906E-03
       403   -2.711712E-03
       404    6.058063E-04
       405   -1.807572E-05
       406   -3.770977E-06
       407    9.828169E-08
       408    6.379611E-03
       409   -7.064022E-03
       410    6.844111E-04
       411    1.241473E-03
       412   -1.432899E-05
       413   -2.044078E-06
       414    7.099734E-03
       415   -6.456850E-03
       416   -6.428839E-04
       417    1.590936E-03
       418   -2.157706E-05
       419   -1.952226E-06
       420    2.487718E-04
       421   -7.876381E-04
       422   -6.354798E-07
       423   -4.516135E-04
       424    8.843063E-04
       425   -1.932123E-07
       426    1.178511E-04
       427    1.724211E-04
       428    1.045798E-06
       429   -1.792771E-06
       430   -2.974194E-07
       431   -7.068637E-07
       432    1.097005E-06
       433    2.009687E-06
       434    1.016566E-06
       435    3.511810E-06
       436    1.164656E-06
       437   -3.699157E-03
       438   -1.586312E-05
       439    1.015085E-06
       440   -2.307691E-03
       441   -1.566465E-05
       442   -8.213665E-07
       443   -4.046225E-03
       444   -1.349992E-05
       445   -5.340629E-10
       446    7.104991E-09
       447   -6.570929E-09
       448   -2.306937E-04
       449   -5.433545E-08
       450   -3.561203E-05
       451    1.153701E-07
       452   -1.021571E-08
       453   -1.051544E-07
       454   -9.992590E-04
       455   -2.438480E-07
       456   -4.938904E-05
       457    7.127274E-07
       458   -5.090649E-07
       459   -2.036625E-07
       460    1.125552E-03
       461   -3.184776E-07
       462   -5.765283E-05
       463    8.420621E-09
       464   -4.495588E-05
       465    6.315173E-08
       466    3.835511E-09
       467    5.554043E-05
       468   -3.246551E-08
       469   -1.513296E-08
       470    4.774222E-06
       471   -5.226143E-08
       472   -9.698228E-06
       473   -2.096744E-03
       474   -2.985744E-03
       475   -3.617896E-03
       476    1.271808E-04
       477    1.743204E-04
       478    3.516748E-05
       479    6.530651E-04
       480    2.798852E-04
       481    1.749588E-04
       482    2.095685E-03
       483    2.984586E-03
       484    3.620392E-03
       485   -1.269753E-04
       486    1.741529E-04
       487   -3.666077E-05
       488   -6.550385E-04
       489    2.796182E-04
       490   -1.764186E-04
 Sym= X
 Ene= 0.895822
 Spin= Alpha
 Occup= 0.895822
         1    1.932736E-05
         2    4.583585E-05
         3   -1.351126E-04
         4    7.923077E-05
         5    3.042432E-02
         6   -3.121843E-04
         7   -2.087318E-04
         8   -6.556810E-05
         9   -9.685843E-02
        10   -2.907705E-04
        11   -1.789498E-05
        12   -9.625360E-02
        13    2.028490E-02
        14   -1.494260E-02
        15   -5.433251E-02
        16   -6.332523E-06
        17    2.089364E-06
        18    4.243159E-06
        19   -2.482422E-06
        20    4.230817E-04
        21   -6.407638E-04
        22    9.294650E-05
        23   -3.061504E-05
        24   -6.233146E-05
        25    1.489468E-05
        26    5.329151E-03
        27    6.807739E-05
        28    6.410667E-03
        29   -6.795038E-03
        30    3.843708E-04
        31    2.387590E-04
        32    6.635607E-03
        33    1.455976E-02
        34    2.822388E-06
        35   -1.376119E-06
        36    1.850243E-04
        37   -3.509422E-06
        38    2.888665E-07
        39    1.438204E-04
        40   -2.772095E-07
        41    1.557390E-06
        42   -3.920566E-04
        43   -3.693266E-05
        44    5.830585E-06
        45    9.893482E-06
        46    8.276958E-05
        47   -1.634700E-03
        48    5.929471E-02
        49    6.016763E-03
        50   -2.248448E-05
        51   -1.764730E-08
        52   -1.120884E-03
        53   -2.292468E-04
        54    2.108874E-06
        55   -4.269552E-03
        56    1.978723E-02
        57    2.455971E-05
        58   -6.079630E-02
        59   -3.311840E-05
        60   -3.911051E-06
        61    3.702945E-05
        62    6.618634E-08