[Molden Format]
[Title]
ADC(2) - opt by CAM-B3LYP gaussian                                              
[Atoms] AU
 c     1    6 -.12588699998532E+01 -.22834089986974E+01 -.24579904026210E-01
 c     2    6 -.25576598737242E+01 0.00000000000000E+00 -.23328905326240E-01
 c     3    6 -.12588681101271E+01 0.22834089986974E+01 -.24585573204610E-01
 c     4    6 0.13319747639512E+01 0.22851362083829E+01 -.26548998656670E-01
 c     5    6 0.26868460402678E+01 0.00000000000000E+00 -.25991529447470E-01
 c     6    6 0.13319728742250E+01 -.22851362083829E+01 -.26541439752140E-01
 h     7    1 -.22976467859220E+01 -.40383900994038E+01 -.22042001829740E-01
 h     8    1 -.22976448961959E+01 0.40383919891299E+01 -.22053340186540E-01
 h     9    1 0.23511286338561E+01 0.40572968093633E+01 -.28790213850280E-01
 h    10    1 0.23511267441300E+01 -.40572968093633E+01 -.28775096041210E-01
 n    11    7 -.52730224718766E+01 0.00000000000000E+00 -.17674844736640E-01
 o    12    8 -.63812882673039E+01 0.20269372576683E+01 -.15259774738810E-01
 o    13    8 -.63812844878516E+01 -.20269372576683E+01 -.15276782274010E-01
 n    14    7 0.52436643953234E+01 0.00000000000000E+00 -.69084844181800E-01
 h    15    1 0.62047866654136E+01 0.16174392738504E+01 0.18526851385235E+00
 h    16    1 0.62047847756874E+01 -.16174411635765E+01 0.18526473440008E+00
[GTO]
    1 0
 s    6 1.00
 0.13575349682000E+05 0.60645503603591E-03
 0.20352333680000E+04 0.46979088884982E-02
 0.46322562359000E+03 0.24332477647552E-01
 0.13120019598000E+03 0.97399968307759E-01
 0.42853015891000E+02 0.30195584253780E+00
 0.15584185766000E+02 0.66233609137875E+00
 s    2 1.00
 0.62067138508000E+01 0.65595308539952E+00
 0.25764896527000E+01 0.37585633285142E+00
 s    1 1.00
 0.57696339419000E+00 0.10000000000000E+01
 s    1 1.00
 0.22972831358000E+00 0.10000000000000E+01
 s    1 1.00
 0.95164440028000E-01 0.10000000000000E+01
 s    1 1.00
 0.48475401370000E-01 0.10000000000000E+01
 p    4 1.00
 0.34697232244000E+02 0.11327220003114E-01
 0.79582622826000E+01 0.76169659202087E-01
 0.23780826883000E+01 0.30192252202676E+00
 0.81433208183000E+00 0.72785027349547E+00
 p    1 1.00
 0.28887547253000E+00 0.10000000000000E+01
 p    1 1.00
 0.10056823671000E+00 0.10000000000000E+01
 d    1 1.00
 0.10970000000000E+01 0.10000000000000E+01
 d    1 1.00
 0.31800000000000E+00 0.10000000000000E+01
 d    1 1.00
 0.90985336424000E-01 0.10000000000000E+01
 f    1 1.00
 0.76100000000000E+00 0.10000000000000E+01
 
    2 0
 s    6 1.00
 0.13575349682000E+05 0.60645503603591E-03
 0.20352333680000E+04 0.46979088884982E-02
 0.46322562359000E+03 0.24332477647552E-01
 0.13120019598000E+03 0.97399968307759E-01
 0.42853015891000E+02 0.30195584253780E+00
 0.15584185766000E+02 0.66233609137875E+00
 s    2 1.00
 0.62067138508000E+01 0.65595308539952E+00
 0.25764896527000E+01 0.37585633285142E+00
 s    1 1.00
 0.57696339419000E+00 0.10000000000000E+01
 s    1 1.00
 0.22972831358000E+00 0.10000000000000E+01
 s    1 1.00
 0.95164440028000E-01 0.10000000000000E+01
 s    1 1.00
 0.48475401370000E-01 0.10000000000000E+01
 p    4 1.00
 0.34697232244000E+02 0.11327220003114E-01
 0.79582622826000E+01 0.76169659202087E-01
 0.23780826883000E+01 0.30192252202676E+00
 0.81433208183000E+00 0.72785027349547E+00
 p    1 1.00
 0.28887547253000E+00 0.10000000000000E+01
 p    1 1.00
 0.10056823671000E+00 0.10000000000000E+01
 d    1 1.00
 0.10970000000000E+01 0.10000000000000E+01
 d    1 1.00
 0.31800000000000E+00 0.10000000000000E+01
 d    1 1.00
 0.90985336424000E-01 0.10000000000000E+01
 f    1 1.00
 0.76100000000000E+00 0.10000000000000E+01
 
    3 0
 s    6 1.00
 0.13575349682000E+05 0.60645503603591E-03
 0.20352333680000E+04 0.46979088884982E-02
 0.46322562359000E+03 0.24332477647552E-01
 0.13120019598000E+03 0.97399968307759E-01
 0.42853015891000E+02 0.30195584253780E+00
 0.15584185766000E+02 0.66233609137875E+00
 s    2 1.00
 0.62067138508000E+01 0.65595308539952E+00
 0.25764896527000E+01 0.37585633285142E+00
 s    1 1.00
 0.57696339419000E+00 0.10000000000000E+01
 s    1 1.00
 0.22972831358000E+00 0.10000000000000E+01
 s    1 1.00
 0.95164440028000E-01 0.10000000000000E+01
 s    1 1.00
 0.48475401370000E-01 0.10000000000000E+01
 p    4 1.00
 0.34697232244000E+02 0.11327220003114E-01
 0.79582622826000E+01 0.76169659202087E-01
 0.23780826883000E+01 0.30192252202676E+00
 0.81433208183000E+00 0.72785027349547E+00
 p    1 1.00
 0.28887547253000E+00 0.10000000000000E+01
 p    1 1.00
 0.10056823671000E+00 0.10000000000000E+01
 d    1 1.00
 0.10970000000000E+01 0.10000000000000E+01
 d    1 1.00
 0.31800000000000E+00 0.10000000000000E+01
 d    1 1.00
 0.90985336424000E-01 0.10000000000000E+01
 f    1 1.00
 0.76100000000000E+00 0.10000000000000E+01
 
    4 0
 s    6 1.00
 0.13575349682000E+05 0.60645503603591E-03
 0.20352333680000E+04 0.46979088884982E-02
 0.46322562359000E+03 0.24332477647552E-01
 0.13120019598000E+03 0.97399968307759E-01
 0.42853015891000E+02 0.30195584253780E+00
 0.15584185766000E+02 0.66233609137875E+00
 s    2 1.00
 0.62067138508000E+01 0.65595308539952E+00
 0.25764896527000E+01 0.37585633285142E+00
 s    1 1.00
 0.57696339419000E+00 0.10000000000000E+01
 s    1 1.00
 0.22972831358000E+00 0.10000000000000E+01
 s    1 1.00
 0.95164440028000E-01 0.10000000000000E+01
 s    1 1.00
 0.48475401370000E-01 0.10000000000000E+01
 p    4 1.00
 0.34697232244000E+02 0.11327220003114E-01
 0.79582622826000E+01 0.76169659202087E-01
 0.23780826883000E+01 0.30192252202676E+00
 0.81433208183000E+00 0.72785027349547E+00
 p    1 1.00
 0.28887547253000E+00 0.10000000000000E+01
 p    1 1.00
 0.10056823671000E+00 0.10000000000000E+01
 d    1 1.00
 0.10970000000000E+01 0.10000000000000E+01
 d    1 1.00
 0.31800000000000E+00 0.10000000000000E+01
 d    1 1.00
 0.90985336424000E-01 0.10000000000000E+01
 f    1 1.00
 0.76100000000000E+00 0.10000000000000E+01
 
    5 0
 s    6 1.00
 0.13575349682000E+05 0.60645503603591E-03
 0.20352333680000E+04 0.46979088884982E-02
 0.46322562359000E+03 0.24332477647552E-01
 0.13120019598000E+03 0.97399968307759E-01
 0.42853015891000E+02 0.30195584253780E+00
 0.15584185766000E+02 0.66233609137875E+00
 s    2 1.00
 0.62067138508000E+01 0.65595308539952E+00
 0.25764896527000E+01 0.37585633285142E+00
 s    1 1.00
 0.57696339419000E+00 0.10000000000000E+01
 s    1 1.00
 0.22972831358000E+00 0.10000000000000E+01
 s    1 1.00
 0.95164440028000E-01 0.10000000000000E+01
 s    1 1.00
 0.48475401370000E-01 0.10000000000000E+01
 p    4 1.00
 0.34697232244000E+02 0.11327220003114E-01
 0.79582622826000E+01 0.76169659202087E-01
 0.23780826883000E+01 0.30192252202676E+00
 0.81433208183000E+00 0.72785027349547E+00
 p    1 1.00
 0.28887547253000E+00 0.10000000000000E+01
 p    1 1.00
 0.10056823671000E+00 0.10000000000000E+01
 d    1 1.00
 0.10970000000000E+01 0.10000000000000E+01
 d    1 1.00
 0.31800000000000E+00 0.10000000000000E+01
 d    1 1.00
 0.90985336424000E-01 0.10000000000000E+01
 f    1 1.00
 0.76100000000000E+00 0.10000000000000E+01
 
    6 0
 s    6 1.00
 0.13575349682000E+05 0.60645503603591E-03
 0.20352333680000E+04 0.46979088884982E-02
 0.46322562359000E+03 0.24332477647552E-01
 0.13120019598000E+03 0.97399968307759E-01
 0.42853015891000E+02 0.30195584253780E+00
 0.15584185766000E+02 0.66233609137875E+00
 s    2 1.00
 0.62067138508000E+01 0.65595308539952E+00
 0.25764896527000E+01 0.37585633285142E+00
 s    1 1.00
 0.57696339419000E+00 0.10000000000000E+01
 s    1 1.00
 0.22972831358000E+00 0.10000000000000E+01
 s    1 1.00
 0.95164440028000E-01 0.10000000000000E+01
 s    1 1.00
 0.48475401370000E-01 0.10000000000000E+01
 p    4 1.00
 0.34697232244000E+02 0.11327220003114E-01
 0.79582622826000E+01 0.76169659202087E-01
 0.23780826883000E+01 0.30192252202676E+00
 0.81433208183000E+00 0.72785027349547E+00
 p    1 1.00
 0.28887547253000E+00 0.10000000000000E+01
 p    1 1.00
 0.10056823671000E+00 0.10000000000000E+01
 d    1 1.00
 0.10970000000000E+01 0.10000000000000E+01
 d    1 1.00
 0.31800000000000E+00 0.10000000000000E+01
 d    1 1.00
 0.90985336424000E-01 0.10000000000000E+01
 f    1 1.00
 0.76100000000000E+00 0.10000000000000E+01
 
    7 0
 s    3 1.00
 0.34061341000000E+02 0.25439307208879E-01
 0.51235746000000E+01 0.19008594890375E+00
 0.11646626000000E+01 0.85244113011042E+00
 s    1 1.00
 0.32723041000000E+00 0.10000000000000E+01
 s    1 1.00
 0.10307241000000E+00 0.10000000000000E+01
 p    1 1.00
 0.80000000000000E+00 0.10000000000000E+01
 p    1 1.00
 0.95774129632000E-01 0.10000000000000E+01
 
    8 0
 s    3 1.00
 0.34061341000000E+02 0.25439307208879E-01
 0.51235746000000E+01 0.19008594890375E+00
 0.11646626000000E+01 0.85244113011042E+00
 s    1 1.00
 0.32723041000000E+00 0.10000000000000E+01
 s    1 1.00
 0.10307241000000E+00 0.10000000000000E+01
 p    1 1.00
 0.80000000000000E+00 0.10000000000000E+01
 p    1 1.00
 0.95774129632000E-01 0.10000000000000E+01
 
    9 0
 s    3 1.00
 0.34061341000000E+02 0.25439307208879E-01
 0.51235746000000E+01 0.19008594890375E+00
 0.11646626000000E+01 0.85244113011042E+00
 s    1 1.00
 0.32723041000000E+00 0.10000000000000E+01
 s    1 1.00
 0.10307241000000E+00 0.10000000000000E+01
 p    1 1.00
 0.80000000000000E+00 0.10000000000000E+01
 p    1 1.00
 0.95774129632000E-01 0.10000000000000E+01
 
   10 0
 s    3 1.00
 0.34061341000000E+02 0.25439307208879E-01
 0.51235746000000E+01 0.19008594890375E+00
 0.11646626000000E+01 0.85244113011042E+00
 s    1 1.00
 0.32723041000000E+00 0.10000000000000E+01
 s    1 1.00
 0.10307241000000E+00 0.10000000000000E+01
 p    1 1.00
 0.80000000000000E+00 0.10000000000000E+01
 p    1 1.00
 0.95774129632000E-01 0.10000000000000E+01
 
   11 0
 s    6 1.00
 0.19730800647000E+05 0.58626402628763E-03
 0.29578958745000E+04 0.45428820586397E-02
 0.67322133595000E+03 0.23558413450084E-01
 0.19068249494000E+03 0.94709193292923E-01
 0.62295441898000E+02 0.29719784913376E+00
 0.22654161182000E+02 0.66916246895232E+00
 s    2 1.00
 0.89791477428000E+01 0.64596683630063E+00
 0.36863002370000E+01 0.38700574393705E+00
 s    1 1.00
 0.84660076805000E+00 0.10000000000000E+01
 s    1 1.00
 0.33647133771000E+00 0.10000000000000E+01
 s    1 1.00
 0.13647653675000E+00 0.10000000000000E+01
 s    1 1.00
 0.68441605847000E-01 0.10000000000000E+01
 p    4 1.00
 0.49200380510000E+02 0.11448825101764E-01
 0.11346790537000E+02 0.78422337970864E-01
 0.34273972411000E+01 0.30818094738830E+00
 0.11785525134000E+01 0.72027196368413E+00
 p    1 1.00
 0.41642204972000E+00 0.10000000000000E+01
 p    1 1.00
 0.14260826011000E+00 0.10000000000000E+01
 d    1 1.00
 0.16540000000000E+01 0.10000000000000E+01
 d    1 1.00
 0.46900000000000E+00 0.10000000000000E+01
 d    1 1.00
 0.12829642058000E+00 0.10000000000000E+01
 f    1 1.00
 0.10930000000000E+01 0.10000000000000E+01
 
   12 0
 s    6 1.00
 0.27032382631000E+05 0.57227335211155E-03
 0.40523871392000E+04 0.44353233492995E-02
 0.92232722710000E+03 0.23020107706038E-01
 0.26124070989000E+03 0.92822490667928E-01
 0.85354641351000E+02 0.29378500009671E+00
 0.31035035245000E+02 0.67401604501641E+00
 s    2 1.00
 0.12260860728000E+02 0.63839937025506E+00
 0.49987076005000E+01 0.39534587125718E+00
 s    1 1.00
 0.11703108158000E+01 0.10000000000000E+01
 s    1 1.00
 0.46474740994000E+00 0.10000000000000E+01
 s    1 1.00
 0.18504536357000E+00 0.10000000000000E+01
 s    1 1.00
 0.70288026270000E-01 0.10000000000000E+01
 p    4 1.00
 0.63274954801000E+02 0.12018332222616E-01
 0.14627049379000E+02 0.83005421790056E-01
 0.44501223456000E+01 0.31991743925964E+00
 0.15275799647000E+01 0.70715542916104E+00
 p    1 1.00
 0.52935117943000E+00 0.10000000000000E+01
 p    1 1.00
 0.17478421270000E+00 0.10000000000000E+01
 p    1 1.00
 0.51112745706000E-01 0.10000000000000E+01
 d    1 1.00
 0.23140000000000E+01 0.10000000000000E+01
 d    1 1.00
 0.64500000000000E+00 0.10000000000000E+01
 d    1 1.00
 0.14696477366000E+00 0.10000000000000E+01
 f    1 1.00
 0.14280000000000E+01 0.10000000000000E+01
 
   13 0
 s    6 1.00
 0.27032382631000E+05 0.57227335211155E-03
 0.40523871392000E+04 0.44353233492995E-02
 0.92232722710000E+03 0.23020107706038E-01
 0.26124070989000E+03 0.92822490667928E-01
 0.85354641351000E+02 0.29378500009671E+00
 0.31035035245000E+02 0.67401604501641E+00
 s    2 1.00
 0.12260860728000E+02 0.63839937025506E+00
 0.49987076005000E+01 0.39534587125718E+00
 s    1 1.00
 0.11703108158000E+01 0.10000000000000E+01
 s    1 1.00
 0.46474740994000E+00 0.10000000000000E+01
 s    1 1.00
 0.18504536357000E+00 0.10000000000000E+01
 s    1 1.00
 0.70288026270000E-01 0.10000000000000E+01
 p    4 1.00
 0.63274954801000E+02 0.12018332222616E-01
 0.14627049379000E+02 0.83005421790056E-01
 0.44501223456000E+01 0.31991743925964E+00
 0.15275799647000E+01 0.70715542916104E+00
 p    1 1.00
 0.52935117943000E+00 0.10000000000000E+01
 p    1 1.00
 0.17478421270000E+00 0.10000000000000E+01
 p    1 1.00
 0.51112745706000E-01 0.10000000000000E+01
 d    1 1.00
 0.23140000000000E+01 0.10000000000000E+01
 d    1 1.00
 0.64500000000000E+00 0.10000000000000E+01
 d    1 1.00
 0.14696477366000E+00 0.10000000000000E+01
 f    1 1.00
 0.14280000000000E+01 0.10000000000000E+01
 
   14 0
 s    6 1.00
 0.19730800647000E+05 0.58626402628763E-03
 0.29578958745000E+04 0.45428820586397E-02
 0.67322133595000E+03 0.23558413450084E-01
 0.19068249494000E+03 0.94709193292923E-01
 0.62295441898000E+02 0.29719784913376E+00
 0.22654161182000E+02 0.66916246895232E+00
 s    2 1.00
 0.89791477428000E+01 0.64596683630063E+00
 0.36863002370000E+01 0.38700574393705E+00
 s    1 1.00
 0.84660076805000E+00 0.10000000000000E+01
 s    1 1.00
 0.33647133771000E+00 0.10000000000000E+01
 s    1 1.00
 0.13647653675000E+00 0.10000000000000E+01
 s    1 1.00
 0.68441605847000E-01 0.10000000000000E+01
 p    4 1.00
 0.49200380510000E+02 0.11448825101764E-01
 0.11346790537000E+02 0.78422337970864E-01
 0.34273972411000E+01 0.30818094738830E+00
 0.11785525134000E+01 0.72027196368413E+00
 p    1 1.00
 0.41642204972000E+00 0.10000000000000E+01
 p    1 1.00
 0.14260826011000E+00 0.10000000000000E+01
 d    1 1.00
 0.16540000000000E+01 0.10000000000000E+01
 d    1 1.00
 0.46900000000000E+00 0.10000000000000E+01
 d    1 1.00
 0.12829642058000E+00 0.10000000000000E+01
 f    1 1.00
 0.10930000000000E+01 0.10000000000000E+01
 
   15 0
 s    3 1.00
 0.34061341000000E+02 0.25439307208879E-01
 0.51235746000000E+01 0.19008594890375E+00
 0.11646626000000E+01 0.85244113011042E+00
 s    1 1.00
 0.32723041000000E+00 0.10000000000000E+01
 s    1 1.00
 0.10307241000000E+00 0.10000000000000E+01
 p    1 1.00
 0.80000000000000E+00 0.10000000000000E+01
 p    1 1.00
 0.95774129632000E-01 0.10000000000000E+01
 
   16 0
 s    3 1.00
 0.34061341000000E+02 0.25439307208879E-01
 0.51235746000000E+01 0.19008594890375E+00
 0.11646626000000E+01 0.85244113011042E+00
 s    1 1.00
 0.32723041000000E+00 0.10000000000000E+01
 s    1 1.00
 0.10307241000000E+00 0.10000000000000E+01
 p    1 1.00
 0.80000000000000E+00 0.10000000000000E+01
 p    1 1.00
 0.95774129632000E-01 0.10000000000000E+01
 
[MO]
 Sym= X
 Ene= -0.886716
 Spin= Alpha
 Occup= -0.886716
         1   -1.655326E-04
         2   -3.851363E-04
         3    1.079018E-03
         4   -2.321416E-03
         5   -1.071485E-02
         6   -1.021314E-02
         7    1.503172E-03
         8    1.836036E-04
         9    2.913816E-02
        10   -2.207436E-03
        11    3.738935E-04
        12    2.715976E-02
        13   -3.330321E-02
        14    9.157880E-03
        15    4.375131E-03
        16    2.734291E-06
        17   -1.343517E-05
        18    1.070088E-05
        19   -1.410415E-05
        20   -6.248035E-03
        21    3.959201E-03
        22   -6.072510E-04
        23    3.668204E-04
        24    2.404306E-04
        25   -6.608809E-04
        26   -1.412234E-02
        27    7.435200E-03
        28   -4.787874E-03
        29    4.459425E-03
        30    3.284488E-04
        31    1.066812E-03
        32    1.355923E-03
        33   -1.083227E-02
        34   -1.769578E-05
        35    6.570427E-06
        36   -1.495429E-04
        37    7.048606E-06
        38   -6.847989E-06
        39   -6.681805E-04
        40    1.669277E-05
        41   -1.967165E-06
        42    8.688133E-04
        43   -7.041585E-04
        44    1.085447E-07
        45   -1.380488E-06
        46    2.106306E-04
        47   -2.429063E-03
        48   -4.736899E-02
        49    4.905291E-03
        50    3.254109E-04
        51    1.993558E-06
        52    2.085396E-01
        53   -4.181150E-04
        54    2.247725E-05
        55    2.162054E-01
        56   -1.560740E-02
        57   -1.478551E-03
        58    2.058456E-01
        59    3.728248E-05
        60   -3.326129E-05
        61   -4.021192E-06
        62    1.768335E-07
        63   -6.334839E-04
        64    6.706143E-07
        65    3.458928E-04
        66   -5.757101E-04
        67    2.298173E-04
        68    4.605006E-06
        69   -3.295425E-03
        70    9.578204E-07
        71    8.340938E-03
        72   -9.368751E-03
        73    1.027812E-03
        74   -2.535919E-04
        75    5.267404E-03
        76   -2.815646E-05
        77    6.502683E-06
        78    5.630380E-08
        79   -1.179773E-03
        80   -5.560783E-06
        81    2.983393E-08
        82    7.037117E-04
        83   -3.163482E-06
        84   -1.053734E-07
        85    8.791194E-04
        86    7.563075E-08
        87   -1.660292E-04
        88   -3.864019E-04
        89    1.090545E-03
        90   -2.407693E-03
        91   -8.272963E-03
        92   -1.013586E-02
        93    1.502384E-03
        94   -1.850964E-04
        95    2.916738E-02
        96   -2.200143E-03
        97   -3.590196E-04
        98    2.718626E-02
        99   -3.431262E-02
       100   -1.071686E-02
       101    4.479093E-03
       102    2.448281E-06
       103   -1.333302E-05
       104    1.088474E-05
       105    1.440751E-05
       106   -6.248043E-03
       107   -3.959386E-03
       108   -6.050745E-04
       109    3.626182E-04
       110    2.424562E-04
       111    6.569926E-04
       112   -1.411996E-02
       113   -7.434606E-03
       114   -5.076140E-03
       115    4.777597E-03
       116    2.985425E-04
       117   -8.518199E-04
       118    1.343315E-03
       119    1.079003E-02
       120   -1.791328E-05
       121   -6.549445E-06
       122   -1.496644E-04
       123    7.373536E-06
       124    6.861102E-06
       125   -6.680685E-04
       126    1.665965E-05
       127    1.925901E-06
       128    8.688644E-04
       129    7.040872E-04
       130    1.068851E-04
       131    2.302171E-04
       132    5.602297E-04
       133   -9.693079E-03
       134    2.806277E-02
       135    1.130399E-02
       136   -1.162394E-03
       137    6.760136E-04
       138   -1.485302E-01
       139   -8.356506E-03
       140    5.766938E-03
       141   -1.515222E-01
       142   -2.423691E-02
       143   -6.256813E-03
       144   -9.115133E-02
       145    1.359291E-04
       146   -1.642130E-04
       147    2.828389E-05
       148   -3.963904E-06
       149   -9.036090E-04
       150    2.846996E-03
       151    5.646713E-04
       152   -6.956665E-04
       153    1.309952E-04
       154    1.567615E-03
       155   -4.159123E-03
       156    4.817244E-03
       157    7.743653E-03
       158   -6.107005E-03
       159   -1.636648E-03
       160   -7.765458E-03
       161    3.474428E-03
       162   -1.248354E-02
       163   -1.333001E-05
       164    9.470152E-06
       165    8.155627E-04
       166   -1.795771E-05
       167    1.519074E-05
       168   -1.794952E-04
       169    3.584180E-05
       170   -2.789629E-05
       171   -9.146970E-04
       172    3.308831E-04
       173   -1.063435E-03
       174   -2.422513E-03
       175    2.513414E-03
       176    2.029537E-02
       177   -1.148188E-02
       178    9.269453E-03
       179    8.520348E-03
       180    1.395211E-06
       181   -1.070010E-01
       182    6.283463E-04
       183   -1.321776E-05
       184   -1.098413E-01
       185   -2.257756E-02
       186    1.543941E-03
       187   -1.320425E-01
       188    4.435791E-04
       189   -2.473283E-04
       190   -1.962508E-04
       191    1.169527E-07
       192    9.796196E-03
       193    5.144634E-07
       194   -1.708826E-03
       195    3.780279E-03
       196   -2.071453E-03
       197    3.592735E-06
       198    2.415137E-02
       199   -2.518427E-06
       200   -5.327888E-03
       201    6.557212E-03
       202   -1.229324E-03
       203   -3.008084E-04
       204    1.904021E-02
       205    1.198746E-05
       206    1.094281E-04
       207    3.296887E-08
       208    2.738117E-04
       209   -7.697742E-05
       210   -1.098103E-07
       211    1.068399E-03
       212   -6.983585E-05
       213    6.557796E-08
       214   -1.435756E-03
       215    7.102735E-08
       216    1.073317E-04
       217    2.310404E-04
       218    5.665700E-04
       219   -9.780436E-03
       220    3.079478E-02
       221    1.133968E-02
       222   -1.165045E-03
       223   -6.701112E-04
       224   -1.485438E-01
       225   -8.355552E-03
       226   -5.780726E-03
       227   -1.515456E-01
       228   -2.311536E-02
       229    8.055663E-03
       230   -9.106488E-02
       231    1.356950E-04
       232   -1.647583E-04
       233    2.906326E-05
       234    4.004169E-06
       235   -9.030892E-04
       236   -2.847138E-03
       237    5.650842E-04
       238   -6.976206E-04
       239    1.325364E-04
       240   -1.570036E-03
       241   -4.156287E-03
       242   -4.817348E-03
       243    7.441382E-03
       244   -5.789495E-03
       245   -1.651888E-03
       246    8.011690E-03
       247    3.492283E-03
       248    1.253738E-02
       249   -1.321084E-05
       250   -9.534610E-06
       251    8.159113E-04
       252   -1.822838E-05
       253   -1.511276E-05
       254   -1.798531E-04
       255    3.595258E-05
       256    2.790478E-05
       257   -9.148068E-04
       258   -3.308832E-04
       259   -3.299694E-04
       260   -2.035508E-04
       261   -1.615196E-02
       262   -1.142932E-05
       263    8.262491E-07
       264    1.101413E-03
       265   -4.835133E-03
       266   -2.749126E-04
       267   -6.995127E-03
       268   -3.307657E-04
       269   -1.967134E-04
       270   -1.593808E-02
       271   -1.023297E-05
       272   -1.613079E-06
       273    1.102902E-03
       274   -4.991107E-03
       275    1.472415E-04
       276   -6.969027E-03
       277   -3.647222E-04
       278   -2.135104E-03
       279    3.107707E-02
       280   -1.060128E-05
       281    8.740902E-05
       282   -6.062079E-03
       283   -1.595790E-03
       284   -2.447567E-03
       285    1.935847E-03
       286   -3.689576E-04
       287   -2.136631E-03
       288    3.147655E-02
       289   -1.026389E-05
       290   -8.739069E-05
       291   -6.063171E-03
       292   -1.468120E-03
       293    2.598271E-03
       294    1.964520E-03
       295   -3.999951E-05
       296   -9.204607E-05
       297    6.930950E-05
       298    4.016140E-04
       299   -6.270553E-03
       300    9.035174E-04
       301    4.639071E-04
       302    3.845353E-07
       303    1.528737E-02
       304    1.806981E-04
       305    1.267296E-06
       306    1.800650E-02
       307   -2.713397E-03
       308    2.908017E-05
       309    8.954574E-03
       310    2.781309E-05
       311   -1.307362E-05
       312   -1.473947E-05
       313   -2.164623E-07
       314    4.663179E-03
       315    1.046960E-07
       316    2.717246E-05
       317    3.724778E-05
       318   -6.442024E-05
       319   -1.257058E-06
       320    1.392945E-02
       321    7.292112E-08
       322   -9.765806E-04
       323    2.632028E-03
       324   -1.655447E-03
       325    4.235255E-05
       326    3.183030E-03
       327    5.039795E-06
       328    6.485691E-06
       329   -4.381989E-08
       330    4.697494E-05
       331   -4.454073E-06
       332    8.990644E-08
       333    7.107607E-04
       334   -4.247395E-06
       335   -3.111589E-08
       336   -7.737842E-04
       337    1.082967E-09
       338   -1.312781E-05
       339   -2.862848E-05
       340    1.664673E-06
       341    4.827624E-04
       342   -5.340418E-03
       343   -7.905915E-04
       344   -4.109485E-04
       345    6.635879E-05
       346   -8.587399E-02
       347   -4.617367E-04
       348    1.884176E-04
       349   -7.954517E-02
       350   -1.508507E-03
       351    3.913290E-04
       352   -6.386229E-02
       353   -1.582966E-04
       354    1.867799E-04
       355   -7.769211E-03
       356    2.565801E-06
       357   -3.861007E-06
       358    1.295206E-06
       359    2.342756E-06
       360   -3.196436E-05
       361    5.688977E-04
       362   -1.469350E-05
       363   -8.421570E-06
       364    2.311507E-05
       365    1.526460E-05
       366   -6.669683E-04
       367    1.862353E-03
       368   -8.174557E-05
       369    6.021218E-05
       370    2.153338E-05
       371    8.911990E-05
       372   -2.389599E-04
       373    3.384420E-04
       374    9.373887E-07
       375    1.122244E-06
       376    8.272575E-05
       377   -1.777265E-06
       378    4.306441E-07
       379    8.751431E-05
       380    5.196262E-07
       381   -1.936292E-06
       382   -1.985025E-04
       383    1.609699E-04
       384   -1.286926E-05
       385   -2.802971E-05
       386    1.256531E-06
       387    4.778280E-04
       388   -5.354297E-03
       389   -7.476478E-04
       390   -3.939976E-04
       391   -7.778287E-05
       392   -8.587662E-02
       393   -4.465770E-04
       394   -1.975730E-04
       395   -7.954800E-02
       396   -1.457460E-03
       397   -4.029107E-04
       398   -6.385738E-02
       399   -1.385869E-04
       400   -1.921159E-04
       401   -7.774573E-03
       402    2.641413E-06
       403   -3.988339E-06
       404    1.346927E-06
       405   -2.383619E-06
       406   -3.202527E-05
       407   -5.689263E-04
       408   -1.393790E-05
       409   -8.740558E-06
       410    2.267846E-05
       411   -1.467215E-05
       412   -6.669276E-04
       413   -1.862424E-03
       414   -8.109864E-05
       415    6.090564E-05
       416    2.019300E-05
       417   -8.843823E-05
       418   -2.399222E-04
       419   -3.378139E-04
       420    9.494384E-07
       421   -1.156235E-06
       422    8.273665E-05
       423   -1.777088E-06
       424   -3.816819E-07
       425    8.750947E-05
       426    5.032831E-07
       427    1.932933E-06
       428   -1.985123E-04
       429   -1.609844E-04
       430    4.649553E-03
       431    1.102738E-02
       432   -1.711705E-02
       433   -2.640332E-02
       434   -2.149720E-02
       435   -6.445138E-02
       436   -1.629498E-02
       437    1.150059E-05
       438    2.518596E-01
       439   -1.851727E-02
       440   -7.236323E-07
       441    2.488818E-01
       442   -1.658155E-02
       443   -1.263729E-04
       444    2.039244E-01
       445   -8.827908E-05
       446   -1.711418E-05
       447    1.053933E-04
       448    2.588156E-07
       449    7.155594E-04
       450    3.488899E-07
       451   -2.120430E-04
       452   -1.424582E-03
       453    1.636625E-03
       454   -5.002283E-06
       455    3.485333E-03
       456    1.610895E-06
       457   -1.698950E-03
       458   -2.712623E-03
       459    4.411573E-03
       460   -1.672670E-05
       461    2.044003E-03
       462    1.330542E-05
       463   -1.287110E-04
       464    2.018445E-08
       465   -1.007158E-03
       466   -8.290665E-05
       467   -1.818522E-08
       468    5.473074E-04
       469    2.555906E-04
       470   -8.895059E-09
       471    8.039369E-04
       472    3.329509E-08
       473    8.593262E-03
       474    1.638505E-02
       475    2.764702E-02
       476   -2.097633E-03
       477   -1.733162E-03
       478    1.278900E-02
       479    1.355265E-03
       480   -3.287214E-03
       481    1.478821E-02
       482    8.585773E-03
       483    1.629200E-02
       484    2.724599E-02
       485   -2.092854E-03
       486    1.724173E-03
       487    1.279394E-02
       488    1.400991E-03
       489    3.226683E-03
       490    1.481183E-02
 Sym= X
 Ene= 0.886716
 Spin= Alpha
 Occup= 0.886716
         1   -4.803997E-03
         2   -1.151347E-02
         3    4.007388E-02
         4   -1.049339E-01
         5    7.330186E-01
         6   -5.737248E-01
         7    1.358595E-02
         8    5.147229E-03
         9   -2.942074E-03
        10   -4.878704E-02
        11   -2.123295E-03
        12   -4.452962E-03
        13    1.524581E+00
        14   -1.097430E-01
        15   -2.640164E-02
        16    9.221183E-04
        17   -7.224866E-04
        18   -1.996318E-04
        19    1.051183E-04
        20   -4.994802E-05
        21    1.368854E-04
        22   -1.727169E-02
        23    9.035582E-03
        24    8.236106E-03
        25   -1.586150E-03
        26   -5.208346E-04
        27    4.547712E-04
        28   -9.868136E-01
        29    1.014470E+00
        30   -2.765673E-02
        31   -5.458584E-02
        32    1.141887E-02
        33   -1.773961E-02
        34   -3.386820E-04
        35    2.593717E-04
        36   -2.173795E-05
        37    3.627149E-04
        38    1.503730E-05
        39   -2.472964E-06
        40    9.167467E-05
        41   -3.630210E-04
        42    3.163748E-05
        43   -1.687780E-05
        44    6.409656E-03
        45    1.372166E-02
        46    4.914022E-03
        47   -3.309026E-01
        48   -2.315038E+00
        49    5.686311E+00
        50    2.889743E-02
        51   -1.184933E-05
        52    4.605326E-03
        53    6.152245E-02
        54   -5.226902E-05
        55    2.061854E-03
        56   -2.199651E+00
        57    4.629901E-03
        58    8.739150E-02
        59   -1.048475E-03
        60    6.498978E-04
        61    3.985772E-04
        62    7.594795E-08