[Molden Format]
[Title]
ADC(2) - opt by CAM-B3LYP gaussian                                              
[Atoms] AU
 c     1    6 -.12588699998532E+01 -.22834089986974E+01 -.24579904026210E-01
 c     2    6 -.25576598737242E+01 0.00000000000000E+00 -.23328905326240E-01
 c     3    6 -.12588681101271E+01 0.22834089986974E+01 -.24585573204610E-01
 c     4    6 0.13319747639512E+01 0.22851362083829E+01 -.26548998656670E-01
 c     5    6 0.26868460402678E+01 0.00000000000000E+00 -.25991529447470E-01
 c     6    6 0.13319728742250E+01 -.22851362083829E+01 -.26541439752140E-01
 h     7    1 -.22976467859220E+01 -.40383900994038E+01 -.22042001829740E-01
 h     8    1 -.22976448961959E+01 0.40383919891299E+01 -.22053340186540E-01
 h     9    1 0.23511286338561E+01 0.40572968093633E+01 -.28790213850280E-01
 h    10    1 0.23511267441300E+01 -.40572968093633E+01 -.28775096041210E-01
 n    11    7 -.52730224718766E+01 0.00000000000000E+00 -.17674844736640E-01
 o    12    8 -.63812882673039E+01 0.20269372576683E+01 -.15259774738810E-01
 o    13    8 -.63812844878516E+01 -.20269372576683E+01 -.15276782274010E-01
 n    14    7 0.52436643953234E+01 0.00000000000000E+00 -.69084844181800E-01
 h    15    1 0.62047866654136E+01 0.16174392738504E+01 0.18526851385235E+00
 h    16    1 0.62047847756874E+01 -.16174411635765E+01 0.18526473440008E+00
[GTO]
    1 0
 s    6 1.00
 0.13575349682000E+05 0.60645503603591E-03
 0.20352333680000E+04 0.46979088884982E-02
 0.46322562359000E+03 0.24332477647552E-01
 0.13120019598000E+03 0.97399968307759E-01
 0.42853015891000E+02 0.30195584253780E+00
 0.15584185766000E+02 0.66233609137875E+00
 s    2 1.00
 0.62067138508000E+01 0.65595308539952E+00
 0.25764896527000E+01 0.37585633285142E+00
 s    1 1.00
 0.57696339419000E+00 0.10000000000000E+01
 s    1 1.00
 0.22972831358000E+00 0.10000000000000E+01
 s    1 1.00
 0.95164440028000E-01 0.10000000000000E+01
 s    1 1.00
 0.48475401370000E-01 0.10000000000000E+01
 p    4 1.00
 0.34697232244000E+02 0.11327220003114E-01
 0.79582622826000E+01 0.76169659202087E-01
 0.23780826883000E+01 0.30192252202676E+00
 0.81433208183000E+00 0.72785027349547E+00
 p    1 1.00
 0.28887547253000E+00 0.10000000000000E+01
 p    1 1.00
 0.10056823671000E+00 0.10000000000000E+01
 d    1 1.00
 0.10970000000000E+01 0.10000000000000E+01
 d    1 1.00
 0.31800000000000E+00 0.10000000000000E+01
 d    1 1.00
 0.90985336424000E-01 0.10000000000000E+01
 f    1 1.00
 0.76100000000000E+00 0.10000000000000E+01
 
    2 0
 s    6 1.00
 0.13575349682000E+05 0.60645503603591E-03
 0.20352333680000E+04 0.46979088884982E-02
 0.46322562359000E+03 0.24332477647552E-01
 0.13120019598000E+03 0.97399968307759E-01
 0.42853015891000E+02 0.30195584253780E+00
 0.15584185766000E+02 0.66233609137875E+00
 s    2 1.00
 0.62067138508000E+01 0.65595308539952E+00
 0.25764896527000E+01 0.37585633285142E+00
 s    1 1.00
 0.57696339419000E+00 0.10000000000000E+01
 s    1 1.00
 0.22972831358000E+00 0.10000000000000E+01
 s    1 1.00
 0.95164440028000E-01 0.10000000000000E+01
 s    1 1.00
 0.48475401370000E-01 0.10000000000000E+01
 p    4 1.00
 0.34697232244000E+02 0.11327220003114E-01
 0.79582622826000E+01 0.76169659202087E-01
 0.23780826883000E+01 0.30192252202676E+00
 0.81433208183000E+00 0.72785027349547E+00
 p    1 1.00
 0.28887547253000E+00 0.10000000000000E+01
 p    1 1.00
 0.10056823671000E+00 0.10000000000000E+01
 d    1 1.00
 0.10970000000000E+01 0.10000000000000E+01
 d    1 1.00
 0.31800000000000E+00 0.10000000000000E+01
 d    1 1.00
 0.90985336424000E-01 0.10000000000000E+01
 f    1 1.00
 0.76100000000000E+00 0.10000000000000E+01
 
    3 0
 s    6 1.00
 0.13575349682000E+05 0.60645503603591E-03
 0.20352333680000E+04 0.46979088884982E-02
 0.46322562359000E+03 0.24332477647552E-01
 0.13120019598000E+03 0.97399968307759E-01
 0.42853015891000E+02 0.30195584253780E+00
 0.15584185766000E+02 0.66233609137875E+00
 s    2 1.00
 0.62067138508000E+01 0.65595308539952E+00
 0.25764896527000E+01 0.37585633285142E+00
 s    1 1.00
 0.57696339419000E+00 0.10000000000000E+01
 s    1 1.00
 0.22972831358000E+00 0.10000000000000E+01
 s    1 1.00
 0.95164440028000E-01 0.10000000000000E+01
 s    1 1.00
 0.48475401370000E-01 0.10000000000000E+01
 p    4 1.00
 0.34697232244000E+02 0.11327220003114E-01
 0.79582622826000E+01 0.76169659202087E-01
 0.23780826883000E+01 0.30192252202676E+00
 0.81433208183000E+00 0.72785027349547E+00
 p    1 1.00
 0.28887547253000E+00 0.10000000000000E+01
 p    1 1.00
 0.10056823671000E+00 0.10000000000000E+01
 d    1 1.00
 0.10970000000000E+01 0.10000000000000E+01
 d    1 1.00
 0.31800000000000E+00 0.10000000000000E+01
 d    1 1.00
 0.90985336424000E-01 0.10000000000000E+01
 f    1 1.00
 0.76100000000000E+00 0.10000000000000E+01
 
    4 0
 s    6 1.00
 0.13575349682000E+05 0.60645503603591E-03
 0.20352333680000E+04 0.46979088884982E-02
 0.46322562359000E+03 0.24332477647552E-01
 0.13120019598000E+03 0.97399968307759E-01
 0.42853015891000E+02 0.30195584253780E+00
 0.15584185766000E+02 0.66233609137875E+00
 s    2 1.00
 0.62067138508000E+01 0.65595308539952E+00
 0.25764896527000E+01 0.37585633285142E+00
 s    1 1.00
 0.57696339419000E+00 0.10000000000000E+01
 s    1 1.00
 0.22972831358000E+00 0.10000000000000E+01
 s    1 1.00
 0.95164440028000E-01 0.10000000000000E+01
 s    1 1.00
 0.48475401370000E-01 0.10000000000000E+01
 p    4 1.00
 0.34697232244000E+02 0.11327220003114E-01
 0.79582622826000E+01 0.76169659202087E-01
 0.23780826883000E+01 0.30192252202676E+00
 0.81433208183000E+00 0.72785027349547E+00
 p    1 1.00
 0.28887547253000E+00 0.10000000000000E+01
 p    1 1.00
 0.10056823671000E+00 0.10000000000000E+01
 d    1 1.00
 0.10970000000000E+01 0.10000000000000E+01
 d    1 1.00
 0.31800000000000E+00 0.10000000000000E+01
 d    1 1.00
 0.90985336424000E-01 0.10000000000000E+01
 f    1 1.00
 0.76100000000000E+00 0.10000000000000E+01
 
    5 0
 s    6 1.00
 0.13575349682000E+05 0.60645503603591E-03
 0.20352333680000E+04 0.46979088884982E-02
 0.46322562359000E+03 0.24332477647552E-01
 0.13120019598000E+03 0.97399968307759E-01
 0.42853015891000E+02 0.30195584253780E+00
 0.15584185766000E+02 0.66233609137875E+00
 s    2 1.00
 0.62067138508000E+01 0.65595308539952E+00
 0.25764896527000E+01 0.37585633285142E+00
 s    1 1.00
 0.57696339419000E+00 0.10000000000000E+01
 s    1 1.00
 0.22972831358000E+00 0.10000000000000E+01
 s    1 1.00
 0.95164440028000E-01 0.10000000000000E+01
 s    1 1.00
 0.48475401370000E-01 0.10000000000000E+01
 p    4 1.00
 0.34697232244000E+02 0.11327220003114E-01
 0.79582622826000E+01 0.76169659202087E-01
 0.23780826883000E+01 0.30192252202676E+00
 0.81433208183000E+00 0.72785027349547E+00
 p    1 1.00
 0.28887547253000E+00 0.10000000000000E+01
 p    1 1.00
 0.10056823671000E+00 0.10000000000000E+01
 d    1 1.00
 0.10970000000000E+01 0.10000000000000E+01
 d    1 1.00
 0.31800000000000E+00 0.10000000000000E+01
 d    1 1.00
 0.90985336424000E-01 0.10000000000000E+01
 f    1 1.00
 0.76100000000000E+00 0.10000000000000E+01
 
    6 0
 s    6 1.00
 0.13575349682000E+05 0.60645503603591E-03
 0.20352333680000E+04 0.46979088884982E-02
 0.46322562359000E+03 0.24332477647552E-01
 0.13120019598000E+03 0.97399968307759E-01
 0.42853015891000E+02 0.30195584253780E+00
 0.15584185766000E+02 0.66233609137875E+00
 s    2 1.00
 0.62067138508000E+01 0.65595308539952E+00
 0.25764896527000E+01 0.37585633285142E+00
 s    1 1.00
 0.57696339419000E+00 0.10000000000000E+01
 s    1 1.00
 0.22972831358000E+00 0.10000000000000E+01
 s    1 1.00
 0.95164440028000E-01 0.10000000000000E+01
 s    1 1.00
 0.48475401370000E-01 0.10000000000000E+01
 p    4 1.00
 0.34697232244000E+02 0.11327220003114E-01
 0.79582622826000E+01 0.76169659202087E-01
 0.23780826883000E+01 0.30192252202676E+00
 0.81433208183000E+00 0.72785027349547E+00
 p    1 1.00
 0.28887547253000E+00 0.10000000000000E+01
 p    1 1.00
 0.10056823671000E+00 0.10000000000000E+01
 d    1 1.00
 0.10970000000000E+01 0.10000000000000E+01
 d    1 1.00
 0.31800000000000E+00 0.10000000000000E+01
 d    1 1.00
 0.90985336424000E-01 0.10000000000000E+01
 f    1 1.00
 0.76100000000000E+00 0.10000000000000E+01
 
    7 0
 s    3 1.00
 0.34061341000000E+02 0.25439307208879E-01
 0.51235746000000E+01 0.19008594890375E+00
 0.11646626000000E+01 0.85244113011042E+00
 s    1 1.00
 0.32723041000000E+00 0.10000000000000E+01
 s    1 1.00
 0.10307241000000E+00 0.10000000000000E+01
 p    1 1.00
 0.80000000000000E+00 0.10000000000000E+01
 p    1 1.00
 0.95774129632000E-01 0.10000000000000E+01
 
    8 0
 s    3 1.00
 0.34061341000000E+02 0.25439307208879E-01
 0.51235746000000E+01 0.19008594890375E+00
 0.11646626000000E+01 0.85244113011042E+00
 s    1 1.00
 0.32723041000000E+00 0.10000000000000E+01
 s    1 1.00
 0.10307241000000E+00 0.10000000000000E+01
 p    1 1.00
 0.80000000000000E+00 0.10000000000000E+01
 p    1 1.00
 0.95774129632000E-01 0.10000000000000E+01
 
    9 0
 s    3 1.00
 0.34061341000000E+02 0.25439307208879E-01
 0.51235746000000E+01 0.19008594890375E+00
 0.11646626000000E+01 0.85244113011042E+00
 s    1 1.00
 0.32723041000000E+00 0.10000000000000E+01
 s    1 1.00
 0.10307241000000E+00 0.10000000000000E+01
 p    1 1.00
 0.80000000000000E+00 0.10000000000000E+01
 p    1 1.00
 0.95774129632000E-01 0.10000000000000E+01
 
   10 0
 s    3 1.00
 0.34061341000000E+02 0.25439307208879E-01
 0.51235746000000E+01 0.19008594890375E+00
 0.11646626000000E+01 0.85244113011042E+00
 s    1 1.00
 0.32723041000000E+00 0.10000000000000E+01
 s    1 1.00
 0.10307241000000E+00 0.10000000000000E+01
 p    1 1.00
 0.80000000000000E+00 0.10000000000000E+01
 p    1 1.00
 0.95774129632000E-01 0.10000000000000E+01
 
   11 0
 s    6 1.00
 0.19730800647000E+05 0.58626402628763E-03
 0.29578958745000E+04 0.45428820586397E-02
 0.67322133595000E+03 0.23558413450084E-01
 0.19068249494000E+03 0.94709193292923E-01
 0.62295441898000E+02 0.29719784913376E+00
 0.22654161182000E+02 0.66916246895232E+00
 s    2 1.00
 0.89791477428000E+01 0.64596683630063E+00
 0.36863002370000E+01 0.38700574393705E+00
 s    1 1.00
 0.84660076805000E+00 0.10000000000000E+01
 s    1 1.00
 0.33647133771000E+00 0.10000000000000E+01
 s    1 1.00
 0.13647653675000E+00 0.10000000000000E+01
 s    1 1.00
 0.68441605847000E-01 0.10000000000000E+01
 p    4 1.00
 0.49200380510000E+02 0.11448825101764E-01
 0.11346790537000E+02 0.78422337970864E-01
 0.34273972411000E+01 0.30818094738830E+00
 0.11785525134000E+01 0.72027196368413E+00
 p    1 1.00
 0.41642204972000E+00 0.10000000000000E+01
 p    1 1.00
 0.14260826011000E+00 0.10000000000000E+01
 d    1 1.00
 0.16540000000000E+01 0.10000000000000E+01
 d    1 1.00
 0.46900000000000E+00 0.10000000000000E+01
 d    1 1.00
 0.12829642058000E+00 0.10000000000000E+01
 f    1 1.00
 0.10930000000000E+01 0.10000000000000E+01
 
   12 0
 s    6 1.00
 0.27032382631000E+05 0.57227335211155E-03
 0.40523871392000E+04 0.44353233492995E-02
 0.92232722710000E+03 0.23020107706038E-01
 0.26124070989000E+03 0.92822490667928E-01
 0.85354641351000E+02 0.29378500009671E+00
 0.31035035245000E+02 0.67401604501641E+00
 s    2 1.00
 0.12260860728000E+02 0.63839937025506E+00
 0.49987076005000E+01 0.39534587125718E+00
 s    1 1.00
 0.11703108158000E+01 0.10000000000000E+01
 s    1 1.00
 0.46474740994000E+00 0.10000000000000E+01
 s    1 1.00
 0.18504536357000E+00 0.10000000000000E+01
 s    1 1.00
 0.70288026270000E-01 0.10000000000000E+01
 p    4 1.00
 0.63274954801000E+02 0.12018332222616E-01
 0.14627049379000E+02 0.83005421790056E-01
 0.44501223456000E+01 0.31991743925964E+00
 0.15275799647000E+01 0.70715542916104E+00
 p    1 1.00
 0.52935117943000E+00 0.10000000000000E+01
 p    1 1.00
 0.17478421270000E+00 0.10000000000000E+01
 p    1 1.00
 0.51112745706000E-01 0.10000000000000E+01
 d    1 1.00
 0.23140000000000E+01 0.10000000000000E+01
 d    1 1.00
 0.64500000000000E+00 0.10000000000000E+01
 d    1 1.00
 0.14696477366000E+00 0.10000000000000E+01
 f    1 1.00
 0.14280000000000E+01 0.10000000000000E+01
 
   13 0
 s    6 1.00
 0.27032382631000E+05 0.57227335211155E-03
 0.40523871392000E+04 0.44353233492995E-02
 0.92232722710000E+03 0.23020107706038E-01
 0.26124070989000E+03 0.92822490667928E-01
 0.85354641351000E+02 0.29378500009671E+00
 0.31035035245000E+02 0.67401604501641E+00
 s    2 1.00
 0.12260860728000E+02 0.63839937025506E+00
 0.49987076005000E+01 0.39534587125718E+00
 s    1 1.00
 0.11703108158000E+01 0.10000000000000E+01
 s    1 1.00
 0.46474740994000E+00 0.10000000000000E+01
 s    1 1.00
 0.18504536357000E+00 0.10000000000000E+01
 s    1 1.00
 0.70288026270000E-01 0.10000000000000E+01
 p    4 1.00
 0.63274954801000E+02 0.12018332222616E-01
 0.14627049379000E+02 0.83005421790056E-01
 0.44501223456000E+01 0.31991743925964E+00
 0.15275799647000E+01 0.70715542916104E+00
 p    1 1.00
 0.52935117943000E+00 0.10000000000000E+01
 p    1 1.00
 0.17478421270000E+00 0.10000000000000E+01
 p    1 1.00
 0.51112745706000E-01 0.10000000000000E+01
 d    1 1.00
 0.23140000000000E+01 0.10000000000000E+01
 d    1 1.00
 0.64500000000000E+00 0.10000000000000E+01
 d    1 1.00
 0.14696477366000E+00 0.10000000000000E+01
 f    1 1.00
 0.14280000000000E+01 0.10000000000000E+01
 
   14 0
 s    6 1.00
 0.19730800647000E+05 0.58626402628763E-03
 0.29578958745000E+04 0.45428820586397E-02
 0.67322133595000E+03 0.23558413450084E-01
 0.19068249494000E+03 0.94709193292923E-01
 0.62295441898000E+02 0.29719784913376E+00
 0.22654161182000E+02 0.66916246895232E+00
 s    2 1.00
 0.89791477428000E+01 0.64596683630063E+00
 0.36863002370000E+01 0.38700574393705E+00
 s    1 1.00
 0.84660076805000E+00 0.10000000000000E+01
 s    1 1.00
 0.33647133771000E+00 0.10000000000000E+01
 s    1 1.00
 0.13647653675000E+00 0.10000000000000E+01
 s    1 1.00
 0.68441605847000E-01 0.10000000000000E+01
 p    4 1.00
 0.49200380510000E+02 0.11448825101764E-01
 0.11346790537000E+02 0.78422337970864E-01
 0.34273972411000E+01 0.30818094738830E+00
 0.11785525134000E+01 0.72027196368413E+00
 p    1 1.00
 0.41642204972000E+00 0.10000000000000E+01
 p    1 1.00
 0.14260826011000E+00 0.10000000000000E+01
 d    1 1.00
 0.16540000000000E+01 0.10000000000000E+01
 d    1 1.00
 0.46900000000000E+00 0.10000000000000E+01
 d    1 1.00
 0.12829642058000E+00 0.10000000000000E+01
 f    1 1.00
 0.10930000000000E+01 0.10000000000000E+01
 
   15 0
 s    3 1.00
 0.34061341000000E+02 0.25439307208879E-01
 0.51235746000000E+01 0.19008594890375E+00
 0.11646626000000E+01 0.85244113011042E+00
 s    1 1.00
 0.32723041000000E+00 0.10000000000000E+01
 s    1 1.00
 0.10307241000000E+00 0.10000000000000E+01
 p    1 1.00
 0.80000000000000E+00 0.10000000000000E+01
 p    1 1.00
 0.95774129632000E-01 0.10000000000000E+01
 
   16 0
 s    3 1.00
 0.34061341000000E+02 0.25439307208879E-01
 0.51235746000000E+01 0.19008594890375E+00
 0.11646626000000E+01 0.85244113011042E+00
 s    1 1.00
 0.32723041000000E+00 0.10000000000000E+01
 s    1 1.00
 0.10307241000000E+00 0.10000000000000E+01
 p    1 1.00
 0.80000000000000E+00 0.10000000000000E+01
 p    1 1.00
 0.95774129632000E-01 0.10000000000000E+01
 
[MO]
 Sym= X
 Ene= -0.907837
 Spin= Alpha
 Occup= -0.907837
         1    1.842165E-04
         2    4.278702E-04
         3   -1.168246E-03
         4    2.373956E-03
         5    9.773852E-03
         6    1.093114E-02
         7   -1.556352E-03
         8   -1.782183E-04
         9   -1.966254E-02
        10    2.368127E-03
        11   -3.936384E-04
        12   -1.781573E-02
        13    3.444014E-02
        14   -9.199582E-03
        15   -9.756850E-04
        16   -2.377695E-06
        17    1.249476E-05
        18   -1.011707E-05
        19    1.478912E-05
        20    6.203523E-03
        21   -3.657751E-03
        22    6.340950E-04
        23   -3.863433E-04
        24   -2.477517E-04
        25    7.071178E-04
        26    1.398327E-02
        27   -6.932860E-03
        28    4.893298E-03
        29   -4.562900E-03
        30   -3.303974E-04
        31   -1.202424E-03
        32   -1.861719E-03
        33    1.105713E-02
        34    1.847832E-05
        35   -7.052510E-06
        36    7.165444E-05
        37   -6.840549E-06
        38    7.379754E-06
        39    7.075380E-04
        40   -1.795072E-05
        41    2.082181E-06
        42   -8.036725E-04
        43    6.697677E-04
        44   -9.274151E-06
        45   -1.914108E-05
        46   -1.988332E-04
        47    2.706809E-03
        48    4.819119E-02
        49   -5.584539E-03
        50   -3.922414E-04
        51   -1.109129E-05
        52   -1.944243E-01
        53    4.402202E-04
        54   -3.127197E-05
        55   -2.018698E-01
        56    1.625361E-02
        57    1.586551E-03
        58   -2.000938E-01
        59   -3.412302E-05
        60    3.126461E-05
        61    2.858405E-06
        62   -5.481793E-07
        63    8.876614E-04
        64   -5.073100E-07
        65   -3.719594E-04
        66    6.156338E-04
        67   -2.436744E-04
        68   -4.681406E-06
        69    3.691470E-03
        70   -4.585395E-07
        71   -9.050546E-03
        72    1.010455E-02
        73   -1.054000E-03
        74    2.677714E-04
        75   -4.717980E-03
        76    2.920760E-05
        77   -7.345734E-06
        78   -1.254033E-07
        79    1.078492E-03
        80    6.842837E-06
        81    1.386618E-08
        82   -6.632595E-04
        83    3.012500E-06
        84    1.543801E-07
        85   -7.836889E-04
        86   -4.220715E-08
        87    1.866625E-04
        88    4.335227E-04
        89   -1.187683E-03
        90    2.461784E-03
        91    7.128326E-03
        92    1.085057E-02
        93   -1.544000E-03
        94    1.863169E-04
        95   -1.968216E-02
        96    2.373167E-03
        97    3.836683E-04
        98   -1.783255E-02
        99    3.551557E-02
       100    1.086256E-02
       101   -1.078610E-03
       102   -1.834106E-06
       103    1.200560E-05
       104   -1.017150E-05
       105   -1.560974E-05
       106    6.203796E-03
       107    3.657896E-03
       108    6.333709E-04
       109   -3.831423E-04
       110   -2.502286E-04
       111   -7.037802E-04
       112    1.398148E-02
       113    6.932456E-03
       114    5.190803E-03
       115   -4.892086E-03
       116   -2.987171E-04
       117    9.721893E-04
       118   -1.848541E-03
       119   -1.101077E-02
       120    1.869510E-05
       121    7.075327E-06
       122    7.171859E-05
       123   -7.126940E-06
       124   -7.426253E-06
       125    7.074998E-04
       126   -1.795517E-05
       127   -2.066294E-06
       128   -8.037204E-04
       129   -6.697086E-04
       130   -1.194036E-04
       131   -2.582161E-04
       132   -5.723842E-04
       133    1.031921E-02
       134   -2.785068E-02
       135   -1.216920E-02
       136    1.220381E-03
       137   -7.412194E-04
       138    1.516969E-01
       139    8.853685E-03
       140   -6.136032E-03
       141    1.546524E-01
       142    2.452716E-02
       143    6.980422E-03
       144    9.221585E-02
       145   -1.447630E-04
       146    1.755720E-04
       147   -3.080901E-05
       148    4.005721E-06
       149    6.275751E-04
       150   -2.816415E-03
       151   -5.879734E-04
       152    7.318527E-04
       153   -1.438793E-04
       154   -1.667714E-03
       155    3.675112E-03
       156   -4.724375E-03
       157   -8.162060E-03
       158    6.459671E-03
       159    1.702389E-03
       160    8.292049E-03
       161   -3.707755E-03
       162    1.318577E-02
       163    1.394754E-05
       164   -1.016694E-05
       165   -8.426837E-04
       166    1.932585E-05
       167   -1.605436E-05
       168    2.203851E-04
       169   -3.803844E-05
       170    2.969473E-05
       171    9.101938E-04
       172   -3.076746E-04
       173    1.129879E-03
       174    2.573257E-03
       175   -2.691620E-03
       176   -2.118801E-02
       177    1.549094E-02
       178   -9.061972E-03
       179   -9.091202E-03
       180   -2.010035E-06
       181    1.020911E-01
       182   -5.690254E-04
       183    1.313728E-05
       184    1.051047E-01
       185    2.484254E-02
       186   -1.605046E-03
       187    1.330025E-01
       188   -4.692381E-04
       189    2.623979E-04
       190    2.068403E-04
       191   -9.562439E-08
       192   -1.024190E-02
       193   -3.195800E-07
       194    1.842118E-03
       195   -4.024156E-03
       196    2.182038E-03
       197   -3.468265E-06
       198   -2.508382E-02
       199    2.874450E-06
       200    5.720962E-03
       201   -6.950124E-03
       202    1.229162E-03
       203    3.150445E-04
       204   -1.936472E-02
       205   -1.411308E-05
       206   -1.154241E-04
       207   -9.029832E-08
       208   -2.264965E-04
       209    8.081133E-05
       210    1.845727E-07
       211   -1.150406E-03
       212    7.404634E-05
       213   -6.342474E-08
       214    1.454283E-03
       215   -9.940057E-08
       216   -1.216799E-04
       217   -2.630680E-04
       218   -5.736503E-04
       219    1.042125E-02
       220   -3.070880E-02
       221   -1.220346E-02
       222    1.234070E-03
       223    7.262808E-04
       224    1.516999E-01
       225    8.857527E-03
       226    6.142555E-03
       227    1.546651E-01
       228    2.336952E-02
       229   -8.855713E-03
       230    9.211496E-02
       231   -1.447834E-04
       232    1.765320E-04
       233   -3.174854E-05
       234   -4.447795E-06
       235    6.272798E-04
       236    2.816540E-03
       237   -5.876506E-04
       238    7.337167E-04
       239   -1.460661E-04
       240    1.669803E-03
       241    3.672759E-03
       242    4.724351E-03
       243   -7.845071E-03
       244    6.127022E-03
       245    1.718049E-03
       246   -8.546071E-03
       247   -3.727472E-03
       248   -1.324292E-02
       249    1.379606E-05
       250    1.021390E-05
       251   -8.429623E-04
       252    1.966620E-05
       253    1.596936E-05
       254    2.206652E-04
       255   -3.817556E-05
       256   -2.967274E-05
       257    9.102873E-04
       258    3.076723E-04
       259    3.267668E-04
       260    1.858362E-04
       261    1.729155E-02
       262    1.226715E-05
       263   -3.602815E-06
       264   -7.658629E-04
       265    5.113222E-03
       266    3.614983E-04
       267    7.040389E-03
       268    3.268469E-04
       269    1.781310E-04
       270    1.705732E-02
       271    1.096100E-05
       272    4.821524E-06
       273   -7.669857E-04
       274    5.273110E-03
       275   -2.304853E-04
       276    7.011600E-03
       277    3.847921E-04
       278    2.264688E-03
       279   -3.326500E-02
       280    1.083773E-05
       281   -9.235362E-05
       282    6.145808E-03
       283    1.902862E-03
       284    2.598557E-03
       285   -2.511465E-03
       286    3.981505E-04
       287    2.279081E-03
       288   -3.367108E-02
       289    9.928691E-06
       290    9.347763E-05
       291    6.146446E-03
       292    1.769705E-03
       293   -2.754836E-03
       294   -2.541914E-03
       295    4.210804E-05
       296    9.718748E-05
       297   -7.667654E-05
       298   -4.120125E-04
       299    7.001662E-03
       300   -6.069391E-04
       301   -3.981688E-04
       302   -4.124907E-06
       303   -2.174118E-02
       304   -9.748155E-05
       305   -3.217354E-06
       306   -2.411537E-02
       307    3.068952E-03
       308   -2.992222E-05
       309   -9.609142E-03
       310   -1.967883E-05
       311    5.446984E-06
       312    1.423184E-05
       313    1.079141E-06
       314   -4.296636E-03
       315   -3.157116E-07
       316    1.411858E-06
       317   -6.377731E-05
       318    6.236545E-05
       319    3.388309E-06
       320   -1.295984E-02
       321   -6.804710E-07
       322    9.734938E-04
       323   -2.757645E-03
       324    1.784151E-03
       325   -4.600594E-05
       326   -2.907501E-03
       327   -4.788373E-06
       328   -6.577767E-06
       329    2.525326E-07
       330   -2.472243E-06
       331    4.799093E-06
       332   -3.847599E-07
       333   -6.784451E-04
       334    4.025908E-06
       335    4.595182E-08
       336    6.817619E-04
       337    4.069399E-08
       338    9.875574E-06
       339    2.055996E-05
       340    1.342139E-05
       341   -4.810773E-04
       342    5.700428E-03
       343    8.672269E-04
       344    2.308733E-04
       345   -6.335686E-05
       346    7.665119E-02
       347    3.125776E-04
       348   -1.985677E-04
       349    7.111575E-02
       350    1.428370E-03
       351   -4.515721E-04
       352    5.840920E-02
       353    1.692177E-04
       354   -1.938463E-04
       355    7.355483E-03
       356   -2.981930E-06
       357    3.359364E-06
       358   -3.774337E-07
       359   -2.824986E-07
       360   -2.350871E-05
       361   -4.378308E-04
       362    1.333819E-05
       363    8.341793E-06
       364   -2.167998E-05
       365   -1.144833E-05
       366    4.647866E-04
       367   -1.473457E-03
       368    7.920000E-05
       369   -5.388733E-05
       370   -2.531267E-05
       371   -8.019012E-05
       372    7.784661E-05
       373   -2.243982E-04
       374   -6.954664E-07
       375   -1.304153E-06
       376   -5.924322E-05
       377    1.271818E-06
       378    9.983692E-08
       379   -8.131339E-05
       380   -3.387519E-07
       381    1.649868E-06
       382    1.607965E-04
       383   -1.267382E-04
       384    6.698499E-06
       385    1.285877E-05
       386    2.404880E-05
       387   -4.633880E-04
       388    5.727882E-03
       389    8.235596E-04
       390    1.650490E-04
       391    1.127573E-04
       392    7.666585E-02
       393    2.534903E-04
       394    2.417091E-04
       395    7.112956E-02
       396    1.342110E-03
       397    4.892520E-04
       398    5.841328E-02
       399    1.442313E-04
       400    2.019788E-04
       401    7.362093E-03
       402   -3.411846E-06
       403    3.951497E-06
       404   -5.396507E-07
       405    3.138564E-07
       406   -2.339086E-05
       407    4.379555E-04
       408    1.140455E-05
       409    1.002959E-05
       410   -2.143414E-05
       411    1.069725E-05
       412    4.649503E-04
       413    1.473860E-03
       414    7.746296E-05
       415   -5.361551E-05
       416   -2.384744E-05
       417    7.871401E-05
       418    7.899155E-05
       419    2.241321E-04
       420   -7.535162E-07
       421    1.482758E-06
       422   -5.927115E-05
       423    1.363536E-06
       424   -3.060398E-07
       425   -8.131246E-05
       426   -3.525876E-07
       427   -1.683289E-06
       428    1.608331E-04
       429    1.267851E-04
       430   -4.892824E-03
       431   -1.160372E-02
       432    1.801055E-02
       433    2.785063E-02
       434    2.170217E-02
       435    6.612076E-02
       436    1.711314E-02
       437   -6.376235E-06
       438   -2.671572E-01
       439    1.954418E-02
       440    5.664930E-06
       441   -2.637646E-01
       442    1.828944E-02
       443    1.356059E-04
       444   -2.141471E-01
       445    1.000848E-04
       446    1.824375E-05
       447   -1.183286E-04
       448   -1.389337E-07
       449   -6.044813E-04
       450   -3.196891E-07
       451    2.126238E-04
       452    1.537509E-03
       453   -1.750133E-03
       454    5.527329E-06
       455   -3.262491E-03
       456   -1.601626E-06
       457    1.589023E-03
       458    3.067628E-03
       459   -4.656651E-03
       460    1.748513E-05
       461   -2.039792E-03
       462   -1.384330E-05
       463    1.337532E-04
       464   -2.170543E-09
       465    1.088418E-03
       466    8.868074E-05
       467    1.581933E-08
       468   -6.158207E-04
       469   -2.681294E-04
       470   -1.290724E-08
       471   -8.444456E-04
       472   -3.225997E-08
       473   -9.067092E-03
       474   -1.736930E-02
       475   -2.912645E-02
       476    2.242199E-03
       477    1.856790E-03
       478   -1.349420E-02
       479   -1.158817E-03
       480    3.400362E-03
       481   -1.511150E-02
       482   -9.064065E-03
       483   -1.727745E-02
       484   -2.870598E-02
       485    2.237628E-03
       486   -1.847868E-03
       487   -1.349926E-02
       488   -1.207018E-03
       489   -3.336473E-03
       490   -1.513681E-02
 Sym= X
 Ene= 0.907837
 Spin= Alpha
 Occup= 0.907837
         1    7.117274E-03
         2    1.578080E-02
         3   -1.982972E-02
         4   -1.452176E-01
         5    2.230770E+00
         6    1.481453E-01
         7    1.943896E-02
         8    9.795048E-03
         9   -1.387478E-03
        10    1.220678E-01
        11    1.101732E-02
        12   -2.675504E-03
        13    1.051786E+00
        14    7.182666E-01
        15   -2.488148E-02
        16   -1.659428E-03
        17   -3.168499E-04
        18    1.976277E-03
        19    1.674608E-03
        20   -7.325133E-05
        21    9.928088E-05
        22    1.222683E-02
        23   -1.829061E-02
        24    6.063783E-03
        25    3.664445E-03
        26   -6.921289E-04
        27    2.567701E-04
        28    5.577605E-01
        29   -3.450384E-01
        30   -2.127220E-01
        31    3.795453E-01
        32    5.018979E-03
        33   -1.487961E-02
        34    9.144242E-05
        35    1.144861E-04
        36   -9.994991E-06
        37    5.797942E-04
        38    3.583358E-05
        39   -1.494212E-05
        40   -7.024771E-04
        41   -1.894328E-04
        42    2.835181E-05
        43   -1.525895E-05
        44    7.718830E-03
        45    1.690181E-02
        46   -9.973377E-03
        47   -2.414518E-01
        48   -1.665839E-01
        49    1.265174E+00
        50    6.868404E-03
        51   -2.086888E-06
        52    3.732818E-03
        53    8.765972E-02
        54    8.565278E-05
        55    1.759478E-03
        56    1.103309E+00
        57    7.105542E-03
        58    6.266584E-02
        59    1.518283E-03
        60   -3.846280E-03
        61    2.327997E-03
        62    2.032971E-07