[Molden Format]
[Title]
ADC(2) - opt by CAM-B3LYP gaussian                                              
[Atoms] AU
 c     1    6 -.12588699998532E+01 -.22834089986974E+01 -.24579904026210E-01
 c     2    6 -.25576598737242E+01 0.00000000000000E+00 -.23328905326240E-01
 c     3    6 -.12588681101271E+01 0.22834089986974E+01 -.24585573204610E-01
 c     4    6 0.13319747639512E+01 0.22851362083829E+01 -.26548998656670E-01
 c     5    6 0.26868460402678E+01 0.00000000000000E+00 -.25991529447470E-01
 c     6    6 0.13319728742250E+01 -.22851362083829E+01 -.26541439752140E-01
 h     7    1 -.22976467859220E+01 -.40383900994038E+01 -.22042001829740E-01
 h     8    1 -.22976448961959E+01 0.40383919891299E+01 -.22053340186540E-01
 h     9    1 0.23511286338561E+01 0.40572968093633E+01 -.28790213850280E-01
 h    10    1 0.23511267441300E+01 -.40572968093633E+01 -.28775096041210E-01
 n    11    7 -.52730224718766E+01 0.00000000000000E+00 -.17674844736640E-01
 o    12    8 -.63812882673039E+01 0.20269372576683E+01 -.15259774738810E-01
 o    13    8 -.63812844878516E+01 -.20269372576683E+01 -.15276782274010E-01
 n    14    7 0.52436643953234E+01 0.00000000000000E+00 -.69084844181800E-01
 h    15    1 0.62047866654136E+01 0.16174392738504E+01 0.18526851385235E+00
 h    16    1 0.62047847756874E+01 -.16174411635765E+01 0.18526473440008E+00
[GTO]
    1 0
 s    6 1.00
 0.13575349682000E+05 0.60645503603591E-03
 0.20352333680000E+04 0.46979088884982E-02
 0.46322562359000E+03 0.24332477647552E-01
 0.13120019598000E+03 0.97399968307759E-01
 0.42853015891000E+02 0.30195584253780E+00
 0.15584185766000E+02 0.66233609137875E+00
 s    2 1.00
 0.62067138508000E+01 0.65595308539952E+00
 0.25764896527000E+01 0.37585633285142E+00
 s    1 1.00
 0.57696339419000E+00 0.10000000000000E+01
 s    1 1.00
 0.22972831358000E+00 0.10000000000000E+01
 s    1 1.00
 0.95164440028000E-01 0.10000000000000E+01
 s    1 1.00
 0.48475401370000E-01 0.10000000000000E+01
 p    4 1.00
 0.34697232244000E+02 0.11327220003114E-01
 0.79582622826000E+01 0.76169659202087E-01
 0.23780826883000E+01 0.30192252202676E+00
 0.81433208183000E+00 0.72785027349547E+00
 p    1 1.00
 0.28887547253000E+00 0.10000000000000E+01
 p    1 1.00
 0.10056823671000E+00 0.10000000000000E+01
 d    1 1.00
 0.10970000000000E+01 0.10000000000000E+01
 d    1 1.00
 0.31800000000000E+00 0.10000000000000E+01
 d    1 1.00
 0.90985336424000E-01 0.10000000000000E+01
 f    1 1.00
 0.76100000000000E+00 0.10000000000000E+01
 
    2 0
 s    6 1.00
 0.13575349682000E+05 0.60645503603591E-03
 0.20352333680000E+04 0.46979088884982E-02
 0.46322562359000E+03 0.24332477647552E-01
 0.13120019598000E+03 0.97399968307759E-01
 0.42853015891000E+02 0.30195584253780E+00
 0.15584185766000E+02 0.66233609137875E+00
 s    2 1.00
 0.62067138508000E+01 0.65595308539952E+00
 0.25764896527000E+01 0.37585633285142E+00
 s    1 1.00
 0.57696339419000E+00 0.10000000000000E+01
 s    1 1.00
 0.22972831358000E+00 0.10000000000000E+01
 s    1 1.00
 0.95164440028000E-01 0.10000000000000E+01
 s    1 1.00
 0.48475401370000E-01 0.10000000000000E+01
 p    4 1.00
 0.34697232244000E+02 0.11327220003114E-01
 0.79582622826000E+01 0.76169659202087E-01
 0.23780826883000E+01 0.30192252202676E+00
 0.81433208183000E+00 0.72785027349547E+00
 p    1 1.00
 0.28887547253000E+00 0.10000000000000E+01
 p    1 1.00
 0.10056823671000E+00 0.10000000000000E+01
 d    1 1.00
 0.10970000000000E+01 0.10000000000000E+01
 d    1 1.00
 0.31800000000000E+00 0.10000000000000E+01
 d    1 1.00
 0.90985336424000E-01 0.10000000000000E+01
 f    1 1.00
 0.76100000000000E+00 0.10000000000000E+01
 
    3 0
 s    6 1.00
 0.13575349682000E+05 0.60645503603591E-03
 0.20352333680000E+04 0.46979088884982E-02
 0.46322562359000E+03 0.24332477647552E-01
 0.13120019598000E+03 0.97399968307759E-01
 0.42853015891000E+02 0.30195584253780E+00
 0.15584185766000E+02 0.66233609137875E+00
 s    2 1.00
 0.62067138508000E+01 0.65595308539952E+00
 0.25764896527000E+01 0.37585633285142E+00
 s    1 1.00
 0.57696339419000E+00 0.10000000000000E+01
 s    1 1.00
 0.22972831358000E+00 0.10000000000000E+01
 s    1 1.00
 0.95164440028000E-01 0.10000000000000E+01
 s    1 1.00
 0.48475401370000E-01 0.10000000000000E+01
 p    4 1.00
 0.34697232244000E+02 0.11327220003114E-01
 0.79582622826000E+01 0.76169659202087E-01
 0.23780826883000E+01 0.30192252202676E+00
 0.81433208183000E+00 0.72785027349547E+00
 p    1 1.00
 0.28887547253000E+00 0.10000000000000E+01
 p    1 1.00
 0.10056823671000E+00 0.10000000000000E+01
 d    1 1.00
 0.10970000000000E+01 0.10000000000000E+01
 d    1 1.00
 0.31800000000000E+00 0.10000000000000E+01
 d    1 1.00
 0.90985336424000E-01 0.10000000000000E+01
 f    1 1.00
 0.76100000000000E+00 0.10000000000000E+01
 
    4 0
 s    6 1.00
 0.13575349682000E+05 0.60645503603591E-03
 0.20352333680000E+04 0.46979088884982E-02
 0.46322562359000E+03 0.24332477647552E-01
 0.13120019598000E+03 0.97399968307759E-01
 0.42853015891000E+02 0.30195584253780E+00
 0.15584185766000E+02 0.66233609137875E+00
 s    2 1.00
 0.62067138508000E+01 0.65595308539952E+00
 0.25764896527000E+01 0.37585633285142E+00
 s    1 1.00
 0.57696339419000E+00 0.10000000000000E+01
 s    1 1.00
 0.22972831358000E+00 0.10000000000000E+01
 s    1 1.00
 0.95164440028000E-01 0.10000000000000E+01
 s    1 1.00
 0.48475401370000E-01 0.10000000000000E+01
 p    4 1.00
 0.34697232244000E+02 0.11327220003114E-01
 0.79582622826000E+01 0.76169659202087E-01
 0.23780826883000E+01 0.30192252202676E+00
 0.81433208183000E+00 0.72785027349547E+00
 p    1 1.00
 0.28887547253000E+00 0.10000000000000E+01
 p    1 1.00
 0.10056823671000E+00 0.10000000000000E+01
 d    1 1.00
 0.10970000000000E+01 0.10000000000000E+01
 d    1 1.00
 0.31800000000000E+00 0.10000000000000E+01
 d    1 1.00
 0.90985336424000E-01 0.10000000000000E+01
 f    1 1.00
 0.76100000000000E+00 0.10000000000000E+01
 
    5 0
 s    6 1.00
 0.13575349682000E+05 0.60645503603591E-03
 0.20352333680000E+04 0.46979088884982E-02
 0.46322562359000E+03 0.24332477647552E-01
 0.13120019598000E+03 0.97399968307759E-01
 0.42853015891000E+02 0.30195584253780E+00
 0.15584185766000E+02 0.66233609137875E+00
 s    2 1.00
 0.62067138508000E+01 0.65595308539952E+00
 0.25764896527000E+01 0.37585633285142E+00
 s    1 1.00
 0.57696339419000E+00 0.10000000000000E+01
 s    1 1.00
 0.22972831358000E+00 0.10000000000000E+01
 s    1 1.00
 0.95164440028000E-01 0.10000000000000E+01
 s    1 1.00
 0.48475401370000E-01 0.10000000000000E+01
 p    4 1.00
 0.34697232244000E+02 0.11327220003114E-01
 0.79582622826000E+01 0.76169659202087E-01
 0.23780826883000E+01 0.30192252202676E+00
 0.81433208183000E+00 0.72785027349547E+00
 p    1 1.00
 0.28887547253000E+00 0.10000000000000E+01
 p    1 1.00
 0.10056823671000E+00 0.10000000000000E+01
 d    1 1.00
 0.10970000000000E+01 0.10000000000000E+01
 d    1 1.00
 0.31800000000000E+00 0.10000000000000E+01
 d    1 1.00
 0.90985336424000E-01 0.10000000000000E+01
 f    1 1.00
 0.76100000000000E+00 0.10000000000000E+01
 
    6 0
 s    6 1.00
 0.13575349682000E+05 0.60645503603591E-03
 0.20352333680000E+04 0.46979088884982E-02
 0.46322562359000E+03 0.24332477647552E-01
 0.13120019598000E+03 0.97399968307759E-01
 0.42853015891000E+02 0.30195584253780E+00
 0.15584185766000E+02 0.66233609137875E+00
 s    2 1.00
 0.62067138508000E+01 0.65595308539952E+00
 0.25764896527000E+01 0.37585633285142E+00
 s    1 1.00
 0.57696339419000E+00 0.10000000000000E+01
 s    1 1.00
 0.22972831358000E+00 0.10000000000000E+01
 s    1 1.00
 0.95164440028000E-01 0.10000000000000E+01
 s    1 1.00
 0.48475401370000E-01 0.10000000000000E+01
 p    4 1.00
 0.34697232244000E+02 0.11327220003114E-01
 0.79582622826000E+01 0.76169659202087E-01
 0.23780826883000E+01 0.30192252202676E+00
 0.81433208183000E+00 0.72785027349547E+00
 p    1 1.00
 0.28887547253000E+00 0.10000000000000E+01
 p    1 1.00
 0.10056823671000E+00 0.10000000000000E+01
 d    1 1.00
 0.10970000000000E+01 0.10000000000000E+01
 d    1 1.00
 0.31800000000000E+00 0.10000000000000E+01
 d    1 1.00
 0.90985336424000E-01 0.10000000000000E+01
 f    1 1.00
 0.76100000000000E+00 0.10000000000000E+01
 
    7 0
 s    3 1.00
 0.34061341000000E+02 0.25439307208879E-01
 0.51235746000000E+01 0.19008594890375E+00
 0.11646626000000E+01 0.85244113011042E+00
 s    1 1.00
 0.32723041000000E+00 0.10000000000000E+01
 s    1 1.00
 0.10307241000000E+00 0.10000000000000E+01
 p    1 1.00
 0.80000000000000E+00 0.10000000000000E+01
 p    1 1.00
 0.95774129632000E-01 0.10000000000000E+01
 
    8 0
 s    3 1.00
 0.34061341000000E+02 0.25439307208879E-01
 0.51235746000000E+01 0.19008594890375E+00
 0.11646626000000E+01 0.85244113011042E+00
 s    1 1.00
 0.32723041000000E+00 0.10000000000000E+01
 s    1 1.00
 0.10307241000000E+00 0.10000000000000E+01
 p    1 1.00
 0.80000000000000E+00 0.10000000000000E+01
 p    1 1.00
 0.95774129632000E-01 0.10000000000000E+01
 
    9 0
 s    3 1.00
 0.34061341000000E+02 0.25439307208879E-01
 0.51235746000000E+01 0.19008594890375E+00
 0.11646626000000E+01 0.85244113011042E+00
 s    1 1.00
 0.32723041000000E+00 0.10000000000000E+01
 s    1 1.00
 0.10307241000000E+00 0.10000000000000E+01
 p    1 1.00
 0.80000000000000E+00 0.10000000000000E+01
 p    1 1.00
 0.95774129632000E-01 0.10000000000000E+01
 
   10 0
 s    3 1.00
 0.34061341000000E+02 0.25439307208879E-01
 0.51235746000000E+01 0.19008594890375E+00
 0.11646626000000E+01 0.85244113011042E+00
 s    1 1.00
 0.32723041000000E+00 0.10000000000000E+01
 s    1 1.00
 0.10307241000000E+00 0.10000000000000E+01
 p    1 1.00
 0.80000000000000E+00 0.10000000000000E+01
 p    1 1.00
 0.95774129632000E-01 0.10000000000000E+01
 
   11 0
 s    6 1.00
 0.19730800647000E+05 0.58626402628763E-03
 0.29578958745000E+04 0.45428820586397E-02
 0.67322133595000E+03 0.23558413450084E-01
 0.19068249494000E+03 0.94709193292923E-01
 0.62295441898000E+02 0.29719784913376E+00
 0.22654161182000E+02 0.66916246895232E+00
 s    2 1.00
 0.89791477428000E+01 0.64596683630063E+00
 0.36863002370000E+01 0.38700574393705E+00
 s    1 1.00
 0.84660076805000E+00 0.10000000000000E+01
 s    1 1.00
 0.33647133771000E+00 0.10000000000000E+01
 s    1 1.00
 0.13647653675000E+00 0.10000000000000E+01
 s    1 1.00
 0.68441605847000E-01 0.10000000000000E+01
 p    4 1.00
 0.49200380510000E+02 0.11448825101764E-01
 0.11346790537000E+02 0.78422337970864E-01
 0.34273972411000E+01 0.30818094738830E+00
 0.11785525134000E+01 0.72027196368413E+00
 p    1 1.00
 0.41642204972000E+00 0.10000000000000E+01
 p    1 1.00
 0.14260826011000E+00 0.10000000000000E+01
 d    1 1.00
 0.16540000000000E+01 0.10000000000000E+01
 d    1 1.00
 0.46900000000000E+00 0.10000000000000E+01
 d    1 1.00
 0.12829642058000E+00 0.10000000000000E+01
 f    1 1.00
 0.10930000000000E+01 0.10000000000000E+01
 
   12 0
 s    6 1.00
 0.27032382631000E+05 0.57227335211155E-03
 0.40523871392000E+04 0.44353233492995E-02
 0.92232722710000E+03 0.23020107706038E-01
 0.26124070989000E+03 0.92822490667928E-01
 0.85354641351000E+02 0.29378500009671E+00
 0.31035035245000E+02 0.67401604501641E+00
 s    2 1.00
 0.12260860728000E+02 0.63839937025506E+00
 0.49987076005000E+01 0.39534587125718E+00
 s    1 1.00
 0.11703108158000E+01 0.10000000000000E+01
 s    1 1.00
 0.46474740994000E+00 0.10000000000000E+01
 s    1 1.00
 0.18504536357000E+00 0.10000000000000E+01
 s    1 1.00
 0.70288026270000E-01 0.10000000000000E+01
 p    4 1.00
 0.63274954801000E+02 0.12018332222616E-01
 0.14627049379000E+02 0.83005421790056E-01
 0.44501223456000E+01 0.31991743925964E+00
 0.15275799647000E+01 0.70715542916104E+00
 p    1 1.00
 0.52935117943000E+00 0.10000000000000E+01
 p    1 1.00
 0.17478421270000E+00 0.10000000000000E+01
 p    1 1.00
 0.51112745706000E-01 0.10000000000000E+01
 d    1 1.00
 0.23140000000000E+01 0.10000000000000E+01
 d    1 1.00
 0.64500000000000E+00 0.10000000000000E+01
 d    1 1.00
 0.14696477366000E+00 0.10000000000000E+01
 f    1 1.00
 0.14280000000000E+01 0.10000000000000E+01
 
   13 0
 s    6 1.00
 0.27032382631000E+05 0.57227335211155E-03
 0.40523871392000E+04 0.44353233492995E-02
 0.92232722710000E+03 0.23020107706038E-01
 0.26124070989000E+03 0.92822490667928E-01
 0.85354641351000E+02 0.29378500009671E+00
 0.31035035245000E+02 0.67401604501641E+00
 s    2 1.00
 0.12260860728000E+02 0.63839937025506E+00
 0.49987076005000E+01 0.39534587125718E+00
 s    1 1.00
 0.11703108158000E+01 0.10000000000000E+01
 s    1 1.00
 0.46474740994000E+00 0.10000000000000E+01
 s    1 1.00
 0.18504536357000E+00 0.10000000000000E+01
 s    1 1.00
 0.70288026270000E-01 0.10000000000000E+01
 p    4 1.00
 0.63274954801000E+02 0.12018332222616E-01
 0.14627049379000E+02 0.83005421790056E-01
 0.44501223456000E+01 0.31991743925964E+00
 0.15275799647000E+01 0.70715542916104E+00
 p    1 1.00
 0.52935117943000E+00 0.10000000000000E+01
 p    1 1.00
 0.17478421270000E+00 0.10000000000000E+01
 p    1 1.00
 0.51112745706000E-01 0.10000000000000E+01
 d    1 1.00
 0.23140000000000E+01 0.10000000000000E+01
 d    1 1.00
 0.64500000000000E+00 0.10000000000000E+01
 d    1 1.00
 0.14696477366000E+00 0.10000000000000E+01
 f    1 1.00
 0.14280000000000E+01 0.10000000000000E+01
 
   14 0
 s    6 1.00
 0.19730800647000E+05 0.58626402628763E-03
 0.29578958745000E+04 0.45428820586397E-02
 0.67322133595000E+03 0.23558413450084E-01
 0.19068249494000E+03 0.94709193292923E-01
 0.62295441898000E+02 0.29719784913376E+00
 0.22654161182000E+02 0.66916246895232E+00
 s    2 1.00
 0.89791477428000E+01 0.64596683630063E+00
 0.36863002370000E+01 0.38700574393705E+00
 s    1 1.00
 0.84660076805000E+00 0.10000000000000E+01
 s    1 1.00
 0.33647133771000E+00 0.10000000000000E+01
 s    1 1.00
 0.13647653675000E+00 0.10000000000000E+01
 s    1 1.00
 0.68441605847000E-01 0.10000000000000E+01
 p    4 1.00
 0.49200380510000E+02 0.11448825101764E-01
 0.11346790537000E+02 0.78422337970864E-01
 0.34273972411000E+01 0.30818094738830E+00
 0.11785525134000E+01 0.72027196368413E+00
 p    1 1.00
 0.41642204972000E+00 0.10000000000000E+01
 p    1 1.00
 0.14260826011000E+00 0.10000000000000E+01
 d    1 1.00
 0.16540000000000E+01 0.10000000000000E+01
 d    1 1.00
 0.46900000000000E+00 0.10000000000000E+01
 d    1 1.00
 0.12829642058000E+00 0.10000000000000E+01
 f    1 1.00
 0.10930000000000E+01 0.10000000000000E+01
 
   15 0
 s    3 1.00
 0.34061341000000E+02 0.25439307208879E-01
 0.51235746000000E+01 0.19008594890375E+00
 0.11646626000000E+01 0.85244113011042E+00
 s    1 1.00
 0.32723041000000E+00 0.10000000000000E+01
 s    1 1.00
 0.10307241000000E+00 0.10000000000000E+01
 p    1 1.00
 0.80000000000000E+00 0.10000000000000E+01
 p    1 1.00
 0.95774129632000E-01 0.10000000000000E+01
 
   16 0
 s    3 1.00
 0.34061341000000E+02 0.25439307208879E-01
 0.51235746000000E+01 0.19008594890375E+00
 0.11646626000000E+01 0.85244113011042E+00
 s    1 1.00
 0.32723041000000E+00 0.10000000000000E+01
 s    1 1.00
 0.10307241000000E+00 0.10000000000000E+01
 p    1 1.00
 0.80000000000000E+00 0.10000000000000E+01
 p    1 1.00
 0.95774129632000E-01 0.10000000000000E+01
 
[MO]
 Sym= X
 Ene= -0.241853
 Spin= Alpha
 Occup= -0.241853
         1    1.573809E-04
         2    3.663742E-04
         3   -1.031222E-03
         4    2.237363E-03
         5    1.085327E-02
         6    9.842171E-03
         7   -1.500971E-03
         8   -2.276828E-04
         9   -3.629423E-02
        10    2.078467E-03
        11   -4.036482E-04
        12   -3.419136E-02
        13    3.269728E-02
        14   -9.204011E-03
        15   -6.972387E-03
        16   -2.486785E-06
        17    1.312883E-05
        18   -1.064205E-05
        19    1.284729E-05
        20    6.248736E-03
        21   -4.175657E-03
        22    5.859013E-04
        23   -3.537229E-04
        24   -2.321784E-04
        25    6.339187E-04
        26    1.415760E-02
        27   -7.795552E-03
        28    4.718756E-03
        29   -4.389784E-03
        30   -3.289720E-04
        31   -1.016268E-03
        32   -1.056713E-03
        33    1.067981E-02
        34    1.690055E-05
        35   -6.647028E-06
        36    2.106930E-04
        37   -6.969215E-06
        38    6.852987E-06
        39    6.318826E-04
        40   -1.570525E-05
        41    2.064936E-06
        42   -9.145569E-04
        43    7.274132E-04
        44   -1.995640E-05
        45   -4.325918E-05
        46   -1.355818E-04
        47    2.407741E-03
        48    4.709240E-02
        49   -4.554727E-03
        50   -4.297130E-04
        51    4.212653E-06
        52   -2.188575E-01
        53    3.002490E-04
        54   -1.722273E-05
        55   -2.265629E-01
        56    1.532138E-02
        57    1.416089E-03
        58   -2.092530E-01
        59   -3.449036E-05
        60    3.142024E-05
        61    3.070114E-06
        62    6.598655E-08
        63    4.994762E-04
        64   -5.141015E-07
        65   -3.311250E-04
        66    5.555202E-04
        67   -2.243952E-04
        68   -3.981388E-06
        69    3.093479E-03
        70   -7.082019E-07
        71   -8.018670E-03
        72    9.033673E-03
        73   -1.015002E-03
        74    2.469364E-04
        75   -5.645675E-03
        76    2.779315E-05
        77   -7.512696E-06
        78   -8.420456E-08
        79    1.265006E-03
        80    6.007232E-06
        81    2.909599E-08
        82   -7.499174E-04
        83    4.072106E-06
        84    8.387628E-08
        85   -9.472658E-04
        86   -5.983093E-08
        87    1.593441E-04
        88    3.708758E-04
        89   -1.047684E-03
        90    2.316039E-03
        91    8.526248E-03
        92    9.763619E-03
        93   -1.496871E-03
        94    2.116094E-04
        95   -3.631560E-02
        96    2.075369E-03
        97    3.752237E-04
        98   -3.421004E-02
        99    3.367419E-02
       100    1.069505E-02
       101   -7.067597E-03
       102   -2.090335E-06
       103    1.280700E-05
       104   -1.071667E-05
       105   -1.243409E-05
       106    6.248940E-03
       107    4.175828E-03
       108    5.844698E-04
       109   -3.502811E-04
       110   -2.341887E-04
       111   -6.291080E-04
       112    1.415558E-02
       113    7.794839E-03
       114    5.001513E-03
       115   -4.701662E-03
       116   -2.998511E-04
       117    8.097444E-04
       118   -1.043513E-03
       119   -1.064058E-02
       120    1.710710E-05
       121    6.616273E-06
       122    2.107651E-04
       123   -7.270136E-06
       124   -6.919717E-06
       125    6.318273E-04
       126   -1.568144E-05
       127   -1.956944E-06
       128   -9.145983E-04
       129   -7.273332E-04
       130   -1.068994E-04
       131   -2.301432E-04
       132   -5.313383E-04
       133    9.377107E-03
       134   -2.796196E-02
       135   -1.081468E-02
       136    1.165160E-03
       137   -6.208617E-04
       138    1.448954E-01
       139    8.073945E-03
       140   -5.532677E-03
       141    1.479320E-01
       142    2.408241E-02
       143    5.791837E-03
       144    8.977386E-02
       145   -1.311499E-04
       146    1.585924E-04
       147   -2.744255E-05
       148    2.844607E-06
       149    1.088788E-03
       150   -2.826806E-03
       151   -5.476458E-04
       152    6.735095E-04
       153   -1.258637E-04
       154   -1.510869E-03
       155    4.478420E-03
       156   -4.808695E-03
       157   -7.481206E-03
       158    5.881186E-03
       159    1.600019E-03
       160    7.486502E-03
       161   -3.366537E-03
       162    1.204460E-02
       163    1.284000E-05
       164   -9.070165E-06
       165   -7.841948E-04
       166    1.744677E-05
       167   -1.459080E-05
       168    1.437496E-04
       169   -3.467343E-05
       170    2.675970E-05
       171    9.083581E-04
       172   -3.423098E-04
       173    1.002652E-03
       174    2.284510E-03
       175   -2.330861E-03
       176   -1.964769E-02
       177    9.184597E-03
       178   -9.416593E-03
       179   -8.144969E-03
       180   -4.387810E-06
       181    1.081744E-01
       182   -6.275385E-04
       183    9.872361E-06
       184    1.109622E-01
       185    2.128753E-02
       186   -1.493996E-03
       187    1.310021E-01
       188   -4.278920E-04
       189    2.394818E-04
       190    1.884101E-04
       191   -8.356804E-08
       192   -9.496694E-03
       193   -3.643707E-07
       194    1.627956E-03
       195   -3.632084E-03
       196    2.004128E-03
       197   -3.289024E-06
       198   -2.348841E-02
       199    2.840285E-06
       200    5.161554E-03
       201   -6.400773E-03
       202    1.239219E-03
       203    2.910457E-04
       204   -1.874645E-02
       205   -1.109049E-05
       206   -1.051227E-04
       207   -3.782921E-08
       208   -2.856747E-04
       209    7.388898E-05
       210    1.002404E-07
       211   -1.028498E-03
       212    6.714798E-05
       213   -4.948714E-08
       214    1.411771E-03
       215   -9.572536E-08
       216   -1.071470E-04
       217   -2.304863E-04
       218   -5.384566E-04
       219    9.461492E-03
       220   -3.058150E-02
       221   -1.085241E-02
       222    1.168563E-03
       223    6.185939E-04
       224    1.449011E-01
       225    8.071883E-03
       226    5.548211E-03
       227    1.479473E-01
       228    2.298853E-02
       229   -7.528480E-03
       230    8.968833E-02
       231   -1.308852E-04
       232    1.591045E-04
       233   -2.821934E-05
       234   -2.426797E-06
       235    1.088475E-03
       236    2.826920E-03
       237   -5.475609E-04
       238    6.750364E-04
       239   -1.274756E-04
       240    1.513838E-03
       241    4.475880E-03
       242    4.808841E-03
       243   -7.187673E-03
       244    5.572853E-03
       245    1.614820E-03
       246   -7.726418E-03
       247   -3.383887E-03
       248   -1.209622E-02
       249    1.272081E-05
       250    9.162341E-06
       251   -7.844903E-04
       252    1.771265E-05
       253    1.448103E-05
       254    1.440486E-04
       255   -3.477940E-05
       256   -2.677360E-05
       257    9.084557E-04
       258    3.423082E-04
       259    3.446889E-04
       260    2.310750E-04
       261    1.556005E-02
       262    1.275792E-05
       263    2.981740E-06
       264   -1.354149E-03
       265    4.675243E-03
       266    2.379183E-04
       267    6.938457E-03
       268    3.350537E-04
       269    2.094820E-04
       270    1.535737E-02
       271    1.063948E-05
       272   -1.036666E-06
       273   -1.355292E-03
       274    4.828882E-03
       275   -1.126260E-04
       276    6.915225E-03
       277    3.736924E-04
       278    2.085882E-03
       279   -2.980696E-02
       280    8.799251E-06
       281   -8.753794E-05
       282    5.949250E-03
       283    1.403527E-03
       284    2.365243E-03
       285   -1.593994E-03
       286    3.753142E-04
       287    2.083599E-03
       288   -3.019668E-02
       289    8.623481E-06
       290    8.729054E-05
       291    5.950008E-03
       292    1.279328E-03
       293   -2.512019E-03
       294   -1.621716E-03
       295    3.862641E-05
       296    8.917424E-05
       297   -7.055460E-05
       298   -3.815759E-04
       299    6.038217E-03
       300   -1.053738E-03
       301   -3.705110E-04
       302   -3.908744E-08
       303   -1.503499E-02
       304   -1.078164E-04
       305   -1.080383E-06
       306   -1.774481E-02
       307    2.606370E-03
       308   -2.536039E-05
       309   -9.382790E-03
       310   -2.041398E-05
       311    4.202591E-06
       312    1.621139E-05
       313    3.987732E-07
       314   -4.850075E-03
       315   -6.541028E-08
       316   -8.884800E-06
       317   -5.797805E-05
       318    6.686285E-05
       319    1.880067E-06
       320   -1.447265E-02
       321    5.850118E-08
       322    9.611788E-04
       323   -2.558320E-03
       324    1.597141E-03
       325   -4.056746E-05
       326   -3.476946E-03
       327   -5.321729E-06
       328   -6.585783E-06
       329    7.276552E-08
       330   -4.784500E-05
       331    4.721300E-06
       332   -1.290600E-07
       333   -7.400848E-04
       334    4.114455E-06
       335    3.143480E-08
       336    8.042756E-04
       337   -4.396776E-09
       338    1.175324E-05
       339    2.552495E-05
       340    1.684041E-06
       341   -4.526957E-04
       342    5.160982E-03
       343    7.655487E-04
       344    2.175135E-04
       345   -9.249245E-05
       346    8.897242E-02
       347    2.880116E-04
       348   -2.112899E-04
       349    8.240764E-02
       350    1.359743E-03
       351   -3.908952E-04
       352    6.593534E-02
       353    1.383533E-04
       354   -1.897559E-04
       355    7.944312E-03
       356   -2.947751E-06
       357    3.662916E-06
       358   -7.151657E-07
       359   -5.787711E-07
       360    3.832706E-05
       361   -5.990406E-04
       362    1.264177E-05
       363    8.498832E-06
       364   -2.114060E-05
       365   -1.105447E-05
       366    7.046311E-04
       367   -1.955866E-03
       368    8.052655E-05
       369   -6.152299E-05
       370   -1.900356E-05
       371   -8.776825E-05
       372    3.070924E-04
       373   -3.452979E-04
       374   -7.245133E-07
       375   -1.370618E-06
       376   -8.696928E-05
       377    1.320178E-06
       378    1.099839E-07
       379   -9.084299E-05
       380   -3.481410E-07
       381    1.728893E-06
       382    2.075245E-04
       383   -1.687435E-04
       384    1.125370E-05
       385    2.433615E-05
       386    2.950180E-06
       387   -4.467143E-04
       388    5.175519E-03
       389    7.214122E-04
       390    1.921188E-04
       391    1.102381E-04
       392    8.897309E-02
       393    2.652487E-04
       394    2.258627E-04
       395    8.240878E-02
       396    1.304762E-03
       397    4.067793E-04
       398    6.592845E-02
       399    1.177517E-04
       400    1.954543E-04
       401    7.949163E-03
       402   -3.095949E-06
       403    3.869194E-06
       404   -7.732445E-07
       405    5.893902E-07
       406    3.837554E-05
       407    5.990523E-04
       408    1.174067E-05
       409    8.958564E-06
       410   -2.069923E-05
       411    1.032233E-05
       412    7.045439E-04
       413    1.955891E-03
       414    7.960077E-05
       415   -6.195556E-05
       416   -1.764520E-05
       417    8.728763E-05
       418    3.079464E-04
       419    3.444865E-04
       420   -7.410448E-07
       421    1.430089E-06
       422   -8.697656E-05
       423    1.326151E-06
       424   -1.920253E-07
       425   -9.083863E-05
       426   -3.319351E-07
       427   -1.726641E-06
       428    2.075299E-04
       429    1.687528E-04
       430   -4.444959E-03
       431   -1.054269E-02
       432    1.637670E-02
       433    2.526612E-02
       434    2.123448E-02
       435    6.338547E-02
       436    1.560229E-02
       437   -1.334058E-05
       438   -2.431350E-01
       439    1.773662E-02
       440   -1.238474E-06
       441   -2.403608E-01
       442    1.555395E-02
       443    1.208884E-04
       444   -1.979084E-01
       445    8.531289E-05
       446    1.101790E-05
       447   -9.633079E-05
       448   -2.588640E-07
       449   -7.620300E-04
       450   -3.449040E-07
       451    2.166800E-04
       452    1.352925E-03
       453   -1.569605E-03
       454    4.898355E-06
       455   -3.563068E-03
       456   -1.576628E-06
       457    1.758987E-03
       458    2.519352E-03
       459   -4.278338E-03
       460    1.640082E-05
       461   -2.019194E-03
       462   -1.298286E-05
       463    1.257538E-04
       464   -1.928179E-08
       465    9.635937E-04
       466    7.826647E-05
       467    6.002155E-09
       468   -5.125325E-04
       469   -2.469829E-04
       470    1.986708E-08
       471   -7.802642E-04
       472   -3.597113E-08
       473   -8.424800E-03
       474   -1.593534E-02
       475   -2.680431E-02
       476    2.021355E-03
       477    1.683383E-03
       478   -1.237500E-02
       479   -1.459028E-03
       480    3.227948E-03
       481   -1.456022E-02
       482   -8.415988E-03
       483   -1.584351E-02
       484   -2.641648E-02
       485    2.016551E-03
       486   -1.674472E-03
       487   -1.237986E-02
       488   -1.502973E-03
       489   -3.169334E-03
       490   -1.458291E-02
 Sym= X
 Ene= -0.665647
 Spin= Alpha
 Occup= -0.665647
         1   -1.837443E-05
         2   -4.146694E-05
         3    1.019166E-04
         4   -1.476863E-04
         5   -1.002914E-02
         6   -5.040346E-04
         7   -4.116003E-05
         8   -1.644822E-04
         9   -1.883634E-01
        10   -4.600727E-04
        11   -3.773596E-05
        12   -1.888332E-01
        13    3.876209E-03
        14   -6.409787E-03
        15   -1.100189E-01
        16   -4.697058E-06
        17   -7.238771E-07
        18    5.420935E-06
        19    2.634648E-06
        20   -4.965928E-03
        21   -5.416442E-04
        22   -8.368981E-05
        23    4.913646E-05
        24    3.455336E-05
        25    1.678861E-05
        26   -9.529749E-03
        27    4.143410E-04
        28    8.315273E-04
        29   -9.760849E-04
        30    1.445576E-04
        31    4.899466E-04
        32   -2.776296E-03
        33   -5.291665E-04
        34   -4.015907E-06
        35   -1.022166E-06
        36    1.161995E-03
        37    9.200536E-07
        38    4.139679E-07
        39   -1.405305E-03
        40    4.467851E-06
        41    9.574113E-07
        42   -1.536754E-04
        43   -3.125234E-06
        44   -2.910128E-07
        45   -6.262369E-07
        46    1.981634E-06
        47   -3.075405E-05
        48    2.170878E-03
        49    1.129754E-04
        50   -6.808912E-06
        51    1.702691E-04
        52    8.174275E-06
        53   -8.067328E-06
        54    2.770508E-04
        55    1.600177E-05
        56    1.033737E-03
        57   -9.920952E-03
        58    6.789857E-05
        59    1.126797E-07
        60   -2.218602E-07
        61    1.091805E-07
        62    1.297755E-05