[Molden Format]
[Title]
ADC(2) - opt by CAM-B3LYP gaussian                                              
[Atoms] AU
 c     1    6 -.12588699998532E+01 -.22834089986974E+01 -.24579904026210E-01
 c     2    6 -.25576598737242E+01 0.00000000000000E+00 -.23328905326240E-01
 c     3    6 -.12588681101271E+01 0.22834089986974E+01 -.24585573204610E-01
 c     4    6 0.13319747639512E+01 0.22851362083829E+01 -.26548998656670E-01
 c     5    6 0.26868460402678E+01 0.00000000000000E+00 -.25991529447470E-01
 c     6    6 0.13319728742250E+01 -.22851362083829E+01 -.26541439752140E-01
 h     7    1 -.22976467859220E+01 -.40383900994038E+01 -.22042001829740E-01
 h     8    1 -.22976448961959E+01 0.40383919891299E+01 -.22053340186540E-01
 h     9    1 0.23511286338561E+01 0.40572968093633E+01 -.28790213850280E-01
 h    10    1 0.23511267441300E+01 -.40572968093633E+01 -.28775096041210E-01
 n    11    7 -.52730224718766E+01 0.00000000000000E+00 -.17674844736640E-01
 o    12    8 -.63812882673039E+01 0.20269372576683E+01 -.15259774738810E-01
 o    13    8 -.63812844878516E+01 -.20269372576683E+01 -.15276782274010E-01
 n    14    7 0.52436643953234E+01 0.00000000000000E+00 -.69084844181800E-01
 h    15    1 0.62047866654136E+01 0.16174392738504E+01 0.18526851385235E+00
 h    16    1 0.62047847756874E+01 -.16174411635765E+01 0.18526473440008E+00
[GTO]
    1 0
 s    6 1.00
 0.13575349682000E+05 0.60645503603591E-03
 0.20352333680000E+04 0.46979088884982E-02
 0.46322562359000E+03 0.24332477647552E-01
 0.13120019598000E+03 0.97399968307759E-01
 0.42853015891000E+02 0.30195584253780E+00
 0.15584185766000E+02 0.66233609137875E+00
 s    2 1.00
 0.62067138508000E+01 0.65595308539952E+00
 0.25764896527000E+01 0.37585633285142E+00
 s    1 1.00
 0.57696339419000E+00 0.10000000000000E+01
 s    1 1.00
 0.22972831358000E+00 0.10000000000000E+01
 s    1 1.00
 0.95164440028000E-01 0.10000000000000E+01
 s    1 1.00
 0.48475401370000E-01 0.10000000000000E+01
 p    4 1.00
 0.34697232244000E+02 0.11327220003114E-01
 0.79582622826000E+01 0.76169659202087E-01
 0.23780826883000E+01 0.30192252202676E+00
 0.81433208183000E+00 0.72785027349547E+00
 p    1 1.00
 0.28887547253000E+00 0.10000000000000E+01
 p    1 1.00
 0.10056823671000E+00 0.10000000000000E+01
 d    1 1.00
 0.10970000000000E+01 0.10000000000000E+01
 d    1 1.00
 0.31800000000000E+00 0.10000000000000E+01
 d    1 1.00
 0.90985336424000E-01 0.10000000000000E+01
 f    1 1.00
 0.76100000000000E+00 0.10000000000000E+01
 
    2 0
 s    6 1.00
 0.13575349682000E+05 0.60645503603591E-03
 0.20352333680000E+04 0.46979088884982E-02
 0.46322562359000E+03 0.24332477647552E-01
 0.13120019598000E+03 0.97399968307759E-01
 0.42853015891000E+02 0.30195584253780E+00
 0.15584185766000E+02 0.66233609137875E+00
 s    2 1.00
 0.62067138508000E+01 0.65595308539952E+00
 0.25764896527000E+01 0.37585633285142E+00
 s    1 1.00
 0.57696339419000E+00 0.10000000000000E+01
 s    1 1.00
 0.22972831358000E+00 0.10000000000000E+01
 s    1 1.00
 0.95164440028000E-01 0.10000000000000E+01
 s    1 1.00
 0.48475401370000E-01 0.10000000000000E+01
 p    4 1.00
 0.34697232244000E+02 0.11327220003114E-01
 0.79582622826000E+01 0.76169659202087E-01
 0.23780826883000E+01 0.30192252202676E+00
 0.81433208183000E+00 0.72785027349547E+00
 p    1 1.00
 0.28887547253000E+00 0.10000000000000E+01
 p    1 1.00
 0.10056823671000E+00 0.10000000000000E+01
 d    1 1.00
 0.10970000000000E+01 0.10000000000000E+01
 d    1 1.00
 0.31800000000000E+00 0.10000000000000E+01
 d    1 1.00
 0.90985336424000E-01 0.10000000000000E+01
 f    1 1.00
 0.76100000000000E+00 0.10000000000000E+01
 
    3 0
 s    6 1.00
 0.13575349682000E+05 0.60645503603591E-03
 0.20352333680000E+04 0.46979088884982E-02
 0.46322562359000E+03 0.24332477647552E-01
 0.13120019598000E+03 0.97399968307759E-01
 0.42853015891000E+02 0.30195584253780E+00
 0.15584185766000E+02 0.66233609137875E+00
 s    2 1.00
 0.62067138508000E+01 0.65595308539952E+00
 0.25764896527000E+01 0.37585633285142E+00
 s    1 1.00
 0.57696339419000E+00 0.10000000000000E+01
 s    1 1.00
 0.22972831358000E+00 0.10000000000000E+01
 s    1 1.00
 0.95164440028000E-01 0.10000000000000E+01
 s    1 1.00
 0.48475401370000E-01 0.10000000000000E+01
 p    4 1.00
 0.34697232244000E+02 0.11327220003114E-01
 0.79582622826000E+01 0.76169659202087E-01
 0.23780826883000E+01 0.30192252202676E+00
 0.81433208183000E+00 0.72785027349547E+00
 p    1 1.00
 0.28887547253000E+00 0.10000000000000E+01
 p    1 1.00
 0.10056823671000E+00 0.10000000000000E+01
 d    1 1.00
 0.10970000000000E+01 0.10000000000000E+01
 d    1 1.00
 0.31800000000000E+00 0.10000000000000E+01
 d    1 1.00
 0.90985336424000E-01 0.10000000000000E+01
 f    1 1.00
 0.76100000000000E+00 0.10000000000000E+01
 
    4 0
 s    6 1.00
 0.13575349682000E+05 0.60645503603591E-03
 0.20352333680000E+04 0.46979088884982E-02
 0.46322562359000E+03 0.24332477647552E-01
 0.13120019598000E+03 0.97399968307759E-01
 0.42853015891000E+02 0.30195584253780E+00
 0.15584185766000E+02 0.66233609137875E+00
 s    2 1.00
 0.62067138508000E+01 0.65595308539952E+00
 0.25764896527000E+01 0.37585633285142E+00
 s    1 1.00
 0.57696339419000E+00 0.10000000000000E+01
 s    1 1.00
 0.22972831358000E+00 0.10000000000000E+01
 s    1 1.00
 0.95164440028000E-01 0.10000000000000E+01
 s    1 1.00
 0.48475401370000E-01 0.10000000000000E+01
 p    4 1.00
 0.34697232244000E+02 0.11327220003114E-01
 0.79582622826000E+01 0.76169659202087E-01
 0.23780826883000E+01 0.30192252202676E+00
 0.81433208183000E+00 0.72785027349547E+00
 p    1 1.00
 0.28887547253000E+00 0.10000000000000E+01
 p    1 1.00
 0.10056823671000E+00 0.10000000000000E+01
 d    1 1.00
 0.10970000000000E+01 0.10000000000000E+01
 d    1 1.00
 0.31800000000000E+00 0.10000000000000E+01
 d    1 1.00
 0.90985336424000E-01 0.10000000000000E+01
 f    1 1.00
 0.76100000000000E+00 0.10000000000000E+01
 
    5 0
 s    6 1.00
 0.13575349682000E+05 0.60645503603591E-03
 0.20352333680000E+04 0.46979088884982E-02
 0.46322562359000E+03 0.24332477647552E-01
 0.13120019598000E+03 0.97399968307759E-01
 0.42853015891000E+02 0.30195584253780E+00
 0.15584185766000E+02 0.66233609137875E+00
 s    2 1.00
 0.62067138508000E+01 0.65595308539952E+00
 0.25764896527000E+01 0.37585633285142E+00
 s    1 1.00
 0.57696339419000E+00 0.10000000000000E+01
 s    1 1.00
 0.22972831358000E+00 0.10000000000000E+01
 s    1 1.00
 0.95164440028000E-01 0.10000000000000E+01
 s    1 1.00
 0.48475401370000E-01 0.10000000000000E+01
 p    4 1.00
 0.34697232244000E+02 0.11327220003114E-01
 0.79582622826000E+01 0.76169659202087E-01
 0.23780826883000E+01 0.30192252202676E+00
 0.81433208183000E+00 0.72785027349547E+00
 p    1 1.00
 0.28887547253000E+00 0.10000000000000E+01
 p    1 1.00
 0.10056823671000E+00 0.10000000000000E+01
 d    1 1.00
 0.10970000000000E+01 0.10000000000000E+01
 d    1 1.00
 0.31800000000000E+00 0.10000000000000E+01
 d    1 1.00
 0.90985336424000E-01 0.10000000000000E+01
 f    1 1.00
 0.76100000000000E+00 0.10000000000000E+01
 
    6 0
 s    6 1.00
 0.13575349682000E+05 0.60645503603591E-03
 0.20352333680000E+04 0.46979088884982E-02
 0.46322562359000E+03 0.24332477647552E-01
 0.13120019598000E+03 0.97399968307759E-01
 0.42853015891000E+02 0.30195584253780E+00
 0.15584185766000E+02 0.66233609137875E+00
 s    2 1.00
 0.62067138508000E+01 0.65595308539952E+00
 0.25764896527000E+01 0.37585633285142E+00
 s    1 1.00
 0.57696339419000E+00 0.10000000000000E+01
 s    1 1.00
 0.22972831358000E+00 0.10000000000000E+01
 s    1 1.00
 0.95164440028000E-01 0.10000000000000E+01
 s    1 1.00
 0.48475401370000E-01 0.10000000000000E+01
 p    4 1.00
 0.34697232244000E+02 0.11327220003114E-01
 0.79582622826000E+01 0.76169659202087E-01
 0.23780826883000E+01 0.30192252202676E+00
 0.81433208183000E+00 0.72785027349547E+00
 p    1 1.00
 0.28887547253000E+00 0.10000000000000E+01
 p    1 1.00
 0.10056823671000E+00 0.10000000000000E+01
 d    1 1.00
 0.10970000000000E+01 0.10000000000000E+01
 d    1 1.00
 0.31800000000000E+00 0.10000000000000E+01
 d    1 1.00
 0.90985336424000E-01 0.10000000000000E+01
 f    1 1.00
 0.76100000000000E+00 0.10000000000000E+01
 
    7 0
 s    3 1.00
 0.34061341000000E+02 0.25439307208879E-01
 0.51235746000000E+01 0.19008594890375E+00
 0.11646626000000E+01 0.85244113011042E+00
 s    1 1.00
 0.32723041000000E+00 0.10000000000000E+01
 s    1 1.00
 0.10307241000000E+00 0.10000000000000E+01
 p    1 1.00
 0.80000000000000E+00 0.10000000000000E+01
 p    1 1.00
 0.95774129632000E-01 0.10000000000000E+01
 
    8 0
 s    3 1.00
 0.34061341000000E+02 0.25439307208879E-01
 0.51235746000000E+01 0.19008594890375E+00
 0.11646626000000E+01 0.85244113011042E+00
 s    1 1.00
 0.32723041000000E+00 0.10000000000000E+01
 s    1 1.00
 0.10307241000000E+00 0.10000000000000E+01
 p    1 1.00
 0.80000000000000E+00 0.10000000000000E+01
 p    1 1.00
 0.95774129632000E-01 0.10000000000000E+01
 
    9 0
 s    3 1.00
 0.34061341000000E+02 0.25439307208879E-01
 0.51235746000000E+01 0.19008594890375E+00
 0.11646626000000E+01 0.85244113011042E+00
 s    1 1.00
 0.32723041000000E+00 0.10000000000000E+01
 s    1 1.00
 0.10307241000000E+00 0.10000000000000E+01
 p    1 1.00
 0.80000000000000E+00 0.10000000000000E+01
 p    1 1.00
 0.95774129632000E-01 0.10000000000000E+01
 
   10 0
 s    3 1.00
 0.34061341000000E+02 0.25439307208879E-01
 0.51235746000000E+01 0.19008594890375E+00
 0.11646626000000E+01 0.85244113011042E+00
 s    1 1.00
 0.32723041000000E+00 0.10000000000000E+01
 s    1 1.00
 0.10307241000000E+00 0.10000000000000E+01
 p    1 1.00
 0.80000000000000E+00 0.10000000000000E+01
 p    1 1.00
 0.95774129632000E-01 0.10000000000000E+01
 
   11 0
 s    6 1.00
 0.19730800647000E+05 0.58626402628763E-03
 0.29578958745000E+04 0.45428820586397E-02
 0.67322133595000E+03 0.23558413450084E-01
 0.19068249494000E+03 0.94709193292923E-01
 0.62295441898000E+02 0.29719784913376E+00
 0.22654161182000E+02 0.66916246895232E+00
 s    2 1.00
 0.89791477428000E+01 0.64596683630063E+00
 0.36863002370000E+01 0.38700574393705E+00
 s    1 1.00
 0.84660076805000E+00 0.10000000000000E+01
 s    1 1.00
 0.33647133771000E+00 0.10000000000000E+01
 s    1 1.00
 0.13647653675000E+00 0.10000000000000E+01
 s    1 1.00
 0.68441605847000E-01 0.10000000000000E+01
 p    4 1.00
 0.49200380510000E+02 0.11448825101764E-01
 0.11346790537000E+02 0.78422337970864E-01
 0.34273972411000E+01 0.30818094738830E+00
 0.11785525134000E+01 0.72027196368413E+00
 p    1 1.00
 0.41642204972000E+00 0.10000000000000E+01
 p    1 1.00
 0.14260826011000E+00 0.10000000000000E+01
 d    1 1.00
 0.16540000000000E+01 0.10000000000000E+01
 d    1 1.00
 0.46900000000000E+00 0.10000000000000E+01
 d    1 1.00
 0.12829642058000E+00 0.10000000000000E+01
 f    1 1.00
 0.10930000000000E+01 0.10000000000000E+01
 
   12 0
 s    6 1.00
 0.27032382631000E+05 0.57227335211155E-03
 0.40523871392000E+04 0.44353233492995E-02
 0.92232722710000E+03 0.23020107706038E-01
 0.26124070989000E+03 0.92822490667928E-01
 0.85354641351000E+02 0.29378500009671E+00
 0.31035035245000E+02 0.67401604501641E+00
 s    2 1.00
 0.12260860728000E+02 0.63839937025506E+00
 0.49987076005000E+01 0.39534587125718E+00
 s    1 1.00
 0.11703108158000E+01 0.10000000000000E+01
 s    1 1.00
 0.46474740994000E+00 0.10000000000000E+01
 s    1 1.00
 0.18504536357000E+00 0.10000000000000E+01
 s    1 1.00
 0.70288026270000E-01 0.10000000000000E+01
 p    4 1.00
 0.63274954801000E+02 0.12018332222616E-01
 0.14627049379000E+02 0.83005421790056E-01
 0.44501223456000E+01 0.31991743925964E+00
 0.15275799647000E+01 0.70715542916104E+00
 p    1 1.00
 0.52935117943000E+00 0.10000000000000E+01
 p    1 1.00
 0.17478421270000E+00 0.10000000000000E+01
 p    1 1.00
 0.51112745706000E-01 0.10000000000000E+01
 d    1 1.00
 0.23140000000000E+01 0.10000000000000E+01
 d    1 1.00
 0.64500000000000E+00 0.10000000000000E+01
 d    1 1.00
 0.14696477366000E+00 0.10000000000000E+01
 f    1 1.00
 0.14280000000000E+01 0.10000000000000E+01
 
   13 0
 s    6 1.00
 0.27032382631000E+05 0.57227335211155E-03
 0.40523871392000E+04 0.44353233492995E-02
 0.92232722710000E+03 0.23020107706038E-01
 0.26124070989000E+03 0.92822490667928E-01
 0.85354641351000E+02 0.29378500009671E+00
 0.31035035245000E+02 0.67401604501641E+00
 s    2 1.00
 0.12260860728000E+02 0.63839937025506E+00
 0.49987076005000E+01 0.39534587125718E+00
 s    1 1.00
 0.11703108158000E+01 0.10000000000000E+01
 s    1 1.00
 0.46474740994000E+00 0.10000000000000E+01
 s    1 1.00
 0.18504536357000E+00 0.10000000000000E+01
 s    1 1.00
 0.70288026270000E-01 0.10000000000000E+01
 p    4 1.00
 0.63274954801000E+02 0.12018332222616E-01
 0.14627049379000E+02 0.83005421790056E-01
 0.44501223456000E+01 0.31991743925964E+00
 0.15275799647000E+01 0.70715542916104E+00
 p    1 1.00
 0.52935117943000E+00 0.10000000000000E+01
 p    1 1.00
 0.17478421270000E+00 0.10000000000000E+01
 p    1 1.00
 0.51112745706000E-01 0.10000000000000E+01
 d    1 1.00
 0.23140000000000E+01 0.10000000000000E+01
 d    1 1.00
 0.64500000000000E+00 0.10000000000000E+01
 d    1 1.00
 0.14696477366000E+00 0.10000000000000E+01
 f    1 1.00
 0.14280000000000E+01 0.10000000000000E+01
 
   14 0
 s    6 1.00
 0.19730800647000E+05 0.58626402628763E-03
 0.29578958745000E+04 0.45428820586397E-02
 0.67322133595000E+03 0.23558413450084E-01
 0.19068249494000E+03 0.94709193292923E-01
 0.62295441898000E+02 0.29719784913376E+00
 0.22654161182000E+02 0.66916246895232E+00
 s    2 1.00
 0.89791477428000E+01 0.64596683630063E+00
 0.36863002370000E+01 0.38700574393705E+00
 s    1 1.00
 0.84660076805000E+00 0.10000000000000E+01
 s    1 1.00
 0.33647133771000E+00 0.10000000000000E+01
 s    1 1.00
 0.13647653675000E+00 0.10000000000000E+01
 s    1 1.00
 0.68441605847000E-01 0.10000000000000E+01
 p    4 1.00
 0.49200380510000E+02 0.11448825101764E-01
 0.11346790537000E+02 0.78422337970864E-01
 0.34273972411000E+01 0.30818094738830E+00
 0.11785525134000E+01 0.72027196368413E+00
 p    1 1.00
 0.41642204972000E+00 0.10000000000000E+01
 p    1 1.00
 0.14260826011000E+00 0.10000000000000E+01
 d    1 1.00
 0.16540000000000E+01 0.10000000000000E+01
 d    1 1.00
 0.46900000000000E+00 0.10000000000000E+01
 d    1 1.00
 0.12829642058000E+00 0.10000000000000E+01
 f    1 1.00
 0.10930000000000E+01 0.10000000000000E+01
 
   15 0
 s    3 1.00
 0.34061341000000E+02 0.25439307208879E-01
 0.51235746000000E+01 0.19008594890375E+00
 0.11646626000000E+01 0.85244113011042E+00
 s    1 1.00
 0.32723041000000E+00 0.10000000000000E+01
 s    1 1.00
 0.10307241000000E+00 0.10000000000000E+01
 p    1 1.00
 0.80000000000000E+00 0.10000000000000E+01
 p    1 1.00
 0.95774129632000E-01 0.10000000000000E+01
 
   16 0
 s    3 1.00
 0.34061341000000E+02 0.25439307208879E-01
 0.51235746000000E+01 0.19008594890375E+00
 0.11646626000000E+01 0.85244113011042E+00
 s    1 1.00
 0.32723041000000E+00 0.10000000000000E+01
 s    1 1.00
 0.10307241000000E+00 0.10000000000000E+01
 p    1 1.00
 0.80000000000000E+00 0.10000000000000E+01
 p    1 1.00
 0.95774129632000E-01 0.10000000000000E+01
 
[MO]
 Sym= X
 Ene= -0.898781
 Spin= Alpha
 Occup= -0.898781
         1   -1.400675E-04
         2   -3.281798E-04
         3    9.810654E-04
         4   -2.380582E-03
         5   -1.074752E-02
         6   -1.008008E-02
         7    1.618700E-03
         8    3.646098E-04
         9    2.606863E-02
        10   -2.057236E-03
        11    5.228961E-04
        12    2.415950E-02
        13   -3.282838E-02
        14    9.194103E-03
        15    3.745603E-03
        16    3.890669E-06
        17   -1.573181E-05
        18    1.184115E-05
        19   -1.769636E-05
        20   -6.337036E-03
        21    3.903277E-03
        22   -5.949949E-04
        23    3.585386E-04
        24    2.364563E-04
        25   -6.498247E-04
        26   -1.428715E-02
        27    7.350470E-03
        28   -4.746053E-03
        29    4.429482E-03
        30    3.165711E-04
        31    1.000805E-03
        32    1.399565E-03
        33   -1.048597E-02
        34   -1.729807E-05
        35    7.323861E-06
        36   -1.218951E-04
        37    7.517243E-06
        38   -7.145867E-06
        39   -6.929175E-04
        40    1.569055E-05
        41   -2.680123E-06
        42    8.564570E-04
        43   -7.051892E-04
        44    2.008086E-05
        45    4.233334E-05
        46    1.476959E-04
        47   -2.471311E-03
        48   -4.733737E-02
        49    4.825709E-03
        50    5.049863E-04
        51    1.579280E-06
        52    2.065664E-01
        53   -2.660797E-04
        54    2.211841E-05
        55    2.142657E-01
        56   -1.548674E-02
        57   -1.489524E-03
        58    2.040788E-01
        59    3.586961E-05
        60   -3.328621E-05
        61   -2.583397E-06
        62    1.533602E-07
        63   -7.690184E-04
        64    3.408057E-07
        65    3.433752E-04
        66   -5.716918E-04
        67    2.283166E-04
        68    4.766979E-06
        69   -3.536595E-03
        70    1.754580E-07
        71    8.160890E-03
        72   -9.178646E-03
        73    1.017755E-03
        74   -2.539358E-04
        75    5.151105E-03
        76   -2.723952E-05
        77    7.897824E-06
        78    4.383612E-08
        79   -1.165780E-03
        80   -6.330002E-06
        81    4.295415E-08
        82    7.086162E-04
        83   -4.266041E-06
        84   -1.017665E-07
        85    8.554424E-04
        86    2.800283E-08
        87   -1.402831E-04
        88   -3.288120E-04
        89    9.912259E-04
        90   -2.465893E-03
        91   -8.263544E-03
        92   -1.000374E-02
        93    1.620063E-03
        94   -3.671461E-04
        95    2.608052E-02
        96   -2.045689E-03
        97   -5.087323E-04
        98    2.416859E-02
        99   -3.383308E-02
       100   -1.076738E-02
       101    3.842907E-03
       102    3.676056E-06
       103   -1.571440E-05
       104    1.203835E-05
       105    1.802622E-05
       106   -6.337510E-03
       107   -3.903404E-03
       108   -5.920098E-04
       109    3.537679E-04
       110    2.382420E-04
       111    6.460074E-04
       112   -1.428558E-02
       113   -7.349981E-03
       114   -5.033676E-03
       115    4.747214E-03
       116    2.864619E-04
       117   -7.869508E-04
       118    1.389159E-03
       119    1.044314E-02
       120   -1.750308E-05
       121   -7.300232E-06
       122   -1.219088E-04
       123    7.843119E-06
       124    7.149778E-06
       125   -6.929368E-04
       126    1.563973E-05
       127    2.644512E-06
       128    8.564946E-04
       129    7.051192E-04
       130    7.119329E-05
       131    1.510717E-04
       132    6.578989E-04
       133   -9.356036E-03
       134    2.811035E-02
       135    1.120576E-02
       136   -1.178725E-03
       137    6.682369E-04
       138   -1.529436E-01
       139   -8.210891E-03
       140    5.655803E-03
       141   -1.558246E-01
       142   -2.380160E-02
       143   -6.091514E-03
       144   -9.361335E-02
       145    1.337434E-04
       146   -1.582938E-04
       147    2.455041E-05
       148    2.224093E-06
       149   -8.779646E-04
       150    2.961630E-03
       151    5.579347E-04
       152   -6.800033E-04
       153    1.220686E-04
       154    1.544440E-03
       155   -4.117205E-03
       156    5.017283E-03
       157    7.669037E-03
       158   -6.057934E-03
       159   -1.611103E-03
       160   -7.640756E-03
       161    3.406746E-03
       162   -1.212941E-02
       163   -1.388770E-05
       164    9.329013E-06
       165    8.559064E-04
       166   -1.669822E-05
       167    1.466524E-05
       168   -2.086569E-04
       169    3.533052E-05
       170   -2.718143E-05
       171   -9.396620E-04
       172    3.422011E-04
       173   -1.000182E-03
       174   -2.278450E-03
       175    2.317452E-03
       176    1.974355E-02
       177   -1.125813E-02
       178    8.935019E-03
       179    8.146134E-03
       180    7.798477E-07
       181   -1.129275E-01
       182    4.459031E-04
       183   -1.362745E-05
       184   -1.155561E-01
       185   -2.227718E-02
       186    1.559706E-03
       187   -1.319019E-01
       188    4.275939E-04
       189   -2.386040E-04
       190   -1.889900E-04
       191    1.248925E-07
       192    9.783506E-03
       193    1.622633E-07
       194   -1.685452E-03
       195    3.711882E-03
       196   -2.026430E-03
       197    3.650733E-06
       198    2.422635E-02
       199   -3.279436E-06
       200   -5.119582E-03
       201    6.308408E-03
       202   -1.188826E-03
       203   -3.006374E-04
       204    1.914283E-02
       205    1.085033E-05
       206    1.044837E-04
       207    2.731071E-08
       208    3.331024E-04
       209   -7.357726E-05
       210   -1.026693E-07
       211    1.019736E-03
       212   -6.660231E-05
       213    6.602813E-08
       214   -1.466640E-03
       215    1.270889E-07
       216    7.169875E-05
       217    1.520288E-04
       218    6.637199E-04
       219   -9.442241E-03
       220    3.089178E-02
       221    1.124233E-02
       222   -1.179764E-03
       223   -6.621946E-04
       224   -1.529386E-01
       225   -8.211323E-03
       226   -5.669730E-03
       227   -1.558292E-01
       228   -2.267862E-02
       229    7.911149E-03
       230   -9.351193E-02
       231    1.334630E-04
       232   -1.588071E-04
       233    2.534405E-05
       234   -2.154556E-06
       235   -8.778650E-04
       236   -2.961733E-03
       237    5.589676E-04
       238   -6.822528E-04
       239    1.232852E-04
       240   -1.546760E-03
       241   -4.115168E-03
       242   -5.017256E-03
       243    7.367949E-03
       244   -5.741021E-03
       245   -1.626928E-03
       246    7.887591E-03
       247    3.422018E-03
       248    1.218413E-02
       249   -1.378268E-05
       250   -9.390405E-06
       251    8.561368E-04
       252   -1.695480E-05
       253   -1.458820E-05
       254   -2.088811E-04
       255    3.544621E-05
       256    2.718675E-05
       257   -9.397469E-04
       258   -3.421949E-04
       259   -4.542359E-04
       260   -3.830500E-04
       261   -1.582620E-02
       262   -2.183408E-05
       263   -1.712442E-05
       264    1.003655E-03
       265   -4.794037E-03
       266   -2.383538E-04
       267   -6.754220E-03
       268   -4.562339E-04
       269   -3.776499E-04
       270   -1.561140E-02
       271   -2.071821E-05
       272    1.649688E-05
       273    1.004445E-03
       274   -4.948656E-03
       275    1.111965E-04
       276   -6.727251E-03
       277   -3.121790E-04
       278   -2.035162E-03
       279    3.058940E-02
       280   -1.354379E-05
       281    8.070035E-05
       282   -6.223730E-03
       283   -1.552451E-03
       284   -2.398032E-03
       285    1.640887E-03
       286   -3.162034E-04
       287   -2.036433E-03
       288    3.099568E-02
       289   -1.322662E-05
       290   -8.064383E-05
       291   -6.224010E-03
       292   -1.426011E-03
       293    2.549255E-03
       294    1.671937E-03
       295   -4.174827E-05
       296   -9.653460E-05
       297    8.412973E-05
       298    3.869358E-04
       299   -6.196983E-03
       300    1.000624E-03
       301    3.441823E-04
       302   -8.325587E-08
       303    2.054267E-02
       304    8.023540E-05
       305    8.296320E-07
       306    2.298329E-02
       307   -2.758226E-03
       308    3.068536E-05
       309    1.019432E-02
       310    1.369892E-05
       311    1.989043E-06
       312   -1.568796E-05
       313   -5.562526E-08
       314    4.550129E-03
       315   -2.379211E-08
       316   -1.119831E-05
       317    7.544890E-05
       318   -6.425058E-05
       319   -7.656167E-07
       320    1.368288E-02
       321   -3.215976E-07
       322   -9.569107E-04
       323    2.587867E-03
       324   -1.630956E-03
       325    4.296229E-05
       326    3.254243E-03
       327    4.826645E-06
       328    6.613826E-06
       329   -4.535397E-09
       330    1.185842E-05
       331   -4.862472E-06
       332    3.418042E-08
       333    7.133610E-04
       334   -4.010907E-06
       335   -2.809555E-08
       336   -7.292707E-04
       337    1.622074E-08
       338   -1.348420E-05
       339   -2.972430E-05
       340    3.504583E-06
       341    4.649582E-04
       342   -5.259487E-03
       343   -8.049247E-04
       344   -4.346213E-05
       345    1.322008E-04
       346   -8.154618E-02
       347   -1.367450E-04
       348    2.494530E-04
       349   -7.561649E-02
       350   -1.254175E-03
       351    4.453549E-04
       352   -6.167196E-02
       353   -1.348081E-04
       354    1.964057E-04
       355   -7.649549E-03
       356    3.664840E-06
       357   -3.886141E-06
       358    2.213009E-07
       359   -1.125791E-06
       360    8.141816E-06
       361    4.897792E-04
       362   -1.056167E-05
       363   -9.419250E-06
       364    1.998092E-05
       365    6.643843E-06
       366   -5.359189E-04
       367    1.634903E-03
       368   -7.616164E-05
       369    5.571975E-05
       370    2.044189E-05
       371    8.259196E-05
       372   -1.803938E-04
       373    2.563582E-04
       374    5.361614E-07
       375    1.702389E-06
       376    6.757008E-05
       377   -9.411668E-07
       378   -7.852652E-07
       379    8.579811E-05
       380    2.218308E-07
       381   -1.498730E-06
       382   -1.764529E-04
       383    1.404217E-04
       384   -1.329806E-05
       385   -2.930774E-05
       386    3.374509E-06
       387    4.601085E-04
       388   -5.273203E-03
       389   -7.631966E-04
       390   -3.583843E-05
       391   -1.358788E-04
       392   -8.154241E-02
       393   -1.301241E-04
       394   -2.518798E-04
       395   -7.561344E-02
       396   -1.208585E-03
       397   -4.519420E-04
       398   -6.166325E-02
       399   -1.160351E-04
       400   -2.013573E-04
       401   -7.654349E-03
       402    3.665022E-06
       403   -3.921324E-06
       404    2.563021E-07
       405    1.078975E-06
       406    8.123056E-06
       407   -4.897524E-04
       408   -1.001141E-05
       409   -9.520601E-06
       410    1.953201E-05
       411   -6.112097E-06
       412   -5.357507E-04
       413   -1.634812E-03
       414   -7.573104E-05
       415    5.660807E-05
       416    1.912297E-05
       417   -8.173297E-05
       418   -1.812952E-04
       419   -2.555604E-04
       420    5.400267E-07
       421   -1.709958E-06
       422    6.756996E-05
       423   -9.282439E-07
       424    8.035171E-07
       425    8.579384E-05
       426    2.037220E-07
       427    1.490632E-06
       428   -1.764485E-04
       429   -1.404186E-04
       430    4.508172E-03
       431    1.069345E-02
       432   -1.661543E-02
       433   -2.562431E-02
       434   -2.104554E-02
       435   -6.382428E-02
       436   -1.568014E-02
       437    1.143511E-05
       438    2.467838E-01
       439   -1.791364E-02
       440   -5.921101E-07
       441    2.440203E-01
       442   -1.608610E-02
       443   -1.253303E-04
       444    2.008146E-01
       445   -8.975719E-05
       446   -7.075133E-06
       447    9.683233E-05
       448    2.605623E-07
       449    7.995736E-04
       450    3.288981E-07
       451   -2.113415E-04
       452   -1.375196E-03
       453    1.586537E-03
       454   -4.844046E-06
       455    3.693036E-03
       456    1.553842E-06
       457   -1.703893E-03
       458   -2.619314E-03
       459    4.323208E-03
       460   -1.592808E-05
       461    2.134560E-03
       462    1.331947E-05
       463   -1.280362E-04
       464    2.181480E-08
       465   -9.744918E-04
       466   -7.894664E-05
       467   -2.025982E-08
       468    5.144334E-04
       469    2.507252E-04
       470   -9.007800E-09
       471    7.929845E-04
       472    3.971763E-08
       473    8.604236E-03
       474    1.627505E-02
       475    2.725976E-02
       476   -2.054457E-03
       477   -1.716501E-03
       478    1.257027E-02
       479    1.383955E-03
       480   -3.224960E-03
       481    1.475533E-02
       482    8.596764E-03
       483    1.618359E-02
       484    2.686592E-02
       485   -2.049774E-03
       486    1.707692E-03
       487    1.257518E-02
       488    1.429183E-03
       489    3.166066E-03
       490    1.477883E-02
 Sym= X
 Ene= 0.898781
 Spin= Alpha
 Occup= 0.898781
         1   -4.669992E-03
         2   -1.069335E-02
         3    1.843234E-02
         4    1.034536E-02
         5    2.923274E+00
         6   -4.867451E-01
         7   -2.861666E-02
         8   -4.326524E-02
         9    1.625323E-03
        10   -5.521120E-03
        11   -1.182875E-01
        12    8.442753E-04
        13   -3.527847E-01
        14    1.715081E+00
        15    1.389100E-02
        16    2.539423E-03
        17   -6.015860E-03
        18    3.476437E-03
        19   -3.149097E-03
        20    5.418578E-05
        21   -1.237110E-04
        22   -6.409526E-03
        23   -5.315470E-03
        24    1.172500E-02
        25   -9.338506E-04
        26    7.632624E-05
        27   -1.236050E-04
        28   -2.568226E-01
        29    5.964152E-02
        30    1.971811E-01
        31   -6.275161E-01
        32    7.615815E-03
        33   -1.560715E-02
        34    6.910145E-05
        35   -3.699845E-04
        36    1.364885E-05
        37   -5.616263E-04
        38   -2.496128E-04
        39   -2.458864E-05
        40    4.689170E-04
        41    7.459991E-04
        42    6.276787E-06
        43    1.932108E-05
        44   -9.900026E-04
        45   -2.398336E-03
        46    5.296807E-04
        47   -6.860836E-02
        48   -5.332463E+00
        49    5.614610E+00
        50   -6.990550E-02
        51    3.169816E-06
        52   -3.122952E-03
        53   -7.735845E-02
        54    4.063485E-05
        55   -4.612919E-03
        56   -3.319509E+00
        57   -4.165286E-05
        58    5.326491E-02
        59   -7.001922E-03
        60    2.535154E-03
        61    4.466768E-03
        62   -7.172152E-07