[Molden Format]
[Title]
ADC(2) - opt by CAM-B3LYP gaussian                                              
[Atoms] AU
 c     1    6 -.12588699998532E+01 -.22834089986974E+01 -.24579904026210E-01
 c     2    6 -.25576598737242E+01 0.00000000000000E+00 -.23328905326240E-01
 c     3    6 -.12588681101271E+01 0.22834089986974E+01 -.24585573204610E-01
 c     4    6 0.13319747639512E+01 0.22851362083829E+01 -.26548998656670E-01
 c     5    6 0.26868460402678E+01 0.00000000000000E+00 -.25991529447470E-01
 c     6    6 0.13319728742250E+01 -.22851362083829E+01 -.26541439752140E-01
 h     7    1 -.22976467859220E+01 -.40383900994038E+01 -.22042001829740E-01
 h     8    1 -.22976448961959E+01 0.40383919891299E+01 -.22053340186540E-01
 h     9    1 0.23511286338561E+01 0.40572968093633E+01 -.28790213850280E-01
 h    10    1 0.23511267441300E+01 -.40572968093633E+01 -.28775096041210E-01
 n    11    7 -.52730224718766E+01 0.00000000000000E+00 -.17674844736640E-01
 o    12    8 -.63812882673039E+01 0.20269372576683E+01 -.15259774738810E-01
 o    13    8 -.63812844878516E+01 -.20269372576683E+01 -.15276782274010E-01
 n    14    7 0.52436643953234E+01 0.00000000000000E+00 -.69084844181800E-01
 h    15    1 0.62047866654136E+01 0.16174392738504E+01 0.18526851385235E+00
 h    16    1 0.62047847756874E+01 -.16174411635765E+01 0.18526473440008E+00
[GTO]
    1 0
 s    6 1.00
 0.13575349682000E+05 0.60645503603591E-03
 0.20352333680000E+04 0.46979088884982E-02
 0.46322562359000E+03 0.24332477647552E-01
 0.13120019598000E+03 0.97399968307759E-01
 0.42853015891000E+02 0.30195584253780E+00
 0.15584185766000E+02 0.66233609137875E+00
 s    2 1.00
 0.62067138508000E+01 0.65595308539952E+00
 0.25764896527000E+01 0.37585633285142E+00
 s    1 1.00
 0.57696339419000E+00 0.10000000000000E+01
 s    1 1.00
 0.22972831358000E+00 0.10000000000000E+01
 s    1 1.00
 0.95164440028000E-01 0.10000000000000E+01
 s    1 1.00
 0.48475401370000E-01 0.10000000000000E+01
 p    4 1.00
 0.34697232244000E+02 0.11327220003114E-01
 0.79582622826000E+01 0.76169659202087E-01
 0.23780826883000E+01 0.30192252202676E+00
 0.81433208183000E+00 0.72785027349547E+00
 p    1 1.00
 0.28887547253000E+00 0.10000000000000E+01
 p    1 1.00
 0.10056823671000E+00 0.10000000000000E+01
 d    1 1.00
 0.10970000000000E+01 0.10000000000000E+01
 d    1 1.00
 0.31800000000000E+00 0.10000000000000E+01
 d    1 1.00
 0.90985336424000E-01 0.10000000000000E+01
 f    1 1.00
 0.76100000000000E+00 0.10000000000000E+01
 
    2 0
 s    6 1.00
 0.13575349682000E+05 0.60645503603591E-03
 0.20352333680000E+04 0.46979088884982E-02
 0.46322562359000E+03 0.24332477647552E-01
 0.13120019598000E+03 0.97399968307759E-01
 0.42853015891000E+02 0.30195584253780E+00
 0.15584185766000E+02 0.66233609137875E+00
 s    2 1.00
 0.62067138508000E+01 0.65595308539952E+00
 0.25764896527000E+01 0.37585633285142E+00
 s    1 1.00
 0.57696339419000E+00 0.10000000000000E+01
 s    1 1.00
 0.22972831358000E+00 0.10000000000000E+01
 s    1 1.00
 0.95164440028000E-01 0.10000000000000E+01
 s    1 1.00
 0.48475401370000E-01 0.10000000000000E+01
 p    4 1.00
 0.34697232244000E+02 0.11327220003114E-01
 0.79582622826000E+01 0.76169659202087E-01
 0.23780826883000E+01 0.30192252202676E+00
 0.81433208183000E+00 0.72785027349547E+00
 p    1 1.00
 0.28887547253000E+00 0.10000000000000E+01
 p    1 1.00
 0.10056823671000E+00 0.10000000000000E+01
 d    1 1.00
 0.10970000000000E+01 0.10000000000000E+01
 d    1 1.00
 0.31800000000000E+00 0.10000000000000E+01
 d    1 1.00
 0.90985336424000E-01 0.10000000000000E+01
 f    1 1.00
 0.76100000000000E+00 0.10000000000000E+01
 
    3 0
 s    6 1.00
 0.13575349682000E+05 0.60645503603591E-03
 0.20352333680000E+04 0.46979088884982E-02
 0.46322562359000E+03 0.24332477647552E-01
 0.13120019598000E+03 0.97399968307759E-01
 0.42853015891000E+02 0.30195584253780E+00
 0.15584185766000E+02 0.66233609137875E+00
 s    2 1.00
 0.62067138508000E+01 0.65595308539952E+00
 0.25764896527000E+01 0.37585633285142E+00
 s    1 1.00
 0.57696339419000E+00 0.10000000000000E+01
 s    1 1.00
 0.22972831358000E+00 0.10000000000000E+01
 s    1 1.00
 0.95164440028000E-01 0.10000000000000E+01
 s    1 1.00
 0.48475401370000E-01 0.10000000000000E+01
 p    4 1.00
 0.34697232244000E+02 0.11327220003114E-01
 0.79582622826000E+01 0.76169659202087E-01
 0.23780826883000E+01 0.30192252202676E+00
 0.81433208183000E+00 0.72785027349547E+00
 p    1 1.00
 0.28887547253000E+00 0.10000000000000E+01
 p    1 1.00
 0.10056823671000E+00 0.10000000000000E+01
 d    1 1.00
 0.10970000000000E+01 0.10000000000000E+01
 d    1 1.00
 0.31800000000000E+00 0.10000000000000E+01
 d    1 1.00
 0.90985336424000E-01 0.10000000000000E+01
 f    1 1.00
 0.76100000000000E+00 0.10000000000000E+01
 
    4 0
 s    6 1.00
 0.13575349682000E+05 0.60645503603591E-03
 0.20352333680000E+04 0.46979088884982E-02
 0.46322562359000E+03 0.24332477647552E-01
 0.13120019598000E+03 0.97399968307759E-01
 0.42853015891000E+02 0.30195584253780E+00
 0.15584185766000E+02 0.66233609137875E+00
 s    2 1.00
 0.62067138508000E+01 0.65595308539952E+00
 0.25764896527000E+01 0.37585633285142E+00
 s    1 1.00
 0.57696339419000E+00 0.10000000000000E+01
 s    1 1.00
 0.22972831358000E+00 0.10000000000000E+01
 s    1 1.00
 0.95164440028000E-01 0.10000000000000E+01
 s    1 1.00
 0.48475401370000E-01 0.10000000000000E+01
 p    4 1.00
 0.34697232244000E+02 0.11327220003114E-01
 0.79582622826000E+01 0.76169659202087E-01
 0.23780826883000E+01 0.30192252202676E+00
 0.81433208183000E+00 0.72785027349547E+00
 p    1 1.00
 0.28887547253000E+00 0.10000000000000E+01
 p    1 1.00
 0.10056823671000E+00 0.10000000000000E+01
 d    1 1.00
 0.10970000000000E+01 0.10000000000000E+01
 d    1 1.00
 0.31800000000000E+00 0.10000000000000E+01
 d    1 1.00
 0.90985336424000E-01 0.10000000000000E+01
 f    1 1.00
 0.76100000000000E+00 0.10000000000000E+01
 
    5 0
 s    6 1.00
 0.13575349682000E+05 0.60645503603591E-03
 0.20352333680000E+04 0.46979088884982E-02
 0.46322562359000E+03 0.24332477647552E-01
 0.13120019598000E+03 0.97399968307759E-01
 0.42853015891000E+02 0.30195584253780E+00
 0.15584185766000E+02 0.66233609137875E+00
 s    2 1.00
 0.62067138508000E+01 0.65595308539952E+00
 0.25764896527000E+01 0.37585633285142E+00
 s    1 1.00
 0.57696339419000E+00 0.10000000000000E+01
 s    1 1.00
 0.22972831358000E+00 0.10000000000000E+01
 s    1 1.00
 0.95164440028000E-01 0.10000000000000E+01
 s    1 1.00
 0.48475401370000E-01 0.10000000000000E+01
 p    4 1.00
 0.34697232244000E+02 0.11327220003114E-01
 0.79582622826000E+01 0.76169659202087E-01
 0.23780826883000E+01 0.30192252202676E+00
 0.81433208183000E+00 0.72785027349547E+00
 p    1 1.00
 0.28887547253000E+00 0.10000000000000E+01
 p    1 1.00
 0.10056823671000E+00 0.10000000000000E+01
 d    1 1.00
 0.10970000000000E+01 0.10000000000000E+01
 d    1 1.00
 0.31800000000000E+00 0.10000000000000E+01
 d    1 1.00
 0.90985336424000E-01 0.10000000000000E+01
 f    1 1.00
 0.76100000000000E+00 0.10000000000000E+01
 
    6 0
 s    6 1.00
 0.13575349682000E+05 0.60645503603591E-03
 0.20352333680000E+04 0.46979088884982E-02
 0.46322562359000E+03 0.24332477647552E-01
 0.13120019598000E+03 0.97399968307759E-01
 0.42853015891000E+02 0.30195584253780E+00
 0.15584185766000E+02 0.66233609137875E+00
 s    2 1.00
 0.62067138508000E+01 0.65595308539952E+00
 0.25764896527000E+01 0.37585633285142E+00
 s    1 1.00
 0.57696339419000E+00 0.10000000000000E+01
 s    1 1.00
 0.22972831358000E+00 0.10000000000000E+01
 s    1 1.00
 0.95164440028000E-01 0.10000000000000E+01
 s    1 1.00
 0.48475401370000E-01 0.10000000000000E+01
 p    4 1.00
 0.34697232244000E+02 0.11327220003114E-01
 0.79582622826000E+01 0.76169659202087E-01
 0.23780826883000E+01 0.30192252202676E+00
 0.81433208183000E+00 0.72785027349547E+00
 p    1 1.00
 0.28887547253000E+00 0.10000000000000E+01
 p    1 1.00
 0.10056823671000E+00 0.10000000000000E+01
 d    1 1.00
 0.10970000000000E+01 0.10000000000000E+01
 d    1 1.00
 0.31800000000000E+00 0.10000000000000E+01
 d    1 1.00
 0.90985336424000E-01 0.10000000000000E+01
 f    1 1.00
 0.76100000000000E+00 0.10000000000000E+01
 
    7 0
 s    3 1.00
 0.34061341000000E+02 0.25439307208879E-01
 0.51235746000000E+01 0.19008594890375E+00
 0.11646626000000E+01 0.85244113011042E+00
 s    1 1.00
 0.32723041000000E+00 0.10000000000000E+01
 s    1 1.00
 0.10307241000000E+00 0.10000000000000E+01
 p    1 1.00
 0.80000000000000E+00 0.10000000000000E+01
 p    1 1.00
 0.95774129632000E-01 0.10000000000000E+01
 
    8 0
 s    3 1.00
 0.34061341000000E+02 0.25439307208879E-01
 0.51235746000000E+01 0.19008594890375E+00
 0.11646626000000E+01 0.85244113011042E+00
 s    1 1.00
 0.32723041000000E+00 0.10000000000000E+01
 s    1 1.00
 0.10307241000000E+00 0.10000000000000E+01
 p    1 1.00
 0.80000000000000E+00 0.10000000000000E+01
 p    1 1.00
 0.95774129632000E-01 0.10000000000000E+01
 
    9 0
 s    3 1.00
 0.34061341000000E+02 0.25439307208879E-01
 0.51235746000000E+01 0.19008594890375E+00
 0.11646626000000E+01 0.85244113011042E+00
 s    1 1.00
 0.32723041000000E+00 0.10000000000000E+01
 s    1 1.00
 0.10307241000000E+00 0.10000000000000E+01
 p    1 1.00
 0.80000000000000E+00 0.10000000000000E+01
 p    1 1.00
 0.95774129632000E-01 0.10000000000000E+01
 
   10 0
 s    3 1.00
 0.34061341000000E+02 0.25439307208879E-01
 0.51235746000000E+01 0.19008594890375E+00
 0.11646626000000E+01 0.85244113011042E+00
 s    1 1.00
 0.32723041000000E+00 0.10000000000000E+01
 s    1 1.00
 0.10307241000000E+00 0.10000000000000E+01
 p    1 1.00
 0.80000000000000E+00 0.10000000000000E+01
 p    1 1.00
 0.95774129632000E-01 0.10000000000000E+01
 
   11 0
 s    6 1.00
 0.19730800647000E+05 0.58626402628763E-03
 0.29578958745000E+04 0.45428820586397E-02
 0.67322133595000E+03 0.23558413450084E-01
 0.19068249494000E+03 0.94709193292923E-01
 0.62295441898000E+02 0.29719784913376E+00
 0.22654161182000E+02 0.66916246895232E+00
 s    2 1.00
 0.89791477428000E+01 0.64596683630063E+00
 0.36863002370000E+01 0.38700574393705E+00
 s    1 1.00
 0.84660076805000E+00 0.10000000000000E+01
 s    1 1.00
 0.33647133771000E+00 0.10000000000000E+01
 s    1 1.00
 0.13647653675000E+00 0.10000000000000E+01
 s    1 1.00
 0.68441605847000E-01 0.10000000000000E+01
 p    4 1.00
 0.49200380510000E+02 0.11448825101764E-01
 0.11346790537000E+02 0.78422337970864E-01
 0.34273972411000E+01 0.30818094738830E+00
 0.11785525134000E+01 0.72027196368413E+00
 p    1 1.00
 0.41642204972000E+00 0.10000000000000E+01
 p    1 1.00
 0.14260826011000E+00 0.10000000000000E+01
 d    1 1.00
 0.16540000000000E+01 0.10000000000000E+01
 d    1 1.00
 0.46900000000000E+00 0.10000000000000E+01
 d    1 1.00
 0.12829642058000E+00 0.10000000000000E+01
 f    1 1.00
 0.10930000000000E+01 0.10000000000000E+01
 
   12 0
 s    6 1.00
 0.27032382631000E+05 0.57227335211155E-03
 0.40523871392000E+04 0.44353233492995E-02
 0.92232722710000E+03 0.23020107706038E-01
 0.26124070989000E+03 0.92822490667928E-01
 0.85354641351000E+02 0.29378500009671E+00
 0.31035035245000E+02 0.67401604501641E+00
 s    2 1.00
 0.12260860728000E+02 0.63839937025506E+00
 0.49987076005000E+01 0.39534587125718E+00
 s    1 1.00
 0.11703108158000E+01 0.10000000000000E+01
 s    1 1.00
 0.46474740994000E+00 0.10000000000000E+01
 s    1 1.00
 0.18504536357000E+00 0.10000000000000E+01
 s    1 1.00
 0.70288026270000E-01 0.10000000000000E+01
 p    4 1.00
 0.63274954801000E+02 0.12018332222616E-01
 0.14627049379000E+02 0.83005421790056E-01
 0.44501223456000E+01 0.31991743925964E+00
 0.15275799647000E+01 0.70715542916104E+00
 p    1 1.00
 0.52935117943000E+00 0.10000000000000E+01
 p    1 1.00
 0.17478421270000E+00 0.10000000000000E+01
 p    1 1.00
 0.51112745706000E-01 0.10000000000000E+01
 d    1 1.00
 0.23140000000000E+01 0.10000000000000E+01
 d    1 1.00
 0.64500000000000E+00 0.10000000000000E+01
 d    1 1.00
 0.14696477366000E+00 0.10000000000000E+01
 f    1 1.00
 0.14280000000000E+01 0.10000000000000E+01
 
   13 0
 s    6 1.00
 0.27032382631000E+05 0.57227335211155E-03
 0.40523871392000E+04 0.44353233492995E-02
 0.92232722710000E+03 0.23020107706038E-01
 0.26124070989000E+03 0.92822490667928E-01
 0.85354641351000E+02 0.29378500009671E+00
 0.31035035245000E+02 0.67401604501641E+00
 s    2 1.00
 0.12260860728000E+02 0.63839937025506E+00
 0.49987076005000E+01 0.39534587125718E+00
 s    1 1.00
 0.11703108158000E+01 0.10000000000000E+01
 s    1 1.00
 0.46474740994000E+00 0.10000000000000E+01
 s    1 1.00
 0.18504536357000E+00 0.10000000000000E+01
 s    1 1.00
 0.70288026270000E-01 0.10000000000000E+01
 p    4 1.00
 0.63274954801000E+02 0.12018332222616E-01
 0.14627049379000E+02 0.83005421790056E-01
 0.44501223456000E+01 0.31991743925964E+00
 0.15275799647000E+01 0.70715542916104E+00
 p    1 1.00
 0.52935117943000E+00 0.10000000000000E+01
 p    1 1.00
 0.17478421270000E+00 0.10000000000000E+01
 p    1 1.00
 0.51112745706000E-01 0.10000000000000E+01
 d    1 1.00
 0.23140000000000E+01 0.10000000000000E+01
 d    1 1.00
 0.64500000000000E+00 0.10000000000000E+01
 d    1 1.00
 0.14696477366000E+00 0.10000000000000E+01
 f    1 1.00
 0.14280000000000E+01 0.10000000000000E+01
 
   14 0
 s    6 1.00
 0.19730800647000E+05 0.58626402628763E-03
 0.29578958745000E+04 0.45428820586397E-02
 0.67322133595000E+03 0.23558413450084E-01
 0.19068249494000E+03 0.94709193292923E-01
 0.62295441898000E+02 0.29719784913376E+00
 0.22654161182000E+02 0.66916246895232E+00
 s    2 1.00
 0.89791477428000E+01 0.64596683630063E+00
 0.36863002370000E+01 0.38700574393705E+00
 s    1 1.00
 0.84660076805000E+00 0.10000000000000E+01
 s    1 1.00
 0.33647133771000E+00 0.10000000000000E+01
 s    1 1.00
 0.13647653675000E+00 0.10000000000000E+01
 s    1 1.00
 0.68441605847000E-01 0.10000000000000E+01
 p    4 1.00
 0.49200380510000E+02 0.11448825101764E-01
 0.11346790537000E+02 0.78422337970864E-01
 0.34273972411000E+01 0.30818094738830E+00
 0.11785525134000E+01 0.72027196368413E+00
 p    1 1.00
 0.41642204972000E+00 0.10000000000000E+01
 p    1 1.00
 0.14260826011000E+00 0.10000000000000E+01
 d    1 1.00
 0.16540000000000E+01 0.10000000000000E+01
 d    1 1.00
 0.46900000000000E+00 0.10000000000000E+01
 d    1 1.00
 0.12829642058000E+00 0.10000000000000E+01
 f    1 1.00
 0.10930000000000E+01 0.10000000000000E+01
 
   15 0
 s    3 1.00
 0.34061341000000E+02 0.25439307208879E-01
 0.51235746000000E+01 0.19008594890375E+00
 0.11646626000000E+01 0.85244113011042E+00
 s    1 1.00
 0.32723041000000E+00 0.10000000000000E+01
 s    1 1.00
 0.10307241000000E+00 0.10000000000000E+01
 p    1 1.00
 0.80000000000000E+00 0.10000000000000E+01
 p    1 1.00
 0.95774129632000E-01 0.10000000000000E+01
 
   16 0
 s    3 1.00
 0.34061341000000E+02 0.25439307208879E-01
 0.51235746000000E+01 0.19008594890375E+00
 0.11646626000000E+01 0.85244113011042E+00
 s    1 1.00
 0.32723041000000E+00 0.10000000000000E+01
 s    1 1.00
 0.10307241000000E+00 0.10000000000000E+01
 p    1 1.00
 0.80000000000000E+00 0.10000000000000E+01
 p    1 1.00
 0.95774129632000E-01 0.10000000000000E+01
 
[MO]
 Sym= X
 Ene= -0.809016
 Spin= Alpha
 Occup= -0.809016
         1    1.073492E-05
         2    2.448900E-05
         3   -5.505088E-05
         4    3.178962E-05
         5    2.348762E-03
         6    2.823690E-04
         7    5.478319E-05
         8    1.097748E-04
         9    7.175061E-02
        10    1.367949E-04
        11    7.810846E-05
        12    7.191709E-02
        13   -5.559254E-04
        14    1.507802E-03
        15    5.078303E-02
        16    2.652069E-06
        17   -1.210987E-06
        18   -1.441082E-06
        19   -2.900683E-06
        20    1.656495E-03
        21    2.490059E-04
        22    1.995335E-05
        23   -1.169548E-05
        24   -8.257873E-06
        25   -1.190375E-05
        26    2.001414E-03
        27    1.913197E-04
        28    4.031325E-05
        29   -3.174920E-05
        30   -8.564040E-06
        31   -6.614616E-05
        32   -2.182266E-03
        33    3.133558E-03
        34    1.631849E-06
        35    3.201701E-07
        36   -5.095899E-04
        37   -3.067951E-07
        38    1.000131E-07
        39    5.962552E-04
        40   -1.882560E-06
        41   -5.295663E-07
        42    8.743140E-05
        43   -5.613971E-05
        44   -5.704114E-07
        45   -1.278357E-06
        46    2.639882E-06
        47    1.265123E-05
        48   -8.406841E-04
        49   -8.908336E-05
        50    2.575102E-06
        51   -7.875721E-05
        52    1.364829E-06
        53    3.853707E-06
        54   -5.680104E-05
        55   -2.303447E-06
        56   -3.394704E-04
        57    2.007331E-03
        58   -3.755817E-05
        59   -1.120827E-07
        60    2.232287E-07
        61   -1.111460E-07
        62   -6.559520E-06
        63    9.157760E-08
        64   -3.382088E-03
        65   -7.363611E-07
        66   -1.073629E-06
        67    1.809990E-06
        68   -2.030169E-05
        69   -3.352440E-07
        70   -6.008274E-03
        71    9.055666E-06
        72   -2.200384E-05
        73    1.294817E-05
        74    2.324980E-05
        75   -6.088209E-06
        76    5.326290E-03
        77    8.027578E-08
        78    2.089394E-07
        79    3.722729E-08
        80   -3.681563E-08
        81   -4.566184E-07
        82   -3.820915E-08
        83   -7.088563E-08
        84    1.762967E-07
        85   -1.173650E-08
        86   -2.402137E-04
        87   -1.084771E-05
        88   -2.475303E-05
        89    5.413958E-05
        90   -3.416565E-05
        91   -8.268881E-04
        92   -1.859025E-04
        93   -6.017113E-05
        94    1.073786E-04
        95   -7.174555E-02
        96   -1.289958E-04
        97    7.100161E-05
        98   -7.191142E-02
        99    9.406843E-04
       100    8.062634E-04
       101   -5.071156E-02
       102   -3.073260E-06
       103    1.559881E-06
       104    1.513379E-06
       105   -2.707459E-06
       106   -1.656598E-03
       107    2.490672E-04
       108   -1.465811E-05
       109    8.461417E-06
       110    6.196693E-06
       111   -9.979927E-06
       112   -2.001270E-03
       113    1.897905E-04
       114   -4.500864E-05
       115    5.082036E-05
       116   -5.811720E-06
       117   -9.962313E-05
       118    2.195065E-03
       119    3.113582E-03
       120   -1.574576E-06
       121    2.884272E-07
       122    5.095616E-04
       123    3.315523E-07
       124    1.924424E-08
       125   -5.962680E-04
       126    1.780963E-06
       127   -4.062100E-07
       128   -8.738064E-05
       129   -5.608350E-05
       130    7.690276E-06
       131    1.779226E-05
       132   -5.025715E-05
       133    1.601913E-04
       134    6.169238E-04
       135    2.628757E-04
       136   -5.076918E-05
       137   -4.652920E-05
       138   -7.236095E-02
       139   -7.353619E-05
       140   -8.811028E-05
       141   -7.389965E-02
       142    1.129304E-03
       143   -8.765869E-04
       144   -4.765426E-02
       145    4.902117E-06
       146   -1.608799E-07
       147   -4.741237E-06
       148   -4.518547E-06
       149    1.721790E-03
       150    1.816503E-04
       151    3.228844E-05
       152   -4.718664E-06
       153   -2.756978E-05
       154   -2.719597E-05
       155    3.566079E-03
       156    1.955709E-04
       157    2.672074E-04
       158   -2.351676E-04
       159   -3.203978E-05
       160   -1.257330E-04
       161    6.204794E-05
       162   -1.299394E-03
       163   -1.574942E-06
       164   -4.021343E-07
       165    4.818064E-04
       166    1.032170E-06
       167   -2.280053E-07
       168   -5.532951E-04
       169    1.080836E-06
       170    7.675250E-07
       171   -9.311601E-05
       172    7.809540E-06
       173    3.098866E-07
       174    7.441238E-07
       175   -3.472253E-06
       176    1.322098E-06
       177    1.151200E-03
       178    9.042052E-05
       179   -1.781049E-06
       180    6.453241E-05
       181    8.653867E-07
       182   -5.087514E-06
       183    3.519466E-05
       184    3.476070E-06
       185   -4.290994E-04
       186   -2.646753E-03
       187    1.446210E-05
       188   -2.476491E-07
       189    1.363659E-07
       190    1.112833E-07
       191    8.261111E-06
       192    2.463085E-07
       193   -2.680853E-03
       194    3.726695E-07
       195    2.055612E-06
       196   -2.428282E-06
       197    4.442827E-05
       198   -4.398335E-07
       199   -5.848615E-03
       200   -5.119454E-07
       201    2.412335E-05
       202   -2.361140E-05
       203    5.614437E-05
       204   -1.673132E-06
       205    6.399232E-04
       206    2.776328E-08
       207   -2.000638E-06
       208   -5.493370E-08
       209   -6.690339E-08
       210    2.011433E-06
       211    6.795163E-08
       212    2.965504E-08
       213    6.727040E-07
       214    5.749659E-09
       215    4.336364E-04
       216   -7.546092E-06
       217   -1.742380E-05
       218    5.177428E-05
       219   -1.635567E-04
       220   -2.485532E-03
       221   -3.618574E-04
       222    5.647607E-05
       223   -4.848944E-05
       224    7.235986E-02
       225    9.026109E-05
       226   -1.000765E-04
       227    7.389739E-02
       228   -8.450071E-04
       229   -1.680011E-03
       230    4.758794E-02
       231   -5.048875E-06
       232    4.390842E-07
       233    4.609790E-06
       234   -4.690155E-06
       235   -1.722025E-03
       236    1.817696E-04
       237   -3.611357E-05
       238    5.781602E-06
       239    3.033197E-05
       240   -2.979152E-05
       241   -3.566281E-03
       242    1.941392E-04
       243   -2.430723E-04
       244    1.880316E-04
       245    5.504070E-05
       246   -9.490940E-05
       247   -5.488869E-05
       248   -1.310665E-03
       249    1.671663E-06
       250   -4.675904E-07
       251   -4.818307E-04
       252   -1.089912E-06
       253   -2.656448E-07
       254    5.533553E-04
       255   -1.152859E-06
       256    8.929832E-07
       257    9.308847E-05
       258    7.754711E-06
       259   -3.687511E-05
       260   -5.418185E-05
       261    6.414094E-04
       262   -6.212599E-08
       263   -2.399017E-06
       264    3.241964E-03
       265    1.898124E-04
       266    2.636926E-05
       267    3.078862E-03
       268    3.712724E-05
       269    6.615641E-05
       270   -3.747334E-04
       271    3.684487E-07
       272   -3.343059E-06
       273   -3.241623E-03
       274   -1.636867E-04
       275   -2.564994E-05
       276   -3.061326E-03
       277   -1.866194E-05
       278   -3.820427E-05
       279    6.531511E-04
       280   -2.136266E-06
       281   -4.991383E-07
       282   -3.077297E-03
       283   -4.149726E-04
       284    8.543700E-05
       285   -1.250974E-03
       286    2.138230E-05
       287    3.700812E-05
       288   -8.725886E-04
       289    2.413026E-06
       290   -8.859357E-07
       291    3.077217E-03
       292    4.294254E-04
       293    1.822703E-05
       294    1.247060E-03
       295   -5.744472E-07
       296   -1.372716E-06
       297    2.638040E-06
       298   -2.048369E-06
       299   -7.052253E-05
       300    6.933510E-05
       301   -3.518145E-06
       302    1.573272E-05
       303   -1.249425E-06
       304   -1.861761E-06
       305    1.340089E-05
       306   -1.544405E-06
       307    1.009614E-05
       308   -2.749643E-04
       309    3.755286E-07
       310   -1.416360E-07
       311    1.727908E-07
       312   -3.115484E-08
       313   -2.547769E-05
       314    2.286400E-08
       315   -1.101232E-02
       316    7.632952E-07
       317   -2.860071E-07
       318   -4.772881E-07
       319   -7.753288E-05
       320    1.572748E-07
       321   -3.217945E-02
       322   -5.856049E-06
       323    1.041263E-05
       324   -4.556582E-06
       325   -3.195069E-05
       326    2.447068E-06
       327   -8.280567E-04
       328    1.883783E-08
       329    1.960911E-07
       330    2.419799E-09
       331   -2.566469E-08
       332    6.843711E-06
       333    2.243571E-09
       334    3.910857E-10
       335   -7.106794E-06
       336   -5.490071E-09
       337    1.871140E-03
       338    7.274051E-07
       339    1.690122E-06
       340   -1.265479E-06
       341   -1.554439E-05
       342    8.018698E-05
       343   -3.016886E-05
       344   -6.497050E-04
       345   -2.283235E-05
       346   -2.995969E-01
       347   -5.963216E-04
       348   -1.846380E-05
       349   -2.747608E-01
       350   -4.050206E-04
       351   -4.343260E-05
       352   -2.034561E-01
       353   -6.584577E-05
       354    4.583733E-07
       355   -2.879002E-02
       356   -6.350103E-06
       357    4.479885E-07
       358    5.902114E-06
       359    5.067166E-06
       360   -1.619066E-03
       361    2.455745E-03
       362   -1.931975E-05
       363    8.237293E-07
       364    1.849602E-05
       365    1.661768E-05
       366   -5.192253E-03
       367    8.261790E-03
       368   -1.300141E-05
       369   -1.196193E-06
       370    1.419760E-05
       371    6.613102E-06
       372   -4.614219E-03
       373    6.621486E-03
       374    2.000140E-07
       375   -4.166096E-08
       376    4.580134E-04
       377   -1.337579E-06
       378    3.059160E-06
       379    5.949931E-05
       380    1.069232E-06
       381   -3.003266E-06
       382   -6.739887E-04
       383    8.138196E-04
       384    3.385957E-07
       385    9.052571E-07
       386   -2.391707E-06
       387    8.688223E-06
       388   -9.477124E-05
       389    7.288712E-06
       390    6.541142E-04
       391   -2.157735E-05
       392    2.995944E-01
       393    6.003005E-04
       394   -1.774069E-05
       395    2.747583E-01
       396    4.043847E-04
       397   -2.901205E-05
       398    2.034570E-01
       399    6.520660E-05
       400   -1.576390E-06
       401    2.879095E-02
       402    6.262964E-06
       403   -3.956242E-07
       404   -5.867340E-06
       405    5.148378E-06
       406    1.619058E-03
       407    2.455701E-03
       408    1.895486E-05
       409   -1.336443E-07
       410   -1.882121E-05
       411    1.749735E-05
       412    5.192303E-03
       413    8.261733E-03
       414    1.046430E-05
       415    5.092707E-06
       416   -1.555700E-05
       417    9.550788E-06
       418    4.614317E-03
       419    6.622133E-03
       420   -2.824940E-07
       421   -2.248239E-08
       422   -4.580067E-04
       423    1.359537E-06
       424    3.076783E-06
       425   -5.949643E-05
       426   -9.805313E-07
       427   -3.046619E-06
       428    6.739768E-04
       429    8.138139E-04
       430   -1.986512E-07
       431   -4.841581E-07
       432    8.259947E-07
       433    1.427276E-06
       434    3.017557E-05
       435   -3.544497E-05
       436    3.869839E-06
       437    3.357275E-04
       438    7.251280E-06
       439    3.090281E-06
       440    4.664549E-04
       441    7.001460E-06
       442    1.318481E-05
       443    6.612726E-04
       444    5.919382E-06
       445   -8.477292E-08
       446    9.424261E-08
       447   -9.469688E-09
       448   -7.094381E-06
       449   -2.263945E-09
       450   -1.089261E-04
       451   -2.823878E-07
       452    7.517221E-08
       453    2.072156E-07
       454    4.293329E-05
       455   -8.989839E-08
       456   -1.862689E-04
       457   -5.706901E-06
       458    6.782988E-07
       459    5.028602E-06
       460    2.441851E-04
       461   -4.624190E-07
       462    4.120122E-04
       463    1.115881E-08
       464    1.873413E-06
       465   -3.740113E-08
       466    5.193774E-09
       467    5.182701E-06
       468    3.296048E-08
       469   -2.016489E-08
       470   -7.696148E-06
       471    1.721840E-08
       472    4.646938E-05
       473   -4.313341E-06
       474   -2.918886E-04
       475   -9.686776E-04
       476    2.770196E-05
       477    4.488982E-05
       478   -1.405537E-04
       479   -6.573380E-05
       480    3.145937E-04
       481   -5.754579E-04
       482    7.578306E-06
       483    2.976566E-04
       484    9.803582E-04
       485   -2.811058E-05
       486    4.563341E-05
       487    1.410886E-04
       488    7.132928E-05
       489    3.209770E-04
       490    5.744716E-04
 Sym= X
 Ene= 0.809016
 Spin= Alpha
 Occup= 0.809016
         1   -2.445282E-05
         2   -5.771701E-05
         3    1.529202E-04
         4    9.176972E-05
         5   -4.125965E-02
         6    2.595357E-03
         7    2.439656E-04
         8    6.297832E-05
         9    1.074850E-01
        10    5.189868E-04
        11   -1.306459E-05
        12    1.073305E-01
        13   -2.306913E-02
        14    2.072741E-02
        15    5.011658E-02
        16    1.080137E-05
        17   -3.302564E-06
        18   -7.498801E-06
        19    1.964187E-06
        20    5.638475E-05
        21    2.593207E-05
        22   -8.883042E-05
        23    2.142977E-05
        24    6.740066E-05
        25    1.542214E-05
        26   -4.625601E-03
        27   -1.260141E-03
        28   -9.154840E-03
        29    9.877324E-03
        30   -7.224839E-04
        31   -1.127383E-03
        32   -8.886790E-03
        33   -2.442084E-02
        34   -2.614177E-06
        35    1.150784E-06
        36   -1.661583E-04
        37    4.027406E-06
        38    3.481841E-07
        39   -1.467752E-04
        40   -5.201194E-07
        41   -1.892123E-06
        42    3.696999E-04
        43    1.170842E-04
        44   -8.989296E-06
        45   -1.555037E-05
        46   -1.358881E-04
        47    2.563850E-03
        48   -8.083955E-02
        49   -1.074550E-02
        50   -2.946343E-05
        51   -1.689460E-06
        52   -2.835035E-02
        53    2.709760E-04
        54    6.679200E-06
        55   -2.634756E-02
        56   -2.852476E-02
        57    9.809140E-04
        58    6.089120E-02
        59    3.570025E-05
        60    5.670932E-06
        61   -4.137119E-05
        62   -1.065057E-07