[Molden Format]
[Title]
ADC(2) - opt by CAM-B3LYP gaussian                                              
[Atoms] AU
 c     1    6 -.12588699998532E+01 -.22834089986974E+01 -.24579904026210E-01
 c     2    6 -.25576598737242E+01 0.00000000000000E+00 -.23328905326240E-01
 c     3    6 -.12588681101271E+01 0.22834089986974E+01 -.24585573204610E-01
 c     4    6 0.13319747639512E+01 0.22851362083829E+01 -.26548998656670E-01
 c     5    6 0.26868460402678E+01 0.00000000000000E+00 -.25991529447470E-01
 c     6    6 0.13319728742250E+01 -.22851362083829E+01 -.26541439752140E-01
 h     7    1 -.22976467859220E+01 -.40383900994038E+01 -.22042001829740E-01
 h     8    1 -.22976448961959E+01 0.40383919891299E+01 -.22053340186540E-01
 h     9    1 0.23511286338561E+01 0.40572968093633E+01 -.28790213850280E-01
 h    10    1 0.23511267441300E+01 -.40572968093633E+01 -.28775096041210E-01
 n    11    7 -.52730224718766E+01 0.00000000000000E+00 -.17674844736640E-01
 o    12    8 -.63812882673039E+01 0.20269372576683E+01 -.15259774738810E-01
 o    13    8 -.63812844878516E+01 -.20269372576683E+01 -.15276782274010E-01
 n    14    7 0.52436643953234E+01 0.00000000000000E+00 -.69084844181800E-01
 h    15    1 0.62047866654136E+01 0.16174392738504E+01 0.18526851385235E+00
 h    16    1 0.62047847756874E+01 -.16174411635765E+01 0.18526473440008E+00
[GTO]
    1 0
 s    6 1.00
 0.13575349682000E+05 0.60645503603591E-03
 0.20352333680000E+04 0.46979088884982E-02
 0.46322562359000E+03 0.24332477647552E-01
 0.13120019598000E+03 0.97399968307759E-01
 0.42853015891000E+02 0.30195584253780E+00
 0.15584185766000E+02 0.66233609137875E+00
 s    2 1.00
 0.62067138508000E+01 0.65595308539952E+00
 0.25764896527000E+01 0.37585633285142E+00
 s    1 1.00
 0.57696339419000E+00 0.10000000000000E+01
 s    1 1.00
 0.22972831358000E+00 0.10000000000000E+01
 s    1 1.00
 0.95164440028000E-01 0.10000000000000E+01
 s    1 1.00
 0.48475401370000E-01 0.10000000000000E+01
 p    4 1.00
 0.34697232244000E+02 0.11327220003114E-01
 0.79582622826000E+01 0.76169659202087E-01
 0.23780826883000E+01 0.30192252202676E+00
 0.81433208183000E+00 0.72785027349547E+00
 p    1 1.00
 0.28887547253000E+00 0.10000000000000E+01
 p    1 1.00
 0.10056823671000E+00 0.10000000000000E+01
 d    1 1.00
 0.10970000000000E+01 0.10000000000000E+01
 d    1 1.00
 0.31800000000000E+00 0.10000000000000E+01
 d    1 1.00
 0.90985336424000E-01 0.10000000000000E+01
 f    1 1.00
 0.76100000000000E+00 0.10000000000000E+01
 
    2 0
 s    6 1.00
 0.13575349682000E+05 0.60645503603591E-03
 0.20352333680000E+04 0.46979088884982E-02
 0.46322562359000E+03 0.24332477647552E-01
 0.13120019598000E+03 0.97399968307759E-01
 0.42853015891000E+02 0.30195584253780E+00
 0.15584185766000E+02 0.66233609137875E+00
 s    2 1.00
 0.62067138508000E+01 0.65595308539952E+00
 0.25764896527000E+01 0.37585633285142E+00
 s    1 1.00
 0.57696339419000E+00 0.10000000000000E+01
 s    1 1.00
 0.22972831358000E+00 0.10000000000000E+01
 s    1 1.00
 0.95164440028000E-01 0.10000000000000E+01
 s    1 1.00
 0.48475401370000E-01 0.10000000000000E+01
 p    4 1.00
 0.34697232244000E+02 0.11327220003114E-01
 0.79582622826000E+01 0.76169659202087E-01
 0.23780826883000E+01 0.30192252202676E+00
 0.81433208183000E+00 0.72785027349547E+00
 p    1 1.00
 0.28887547253000E+00 0.10000000000000E+01
 p    1 1.00
 0.10056823671000E+00 0.10000000000000E+01
 d    1 1.00
 0.10970000000000E+01 0.10000000000000E+01
 d    1 1.00
 0.31800000000000E+00 0.10000000000000E+01
 d    1 1.00
 0.90985336424000E-01 0.10000000000000E+01
 f    1 1.00
 0.76100000000000E+00 0.10000000000000E+01
 
    3 0
 s    6 1.00
 0.13575349682000E+05 0.60645503603591E-03
 0.20352333680000E+04 0.46979088884982E-02
 0.46322562359000E+03 0.24332477647552E-01
 0.13120019598000E+03 0.97399968307759E-01
 0.42853015891000E+02 0.30195584253780E+00
 0.15584185766000E+02 0.66233609137875E+00
 s    2 1.00
 0.62067138508000E+01 0.65595308539952E+00
 0.25764896527000E+01 0.37585633285142E+00
 s    1 1.00
 0.57696339419000E+00 0.10000000000000E+01
 s    1 1.00
 0.22972831358000E+00 0.10000000000000E+01
 s    1 1.00
 0.95164440028000E-01 0.10000000000000E+01
 s    1 1.00
 0.48475401370000E-01 0.10000000000000E+01
 p    4 1.00
 0.34697232244000E+02 0.11327220003114E-01
 0.79582622826000E+01 0.76169659202087E-01
 0.23780826883000E+01 0.30192252202676E+00
 0.81433208183000E+00 0.72785027349547E+00
 p    1 1.00
 0.28887547253000E+00 0.10000000000000E+01
 p    1 1.00
 0.10056823671000E+00 0.10000000000000E+01
 d    1 1.00
 0.10970000000000E+01 0.10000000000000E+01
 d    1 1.00
 0.31800000000000E+00 0.10000000000000E+01
 d    1 1.00
 0.90985336424000E-01 0.10000000000000E+01
 f    1 1.00
 0.76100000000000E+00 0.10000000000000E+01
 
    4 0
 s    6 1.00
 0.13575349682000E+05 0.60645503603591E-03
 0.20352333680000E+04 0.46979088884982E-02
 0.46322562359000E+03 0.24332477647552E-01
 0.13120019598000E+03 0.97399968307759E-01
 0.42853015891000E+02 0.30195584253780E+00
 0.15584185766000E+02 0.66233609137875E+00
 s    2 1.00
 0.62067138508000E+01 0.65595308539952E+00
 0.25764896527000E+01 0.37585633285142E+00
 s    1 1.00
 0.57696339419000E+00 0.10000000000000E+01
 s    1 1.00
 0.22972831358000E+00 0.10000000000000E+01
 s    1 1.00
 0.95164440028000E-01 0.10000000000000E+01
 s    1 1.00
 0.48475401370000E-01 0.10000000000000E+01
 p    4 1.00
 0.34697232244000E+02 0.11327220003114E-01
 0.79582622826000E+01 0.76169659202087E-01
 0.23780826883000E+01 0.30192252202676E+00
 0.81433208183000E+00 0.72785027349547E+00
 p    1 1.00
 0.28887547253000E+00 0.10000000000000E+01
 p    1 1.00
 0.10056823671000E+00 0.10000000000000E+01
 d    1 1.00
 0.10970000000000E+01 0.10000000000000E+01
 d    1 1.00
 0.31800000000000E+00 0.10000000000000E+01
 d    1 1.00
 0.90985336424000E-01 0.10000000000000E+01
 f    1 1.00
 0.76100000000000E+00 0.10000000000000E+01
 
    5 0
 s    6 1.00
 0.13575349682000E+05 0.60645503603591E-03
 0.20352333680000E+04 0.46979088884982E-02
 0.46322562359000E+03 0.24332477647552E-01
 0.13120019598000E+03 0.97399968307759E-01
 0.42853015891000E+02 0.30195584253780E+00
 0.15584185766000E+02 0.66233609137875E+00
 s    2 1.00
 0.62067138508000E+01 0.65595308539952E+00
 0.25764896527000E+01 0.37585633285142E+00
 s    1 1.00
 0.57696339419000E+00 0.10000000000000E+01
 s    1 1.00
 0.22972831358000E+00 0.10000000000000E+01
 s    1 1.00
 0.95164440028000E-01 0.10000000000000E+01
 s    1 1.00
 0.48475401370000E-01 0.10000000000000E+01
 p    4 1.00
 0.34697232244000E+02 0.11327220003114E-01
 0.79582622826000E+01 0.76169659202087E-01
 0.23780826883000E+01 0.30192252202676E+00
 0.81433208183000E+00 0.72785027349547E+00
 p    1 1.00
 0.28887547253000E+00 0.10000000000000E+01
 p    1 1.00
 0.10056823671000E+00 0.10000000000000E+01
 d    1 1.00
 0.10970000000000E+01 0.10000000000000E+01
 d    1 1.00
 0.31800000000000E+00 0.10000000000000E+01
 d    1 1.00
 0.90985336424000E-01 0.10000000000000E+01
 f    1 1.00
 0.76100000000000E+00 0.10000000000000E+01
 
    6 0
 s    6 1.00
 0.13575349682000E+05 0.60645503603591E-03
 0.20352333680000E+04 0.46979088884982E-02
 0.46322562359000E+03 0.24332477647552E-01
 0.13120019598000E+03 0.97399968307759E-01
 0.42853015891000E+02 0.30195584253780E+00
 0.15584185766000E+02 0.66233609137875E+00
 s    2 1.00
 0.62067138508000E+01 0.65595308539952E+00
 0.25764896527000E+01 0.37585633285142E+00
 s    1 1.00
 0.57696339419000E+00 0.10000000000000E+01
 s    1 1.00
 0.22972831358000E+00 0.10000000000000E+01
 s    1 1.00
 0.95164440028000E-01 0.10000000000000E+01
 s    1 1.00
 0.48475401370000E-01 0.10000000000000E+01
 p    4 1.00
 0.34697232244000E+02 0.11327220003114E-01
 0.79582622826000E+01 0.76169659202087E-01
 0.23780826883000E+01 0.30192252202676E+00
 0.81433208183000E+00 0.72785027349547E+00
 p    1 1.00
 0.28887547253000E+00 0.10000000000000E+01
 p    1 1.00
 0.10056823671000E+00 0.10000000000000E+01
 d    1 1.00
 0.10970000000000E+01 0.10000000000000E+01
 d    1 1.00
 0.31800000000000E+00 0.10000000000000E+01
 d    1 1.00
 0.90985336424000E-01 0.10000000000000E+01
 f    1 1.00
 0.76100000000000E+00 0.10000000000000E+01
 
    7 0
 s    3 1.00
 0.34061341000000E+02 0.25439307208879E-01
 0.51235746000000E+01 0.19008594890375E+00
 0.11646626000000E+01 0.85244113011042E+00
 s    1 1.00
 0.32723041000000E+00 0.10000000000000E+01
 s    1 1.00
 0.10307241000000E+00 0.10000000000000E+01
 p    1 1.00
 0.80000000000000E+00 0.10000000000000E+01
 p    1 1.00
 0.95774129632000E-01 0.10000000000000E+01
 
    8 0
 s    3 1.00
 0.34061341000000E+02 0.25439307208879E-01
 0.51235746000000E+01 0.19008594890375E+00
 0.11646626000000E+01 0.85244113011042E+00
 s    1 1.00
 0.32723041000000E+00 0.10000000000000E+01
 s    1 1.00
 0.10307241000000E+00 0.10000000000000E+01
 p    1 1.00
 0.80000000000000E+00 0.10000000000000E+01
 p    1 1.00
 0.95774129632000E-01 0.10000000000000E+01
 
    9 0
 s    3 1.00
 0.34061341000000E+02 0.25439307208879E-01
 0.51235746000000E+01 0.19008594890375E+00
 0.11646626000000E+01 0.85244113011042E+00
 s    1 1.00
 0.32723041000000E+00 0.10000000000000E+01
 s    1 1.00
 0.10307241000000E+00 0.10000000000000E+01
 p    1 1.00
 0.80000000000000E+00 0.10000000000000E+01
 p    1 1.00
 0.95774129632000E-01 0.10000000000000E+01
 
   10 0
 s    3 1.00
 0.34061341000000E+02 0.25439307208879E-01
 0.51235746000000E+01 0.19008594890375E+00
 0.11646626000000E+01 0.85244113011042E+00
 s    1 1.00
 0.32723041000000E+00 0.10000000000000E+01
 s    1 1.00
 0.10307241000000E+00 0.10000000000000E+01
 p    1 1.00
 0.80000000000000E+00 0.10000000000000E+01
 p    1 1.00
 0.95774129632000E-01 0.10000000000000E+01
 
   11 0
 s    6 1.00
 0.19730800647000E+05 0.58626402628763E-03
 0.29578958745000E+04 0.45428820586397E-02
 0.67322133595000E+03 0.23558413450084E-01
 0.19068249494000E+03 0.94709193292923E-01
 0.62295441898000E+02 0.29719784913376E+00
 0.22654161182000E+02 0.66916246895232E+00
 s    2 1.00
 0.89791477428000E+01 0.64596683630063E+00
 0.36863002370000E+01 0.38700574393705E+00
 s    1 1.00
 0.84660076805000E+00 0.10000000000000E+01
 s    1 1.00
 0.33647133771000E+00 0.10000000000000E+01
 s    1 1.00
 0.13647653675000E+00 0.10000000000000E+01
 s    1 1.00
 0.68441605847000E-01 0.10000000000000E+01
 p    4 1.00
 0.49200380510000E+02 0.11448825101764E-01
 0.11346790537000E+02 0.78422337970864E-01
 0.34273972411000E+01 0.30818094738830E+00
 0.11785525134000E+01 0.72027196368413E+00
 p    1 1.00
 0.41642204972000E+00 0.10000000000000E+01
 p    1 1.00
 0.14260826011000E+00 0.10000000000000E+01
 d    1 1.00
 0.16540000000000E+01 0.10000000000000E+01
 d    1 1.00
 0.46900000000000E+00 0.10000000000000E+01
 d    1 1.00
 0.12829642058000E+00 0.10000000000000E+01
 f    1 1.00
 0.10930000000000E+01 0.10000000000000E+01
 
   12 0
 s    6 1.00
 0.27032382631000E+05 0.57227335211155E-03
 0.40523871392000E+04 0.44353233492995E-02
 0.92232722710000E+03 0.23020107706038E-01
 0.26124070989000E+03 0.92822490667928E-01
 0.85354641351000E+02 0.29378500009671E+00
 0.31035035245000E+02 0.67401604501641E+00
 s    2 1.00
 0.12260860728000E+02 0.63839937025506E+00
 0.49987076005000E+01 0.39534587125718E+00
 s    1 1.00
 0.11703108158000E+01 0.10000000000000E+01
 s    1 1.00
 0.46474740994000E+00 0.10000000000000E+01
 s    1 1.00
 0.18504536357000E+00 0.10000000000000E+01
 s    1 1.00
 0.70288026270000E-01 0.10000000000000E+01
 p    4 1.00
 0.63274954801000E+02 0.12018332222616E-01
 0.14627049379000E+02 0.83005421790056E-01
 0.44501223456000E+01 0.31991743925964E+00
 0.15275799647000E+01 0.70715542916104E+00
 p    1 1.00
 0.52935117943000E+00 0.10000000000000E+01
 p    1 1.00
 0.17478421270000E+00 0.10000000000000E+01
 p    1 1.00
 0.51112745706000E-01 0.10000000000000E+01
 d    1 1.00
 0.23140000000000E+01 0.10000000000000E+01
 d    1 1.00
 0.64500000000000E+00 0.10000000000000E+01
 d    1 1.00
 0.14696477366000E+00 0.10000000000000E+01
 f    1 1.00
 0.14280000000000E+01 0.10000000000000E+01
 
   13 0
 s    6 1.00
 0.27032382631000E+05 0.57227335211155E-03
 0.40523871392000E+04 0.44353233492995E-02
 0.92232722710000E+03 0.23020107706038E-01
 0.26124070989000E+03 0.92822490667928E-01
 0.85354641351000E+02 0.29378500009671E+00
 0.31035035245000E+02 0.67401604501641E+00
 s    2 1.00
 0.12260860728000E+02 0.63839937025506E+00
 0.49987076005000E+01 0.39534587125718E+00
 s    1 1.00
 0.11703108158000E+01 0.10000000000000E+01
 s    1 1.00
 0.46474740994000E+00 0.10000000000000E+01
 s    1 1.00
 0.18504536357000E+00 0.10000000000000E+01
 s    1 1.00
 0.70288026270000E-01 0.10000000000000E+01
 p    4 1.00
 0.63274954801000E+02 0.12018332222616E-01
 0.14627049379000E+02 0.83005421790056E-01
 0.44501223456000E+01 0.31991743925964E+00
 0.15275799647000E+01 0.70715542916104E+00
 p    1 1.00
 0.52935117943000E+00 0.10000000000000E+01
 p    1 1.00
 0.17478421270000E+00 0.10000000000000E+01
 p    1 1.00
 0.51112745706000E-01 0.10000000000000E+01
 d    1 1.00
 0.23140000000000E+01 0.10000000000000E+01
 d    1 1.00
 0.64500000000000E+00 0.10000000000000E+01
 d    1 1.00
 0.14696477366000E+00 0.10000000000000E+01
 f    1 1.00
 0.14280000000000E+01 0.10000000000000E+01
 
   14 0
 s    6 1.00
 0.19730800647000E+05 0.58626402628763E-03
 0.29578958745000E+04 0.45428820586397E-02
 0.67322133595000E+03 0.23558413450084E-01
 0.19068249494000E+03 0.94709193292923E-01
 0.62295441898000E+02 0.29719784913376E+00
 0.22654161182000E+02 0.66916246895232E+00
 s    2 1.00
 0.89791477428000E+01 0.64596683630063E+00
 0.36863002370000E+01 0.38700574393705E+00
 s    1 1.00
 0.84660076805000E+00 0.10000000000000E+01
 s    1 1.00
 0.33647133771000E+00 0.10000000000000E+01
 s    1 1.00
 0.13647653675000E+00 0.10000000000000E+01
 s    1 1.00
 0.68441605847000E-01 0.10000000000000E+01
 p    4 1.00
 0.49200380510000E+02 0.11448825101764E-01
 0.11346790537000E+02 0.78422337970864E-01
 0.34273972411000E+01 0.30818094738830E+00
 0.11785525134000E+01 0.72027196368413E+00
 p    1 1.00
 0.41642204972000E+00 0.10000000000000E+01
 p    1 1.00
 0.14260826011000E+00 0.10000000000000E+01
 d    1 1.00
 0.16540000000000E+01 0.10000000000000E+01
 d    1 1.00
 0.46900000000000E+00 0.10000000000000E+01
 d    1 1.00
 0.12829642058000E+00 0.10000000000000E+01
 f    1 1.00
 0.10930000000000E+01 0.10000000000000E+01
 
   15 0
 s    3 1.00
 0.34061341000000E+02 0.25439307208879E-01
 0.51235746000000E+01 0.19008594890375E+00
 0.11646626000000E+01 0.85244113011042E+00
 s    1 1.00
 0.32723041000000E+00 0.10000000000000E+01
 s    1 1.00
 0.10307241000000E+00 0.10000000000000E+01
 p    1 1.00
 0.80000000000000E+00 0.10000000000000E+01
 p    1 1.00
 0.95774129632000E-01 0.10000000000000E+01
 
   16 0
 s    3 1.00
 0.34061341000000E+02 0.25439307208879E-01
 0.51235746000000E+01 0.19008594890375E+00
 0.11646626000000E+01 0.85244113011042E+00
 s    1 1.00
 0.32723041000000E+00 0.10000000000000E+01
 s    1 1.00
 0.10307241000000E+00 0.10000000000000E+01
 p    1 1.00
 0.80000000000000E+00 0.10000000000000E+01
 p    1 1.00
 0.95774129632000E-01 0.10000000000000E+01
 
[MO]
 Sym= X
 Ene= -0.225675
 Spin= Alpha
 Occup= -0.225675
         1   -2.095481E-04
         2   -4.848773E-04
         3    1.272059E-03
         4   -2.371534E-03
         5   -9.519412E-03
         6   -1.139088E-02
         7    2.039844E-03
         8    2.630980E-04
         9    1.234825E-02
        10   -2.140340E-03
        11    4.866338E-04
        12    1.063200E-02
        13   -3.537640E-02
        14    9.253341E-03
        15   -1.873410E-03
        16    1.597910E-05
        17   -2.480293E-05
        18    8.823835E-06
        19   -1.943073E-05
        20   -6.121232E-03
        21    3.399494E-03
        22   -6.410039E-04
        23    3.898716E-04
        24    2.511323E-04
        25   -7.445514E-04
        26   -1.377444E-02
        27    6.493513E-03
        28   -4.967779E-03
        29    4.622096E-03
        30    3.456833E-04
        31    1.280049E-03
        32    2.185444E-03
        33   -1.133403E-02
        34   -1.781932E-05
        35    8.034248E-06
        36   -1.037661E-05
        37    6.696277E-06
        38   -8.215724E-06
        39   -7.352829E-04
        40    1.721085E-05
        41   -2.563350E-06
        42    7.492046E-04
        43   -6.369264E-04
        44    3.749853E-05
        45    8.232654E-05
        46    1.255595E-04
        47   -3.036212E-03
        48   -4.871059E-02
        49    6.027807E-03
        50    3.324166E-04
        51    2.601741E-06
        52    1.816400E-01
        53   -5.300765E-04
        54    2.189911E-05
        55    1.889792E-01
        56   -1.655929E-02
        57   -1.603492E-03
        58    1.955611E-01
        59    4.905143E-05
        60   -4.709241E-05
        61   -1.959021E-06
        62    2.114722E-07
        63   -9.761627E-04
        64    7.358813E-07
        65    4.090056E-04
        66   -6.673710E-04
        67    2.583654E-04
        68    4.635536E-06
        69   -3.791288E-03
        70    1.371039E-06
        71    9.592708E-03
        72   -1.066147E-02
        73    1.068763E-03
        74   -2.667405E-04
        75    4.286673E-03
        76   -2.812747E-05
        77    7.490703E-06
        78    2.184269E-08
        79   -9.746540E-04
        80   -7.721262E-06
        81    6.501227E-08
        82    5.999352E-04
        83   -2.328570E-06
        84   -9.431732E-08
        85    7.077004E-04
        86    1.427872E-07
        87   -2.088120E-04
        88   -4.833941E-04
        89    1.279275E-03
        90   -2.463776E-03
        91   -6.831431E-03
        92   -1.132003E-02
        93    2.042845E-03
        94   -2.709265E-04
        95    1.239081E-02
        96   -2.130158E-03
        97   -4.782298E-04
        98    1.067181E-02
        99   -3.644324E-02
       100   -1.093762E-02
       101   -1.759397E-03
       102    1.573413E-05
       103   -2.485310E-05
       104    9.118968E-06
       105    1.996328E-05
       106   -6.120762E-03
       107   -3.399669E-03
       108   -6.382700E-04
       109    3.851522E-04
       110    2.531178E-04
       111    7.413891E-04
       112   -1.377061E-02
       113   -6.492984E-03
       114   -5.266446E-03
       115    4.952252E-03
       116    3.141942E-04
       117   -1.050234E-03
       118    2.174074E-03
       119    1.128636E-02
       120   -1.805177E-05
       121   -8.018149E-06
       122   -1.054384E-05
       123    7.048296E-06
       124    8.200931E-06
       125   -7.351112E-04
       126    1.717069E-05
       127    2.556545E-06
       128    7.492572E-04
       129    6.368427E-04
       130    1.268582E-04
       131    2.741928E-04
       132    5.951575E-04
       133   -1.081105E-02
       134    2.755601E-02
       135    1.268031E-02
       136   -1.701629E-03
       137    8.418865E-04
       138   -1.530417E-01
       139   -9.543627E-03
       140    6.444207E-03
       141   -1.559769E-01
       142   -2.514229E-02
       143   -7.315327E-03
       144   -9.212143E-02
       145    1.695314E-04
       146   -2.019795E-04
       147    3.244810E-05
       148   -1.730299E-06
       149   -4.129332E-04
       150    2.769460E-03
       151    6.238771E-04
       152   -7.792319E-04
       153    1.553547E-04
       154    1.746641E-03
       155   -3.287227E-03
       156    4.611452E-03
       157    8.482660E-03
       158   -6.729141E-03
       159   -1.753519E-03
       160   -8.640365E-03
       161    3.841310E-03
       162   -1.379928E-02
       163   -1.517804E-05
       164    1.176056E-05
       165    8.562538E-04
       166   -2.096218E-05
       167    1.536756E-05
       168   -2.483945E-04
       169    4.132565E-05
       170   -3.114600E-05
       171   -9.003904E-04
       172    2.866989E-04
       173   -1.180024E-03
       174   -2.684972E-03
       175    2.819681E-03
       176    2.182435E-02
       177   -1.745283E-02
       178    9.110350E-03
       179    1.002143E-02
       180   -8.146610E-07
       181   -9.727830E-02
       182    8.974437E-04
       183   -1.675319E-05
       184   -1.004331E-01
       185   -2.666216E-02
       186    1.632475E-03
       187   -1.334828E-01
       188    5.192444E-04
       189   -3.009845E-04
       190   -2.182599E-04
       191    2.049986E-07
       192    1.054182E-02
       193    8.179048E-07
       194   -1.906605E-03
       195    4.172001E-03
       196   -2.265396E-03
       197    4.192031E-06
       198    2.568472E-02
       199   -1.860050E-06
       200   -6.096220E-03
       201    7.334773E-03
       202   -1.238553E-03
       203   -3.212311E-04
       204    1.955137E-02
       205    1.562392E-05
       206    1.225400E-04
       207    1.722476E-08
       208    1.833069E-04
       209   -8.464503E-05
       210   -1.085054E-07
       211    1.213505E-03
       212   -7.975968E-05
       213    8.539598E-08
       214   -1.459438E-03
       215    2.143802E-08
       216    1.267565E-04
       217    2.738049E-04
       218    6.035690E-04
       219   -1.090062E-02
       220    3.051284E-02
       221    1.270785E-02
       222   -1.701785E-03
       223   -8.347380E-04
       224   -1.530709E-01
       225   -9.541956E-03
       226   -6.459248E-03
       227   -1.560159E-01
       228   -2.398308E-02
       229    9.225725E-03
       230   -9.203109E-02
       231    1.692810E-04
       232   -2.024631E-04
       233    3.318203E-05
       234    1.947651E-06
       235   -4.120218E-04
       236   -2.769652E-03
       237    6.246779E-04
       238   -7.816641E-04
       239    1.569862E-04
       240   -1.749041E-03
       241   -3.284151E-03
       242   -4.611508E-03
       243    8.163320E-03
       244   -6.393831E-03
       245   -1.769489E-03
       246    8.895051E-03
       247    3.862866E-03
       248    1.385689E-02
       249   -1.505391E-05
       250   -1.182040E-05
       251    8.566974E-04
       252   -2.123833E-05
       253   -1.529850E-05
       254   -2.488504E-04
       255    4.143527E-05
       256    3.115723E-05
       257   -9.005297E-04
       258   -2.867087E-04
       259   -4.728275E-04
       260   -3.963760E-04
       261   -1.812347E-02
       262   -1.511055E-05
       263   -1.711953E-05
       264    5.021361E-04
       265   -5.295220E-03
       266   -4.366347E-04
       267   -7.179510E-03
       268   -4.785710E-04
       269   -3.957780E-04
       270   -1.788422E-02
       271   -1.427294E-05
       272    1.689604E-05
       273    5.040333E-04
       274   -5.455301E-03
       275    3.044820E-04
       276   -7.147759E-03
       277   -4.967160E-04
       278   -2.505011E-03
       279    3.467942E-02
       280   -1.424501E-05
       281    1.121806E-04
       282   -6.166878E-03
       283   -2.131491E-03
       284   -2.674123E-03
       285    3.049668E-03
       286   -5.007439E-04
       287   -2.505369E-03
       288    3.509498E-02
       289   -1.386826E-05
       290   -1.119979E-04
       291   -6.168645E-03
       292   -1.997530E-03
       293    2.831880E-03
       294    3.078205E-03
       295   -5.480522E-05
       296   -1.274350E-04
       297    1.204567E-04
       298    5.089331E-04
       299   -7.402355E-03
       300    3.090588E-04
       301    5.250670E-04
       302   -1.292144E-07
       303    1.916049E-02
       304    2.060323E-04
       305    3.665943E-07
       306    2.167708E-02
       307   -3.209825E-03
       308    3.492346E-05
       309    8.389355E-03
       310    1.739240E-05
       311   -4.565477E-06
       312   -1.282693E-05
       313   -2.315461E-08
       314    4.101197E-03
       315   -3.105454E-06
       316   -8.935282E-06
       317    6.896939E-05
       318   -6.003411E-05
       319   -6.072114E-07
       320    1.234589E-02
       321   -9.229414E-06
       322   -9.831304E-04
       323    2.850815E-03
       324   -1.867684E-03
       325    4.637231E-05
       326    2.494861E-03
       327    4.014800E-06
       328    6.812545E-06
       329    3.910364E-09
       330    1.983276E-05
       331   -4.898484E-06
       332    2.144153E-08
       333    6.370676E-04
       334   -4.241505E-06
       335   -2.668783E-08
       336   -6.636760E-04
       337    5.712853E-07
       338   -1.754445E-05
       339   -3.920370E-05
       340    1.337958E-05
       341    5.435832E-04
       342   -5.909683E-03
       343   -8.735695E-04
       344   -1.507406E-04
       345    1.596803E-04
       346   -7.476483E-02
       347   -2.462580E-04
       348    2.872273E-04
       349   -6.933378E-02
       350   -1.414313E-03
       351    5.337763E-04
       352   -5.673693E-02
       353   -1.750138E-04
       354    1.955360E-04
       355   -7.168880E-03
       356    4.272529E-06
       357   -5.221433E-06
       358    9.489045E-07
       359   -2.904282E-07
       360    9.575484E-06
       361    4.405997E-04
       362   -1.101711E-05
       363   -1.310353E-05
       364    2.412064E-05
       365    9.338417E-06
       366   -4.862956E-04
       367    1.472236E-03
       368   -7.871309E-05
       369    5.031612E-05
       370    2.839697E-05
       371    7.807838E-05
       372   -2.702091E-05
       373    2.598544E-04
       374    7.274833E-07
       375    2.006189E-06
       376    6.179387E-05
       377   -1.387016E-06
       378   -8.317651E-07
       379    7.766785E-05
       380    4.109947E-07
       381   -1.859820E-06
       382   -1.605730E-04
       383    1.275087E-04
       384   -1.715266E-05
       385   -3.828225E-05
       386    1.245352E-05
       387    5.380143E-04
       388   -5.927429E-03
       389   -8.342165E-04
       390   -1.446370E-04
       391   -1.613390E-04
       392   -7.459102E-02
       393   -2.411360E-04
       394   -2.881081E-04
       395   -6.917448E-02
       396   -1.367658E-03
       397   -5.400029E-04
       398   -5.661366E-02
       399   -1.569872E-04
       400   -2.002687E-04
       401   -7.158378E-03
       402    4.253545E-06
       403   -5.227947E-06
       404    9.744019E-07
       405    2.479919E-07
       406    1.044779E-05
       407   -4.391879E-04
       408   -1.044971E-05
       409   -1.322833E-05
       410    2.367804E-05
       411   -8.857877E-06
       412   -4.832761E-04
       413   -1.467399E-03
       414   -7.855082E-05
       415    5.149172E-05
       416    2.705910E-05
       417   -7.675390E-05
       418   -2.554683E-05
       419   -2.558222E-04
       420    7.297029E-07
       421   -2.008895E-06
       422    6.153950E-05
       423   -1.374516E-06
       424    8.443925E-07
       425    7.762200E-05
       426    3.955172E-07
       427    1.850823E-06
       428   -1.601859E-04
       429   -1.270444E-04
       430    5.059158E-03
       431    1.199787E-02
       432   -1.862704E-02
       433   -2.883537E-02
       434   -2.177604E-02
       435   -6.738595E-02
       436   -1.828268E-02
       437    1.406988E-05
       438    2.782982E-01
       439   -2.079872E-02
       440    5.370023E-07
       441    2.745846E-01
       442   -1.975196E-02
       443   -1.384403E-04
       444    2.214430E-01
       445   -9.731965E-05
       446   -3.078321E-05
       447    1.281029E-04
       448    3.475566E-07
       449    5.058359E-04
       450    4.111708E-07
       451   -1.940522E-04
       452   -1.638918E-03
       453    1.832970E-03
       454   -5.409338E-06
       455    3.051187E-03
       456    1.802086E-06
       457   -1.521235E-03
       458   -3.332218E-03
       459    4.853453E-03
       460   -1.830002E-05
       461    2.011898E-03
       462    1.408318E-05
       463   -1.389757E-04
       464    2.996661E-08
       465   -1.149310E-03
       466   -9.329014E-05
       467   -2.420929E-08
       468    6.689815E-04
       469    2.797456E-04
       470   -1.599514E-08
       471    8.729801E-04
       472    3.197987E-08
       473    9.270367E-03
       474    1.790139E-02
       475    3.022179E-02
       476   -2.351106E-03
       477   -1.923867E-03
       478    1.400557E-02
       479    1.009256E-03
       480   -3.502147E-03
       481    1.529944E-02
       482    9.260673E-03
       483    1.779672E-02
       484    2.978316E-02
       485   -2.345643E-03
       486    1.913843E-03
       487    1.401093E-02
       488    1.059290E-03
       489    3.435378E-03
       490    1.532557E-02
 Sym= X
 Ene= -0.641586
 Spin= Alpha
 Occup= -0.641586
         1    2.274210E-05
         2    5.174712E-05
         3   -1.225197E-04
         4    1.469799E-04
         5    8.988502E-03
         6    3.490190E-04
         7    9.568625E-05
         8    1.684496E-04
         9    1.651003E-01
        10    5.068314E-04
        11    4.227612E-05
        12    1.655165E-01
        13   -3.630080E-03
        14    5.830261E-03
        15    9.295012E-02
        16    6.546909E-06
        17   -1.876204E-06
        18   -4.670705E-06
        19   -2.763063E-06
        20    4.443416E-03
        21    4.588551E-04
        22    9.456804E-05
        23   -5.766180E-05
        24   -3.690624E-05
        25   -1.616310E-05
        26    8.988009E-03
        27   -4.983788E-04
        28   -8.668088E-04
        29    1.004863E-03
        30   -1.380539E-04
        31   -4.511109E-04
        32    3.702829E-03
        33   -6.871785E-04
        34    3.564752E-06
        35    6.932418E-07
        36   -9.922569E-04
        37   -7.380715E-07
        38    2.210457E-08
        39    1.207701E-03
        40   -4.044544E-06
        41   -9.521861E-07
        42    1.235511E-04
        43    2.506553E-05
        44   -5.190582E-07
        45   -1.178668E-06
        46    1.888941E-07
        47    3.192992E-05
        48   -1.887803E-03
        49   -8.094842E-05
        50   -2.908712E-06
        51   -1.308030E-04
        52    3.532505E-05
        53   -2.117288E-08
        54   -2.291883E-04
        55    3.002590E-05
        56   -9.245563E-04
        57    9.011154E-03
        58   -1.570885E-05
        59    1.673419E-07
        60   -3.391104E-08
        61   -1.334309E-07
        62   -9.155627E-06