[Molden Format]
[Title]
ADC(2) - opt by CAM-B3LYP gaussian                                              
[Atoms] AU
 c     1    6 -.12588699998532E+01 -.22834089986974E+01 -.24579904026210E-01
 c     2    6 -.25576598737242E+01 0.00000000000000E+00 -.23328905326240E-01
 c     3    6 -.12588681101271E+01 0.22834089986974E+01 -.24585573204610E-01
 c     4    6 0.13319747639512E+01 0.22851362083829E+01 -.26548998656670E-01
 c     5    6 0.26868460402678E+01 0.00000000000000E+00 -.25991529447470E-01
 c     6    6 0.13319728742250E+01 -.22851362083829E+01 -.26541439752140E-01
 h     7    1 -.22976467859220E+01 -.40383900994038E+01 -.22042001829740E-01
 h     8    1 -.22976448961959E+01 0.40383919891299E+01 -.22053340186540E-01
 h     9    1 0.23511286338561E+01 0.40572968093633E+01 -.28790213850280E-01
 h    10    1 0.23511267441300E+01 -.40572968093633E+01 -.28775096041210E-01
 n    11    7 -.52730224718766E+01 0.00000000000000E+00 -.17674844736640E-01
 o    12    8 -.63812882673039E+01 0.20269372576683E+01 -.15259774738810E-01
 o    13    8 -.63812844878516E+01 -.20269372576683E+01 -.15276782274010E-01
 n    14    7 0.52436643953234E+01 0.00000000000000E+00 -.69084844181800E-01
 h    15    1 0.62047866654136E+01 0.16174392738504E+01 0.18526851385235E+00
 h    16    1 0.62047847756874E+01 -.16174411635765E+01 0.18526473440008E+00
[GTO]
    1 0
 s    6 1.00
 0.13575349682000E+05 0.60645503603591E-03
 0.20352333680000E+04 0.46979088884982E-02
 0.46322562359000E+03 0.24332477647552E-01
 0.13120019598000E+03 0.97399968307759E-01
 0.42853015891000E+02 0.30195584253780E+00
 0.15584185766000E+02 0.66233609137875E+00
 s    2 1.00
 0.62067138508000E+01 0.65595308539952E+00
 0.25764896527000E+01 0.37585633285142E+00
 s    1 1.00
 0.57696339419000E+00 0.10000000000000E+01
 s    1 1.00
 0.22972831358000E+00 0.10000000000000E+01
 s    1 1.00
 0.95164440028000E-01 0.10000000000000E+01
 s    1 1.00
 0.48475401370000E-01 0.10000000000000E+01
 p    4 1.00
 0.34697232244000E+02 0.11327220003114E-01
 0.79582622826000E+01 0.76169659202087E-01
 0.23780826883000E+01 0.30192252202676E+00
 0.81433208183000E+00 0.72785027349547E+00
 p    1 1.00
 0.28887547253000E+00 0.10000000000000E+01
 p    1 1.00
 0.10056823671000E+00 0.10000000000000E+01
 d    1 1.00
 0.10970000000000E+01 0.10000000000000E+01
 d    1 1.00
 0.31800000000000E+00 0.10000000000000E+01
 d    1 1.00
 0.90985336424000E-01 0.10000000000000E+01
 f    1 1.00
 0.76100000000000E+00 0.10000000000000E+01
 
    2 0
 s    6 1.00
 0.13575349682000E+05 0.60645503603591E-03
 0.20352333680000E+04 0.46979088884982E-02
 0.46322562359000E+03 0.24332477647552E-01
 0.13120019598000E+03 0.97399968307759E-01
 0.42853015891000E+02 0.30195584253780E+00
 0.15584185766000E+02 0.66233609137875E+00
 s    2 1.00
 0.62067138508000E+01 0.65595308539952E+00
 0.25764896527000E+01 0.37585633285142E+00
 s    1 1.00
 0.57696339419000E+00 0.10000000000000E+01
 s    1 1.00
 0.22972831358000E+00 0.10000000000000E+01
 s    1 1.00
 0.95164440028000E-01 0.10000000000000E+01
 s    1 1.00
 0.48475401370000E-01 0.10000000000000E+01
 p    4 1.00
 0.34697232244000E+02 0.11327220003114E-01
 0.79582622826000E+01 0.76169659202087E-01
 0.23780826883000E+01 0.30192252202676E+00
 0.81433208183000E+00 0.72785027349547E+00
 p    1 1.00
 0.28887547253000E+00 0.10000000000000E+01
 p    1 1.00
 0.10056823671000E+00 0.10000000000000E+01
 d    1 1.00
 0.10970000000000E+01 0.10000000000000E+01
 d    1 1.00
 0.31800000000000E+00 0.10000000000000E+01
 d    1 1.00
 0.90985336424000E-01 0.10000000000000E+01
 f    1 1.00
 0.76100000000000E+00 0.10000000000000E+01
 
    3 0
 s    6 1.00
 0.13575349682000E+05 0.60645503603591E-03
 0.20352333680000E+04 0.46979088884982E-02
 0.46322562359000E+03 0.24332477647552E-01
 0.13120019598000E+03 0.97399968307759E-01
 0.42853015891000E+02 0.30195584253780E+00
 0.15584185766000E+02 0.66233609137875E+00
 s    2 1.00
 0.62067138508000E+01 0.65595308539952E+00
 0.25764896527000E+01 0.37585633285142E+00
 s    1 1.00
 0.57696339419000E+00 0.10000000000000E+01
 s    1 1.00
 0.22972831358000E+00 0.10000000000000E+01
 s    1 1.00
 0.95164440028000E-01 0.10000000000000E+01
 s    1 1.00
 0.48475401370000E-01 0.10000000000000E+01
 p    4 1.00
 0.34697232244000E+02 0.11327220003114E-01
 0.79582622826000E+01 0.76169659202087E-01
 0.23780826883000E+01 0.30192252202676E+00
 0.81433208183000E+00 0.72785027349547E+00
 p    1 1.00
 0.28887547253000E+00 0.10000000000000E+01
 p    1 1.00
 0.10056823671000E+00 0.10000000000000E+01
 d    1 1.00
 0.10970000000000E+01 0.10000000000000E+01
 d    1 1.00
 0.31800000000000E+00 0.10000000000000E+01
 d    1 1.00
 0.90985336424000E-01 0.10000000000000E+01
 f    1 1.00
 0.76100000000000E+00 0.10000000000000E+01
 
    4 0
 s    6 1.00
 0.13575349682000E+05 0.60645503603591E-03
 0.20352333680000E+04 0.46979088884982E-02
 0.46322562359000E+03 0.24332477647552E-01
 0.13120019598000E+03 0.97399968307759E-01
 0.42853015891000E+02 0.30195584253780E+00
 0.15584185766000E+02 0.66233609137875E+00
 s    2 1.00
 0.62067138508000E+01 0.65595308539952E+00
 0.25764896527000E+01 0.37585633285142E+00
 s    1 1.00
 0.57696339419000E+00 0.10000000000000E+01
 s    1 1.00
 0.22972831358000E+00 0.10000000000000E+01
 s    1 1.00
 0.95164440028000E-01 0.10000000000000E+01
 s    1 1.00
 0.48475401370000E-01 0.10000000000000E+01
 p    4 1.00
 0.34697232244000E+02 0.11327220003114E-01
 0.79582622826000E+01 0.76169659202087E-01
 0.23780826883000E+01 0.30192252202676E+00
 0.81433208183000E+00 0.72785027349547E+00
 p    1 1.00
 0.28887547253000E+00 0.10000000000000E+01
 p    1 1.00
 0.10056823671000E+00 0.10000000000000E+01
 d    1 1.00
 0.10970000000000E+01 0.10000000000000E+01
 d    1 1.00
 0.31800000000000E+00 0.10000000000000E+01
 d    1 1.00
 0.90985336424000E-01 0.10000000000000E+01
 f    1 1.00
 0.76100000000000E+00 0.10000000000000E+01
 
    5 0
 s    6 1.00
 0.13575349682000E+05 0.60645503603591E-03
 0.20352333680000E+04 0.46979088884982E-02
 0.46322562359000E+03 0.24332477647552E-01
 0.13120019598000E+03 0.97399968307759E-01
 0.42853015891000E+02 0.30195584253780E+00
 0.15584185766000E+02 0.66233609137875E+00
 s    2 1.00
 0.62067138508000E+01 0.65595308539952E+00
 0.25764896527000E+01 0.37585633285142E+00
 s    1 1.00
 0.57696339419000E+00 0.10000000000000E+01
 s    1 1.00
 0.22972831358000E+00 0.10000000000000E+01
 s    1 1.00
 0.95164440028000E-01 0.10000000000000E+01
 s    1 1.00
 0.48475401370000E-01 0.10000000000000E+01
 p    4 1.00
 0.34697232244000E+02 0.11327220003114E-01
 0.79582622826000E+01 0.76169659202087E-01
 0.23780826883000E+01 0.30192252202676E+00
 0.81433208183000E+00 0.72785027349547E+00
 p    1 1.00
 0.28887547253000E+00 0.10000000000000E+01
 p    1 1.00
 0.10056823671000E+00 0.10000000000000E+01
 d    1 1.00
 0.10970000000000E+01 0.10000000000000E+01
 d    1 1.00
 0.31800000000000E+00 0.10000000000000E+01
 d    1 1.00
 0.90985336424000E-01 0.10000000000000E+01
 f    1 1.00
 0.76100000000000E+00 0.10000000000000E+01
 
    6 0
 s    6 1.00
 0.13575349682000E+05 0.60645503603591E-03
 0.20352333680000E+04 0.46979088884982E-02
 0.46322562359000E+03 0.24332477647552E-01
 0.13120019598000E+03 0.97399968307759E-01
 0.42853015891000E+02 0.30195584253780E+00
 0.15584185766000E+02 0.66233609137875E+00
 s    2 1.00
 0.62067138508000E+01 0.65595308539952E+00
 0.25764896527000E+01 0.37585633285142E+00
 s    1 1.00
 0.57696339419000E+00 0.10000000000000E+01
 s    1 1.00
 0.22972831358000E+00 0.10000000000000E+01
 s    1 1.00
 0.95164440028000E-01 0.10000000000000E+01
 s    1 1.00
 0.48475401370000E-01 0.10000000000000E+01
 p    4 1.00
 0.34697232244000E+02 0.11327220003114E-01
 0.79582622826000E+01 0.76169659202087E-01
 0.23780826883000E+01 0.30192252202676E+00
 0.81433208183000E+00 0.72785027349547E+00
 p    1 1.00
 0.28887547253000E+00 0.10000000000000E+01
 p    1 1.00
 0.10056823671000E+00 0.10000000000000E+01
 d    1 1.00
 0.10970000000000E+01 0.10000000000000E+01
 d    1 1.00
 0.31800000000000E+00 0.10000000000000E+01
 d    1 1.00
 0.90985336424000E-01 0.10000000000000E+01
 f    1 1.00
 0.76100000000000E+00 0.10000000000000E+01
 
    7 0
 s    3 1.00
 0.34061341000000E+02 0.25439307208879E-01
 0.51235746000000E+01 0.19008594890375E+00
 0.11646626000000E+01 0.85244113011042E+00
 s    1 1.00
 0.32723041000000E+00 0.10000000000000E+01
 s    1 1.00
 0.10307241000000E+00 0.10000000000000E+01
 p    1 1.00
 0.80000000000000E+00 0.10000000000000E+01
 p    1 1.00
 0.95774129632000E-01 0.10000000000000E+01
 
    8 0
 s    3 1.00
 0.34061341000000E+02 0.25439307208879E-01
 0.51235746000000E+01 0.19008594890375E+00
 0.11646626000000E+01 0.85244113011042E+00
 s    1 1.00
 0.32723041000000E+00 0.10000000000000E+01
 s    1 1.00
 0.10307241000000E+00 0.10000000000000E+01
 p    1 1.00
 0.80000000000000E+00 0.10000000000000E+01
 p    1 1.00
 0.95774129632000E-01 0.10000000000000E+01
 
    9 0
 s    3 1.00
 0.34061341000000E+02 0.25439307208879E-01
 0.51235746000000E+01 0.19008594890375E+00
 0.11646626000000E+01 0.85244113011042E+00
 s    1 1.00
 0.32723041000000E+00 0.10000000000000E+01
 s    1 1.00
 0.10307241000000E+00 0.10000000000000E+01
 p    1 1.00
 0.80000000000000E+00 0.10000000000000E+01
 p    1 1.00
 0.95774129632000E-01 0.10000000000000E+01
 
   10 0
 s    3 1.00
 0.34061341000000E+02 0.25439307208879E-01
 0.51235746000000E+01 0.19008594890375E+00
 0.11646626000000E+01 0.85244113011042E+00
 s    1 1.00
 0.32723041000000E+00 0.10000000000000E+01
 s    1 1.00
 0.10307241000000E+00 0.10000000000000E+01
 p    1 1.00
 0.80000000000000E+00 0.10000000000000E+01
 p    1 1.00
 0.95774129632000E-01 0.10000000000000E+01
 
   11 0
 s    6 1.00
 0.19730800647000E+05 0.58626402628763E-03
 0.29578958745000E+04 0.45428820586397E-02
 0.67322133595000E+03 0.23558413450084E-01
 0.19068249494000E+03 0.94709193292923E-01
 0.62295441898000E+02 0.29719784913376E+00
 0.22654161182000E+02 0.66916246895232E+00
 s    2 1.00
 0.89791477428000E+01 0.64596683630063E+00
 0.36863002370000E+01 0.38700574393705E+00
 s    1 1.00
 0.84660076805000E+00 0.10000000000000E+01
 s    1 1.00
 0.33647133771000E+00 0.10000000000000E+01
 s    1 1.00
 0.13647653675000E+00 0.10000000000000E+01
 s    1 1.00
 0.68441605847000E-01 0.10000000000000E+01
 p    4 1.00
 0.49200380510000E+02 0.11448825101764E-01
 0.11346790537000E+02 0.78422337970864E-01
 0.34273972411000E+01 0.30818094738830E+00
 0.11785525134000E+01 0.72027196368413E+00
 p    1 1.00
 0.41642204972000E+00 0.10000000000000E+01
 p    1 1.00
 0.14260826011000E+00 0.10000000000000E+01
 d    1 1.00
 0.16540000000000E+01 0.10000000000000E+01
 d    1 1.00
 0.46900000000000E+00 0.10000000000000E+01
 d    1 1.00
 0.12829642058000E+00 0.10000000000000E+01
 f    1 1.00
 0.10930000000000E+01 0.10000000000000E+01
 
   12 0
 s    6 1.00
 0.27032382631000E+05 0.57227335211155E-03
 0.40523871392000E+04 0.44353233492995E-02
 0.92232722710000E+03 0.23020107706038E-01
 0.26124070989000E+03 0.92822490667928E-01
 0.85354641351000E+02 0.29378500009671E+00
 0.31035035245000E+02 0.67401604501641E+00
 s    2 1.00
 0.12260860728000E+02 0.63839937025506E+00
 0.49987076005000E+01 0.39534587125718E+00
 s    1 1.00
 0.11703108158000E+01 0.10000000000000E+01
 s    1 1.00
 0.46474740994000E+00 0.10000000000000E+01
 s    1 1.00
 0.18504536357000E+00 0.10000000000000E+01
 s    1 1.00
 0.70288026270000E-01 0.10000000000000E+01
 p    4 1.00
 0.63274954801000E+02 0.12018332222616E-01
 0.14627049379000E+02 0.83005421790056E-01
 0.44501223456000E+01 0.31991743925964E+00
 0.15275799647000E+01 0.70715542916104E+00
 p    1 1.00
 0.52935117943000E+00 0.10000000000000E+01
 p    1 1.00
 0.17478421270000E+00 0.10000000000000E+01
 p    1 1.00
 0.51112745706000E-01 0.10000000000000E+01
 d    1 1.00
 0.23140000000000E+01 0.10000000000000E+01
 d    1 1.00
 0.64500000000000E+00 0.10000000000000E+01
 d    1 1.00
 0.14696477366000E+00 0.10000000000000E+01
 f    1 1.00
 0.14280000000000E+01 0.10000000000000E+01
 
   13 0
 s    6 1.00
 0.27032382631000E+05 0.57227335211155E-03
 0.40523871392000E+04 0.44353233492995E-02
 0.92232722710000E+03 0.23020107706038E-01
 0.26124070989000E+03 0.92822490667928E-01
 0.85354641351000E+02 0.29378500009671E+00
 0.31035035245000E+02 0.67401604501641E+00
 s    2 1.00
 0.12260860728000E+02 0.63839937025506E+00
 0.49987076005000E+01 0.39534587125718E+00
 s    1 1.00
 0.11703108158000E+01 0.10000000000000E+01
 s    1 1.00
 0.46474740994000E+00 0.10000000000000E+01
 s    1 1.00
 0.18504536357000E+00 0.10000000000000E+01
 s    1 1.00
 0.70288026270000E-01 0.10000000000000E+01
 p    4 1.00
 0.63274954801000E+02 0.12018332222616E-01
 0.14627049379000E+02 0.83005421790056E-01
 0.44501223456000E+01 0.31991743925964E+00
 0.15275799647000E+01 0.70715542916104E+00
 p    1 1.00
 0.52935117943000E+00 0.10000000000000E+01
 p    1 1.00
 0.17478421270000E+00 0.10000000000000E+01
 p    1 1.00
 0.51112745706000E-01 0.10000000000000E+01
 d    1 1.00
 0.23140000000000E+01 0.10000000000000E+01
 d    1 1.00
 0.64500000000000E+00 0.10000000000000E+01
 d    1 1.00
 0.14696477366000E+00 0.10000000000000E+01
 f    1 1.00
 0.14280000000000E+01 0.10000000000000E+01
 
   14 0
 s    6 1.00
 0.19730800647000E+05 0.58626402628763E-03
 0.29578958745000E+04 0.45428820586397E-02
 0.67322133595000E+03 0.23558413450084E-01
 0.19068249494000E+03 0.94709193292923E-01
 0.62295441898000E+02 0.29719784913376E+00
 0.22654161182000E+02 0.66916246895232E+00
 s    2 1.00
 0.89791477428000E+01 0.64596683630063E+00
 0.36863002370000E+01 0.38700574393705E+00
 s    1 1.00
 0.84660076805000E+00 0.10000000000000E+01
 s    1 1.00
 0.33647133771000E+00 0.10000000000000E+01
 s    1 1.00
 0.13647653675000E+00 0.10000000000000E+01
 s    1 1.00
 0.68441605847000E-01 0.10000000000000E+01
 p    4 1.00
 0.49200380510000E+02 0.11448825101764E-01
 0.11346790537000E+02 0.78422337970864E-01
 0.34273972411000E+01 0.30818094738830E+00
 0.11785525134000E+01 0.72027196368413E+00
 p    1 1.00
 0.41642204972000E+00 0.10000000000000E+01
 p    1 1.00
 0.14260826011000E+00 0.10000000000000E+01
 d    1 1.00
 0.16540000000000E+01 0.10000000000000E+01
 d    1 1.00
 0.46900000000000E+00 0.10000000000000E+01
 d    1 1.00
 0.12829642058000E+00 0.10000000000000E+01
 f    1 1.00
 0.10930000000000E+01 0.10000000000000E+01
 
   15 0
 s    3 1.00
 0.34061341000000E+02 0.25439307208879E-01
 0.51235746000000E+01 0.19008594890375E+00
 0.11646626000000E+01 0.85244113011042E+00
 s    1 1.00
 0.32723041000000E+00 0.10000000000000E+01
 s    1 1.00
 0.10307241000000E+00 0.10000000000000E+01
 p    1 1.00
 0.80000000000000E+00 0.10000000000000E+01
 p    1 1.00
 0.95774129632000E-01 0.10000000000000E+01
 
   16 0
 s    3 1.00
 0.34061341000000E+02 0.25439307208879E-01
 0.51235746000000E+01 0.19008594890375E+00
 0.11646626000000E+01 0.85244113011042E+00
 s    1 1.00
 0.32723041000000E+00 0.10000000000000E+01
 s    1 1.00
 0.10307241000000E+00 0.10000000000000E+01
 p    1 1.00
 0.80000000000000E+00 0.10000000000000E+01
 p    1 1.00
 0.95774129632000E-01 0.10000000000000E+01
 
[MO]
 Sym= X
 Ene= -0.287442
 Spin= Alpha
 Occup= -0.287442
         1    2.089136E-05
         2    4.726678E-05
         3   -1.215694E-04
         4    1.866785E-04
         5    9.567954E-03
         6    4.514773E-04
         7    1.054465E-04
         8    1.460001E-04
         9    1.895807E-01
        10    5.346438E-04
        11    2.696670E-05
        12    1.900531E-01
        13   -3.609297E-03
        14    6.139751E-03
        15    1.113588E-01
        16    7.409665E-06
        17   -1.786893E-06
        18   -5.622772E-06
        19   -1.408685E-06
        20    4.983013E-03
        21    5.473174E-04
        22    9.964652E-05
        23   -5.961638E-05
        24   -4.003014E-05
        25   -1.803748E-05
        26    9.480207E-03
        27   -3.940204E-04
        28   -7.943804E-04
        29    9.287429E-04
        30   -1.343625E-04
        31   -4.400249E-04
        32    2.565850E-03
        33    7.410210E-04
        34    4.177025E-06
        35    6.647294E-07
        36   -1.174228E-03
        37   -9.555375E-07
        38    4.384417E-08
        39    1.418870E-03
        40   -4.648530E-06
        41   -9.356723E-07
        42    1.565215E-04
        43   -7.331485E-07
        44   -1.994552E-06
        45   -4.518129E-06
        46    5.422414E-06
        47    4.519122E-05
        48   -2.139171E-03
        49   -1.239720E-04
        50   -1.768210E-05
        51   -1.258459E-04
        52   -5.282399E-05
        53   -9.771783E-06
        54   -2.077920E-04
        55   -6.238884E-05
        56   -1.017358E-03
        57    9.343875E-03
        58   -1.134826E-04
        59    7.277644E-07
        60   -4.847331E-07
        61   -2.430313E-07
        62   -9.635807E-06
        63    5.114812E-07
        64   -7.118049E-03
        65    1.049191E-06
        66   -2.529846E-06
        67    1.480655E-06
        68   -7.144542E-05
        69   -1.248298E-06
        70   -1.602263E-02
        71   -3.005566E-05
        72   -5.478240E-06
        73    3.553390E-05
        74    1.347653E-03
        75   -1.151895E-05
        76   -1.346852E-03
        77   -1.983437E-07
        78   -3.109807E-07
        79    4.215973E-07
        80    1.957582E-07
        81   -1.624727E-06
        82   -2.626573E-07
        83    7.034780E-08
        84    2.041951E-06
        85   -3.029748E-07
        86   -1.013101E-03
        87   -1.984105E-05
        88   -4.503401E-05
        89    1.182527E-04
        90   -2.224489E-04
        91   -5.869520E-03
        92   -2.866780E-04
        93   -1.010820E-04
        94    1.532734E-04
        95   -1.895908E-01
        96   -4.897924E-04
        97    2.967963E-05
        98   -1.900601E-01
        99    4.638301E-03
       100    4.330053E-03
       101   -1.112010E-01
       102   -7.293436E-06
       103    1.252988E-06
       104    6.040448E-06
       105   -1.207799E-06
       106   -4.980374E-03
       107    5.495865E-04
       108   -8.604452E-05
       109    5.040302E-05
       110    3.564149E-05
       111   -1.565118E-05
       112   -9.473347E-03
       113   -3.941256E-04
       114    7.482835E-04
       115   -8.294154E-04
       116    8.113195E-05
       117   -5.355441E-04
       118   -2.536331E-03
       119    6.975520E-04
       120   -3.975771E-06
       121    7.688914E-07
       122    1.174315E-03
       123    1.015958E-06
       124   -2.406406E-07
       125   -1.418693E-03
       126    4.318099E-06
       127   -7.909354E-07
       128   -1.568152E-04
       129   -9.652193E-07
       130    1.620440E-05
       131    3.842886E-05
       132   -1.408296E-04
       133    5.465949E-04
       134    9.247427E-03
       135    4.348744E-04
       136   -1.728244E-04
       137   -6.813646E-05
       138   -2.001434E-01
       139   -3.624585E-04
       140   -1.512304E-04
       141   -2.028429E-01
       142    5.214125E-03
       143   -6.517314E-03
       144   -1.294736E-01
       145    1.272583E-05
       146   -2.486934E-07
       147   -1.247714E-05
       148   -6.598580E-06
       149    4.702553E-03
       150    4.892583E-04
       151    1.328303E-04
       152   -4.196901E-05
       153   -9.086127E-05
       154   -6.795285E-05
       155    8.410097E-03
       156    7.620503E-04
       157   -2.139981E-04
       158    4.102921E-04
       159   -1.962940E-04
       160   -8.708026E-04
       161    5.485156E-04
       162    2.582061E-03
       163   -5.081239E-06
       164   -1.231491E-06
       165    1.313036E-03
       166    3.054456E-06
       167   -4.298144E-07
       168   -1.467877E-03
       169    3.762742E-06
       170    2.082033E-06
       171   -2.937462E-04
       172    4.659509E-05
       173   -7.775206E-07
       174   -1.623314E-06
       175   -2.889924E-06
       176    7.298009E-06
       177    2.707164E-03
       178    1.607194E-04
       179   -3.168662E-06
       180    7.213838E-05
       181    2.799731E-05
       182   -1.264653E-05
       183    6.971611E-05
       184    3.609864E-05
       185   -9.591503E-04
       186   -1.380198E-02
       187    5.542102E-05
       188   -2.748015E-07
       189    1.527442E-07
       190    1.220573E-07
       191    2.326000E-05
       192   -1.402184E-06
       193   -7.482079E-03
       194    6.394252E-07
       195    4.957333E-06
       196   -5.596758E-06
       197    9.091085E-05
       198   -6.271730E-06
       199   -1.556506E-02
       200    2.784093E-05
       201    3.175833E-05
       202   -5.959926E-05
       203    2.514491E-03
       204   -8.474184E-06
       205    2.915055E-03
       206    9.249547E-08
       207   -4.750975E-06
       208   -2.227789E-07
       209   -2.190855E-07
       210    3.519299E-06
       211   -4.035916E-08
       212    9.498981E-08
       213    2.854802E-06
       214    3.392484E-07
       215    1.181917E-03
       216   -1.772898E-05
       217   -4.180452E-05
       218    1.530457E-04
       219   -5.612829E-04
       220   -1.360427E-02
       221   -6.006898E-04
       222    1.728846E-04
       223   -6.732474E-05
       224    2.002041E-01
       225    3.993303E-04
       226   -1.778557E-04
       227    2.029022E-01
       228   -4.552851E-03
       229   -8.377240E-03
       230    1.293540E-01
       231   -1.272439E-05
       232    6.741859E-07
       233    1.205020E-05
       234   -6.473502E-06
       235   -4.702443E-03
       236    4.908652E-04
       237   -1.423633E-04
       238    4.520328E-05
       239    9.716002E-05
       240   -7.359241E-05
       241   -8.408903E-03
       242    7.604420E-04
       243    2.736150E-04
       244   -5.329690E-04
       245    2.593540E-04
       246   -7.917761E-04
       247   -5.304981E-04
       248    2.553899E-03
       249    5.296316E-06
       250   -1.324570E-06
       251   -1.313453E-03
       252   -3.173983E-06
       253   -5.975850E-07
       254    1.468104E-03
       255   -3.931770E-06
       256    2.374682E-06
       257    2.940781E-04
       258    4.661139E-05
       259   -1.543355E-05
       260   -3.427191E-06
       261    7.633474E-04
       262    9.802952E-06
       263    3.692988E-06
       264    7.766344E-03
       265   -5.812777E-05
       266    3.011174E-04
       267    7.577029E-03
       268    1.420999E-05
       269    2.281871E-05
       270   -1.446434E-04
       271   -8.394946E-06
       272    2.242530E-06
       273   -7.766362E-03
       274    9.861347E-05
       275    1.463760E-04
       276   -7.540570E-03
       277   -1.865185E-05
       278   -2.286210E-05
       279    1.816521E-03
       280   -1.388606E-05
       281   -2.106970E-06
       282   -8.590494E-03
       283   -4.742443E-04
       284   -1.480063E-04
       285   -9.484151E-03
       286    2.020698E-05
       287    1.174692E-05
       288   -2.236896E-03
       289    1.463279E-05
       290   -3.906608E-06
       291    8.592975E-03
       292    5.004986E-04
       293   -2.891087E-04
       294    9.476926E-03
       295   -3.504593E-07
       296   -8.376980E-07
       297    1.397838E-06
       298    2.010925E-06
       299   -1.156959E-04
       300    6.815701E-05
       301    1.512870E-05
       302    3.844313E-05
       303   -1.202768E-05
       304    1.271157E-05
       305    1.540655E-05
       306   -1.249907E-05
       307   -1.627065E-05
       308   -2.439522E-04
       309   -2.947292E-06
       310    1.543460E-06
       311   -1.707226E-06
       312    1.637663E-07
       313   -4.949602E-06
       314   -1.115078E-06
       315    6.092183E-04
       316    4.424767E-06
       317   -4.897099E-06
       318    4.723322E-07
       319   -2.435838E-05
       320   -3.578828E-06
       321    1.363567E-03
       322    4.773925E-06
       323    6.057963E-06
       324   -1.083189E-05
       325   -1.409474E-04
       326   -1.642797E-06
       327    2.068963E-03
       328   -3.093088E-08
       329   -2.715410E-07
       330    3.938709E-08
       331    8.134904E-08
       332   -5.827634E-07
       333   -2.027537E-07
       334   -3.985090E-08
       335    9.470738E-07
       336    1.499104E-07
       337   -2.770428E-04
       338   -1.305859E-06
       339   -3.323322E-06
       340    5.710544E-06
       341   -6.055293E-06
       342    2.118076E-05
       343    2.099518E-05
       344   -7.881574E-05
       345   -1.257298E-04
       346    2.346394E-02
       347   -7.298438E-05
       348   -1.132266E-04
       349    2.210247E-02
       350    3.565348E-05
       351   -3.882804E-05
       352    1.539087E-02
       353    3.108612E-06
       354   -2.886891E-07
       355   -2.400848E-04
       356   -1.337298E-06
       357    1.742674E-06
       358   -4.053755E-07
       359   -4.227826E-07
       360    4.126468E-05
       361   -1.737381E-04
       362   -1.187125E-06
       363    3.468892E-06
       364   -2.281766E-06
       365   -2.628857E-06
       366    1.820099E-04
       367   -7.554044E-04
       368    2.087080E-06
       369   -1.239244E-05
       370    1.030536E-05
       371   -5.451850E-06
       372   -4.164948E-04
       373    3.312992E-04
       374   -3.021677E-07
       375   -4.094833E-07
       376   -1.945065E-05
       377    4.663319E-07
       378    1.594973E-07
       379   -2.667077E-05
       380   -6.093146E-08
       381    3.898822E-07
       382    5.276656E-05
       383   -6.061232E-05
       384    1.547157E-06
       385    3.959749E-06
       386   -6.894202E-06
       387    1.078092E-05
       388   -5.451887E-05
       389   -5.579260E-05
       390   -3.499458E-06
       391   -1.089869E-04
       392   -2.342837E-02
       393   -2.320611E-07
       394   -9.624749E-05
       395   -2.206911E-02
       396   -8.745597E-05
       397   -3.381595E-05
       398   -1.536277E-02
       399   -1.207440E-05
       400   -2.796417E-06
       401    2.450006E-04
       402    1.056424E-06
       403   -1.681737E-06
       404    6.253125E-07
       405   -1.097167E-06
       406   -4.135626E-05
       407   -1.736532E-04
       408    3.358024E-07
       409   -3.006827E-06
       410    2.671025E-06
       411   -4.162734E-06
       412   -1.820039E-04
       413   -7.550501E-04
       414   -2.679197E-06
       415    1.187727E-05
       416   -9.198073E-06
       417   -5.244048E-06
       418    4.171555E-04
       419    3.304487E-04
       420    3.808600E-07
       421   -2.779143E-07
       422    1.944828E-05
       423   -6.102566E-07
       424   -8.997568E-08
       425    2.663225E-05
       426    9.927925E-08
       427    4.628369E-07
       428   -5.272486E-05
       429   -6.058209E-05
       430   -3.714279E-07
       431   -8.455080E-07
       432    1.065312E-06
       433    7.715053E-06
       434    2.052301E-05
       435   -5.540215E-05
       436    3.110484E-06
       437    8.412471E-04
       438   -3.259913E-05
       439    1.954728E-06
       440    1.104014E-03
       441   -3.273514E-05
       442    4.209850E-05
       443    1.405810E-03
       444   -2.462748E-05
       445    7.788341E-10
       446    1.693950E-08
       447   -1.771833E-08
       448   -1.788226E-05
       449   -2.532905E-07
       450   -2.981671E-04
       451   -2.396051E-07
       452   -5.543720E-08
       453    2.950423E-07
       454    5.307814E-05
       455   -1.244759E-06
       456   -6.519648E-04
       457   -1.167307E-05
       458    3.917026E-06
       459    7.756048E-06
       460    6.443093E-04
       461   -1.661741E-06
       462    1.064930E-03
       463    3.130946E-08
       464    3.959098E-06
       465    1.109632E-07
       466    7.559410E-09
       467    1.379019E-05
       468   -1.851287E-08
       469   -4.956546E-08
       470   -1.910188E-05
       471   -1.303599E-07
       472    1.337254E-04
       473   -5.813374E-05
       474   -5.950900E-04
       475   -4.004638E-03
       476    6.424744E-05
       477    8.186888E-05
       478   -3.759689E-04
       479    3.047324E-04
       480    8.542327E-04
       481   -1.924014E-03
       482    5.580499E-05
       483    5.930144E-04
       484    3.978816E-03
       485   -6.411808E-05
       486    8.180934E-05
       487    3.723601E-04
       488   -2.866929E-04
       489    8.616991E-04
       490    1.917130E-03
 Sym= X
 Ene= -0.606516
 Spin= Alpha
 Occup= -0.606516
         1   -1.528262E-04
         2   -3.548198E-04
         3    9.966899E-04
         4   -2.187030E-03
         5   -1.127328E-02
         6   -9.477454E-03
         7    1.401781E-03
         8    1.845023E-04
         9    3.571047E-02
        10   -2.029631E-03
        11    3.522860E-04
        12    3.363362E-02
        13   -3.162611E-02
        14    9.041347E-03
        15    7.485257E-03
        16    1.305849E-06
        17   -1.170033E-05
        18    1.039448E-05
        19   -9.724869E-06
        20   -6.375237E-03
        21    4.210887E-03
        22   -5.673112E-04
        23    3.405286E-04
        24    2.267826E-04
        25   -5.988866E-04
        26   -1.440969E-02
        27    7.866915E-03
        28   -4.631180E-03
        29    4.319402E-03
        30    3.117778E-04
        31    9.205411E-04
        32    9.834036E-04
        33   -1.010173E-02
        34   -1.644705E-05
        35    6.089669E-06
        36   -2.041180E-04
        37    6.939602E-06
        38   -6.375718E-06
        39   -6.470975E-04
        40    1.512643E-05
        41   -1.794430E-06
        42    9.209505E-04
        43   -7.413599E-04
        44    2.644348E-05
        45    5.806013E-05
        46    9.661338E-05
        47   -2.267726E-03
        48   -4.619130E-02
        49    4.276243E-03
        50    4.279803E-04
        51    9.266678E-07
        52    2.216224E-01
        53   -2.562824E-04
        54    2.197249E-05
        55    2.293695E-01
        56   -1.488239E-02
        57   -1.402993E-03
        58    2.084077E-01
        59    3.134864E-05
        60   -2.918773E-05
        61   -2.160911E-06
        62    1.236304E-07