[Molden Format]
[Title]
ADC(2) - opt by CAM-B3LYP gaussian                                              
[Atoms] AU
 c     1    6 0.12592752280008E+01 0.22800132789445E+01 -.35345910021030E-01
 c     2    6 0.25511638220345E+01 0.20078340100000E-05 -.33671612667290E-01
 c     3    6 0.12592790074531E+01 -.22800111530026E+01 -.35357248377820E-01
 c     4    6 -.13364450292264E+01 -.22798221803893E+01 -.38530098554940E-01
 c     5    6 -.26857699593430E+01 -.17716182500000E-05 -.39025206801750E-01
 c     6    6 -.13364469189525E+01 0.22798205268790E+01 -.38516870472010E-01
 h     7    1 0.23055183220207E+01 0.40307538342087E+01 -.32265656424420E-01
 h     8    1 0.23055239911991E+01 -.40307498185407E+01 -.32284553685750E-01
 h     9    1 -.23548467881305E+01 -.40530977197882E+01 -.43619131030800E-01
 h    10    1 -.23548543470350E+01 0.40530922868255E+01 -.43594564591070E-01
 n    11    7 0.52860567397703E+01 0.11810788000000E-06 -.26776002008390E-01
 o    12    8 0.63771222479361E+01 -.20280728649663E+01 -.23850705954680E-01
 o    13    8 0.63771260273883E+01 0.20280712114559E+01 -.23882831298940E-01
 n    14    7 -.52615573853205E+01 0.11810788000000E-06 -.10505223788478E+00
 h    15    1 -.61955753134867E+01 -.16086254730588E+01 0.27588253543458E+00
 h    16    1 -.61955696443083E+01 0.16086275990006E+01 0.27589009433911E+00
[GTO]
    1 0
 s    6 1.00
 0.13575349682000E+05 0.60645503603591E-03
 0.20352333680000E+04 0.46979088884982E-02
 0.46322562359000E+03 0.24332477647552E-01
 0.13120019598000E+03 0.97399968307759E-01
 0.42853015891000E+02 0.30195584253780E+00
 0.15584185766000E+02 0.66233609137875E+00
 s    2 1.00
 0.62067138508000E+01 0.65595308539952E+00
 0.25764896527000E+01 0.37585633285142E+00
 s    1 1.00
 0.57696339419000E+00 0.10000000000000E+01
 s    1 1.00
 0.22972831358000E+00 0.10000000000000E+01
 s    1 1.00
 0.95164440028000E-01 0.10000000000000E+01
 s    1 1.00
 0.48475401370000E-01 0.10000000000000E+01
 p    4 1.00
 0.34697232244000E+02 0.11327220003114E-01
 0.79582622826000E+01 0.76169659202087E-01
 0.23780826883000E+01 0.30192252202676E+00
 0.81433208183000E+00 0.72785027349547E+00
 p    1 1.00
 0.28887547253000E+00 0.10000000000000E+01
 p    1 1.00
 0.10056823671000E+00 0.10000000000000E+01
 d    1 1.00
 0.10970000000000E+01 0.10000000000000E+01
 d    1 1.00
 0.31800000000000E+00 0.10000000000000E+01
 d    1 1.00
 0.90985336424000E-01 0.10000000000000E+01
 f    1 1.00
 0.76100000000000E+00 0.10000000000000E+01
 
    2 0
 s    6 1.00
 0.13575349682000E+05 0.60645503603591E-03
 0.20352333680000E+04 0.46979088884982E-02
 0.46322562359000E+03 0.24332477647552E-01
 0.13120019598000E+03 0.97399968307759E-01
 0.42853015891000E+02 0.30195584253780E+00
 0.15584185766000E+02 0.66233609137875E+00
 s    2 1.00
 0.62067138508000E+01 0.65595308539952E+00
 0.25764896527000E+01 0.37585633285142E+00
 s    1 1.00
 0.57696339419000E+00 0.10000000000000E+01
 s    1 1.00
 0.22972831358000E+00 0.10000000000000E+01
 s    1 1.00
 0.95164440028000E-01 0.10000000000000E+01
 s    1 1.00
 0.48475401370000E-01 0.10000000000000E+01
 p    4 1.00
 0.34697232244000E+02 0.11327220003114E-01
 0.79582622826000E+01 0.76169659202087E-01
 0.23780826883000E+01 0.30192252202676E+00
 0.81433208183000E+00 0.72785027349547E+00
 p    1 1.00
 0.28887547253000E+00 0.10000000000000E+01
 p    1 1.00
 0.10056823671000E+00 0.10000000000000E+01
 d    1 1.00
 0.10970000000000E+01 0.10000000000000E+01
 d    1 1.00
 0.31800000000000E+00 0.10000000000000E+01
 d    1 1.00
 0.90985336424000E-01 0.10000000000000E+01
 f    1 1.00
 0.76100000000000E+00 0.10000000000000E+01
 
    3 0
 s    6 1.00
 0.13575349682000E+05 0.60645503603591E-03
 0.20352333680000E+04 0.46979088884982E-02
 0.46322562359000E+03 0.24332477647552E-01
 0.13120019598000E+03 0.97399968307759E-01
 0.42853015891000E+02 0.30195584253780E+00
 0.15584185766000E+02 0.66233609137875E+00
 s    2 1.00
 0.62067138508000E+01 0.65595308539952E+00
 0.25764896527000E+01 0.37585633285142E+00
 s    1 1.00
 0.57696339419000E+00 0.10000000000000E+01
 s    1 1.00
 0.22972831358000E+00 0.10000000000000E+01
 s    1 1.00
 0.95164440028000E-01 0.10000000000000E+01
 s    1 1.00
 0.48475401370000E-01 0.10000000000000E+01
 p    4 1.00
 0.34697232244000E+02 0.11327220003114E-01
 0.79582622826000E+01 0.76169659202087E-01
 0.23780826883000E+01 0.30192252202676E+00
 0.81433208183000E+00 0.72785027349547E+00
 p    1 1.00
 0.28887547253000E+00 0.10000000000000E+01
 p    1 1.00
 0.10056823671000E+00 0.10000000000000E+01
 d    1 1.00
 0.10970000000000E+01 0.10000000000000E+01
 d    1 1.00
 0.31800000000000E+00 0.10000000000000E+01
 d    1 1.00
 0.90985336424000E-01 0.10000000000000E+01
 f    1 1.00
 0.76100000000000E+00 0.10000000000000E+01
 
    4 0
 s    6 1.00
 0.13575349682000E+05 0.60645503603591E-03
 0.20352333680000E+04 0.46979088884982E-02
 0.46322562359000E+03 0.24332477647552E-01
 0.13120019598000E+03 0.97399968307759E-01
 0.42853015891000E+02 0.30195584253780E+00
 0.15584185766000E+02 0.66233609137875E+00
 s    2 1.00
 0.62067138508000E+01 0.65595308539952E+00
 0.25764896527000E+01 0.37585633285142E+00
 s    1 1.00
 0.57696339419000E+00 0.10000000000000E+01
 s    1 1.00
 0.22972831358000E+00 0.10000000000000E+01
 s    1 1.00
 0.95164440028000E-01 0.10000000000000E+01
 s    1 1.00
 0.48475401370000E-01 0.10000000000000E+01
 p    4 1.00
 0.34697232244000E+02 0.11327220003114E-01
 0.79582622826000E+01 0.76169659202087E-01
 0.23780826883000E+01 0.30192252202676E+00
 0.81433208183000E+00 0.72785027349547E+00
 p    1 1.00
 0.28887547253000E+00 0.10000000000000E+01
 p    1 1.00
 0.10056823671000E+00 0.10000000000000E+01
 d    1 1.00
 0.10970000000000E+01 0.10000000000000E+01
 d    1 1.00
 0.31800000000000E+00 0.10000000000000E+01
 d    1 1.00
 0.90985336424000E-01 0.10000000000000E+01
 f    1 1.00
 0.76100000000000E+00 0.10000000000000E+01
 
    5 0
 s    6 1.00
 0.13575349682000E+05 0.60645503603591E-03
 0.20352333680000E+04 0.46979088884982E-02
 0.46322562359000E+03 0.24332477647552E-01
 0.13120019598000E+03 0.97399968307759E-01
 0.42853015891000E+02 0.30195584253780E+00
 0.15584185766000E+02 0.66233609137875E+00
 s    2 1.00
 0.62067138508000E+01 0.65595308539952E+00
 0.25764896527000E+01 0.37585633285142E+00
 s    1 1.00
 0.57696339419000E+00 0.10000000000000E+01
 s    1 1.00
 0.22972831358000E+00 0.10000000000000E+01
 s    1 1.00
 0.95164440028000E-01 0.10000000000000E+01
 s    1 1.00
 0.48475401370000E-01 0.10000000000000E+01
 p    4 1.00
 0.34697232244000E+02 0.11327220003114E-01
 0.79582622826000E+01 0.76169659202087E-01
 0.23780826883000E+01 0.30192252202676E+00
 0.81433208183000E+00 0.72785027349547E+00
 p    1 1.00
 0.28887547253000E+00 0.10000000000000E+01
 p    1 1.00
 0.10056823671000E+00 0.10000000000000E+01
 d    1 1.00
 0.10970000000000E+01 0.10000000000000E+01
 d    1 1.00
 0.31800000000000E+00 0.10000000000000E+01
 d    1 1.00
 0.90985336424000E-01 0.10000000000000E+01
 f    1 1.00
 0.76100000000000E+00 0.10000000000000E+01
 
    6 0
 s    6 1.00
 0.13575349682000E+05 0.60645503603591E-03
 0.20352333680000E+04 0.46979088884982E-02
 0.46322562359000E+03 0.24332477647552E-01
 0.13120019598000E+03 0.97399968307759E-01
 0.42853015891000E+02 0.30195584253780E+00
 0.15584185766000E+02 0.66233609137875E+00
 s    2 1.00
 0.62067138508000E+01 0.65595308539952E+00
 0.25764896527000E+01 0.37585633285142E+00
 s    1 1.00
 0.57696339419000E+00 0.10000000000000E+01
 s    1 1.00
 0.22972831358000E+00 0.10000000000000E+01
 s    1 1.00
 0.95164440028000E-01 0.10000000000000E+01
 s    1 1.00
 0.48475401370000E-01 0.10000000000000E+01
 p    4 1.00
 0.34697232244000E+02 0.11327220003114E-01
 0.79582622826000E+01 0.76169659202087E-01
 0.23780826883000E+01 0.30192252202676E+00
 0.81433208183000E+00 0.72785027349547E+00
 p    1 1.00
 0.28887547253000E+00 0.10000000000000E+01
 p    1 1.00
 0.10056823671000E+00 0.10000000000000E+01
 d    1 1.00
 0.10970000000000E+01 0.10000000000000E+01
 d    1 1.00
 0.31800000000000E+00 0.10000000000000E+01
 d    1 1.00
 0.90985336424000E-01 0.10000000000000E+01
 f    1 1.00
 0.76100000000000E+00 0.10000000000000E+01
 
    7 0
 s    3 1.00
 0.34061341000000E+02 0.25439307208879E-01
 0.51235746000000E+01 0.19008594890375E+00
 0.11646626000000E+01 0.85244113011042E+00
 s    1 1.00
 0.32723041000000E+00 0.10000000000000E+01
 s    1 1.00
 0.10307241000000E+00 0.10000000000000E+01
 p    1 1.00
 0.80000000000000E+00 0.10000000000000E+01
 p    1 1.00
 0.95774129632000E-01 0.10000000000000E+01
 
    8 0
 s    3 1.00
 0.34061341000000E+02 0.25439307208879E-01
 0.51235746000000E+01 0.19008594890375E+00
 0.11646626000000E+01 0.85244113011042E+00
 s    1 1.00
 0.32723041000000E+00 0.10000000000000E+01
 s    1 1.00
 0.10307241000000E+00 0.10000000000000E+01
 p    1 1.00
 0.80000000000000E+00 0.10000000000000E+01
 p    1 1.00
 0.95774129632000E-01 0.10000000000000E+01
 
    9 0
 s    3 1.00
 0.34061341000000E+02 0.25439307208879E-01
 0.51235746000000E+01 0.19008594890375E+00
 0.11646626000000E+01 0.85244113011042E+00
 s    1 1.00
 0.32723041000000E+00 0.10000000000000E+01
 s    1 1.00
 0.10307241000000E+00 0.10000000000000E+01
 p    1 1.00
 0.80000000000000E+00 0.10000000000000E+01
 p    1 1.00
 0.95774129632000E-01 0.10000000000000E+01
 
   10 0
 s    3 1.00
 0.34061341000000E+02 0.25439307208879E-01
 0.51235746000000E+01 0.19008594890375E+00
 0.11646626000000E+01 0.85244113011042E+00
 s    1 1.00
 0.32723041000000E+00 0.10000000000000E+01
 s    1 1.00
 0.10307241000000E+00 0.10000000000000E+01
 p    1 1.00
 0.80000000000000E+00 0.10000000000000E+01
 p    1 1.00
 0.95774129632000E-01 0.10000000000000E+01
 
   11 0
 s    6 1.00
 0.19730800647000E+05 0.58626402628763E-03
 0.29578958745000E+04 0.45428820586397E-02
 0.67322133595000E+03 0.23558413450084E-01
 0.19068249494000E+03 0.94709193292923E-01
 0.62295441898000E+02 0.29719784913376E+00
 0.22654161182000E+02 0.66916246895232E+00
 s    2 1.00
 0.89791477428000E+01 0.64596683630063E+00
 0.36863002370000E+01 0.38700574393705E+00
 s    1 1.00
 0.84660076805000E+00 0.10000000000000E+01
 s    1 1.00
 0.33647133771000E+00 0.10000000000000E+01
 s    1 1.00
 0.13647653675000E+00 0.10000000000000E+01
 s    1 1.00
 0.68441605847000E-01 0.10000000000000E+01
 p    4 1.00
 0.49200380510000E+02 0.11448825101764E-01
 0.11346790537000E+02 0.78422337970864E-01
 0.34273972411000E+01 0.30818094738830E+00
 0.11785525134000E+01 0.72027196368413E+00
 p    1 1.00
 0.41642204972000E+00 0.10000000000000E+01
 p    1 1.00
 0.14260826011000E+00 0.10000000000000E+01
 d    1 1.00
 0.16540000000000E+01 0.10000000000000E+01
 d    1 1.00
 0.46900000000000E+00 0.10000000000000E+01
 d    1 1.00
 0.12829642058000E+00 0.10000000000000E+01
 f    1 1.00
 0.10930000000000E+01 0.10000000000000E+01
 
   12 0
 s    6 1.00
 0.27032382631000E+05 0.57227335211155E-03
 0.40523871392000E+04 0.44353233492995E-02
 0.92232722710000E+03 0.23020107706038E-01
 0.26124070989000E+03 0.92822490667928E-01
 0.85354641351000E+02 0.29378500009671E+00
 0.31035035245000E+02 0.67401604501641E+00
 s    2 1.00
 0.12260860728000E+02 0.63839937025506E+00
 0.49987076005000E+01 0.39534587125718E+00
 s    1 1.00
 0.11703108158000E+01 0.10000000000000E+01
 s    1 1.00
 0.46474740994000E+00 0.10000000000000E+01
 s    1 1.00
 0.18504536357000E+00 0.10000000000000E+01
 s    1 1.00
 0.70288026270000E-01 0.10000000000000E+01
 p    4 1.00
 0.63274954801000E+02 0.12018332222616E-01
 0.14627049379000E+02 0.83005421790056E-01
 0.44501223456000E+01 0.31991743925964E+00
 0.15275799647000E+01 0.70715542916104E+00
 p    1 1.00
 0.52935117943000E+00 0.10000000000000E+01
 p    1 1.00
 0.17478421270000E+00 0.10000000000000E+01
 p    1 1.00
 0.51112745706000E-01 0.10000000000000E+01
 d    1 1.00
 0.23140000000000E+01 0.10000000000000E+01
 d    1 1.00
 0.64500000000000E+00 0.10000000000000E+01
 d    1 1.00
 0.14696477366000E+00 0.10000000000000E+01
 f    1 1.00
 0.14280000000000E+01 0.10000000000000E+01
 
   13 0
 s    6 1.00
 0.27032382631000E+05 0.57227335211155E-03
 0.40523871392000E+04 0.44353233492995E-02
 0.92232722710000E+03 0.23020107706038E-01
 0.26124070989000E+03 0.92822490667928E-01
 0.85354641351000E+02 0.29378500009671E+00
 0.31035035245000E+02 0.67401604501641E+00
 s    2 1.00
 0.12260860728000E+02 0.63839937025506E+00
 0.49987076005000E+01 0.39534587125718E+00
 s    1 1.00
 0.11703108158000E+01 0.10000000000000E+01
 s    1 1.00
 0.46474740994000E+00 0.10000000000000E+01
 s    1 1.00
 0.18504536357000E+00 0.10000000000000E+01
 s    1 1.00
 0.70288026270000E-01 0.10000000000000E+01
 p    4 1.00
 0.63274954801000E+02 0.12018332222616E-01
 0.14627049379000E+02 0.83005421790056E-01
 0.44501223456000E+01 0.31991743925964E+00
 0.15275799647000E+01 0.70715542916104E+00
 p    1 1.00
 0.52935117943000E+00 0.10000000000000E+01
 p    1 1.00
 0.17478421270000E+00 0.10000000000000E+01
 p    1 1.00
 0.51112745706000E-01 0.10000000000000E+01
 d    1 1.00
 0.23140000000000E+01 0.10000000000000E+01
 d    1 1.00
 0.64500000000000E+00 0.10000000000000E+01
 d    1 1.00
 0.14696477366000E+00 0.10000000000000E+01
 f    1 1.00
 0.14280000000000E+01 0.10000000000000E+01
 
   14 0
 s    6 1.00
 0.19730800647000E+05 0.58626402628763E-03
 0.29578958745000E+04 0.45428820586397E-02
 0.67322133595000E+03 0.23558413450084E-01
 0.19068249494000E+03 0.94709193292923E-01
 0.62295441898000E+02 0.29719784913376E+00
 0.22654161182000E+02 0.66916246895232E+00
 s    2 1.00
 0.89791477428000E+01 0.64596683630063E+00
 0.36863002370000E+01 0.38700574393705E+00
 s    1 1.00
 0.84660076805000E+00 0.10000000000000E+01
 s    1 1.00
 0.33647133771000E+00 0.10000000000000E+01
 s    1 1.00
 0.13647653675000E+00 0.10000000000000E+01
 s    1 1.00
 0.68441605847000E-01 0.10000000000000E+01
 p    4 1.00
 0.49200380510000E+02 0.11448825101764E-01
 0.11346790537000E+02 0.78422337970864E-01
 0.34273972411000E+01 0.30818094738830E+00
 0.11785525134000E+01 0.72027196368413E+00
 p    1 1.00
 0.41642204972000E+00 0.10000000000000E+01
 p    1 1.00
 0.14260826011000E+00 0.10000000000000E+01
 d    1 1.00
 0.16540000000000E+01 0.10000000000000E+01
 d    1 1.00
 0.46900000000000E+00 0.10000000000000E+01
 d    1 1.00
 0.12829642058000E+00 0.10000000000000E+01
 f    1 1.00
 0.10930000000000E+01 0.10000000000000E+01
 
   15 0
 s    3 1.00
 0.34061341000000E+02 0.25439307208879E-01
 0.51235746000000E+01 0.19008594890375E+00
 0.11646626000000E+01 0.85244113011042E+00
 s    1 1.00
 0.32723041000000E+00 0.10000000000000E+01
 s    1 1.00
 0.10307241000000E+00 0.10000000000000E+01
 p    1 1.00
 0.80000000000000E+00 0.10000000000000E+01
 p    1 1.00
 0.95774129632000E-01 0.10000000000000E+01
 
   16 0
 s    3 1.00
 0.34061341000000E+02 0.25439307208879E-01
 0.51235746000000E+01 0.19008594890375E+00
 0.11646626000000E+01 0.85244113011042E+00
 s    1 1.00
 0.32723041000000E+00 0.10000000000000E+01
 s    1 1.00
 0.10307241000000E+00 0.10000000000000E+01
 p    1 1.00
 0.80000000000000E+00 0.10000000000000E+01
 p    1 1.00
 0.95774129632000E-01 0.10000000000000E+01
 
[MO]
 Sym= X
 Ene= -0.956023
 Spin= Alpha
 Occup= -0.956023
         1   -7.338725E-04
         2   -1.705915E-03
         3   -9.699913E-04
         4    2.748936E-02
         5    2.589936E-01
         6   -3.291541E-02
         7    2.544591E-02
         8   -5.524868E-02
         9   -6.344122E-03
        10    8.294944E-03
        11   -4.697082E-02
        12   -6.216086E-03
        13    4.421895E-02
        14   -9.450543E-02
        15   -1.620804E-03
        16   -2.407456E-03
        17    2.635068E-03
        18   -2.276121E-04
        19   -8.112782E-04
        20    5.956648E-05
        21    1.691791E-04
        22    1.414421E-03
        23    1.257968E-03
        24   -2.672389E-03
        25   -1.332561E-03
        26    9.231874E-05
        27    2.639529E-04
        28    1.548933E-03
        29   -1.134954E-03
        30   -4.139799E-04
        31    1.000083E-02
        32   -2.597112E-04
        33    2.528682E-05
        34   -1.550277E-04
        35   -5.519303E-04
        36    5.587741E-05
        37    1.785526E-04
        38    5.846384E-04
        39   -3.927409E-05
        40    2.943894E-05
        41    1.558538E-04
        42   -3.569332E-05
        43    1.417842E-05
        44    1.034312E-02
        45    2.338552E-02
        46   -3.412599E-02
        47   -6.853716E-02
        48   -2.558575E-01
        49    2.370933E-02
        50   -1.596359E-01
        51   -2.535723E-06
        52   -7.924097E-03
        53   -1.203495E-01
        54   -3.952609E-06
        55   -7.842301E-03
        56    6.786572E-02
        57    3.180451E-05
        58   -2.331600E-03
        59   -5.857165E-03
        60    5.213631E-03
        61    6.435339E-04
        62    7.369466E-08
        63    1.289278E-04
        64   -1.678405E-08
        65   -2.021945E-03
        66    2.068103E-03
        67   -4.615792E-05
        68    7.118778E-07
        69    2.538274E-04
        70   -3.303198E-08
        71    5.130484E-02
        72   -5.312852E-02
        73    1.823675E-03
        74   -5.712475E-06
        75    4.328786E-04
        76   -6.402587E-06
        77   -1.102898E-03
        78   -5.718903E-08
        79    6.871260E-05
        80    7.572744E-04
        81    5.051672E-08
        82   -3.762473E-05
        83    7.224180E-04
        84    2.621042E-08
        85   -5.456290E-05
        86   -5.606347E-09
        87   -7.345946E-04
        88   -1.707567E-03
        89   -9.664831E-04
        90    2.748930E-02
        91    2.591891E-01
        92   -3.293229E-02
        93    2.545327E-02
        94    5.524775E-02
        95   -6.342806E-03
        96    8.300591E-03
        97    4.696798E-02
        98   -6.214295E-03
        99    4.417319E-02
       100    9.451510E-02
       101   -1.611273E-03
       102   -2.407671E-03
       103    2.635341E-03
       104   -2.276700E-04
       105    8.112863E-04
       106    5.955199E-05
       107   -1.691757E-04
       108    1.413547E-03
       109    1.258047E-03
       110   -2.671594E-03
       111    1.332325E-03
       112    9.206508E-05
       113   -2.640909E-04
       114    1.551955E-03
       115   -1.139291E-03
       116   -4.126633E-04
       117   -1.001904E-02
       118   -2.732344E-04
       119   -3.139551E-05
       120   -1.550059E-04
       121    5.519522E-04
       122    5.584033E-05
       123    1.785379E-04
       124   -5.846636E-04
       125   -3.924377E-05
       126    2.942437E-05
       127   -1.558581E-04
       128   -3.567390E-05
       129   -1.416805E-05
       130    1.798008E-03
       131    4.093019E-03
       132   -3.722690E-03
       133   -2.854201E-02
       134   -9.338621E-02
       135    3.236300E-02
       136   -2.940577E-02
       137   -1.887017E-02
       138   -5.517509E-03
       139   -3.729919E-02
       140   -1.558945E-02
       141   -5.433857E-03
       142   -2.447461E-02
       143   -5.094436E-02
       144   -2.706845E-03
       145   -7.011803E-04
       146    5.865860E-04
       147    1.145942E-04
       148    2.048713E-03
       149   -1.133100E-04
       150   -1.012981E-04
       151   -3.050370E-03
       152    1.113540E-03
       153    1.936830E-03
       154    2.932307E-03
       155   -2.183971E-04
       156   -1.759195E-04
       157   -3.843652E-03
       158    5.083008E-03
       159   -1.239356E-03
       160   -2.065762E-02
       161   -2.580129E-04
       162    9.081602E-05
       163   -2.804882E-04
       164   -3.386484E-04
       165    5.115319E-05
       166    1.767355E-04
       167    4.200607E-04
       168   -4.417494E-05
       169    1.995790E-04
       170    3.428377E-05
       171   -2.445426E-05
       172    3.864378E-06
       173    3.313724E-03
       174    7.560882E-03
       175   -1.397434E-02
       176   -5.381741E-03
       177   -4.380087E-02
       178   -3.654575E-02
       179   -1.635251E-02
       180   -1.217541E-06
       181   -4.422479E-03
       182   -9.617342E-03
       183   -1.712610E-06
       184   -4.320692E-03
       185    2.480127E-02
       186   -6.717128E-05
       187   -1.942468E-03
       188   -2.479137E-04
       189    2.177352E-04
       190    3.017850E-05
       191    8.786571E-09
       192   -1.272379E-04
       193   -2.012369E-08
       194    2.880665E-04
       195    4.786651E-04
       196   -7.667316E-04
       197   -2.039245E-07
       198   -3.256391E-04
       199    7.422683E-08
       200   -1.821781E-02
       201    1.791679E-02
       202    3.010217E-04
       203   -2.936070E-06
       204    2.384932E-04
       205    8.807868E-06
       206    2.106333E-05
       207   -3.369700E-08
       208    4.602116E-05
       209   -7.438001E-05
       210    3.102809E-08
       211   -2.485605E-05
       212    4.612059E-05
       213    1.418118E-08
       214   -3.688781E-05
       215   -3.259226E-09
       216    1.797625E-03
       217    4.092149E-03
       218   -3.721119E-03
       219   -2.854394E-02
       220   -9.317434E-02
       221    3.235859E-02
       222   -2.940036E-02
       223    1.886947E-02
       224   -5.518254E-03
       225   -3.729641E-02
       226    1.558756E-02
       227   -5.434401E-03
       228   -2.445933E-02
       229    5.086491E-02
       230   -2.706549E-03
       231   -7.010622E-04
       232    5.864781E-04
       233    1.145841E-04
       234   -2.048764E-03
       235   -1.133815E-04
       236    1.013026E-04
       237   -3.050192E-03
       238    1.113320E-03
       239    1.936872E-03
       240   -2.931912E-03
       241   -2.179382E-04
       242    1.758746E-04
       243   -3.831095E-03
       244    5.072451E-03
       245   -1.241357E-03
       246    2.067066E-02
       247   -2.426476E-04
       248   -8.637740E-05
       249   -2.804748E-04
       250    3.386453E-04
       251    5.115614E-05
       252    1.767254E-04
       253   -4.200664E-04
       254   -4.416407E-05
       255    1.995710E-04
       256   -3.427401E-05
       257   -2.446910E-05
       258   -3.858777E-06
       259   -9.781265E-03
       260   -1.359180E-02
       261   -1.032605E-02
       262    2.763526E-03
       263    1.180311E-03
       264   -2.110465E-04
       265    6.756393E-03
       266   -1.765461E-04
       267    3.771892E-07
       268   -9.778696E-03
       269   -1.358612E-02
       270   -1.035918E-02
       271    2.763175E-03
       272   -1.179800E-03
       273   -2.109358E-04
       274    6.737680E-03
       275    1.648792E-04
       276    5.715992E-07
       277    1.764769E-02
       278    2.841994E-02
       279    2.332972E-02
       280    3.053691E-04
       281    2.492444E-03
       282   -1.762135E-04
       283   -8.501911E-03
       284    3.611903E-03
       285   -3.673385E-06
       286    1.764663E-02
       287    2.841957E-02
       288    2.338084E-02
       289    3.054380E-04
       290   -2.492296E-03
       291   -1.765759E-04
       292   -8.498363E-03
       293   -3.611856E-03
       294    3.194007E-08
       295    2.681996E-03
       296    6.177099E-03
       297   -4.337998E-03
       298   -3.732498E-02
       299   -1.584495E-01
       300    1.490472E-02
       301    1.349862E-01
       302   -4.177505E-06
       303    2.026518E-03
       304    1.252803E-01
       305   -3.165525E-06
       306    1.941663E-03
       307    9.728730E-02
       308   -1.133659E-05
       309    3.920944E-04
       310   -1.174207E-02
       311    1.309366E-02
       312   -1.351590E-03
       313   -7.204816E-07
       314    1.142174E-04
       315   -3.195145E-08
       316   -3.395424E-02
       317    3.492129E-02
       318   -9.670484E-04
       319   -1.452314E-06
       320    3.009221E-04
       321   -4.316531E-08
       322    1.346876E-02
       323   -2.899256E-03
       324   -1.056951E-02
       325    1.070956E-05
       326    2.698004E-04
       327    1.175008E-06
       328    8.738627E-06
       329    1.594335E-07
       330   -1.111101E-05
       331    3.484492E-04
       332   -2.165757E-07
       333   -1.706077E-05
       334   -3.601733E-04
       335    2.673304E-09
       336    3.196775E-05
       337    7.648522E-09
       338    3.386650E-04
       339    7.687263E-04
       340   -2.141285E-03
       341   -1.592858E-02
       342   -1.084873E-02
       343   -1.849045E-02
       344   -3.011992E-01
       345   -4.334131E-02
       346    2.174174E-03
       347   -2.647834E-01
       348   -4.374694E-02
       349    2.028035E-03
       350   -1.979700E-01
       351   -4.231465E-02
       352    1.217414E-03
       353   -1.579544E-02
       354   -8.460345E-03
       355    9.076429E-05
       356    7.156771E-04
       357    1.796624E-04
       358   -8.953395E-04
       359   -2.646717E-03
       360   -1.028983E-05
       361    3.366467E-05
       362    3.292001E-03
       363   -7.579375E-04
       364   -2.534064E-03
       365   -5.900904E-03
       366   -4.389500E-05
       367    1.041565E-04
       368    4.745120E-03
       369   -3.615999E-03
       370   -1.129121E-03
       371   -5.683091E-03
       372   -6.802055E-05
       373    2.957544E-06
       374    3.279834E-04
       375   -3.992625E-04
       376   -5.218598E-06
       377   -6.614900E-04
       378    8.438758E-04
       379   -2.790821E-06
       380    2.214540E-04
       381   -3.082090E-04
       382    9.792305E-06
       383   -6.698584E-06
       384    3.384885E-04
       385    7.683114E-04
       386   -2.140489E-03
       387   -1.592695E-02
       388   -1.085333E-02
       389   -1.850755E-02
       390   -3.012363E-01
       391    4.337685E-02
       392    2.178954E-03
       393   -2.648157E-01
       394    4.377839E-02
       395    2.032251E-03
       396   -1.980134E-01
       397    4.233783E-02
       398    1.220421E-03
       399   -1.579765E-02
       400    8.463364E-03
       401    8.973044E-05
       402    7.159420E-04
       403    1.792352E-04
       404   -8.951771E-04
       405    2.646660E-03
       406   -1.033919E-05
       407   -3.374519E-05
       408    3.293019E-03
       409   -7.592465E-04
       410   -2.533772E-03
       411    5.901149E-03
       412   -4.405068E-05
       413   -1.043492E-04
       414    4.746735E-03
       415   -3.618590E-03
       416   -1.128145E-03
       417    5.689070E-03
       418   -6.567849E-05
       419   -4.618273E-06
       420    3.279126E-04
       421    3.993876E-04
       422   -5.256526E-06
       423   -6.613953E-04
       424   -8.439962E-04
       425   -2.745246E-06
       426    2.214544E-04
       427    3.081614E-04
       428    9.797616E-06
       429    6.721284E-06
       430    5.087249E-04
       431    1.209248E-03
       432   -1.692169E-03
       433   -6.107375E-03
       434    2.412473E-02
       435    2.371178E-02
       436    6.283905E-03
       437    8.699038E-07
       438   -3.758907E-04
       439    4.817808E-03
       440    7.072596E-07
       441   -2.385593E-04
       442    3.816410E-03
       443    4.200935E-06
       444    9.262584E-04
       445    8.504385E-05
       446   -7.489947E-05
       447   -1.014438E-05
       448   -4.016213E-08
       449    7.947060E-07
       450    9.964765E-09
       451    1.204835E-04
       452    1.530269E-04
       453   -2.735104E-04
       454   -9.547572E-08
       455   -5.229565E-05
       456    7.481547E-09
       457   -1.003624E-03
       458    5.798402E-04
       459    4.237833E-04
       460    5.205982E-07
       461    2.234845E-04
       462   -3.233595E-07
       463    1.659188E-05
       464    6.526688E-09
       465    8.632320E-06
       466    2.330535E-05
       467   -6.007451E-09
       468   -1.394540E-05
       469   -4.556569E-05
       470   -2.749019E-09
       471    2.363930E-06
       472   -7.004926E-10
       473   -1.527545E-03
       474   -2.565030E-03
       475    2.458008E-03
       476    5.425110E-05
       477   -5.071889E-04
       478    1.228075E-04
       479    1.850281E-03
       480    1.452450E-03
       481    6.186045E-04
       482   -1.526670E-03
       483   -2.564026E-03
       484    2.453994E-03
       485    5.432121E-05
       486    5.071056E-04
       487    1.227966E-04
       488    1.848502E-03
       489   -1.452376E-03
       490    6.192404E-04
 Sym= X
 Ene= 0.956023
 Spin= Alpha
 Occup= 0.956023
         1    1.206276E-05
         2    4.814021E-05
         3   -6.443738E-06
         4   -2.429143E-03
         5    3.202234E-01
         6    5.279079E-02
         7    2.708860E-04
         8    1.621190E-04
         9   -1.048004E-01
        10    7.477374E-03
        11    3.073574E-04
        12   -1.113747E-01
        13   -1.934390E-01
        14    1.282728E-01
        15   -4.090940E-02
        16   -7.400852E-05
        17    2.400721E-05
        18    5.000131E-05
        19    1.051267E-05
        20    7.608113E-04
        21    3.108855E-04
        22   -5.642925E-04
        23    5.170514E-04
        24    4.724115E-05
        25   -5.707407E-04
        26   -2.310670E-03
        27   -2.309877E-03
        28    3.932834E-02
        29   -4.970200E-02
        30    1.037366E-02
        31   -2.037130E-02
        32   -5.080211E-02
        33   -3.354895E-02
        34    1.796987E-05
        35    1.794319E-05
        36    1.304380E-04
        37    1.197696E-05
        38   -9.506168E-06
        39    1.479080E-04
        40   -3.608607E-05
        41   -1.456715E-05
        42   -3.229089E-04
        43   -2.402546E-04
        44    5.125312E-05
        45    1.159815E-04
        46    5.285967E-05
        47   -1.183768E-02
        48    4.316699E-01
        49    1.103235E-02
        50   -4.549623E-05
        51    7.067381E-07
        52    3.396937E-02
        53    3.965085E-03
        54    1.162428E-05
        55    2.926843E-02
        56   -1.342231E-01
        57   -5.304337E-04
        58    1.258025E-02
        59   -9.171944E-05
        60   -8.791052E-06
        61    1.005105E-04
        62    1.983065E-07