[Molden Format]
[Title]
ADC(2) - opt by CAM-B3LYP gaussian                                              
[Atoms] AU
 c     1    6 0.12592752280008E+01 0.22800132789445E+01 -.35345910021030E-01
 c     2    6 0.25511638220345E+01 0.20078340100000E-05 -.33671612667290E-01
 c     3    6 0.12592790074531E+01 -.22800111530026E+01 -.35357248377820E-01
 c     4    6 -.13364450292264E+01 -.22798221803893E+01 -.38530098554940E-01
 c     5    6 -.26857699593430E+01 -.17716182500000E-05 -.39025206801750E-01
 c     6    6 -.13364469189525E+01 0.22798205268790E+01 -.38516870472010E-01
 h     7    1 0.23055183220207E+01 0.40307538342087E+01 -.32265656424420E-01
 h     8    1 0.23055239911991E+01 -.40307498185407E+01 -.32284553685750E-01
 h     9    1 -.23548467881305E+01 -.40530977197882E+01 -.43619131030800E-01
 h    10    1 -.23548543470350E+01 0.40530922868255E+01 -.43594564591070E-01
 n    11    7 0.52860567397703E+01 0.11810788000000E-06 -.26776002008390E-01
 o    12    8 0.63771222479361E+01 -.20280728649663E+01 -.23850705954680E-01
 o    13    8 0.63771260273883E+01 0.20280712114559E+01 -.23882831298940E-01
 n    14    7 -.52615573853205E+01 0.11810788000000E-06 -.10505223788478E+00
 h    15    1 -.61955753134867E+01 -.16086254730588E+01 0.27588253543458E+00
 h    16    1 -.61955696443083E+01 0.16086275990006E+01 0.27589009433911E+00
[GTO]
    1 0
 s    6 1.00
 0.13575349682000E+05 0.60645503603591E-03
 0.20352333680000E+04 0.46979088884982E-02
 0.46322562359000E+03 0.24332477647552E-01
 0.13120019598000E+03 0.97399968307759E-01
 0.42853015891000E+02 0.30195584253780E+00
 0.15584185766000E+02 0.66233609137875E+00
 s    2 1.00
 0.62067138508000E+01 0.65595308539952E+00
 0.25764896527000E+01 0.37585633285142E+00
 s    1 1.00
 0.57696339419000E+00 0.10000000000000E+01
 s    1 1.00
 0.22972831358000E+00 0.10000000000000E+01
 s    1 1.00
 0.95164440028000E-01 0.10000000000000E+01
 s    1 1.00
 0.48475401370000E-01 0.10000000000000E+01
 p    4 1.00
 0.34697232244000E+02 0.11327220003114E-01
 0.79582622826000E+01 0.76169659202087E-01
 0.23780826883000E+01 0.30192252202676E+00
 0.81433208183000E+00 0.72785027349547E+00
 p    1 1.00
 0.28887547253000E+00 0.10000000000000E+01
 p    1 1.00
 0.10056823671000E+00 0.10000000000000E+01
 d    1 1.00
 0.10970000000000E+01 0.10000000000000E+01
 d    1 1.00
 0.31800000000000E+00 0.10000000000000E+01
 d    1 1.00
 0.90985336424000E-01 0.10000000000000E+01
 f    1 1.00
 0.76100000000000E+00 0.10000000000000E+01
 
    2 0
 s    6 1.00
 0.13575349682000E+05 0.60645503603591E-03
 0.20352333680000E+04 0.46979088884982E-02
 0.46322562359000E+03 0.24332477647552E-01
 0.13120019598000E+03 0.97399968307759E-01
 0.42853015891000E+02 0.30195584253780E+00
 0.15584185766000E+02 0.66233609137875E+00
 s    2 1.00
 0.62067138508000E+01 0.65595308539952E+00
 0.25764896527000E+01 0.37585633285142E+00
 s    1 1.00
 0.57696339419000E+00 0.10000000000000E+01
 s    1 1.00
 0.22972831358000E+00 0.10000000000000E+01
 s    1 1.00
 0.95164440028000E-01 0.10000000000000E+01
 s    1 1.00
 0.48475401370000E-01 0.10000000000000E+01
 p    4 1.00
 0.34697232244000E+02 0.11327220003114E-01
 0.79582622826000E+01 0.76169659202087E-01
 0.23780826883000E+01 0.30192252202676E+00
 0.81433208183000E+00 0.72785027349547E+00
 p    1 1.00
 0.28887547253000E+00 0.10000000000000E+01
 p    1 1.00
 0.10056823671000E+00 0.10000000000000E+01
 d    1 1.00
 0.10970000000000E+01 0.10000000000000E+01
 d    1 1.00
 0.31800000000000E+00 0.10000000000000E+01
 d    1 1.00
 0.90985336424000E-01 0.10000000000000E+01
 f    1 1.00
 0.76100000000000E+00 0.10000000000000E+01
 
    3 0
 s    6 1.00
 0.13575349682000E+05 0.60645503603591E-03
 0.20352333680000E+04 0.46979088884982E-02
 0.46322562359000E+03 0.24332477647552E-01
 0.13120019598000E+03 0.97399968307759E-01
 0.42853015891000E+02 0.30195584253780E+00
 0.15584185766000E+02 0.66233609137875E+00
 s    2 1.00
 0.62067138508000E+01 0.65595308539952E+00
 0.25764896527000E+01 0.37585633285142E+00
 s    1 1.00
 0.57696339419000E+00 0.10000000000000E+01
 s    1 1.00
 0.22972831358000E+00 0.10000000000000E+01
 s    1 1.00
 0.95164440028000E-01 0.10000000000000E+01
 s    1 1.00
 0.48475401370000E-01 0.10000000000000E+01
 p    4 1.00
 0.34697232244000E+02 0.11327220003114E-01
 0.79582622826000E+01 0.76169659202087E-01
 0.23780826883000E+01 0.30192252202676E+00
 0.81433208183000E+00 0.72785027349547E+00
 p    1 1.00
 0.28887547253000E+00 0.10000000000000E+01
 p    1 1.00
 0.10056823671000E+00 0.10000000000000E+01
 d    1 1.00
 0.10970000000000E+01 0.10000000000000E+01
 d    1 1.00
 0.31800000000000E+00 0.10000000000000E+01
 d    1 1.00
 0.90985336424000E-01 0.10000000000000E+01
 f    1 1.00
 0.76100000000000E+00 0.10000000000000E+01
 
    4 0
 s    6 1.00
 0.13575349682000E+05 0.60645503603591E-03
 0.20352333680000E+04 0.46979088884982E-02
 0.46322562359000E+03 0.24332477647552E-01
 0.13120019598000E+03 0.97399968307759E-01
 0.42853015891000E+02 0.30195584253780E+00
 0.15584185766000E+02 0.66233609137875E+00
 s    2 1.00
 0.62067138508000E+01 0.65595308539952E+00
 0.25764896527000E+01 0.37585633285142E+00
 s    1 1.00
 0.57696339419000E+00 0.10000000000000E+01
 s    1 1.00
 0.22972831358000E+00 0.10000000000000E+01
 s    1 1.00
 0.95164440028000E-01 0.10000000000000E+01
 s    1 1.00
 0.48475401370000E-01 0.10000000000000E+01
 p    4 1.00
 0.34697232244000E+02 0.11327220003114E-01
 0.79582622826000E+01 0.76169659202087E-01
 0.23780826883000E+01 0.30192252202676E+00
 0.81433208183000E+00 0.72785027349547E+00
 p    1 1.00
 0.28887547253000E+00 0.10000000000000E+01
 p    1 1.00
 0.10056823671000E+00 0.10000000000000E+01
 d    1 1.00
 0.10970000000000E+01 0.10000000000000E+01
 d    1 1.00
 0.31800000000000E+00 0.10000000000000E+01
 d    1 1.00
 0.90985336424000E-01 0.10000000000000E+01
 f    1 1.00
 0.76100000000000E+00 0.10000000000000E+01
 
    5 0
 s    6 1.00
 0.13575349682000E+05 0.60645503603591E-03
 0.20352333680000E+04 0.46979088884982E-02
 0.46322562359000E+03 0.24332477647552E-01
 0.13120019598000E+03 0.97399968307759E-01
 0.42853015891000E+02 0.30195584253780E+00
 0.15584185766000E+02 0.66233609137875E+00
 s    2 1.00
 0.62067138508000E+01 0.65595308539952E+00
 0.25764896527000E+01 0.37585633285142E+00
 s    1 1.00
 0.57696339419000E+00 0.10000000000000E+01
 s    1 1.00
 0.22972831358000E+00 0.10000000000000E+01
 s    1 1.00
 0.95164440028000E-01 0.10000000000000E+01
 s    1 1.00
 0.48475401370000E-01 0.10000000000000E+01
 p    4 1.00
 0.34697232244000E+02 0.11327220003114E-01
 0.79582622826000E+01 0.76169659202087E-01
 0.23780826883000E+01 0.30192252202676E+00
 0.81433208183000E+00 0.72785027349547E+00
 p    1 1.00
 0.28887547253000E+00 0.10000000000000E+01
 p    1 1.00
 0.10056823671000E+00 0.10000000000000E+01
 d    1 1.00
 0.10970000000000E+01 0.10000000000000E+01
 d    1 1.00
 0.31800000000000E+00 0.10000000000000E+01
 d    1 1.00
 0.90985336424000E-01 0.10000000000000E+01
 f    1 1.00
 0.76100000000000E+00 0.10000000000000E+01
 
    6 0
 s    6 1.00
 0.13575349682000E+05 0.60645503603591E-03
 0.20352333680000E+04 0.46979088884982E-02
 0.46322562359000E+03 0.24332477647552E-01
 0.13120019598000E+03 0.97399968307759E-01
 0.42853015891000E+02 0.30195584253780E+00
 0.15584185766000E+02 0.66233609137875E+00
 s    2 1.00
 0.62067138508000E+01 0.65595308539952E+00
 0.25764896527000E+01 0.37585633285142E+00
 s    1 1.00
 0.57696339419000E+00 0.10000000000000E+01
 s    1 1.00
 0.22972831358000E+00 0.10000000000000E+01
 s    1 1.00
 0.95164440028000E-01 0.10000000000000E+01
 s    1 1.00
 0.48475401370000E-01 0.10000000000000E+01
 p    4 1.00
 0.34697232244000E+02 0.11327220003114E-01
 0.79582622826000E+01 0.76169659202087E-01
 0.23780826883000E+01 0.30192252202676E+00
 0.81433208183000E+00 0.72785027349547E+00
 p    1 1.00
 0.28887547253000E+00 0.10000000000000E+01
 p    1 1.00
 0.10056823671000E+00 0.10000000000000E+01
 d    1 1.00
 0.10970000000000E+01 0.10000000000000E+01
 d    1 1.00
 0.31800000000000E+00 0.10000000000000E+01
 d    1 1.00
 0.90985336424000E-01 0.10000000000000E+01
 f    1 1.00
 0.76100000000000E+00 0.10000000000000E+01
 
    7 0
 s    3 1.00
 0.34061341000000E+02 0.25439307208879E-01
 0.51235746000000E+01 0.19008594890375E+00
 0.11646626000000E+01 0.85244113011042E+00
 s    1 1.00
 0.32723041000000E+00 0.10000000000000E+01
 s    1 1.00
 0.10307241000000E+00 0.10000000000000E+01
 p    1 1.00
 0.80000000000000E+00 0.10000000000000E+01
 p    1 1.00
 0.95774129632000E-01 0.10000000000000E+01
 
    8 0
 s    3 1.00
 0.34061341000000E+02 0.25439307208879E-01
 0.51235746000000E+01 0.19008594890375E+00
 0.11646626000000E+01 0.85244113011042E+00
 s    1 1.00
 0.32723041000000E+00 0.10000000000000E+01
 s    1 1.00
 0.10307241000000E+00 0.10000000000000E+01
 p    1 1.00
 0.80000000000000E+00 0.10000000000000E+01
 p    1 1.00
 0.95774129632000E-01 0.10000000000000E+01
 
    9 0
 s    3 1.00
 0.34061341000000E+02 0.25439307208879E-01
 0.51235746000000E+01 0.19008594890375E+00
 0.11646626000000E+01 0.85244113011042E+00
 s    1 1.00
 0.32723041000000E+00 0.10000000000000E+01
 s    1 1.00
 0.10307241000000E+00 0.10000000000000E+01
 p    1 1.00
 0.80000000000000E+00 0.10000000000000E+01
 p    1 1.00
 0.95774129632000E-01 0.10000000000000E+01
 
   10 0
 s    3 1.00
 0.34061341000000E+02 0.25439307208879E-01
 0.51235746000000E+01 0.19008594890375E+00
 0.11646626000000E+01 0.85244113011042E+00
 s    1 1.00
 0.32723041000000E+00 0.10000000000000E+01
 s    1 1.00
 0.10307241000000E+00 0.10000000000000E+01
 p    1 1.00
 0.80000000000000E+00 0.10000000000000E+01
 p    1 1.00
 0.95774129632000E-01 0.10000000000000E+01
 
   11 0
 s    6 1.00
 0.19730800647000E+05 0.58626402628763E-03
 0.29578958745000E+04 0.45428820586397E-02
 0.67322133595000E+03 0.23558413450084E-01
 0.19068249494000E+03 0.94709193292923E-01
 0.62295441898000E+02 0.29719784913376E+00
 0.22654161182000E+02 0.66916246895232E+00
 s    2 1.00
 0.89791477428000E+01 0.64596683630063E+00
 0.36863002370000E+01 0.38700574393705E+00
 s    1 1.00
 0.84660076805000E+00 0.10000000000000E+01
 s    1 1.00
 0.33647133771000E+00 0.10000000000000E+01
 s    1 1.00
 0.13647653675000E+00 0.10000000000000E+01
 s    1 1.00
 0.68441605847000E-01 0.10000000000000E+01
 p    4 1.00
 0.49200380510000E+02 0.11448825101764E-01
 0.11346790537000E+02 0.78422337970864E-01
 0.34273972411000E+01 0.30818094738830E+00
 0.11785525134000E+01 0.72027196368413E+00
 p    1 1.00
 0.41642204972000E+00 0.10000000000000E+01
 p    1 1.00
 0.14260826011000E+00 0.10000000000000E+01
 d    1 1.00
 0.16540000000000E+01 0.10000000000000E+01
 d    1 1.00
 0.46900000000000E+00 0.10000000000000E+01
 d    1 1.00
 0.12829642058000E+00 0.10000000000000E+01
 f    1 1.00
 0.10930000000000E+01 0.10000000000000E+01
 
   12 0
 s    6 1.00
 0.27032382631000E+05 0.57227335211155E-03
 0.40523871392000E+04 0.44353233492995E-02
 0.92232722710000E+03 0.23020107706038E-01
 0.26124070989000E+03 0.92822490667928E-01
 0.85354641351000E+02 0.29378500009671E+00
 0.31035035245000E+02 0.67401604501641E+00
 s    2 1.00
 0.12260860728000E+02 0.63839937025506E+00
 0.49987076005000E+01 0.39534587125718E+00
 s    1 1.00
 0.11703108158000E+01 0.10000000000000E+01
 s    1 1.00
 0.46474740994000E+00 0.10000000000000E+01
 s    1 1.00
 0.18504536357000E+00 0.10000000000000E+01
 s    1 1.00
 0.70288026270000E-01 0.10000000000000E+01
 p    4 1.00
 0.63274954801000E+02 0.12018332222616E-01
 0.14627049379000E+02 0.83005421790056E-01
 0.44501223456000E+01 0.31991743925964E+00
 0.15275799647000E+01 0.70715542916104E+00
 p    1 1.00
 0.52935117943000E+00 0.10000000000000E+01
 p    1 1.00
 0.17478421270000E+00 0.10000000000000E+01
 p    1 1.00
 0.51112745706000E-01 0.10000000000000E+01
 d    1 1.00
 0.23140000000000E+01 0.10000000000000E+01
 d    1 1.00
 0.64500000000000E+00 0.10000000000000E+01
 d    1 1.00
 0.14696477366000E+00 0.10000000000000E+01
 f    1 1.00
 0.14280000000000E+01 0.10000000000000E+01
 
   13 0
 s    6 1.00
 0.27032382631000E+05 0.57227335211155E-03
 0.40523871392000E+04 0.44353233492995E-02
 0.92232722710000E+03 0.23020107706038E-01
 0.26124070989000E+03 0.92822490667928E-01
 0.85354641351000E+02 0.29378500009671E+00
 0.31035035245000E+02 0.67401604501641E+00
 s    2 1.00
 0.12260860728000E+02 0.63839937025506E+00
 0.49987076005000E+01 0.39534587125718E+00
 s    1 1.00
 0.11703108158000E+01 0.10000000000000E+01
 s    1 1.00
 0.46474740994000E+00 0.10000000000000E+01
 s    1 1.00
 0.18504536357000E+00 0.10000000000000E+01
 s    1 1.00
 0.70288026270000E-01 0.10000000000000E+01
 p    4 1.00
 0.63274954801000E+02 0.12018332222616E-01
 0.14627049379000E+02 0.83005421790056E-01
 0.44501223456000E+01 0.31991743925964E+00
 0.15275799647000E+01 0.70715542916104E+00
 p    1 1.00
 0.52935117943000E+00 0.10000000000000E+01
 p    1 1.00
 0.17478421270000E+00 0.10000000000000E+01
 p    1 1.00
 0.51112745706000E-01 0.10000000000000E+01
 d    1 1.00
 0.23140000000000E+01 0.10000000000000E+01
 d    1 1.00
 0.64500000000000E+00 0.10000000000000E+01
 d    1 1.00
 0.14696477366000E+00 0.10000000000000E+01
 f    1 1.00
 0.14280000000000E+01 0.10000000000000E+01
 
   14 0
 s    6 1.00
 0.19730800647000E+05 0.58626402628763E-03
 0.29578958745000E+04 0.45428820586397E-02
 0.67322133595000E+03 0.23558413450084E-01
 0.19068249494000E+03 0.94709193292923E-01
 0.62295441898000E+02 0.29719784913376E+00
 0.22654161182000E+02 0.66916246895232E+00
 s    2 1.00
 0.89791477428000E+01 0.64596683630063E+00
 0.36863002370000E+01 0.38700574393705E+00
 s    1 1.00
 0.84660076805000E+00 0.10000000000000E+01
 s    1 1.00
 0.33647133771000E+00 0.10000000000000E+01
 s    1 1.00
 0.13647653675000E+00 0.10000000000000E+01
 s    1 1.00
 0.68441605847000E-01 0.10000000000000E+01
 p    4 1.00
 0.49200380510000E+02 0.11448825101764E-01
 0.11346790537000E+02 0.78422337970864E-01
 0.34273972411000E+01 0.30818094738830E+00
 0.11785525134000E+01 0.72027196368413E+00
 p    1 1.00
 0.41642204972000E+00 0.10000000000000E+01
 p    1 1.00
 0.14260826011000E+00 0.10000000000000E+01
 d    1 1.00
 0.16540000000000E+01 0.10000000000000E+01
 d    1 1.00
 0.46900000000000E+00 0.10000000000000E+01
 d    1 1.00
 0.12829642058000E+00 0.10000000000000E+01
 f    1 1.00
 0.10930000000000E+01 0.10000000000000E+01
 
   15 0
 s    3 1.00
 0.34061341000000E+02 0.25439307208879E-01
 0.51235746000000E+01 0.19008594890375E+00
 0.11646626000000E+01 0.85244113011042E+00
 s    1 1.00
 0.32723041000000E+00 0.10000000000000E+01
 s    1 1.00
 0.10307241000000E+00 0.10000000000000E+01
 p    1 1.00
 0.80000000000000E+00 0.10000000000000E+01
 p    1 1.00
 0.95774129632000E-01 0.10000000000000E+01
 
   16 0
 s    3 1.00
 0.34061341000000E+02 0.25439307208879E-01
 0.51235746000000E+01 0.19008594890375E+00
 0.11646626000000E+01 0.85244113011042E+00
 s    1 1.00
 0.32723041000000E+00 0.10000000000000E+01
 s    1 1.00
 0.10307241000000E+00 0.10000000000000E+01
 p    1 1.00
 0.80000000000000E+00 0.10000000000000E+01
 p    1 1.00
 0.95774129632000E-01 0.10000000000000E+01
 
[MO]
 Sym= X
 Ene= -0.251842
 Spin= Alpha
 Occup= -0.251842
         1    4.015902E-05
         2    9.224180E-05
         3   -2.528173E-04
         4    4.913152E-04
         5    7.079630E-03
         6    7.369337E-04
         7   -1.267866E-04
         8   -1.910352E-04
         9    1.883192E-01
        10   -1.078642E-03
        11    1.226762E-04
        12    1.890935E-01
        13    5.087463E-03
        14   -5.642322E-03
        15    1.108884E-01
        16    9.640271E-06
        17   -4.395727E-06
        18   -5.244544E-06
        19   -1.573898E-06
        20   -4.955023E-03
        21   -5.582030E-04
        22    2.050986E-04
        23   -1.472107E-04
        24   -5.788790E-05
        25   -5.295306E-06
        26   -9.657761E-03
        27    4.436109E-04
        28   -9.102509E-04
        29    9.468049E-04
        30   -3.655402E-05
        31   -4.768140E-04
        32   -4.369586E-03
        33    1.272515E-03
        34   -7.342028E-06
        35   -5.088400E-07
        36   -1.179646E-03
        37    1.816332E-06
        38    2.319923E-07
        39    1.423530E-03
        40    8.034032E-06
        41    4.506883E-07
        42    1.591310E-04
        43    3.302956E-06
        44   -1.315303E-09
        45   -8.881177E-08
        46    5.302434E-06
        47   -2.250380E-05
        48   -1.477203E-03
        49   -1.024563E-04
        50   -1.047055E-06
        51    1.172887E-04
        52    5.933687E-06
        53    1.208421E-05
        54    5.116548E-04
        55    3.237915E-06
        56    6.170915E-04
        57   -9.941149E-03
        58    1.072577E-05
        59    4.620705E-08
        60   -1.342679E-07
        61    8.806090E-08
        62   -1.068288E-05
        63   -7.022102E-08
        64    7.118308E-03
        65    1.137950E-06
        66   -4.865004E-06
        67    3.727054E-06
        68   -1.690047E-04
        69    7.483194E-07
        70    1.619094E-02
        71   -3.620059E-05
        72    4.140285E-06
        73    3.206031E-05
        74    1.229138E-03
        75    8.210245E-08
        76    3.233576E-03
        77   -5.079931E-08
        78    7.361677E-07
        79   -1.793064E-09
        80    1.348416E-07
        81    2.336601E-06
        82   -1.191738E-09
        83   -6.668719E-08
        84   -3.324274E-06
        85    3.597385E-09
        86   -1.027565E-03
        87   -3.970267E-05
        88   -9.114712E-05
        89    2.400864E-04
        90   -4.416018E-04
        91   -4.276244E-03
        92   -5.859783E-04
        93    1.258959E-04
        94   -1.884969E-04
        95   -1.883164E-01
        96    1.040003E-03
        97    1.491540E-04
        98   -1.890896E-01
        99   -5.856667E-03
       100   -4.412852E-03
       101   -1.108543E-01
       102   -9.624728E-06
       103    4.284562E-06
       104    5.340166E-06
       105   -1.357992E-06
       106    4.955559E-03
       107   -5.580238E-04
       108   -1.937180E-04
       109    1.441023E-04
       110    4.961566E-05
       111    1.351270E-06
       112    9.658752E-03
       113    4.451304E-04
       114    8.982349E-04
       115   -8.812994E-04
       116   -1.693552E-05
       117   -5.473028E-04
       118    4.361768E-03
       119    1.273298E-03
       120    6.958961E-06
       121   -3.827034E-07
       122    1.179657E-03
       123   -1.535837E-06
       124    3.164064E-07
       125   -1.423629E-03
       126   -7.800589E-06
       127    1.970440E-07
       128   -1.590470E-04
       129    3.392297E-06
       130    8.369816E-06
       131    2.166254E-05
       132   -1.996335E-04
       133    1.589653E-03
       134    1.257975E-02
       135    3.923136E-04
       136    2.986891E-04
       137    1.042898E-04
       138   -2.015728E-01
       139    8.468243E-04
       140    3.145614E-04
       141   -2.044413E-01
       142   -9.240586E-03
       143    8.714475E-03
       144   -1.321092E-01
       145    2.203303E-05
       146    7.361361E-06
       147   -2.939439E-05
       148   -8.119243E-06
       149   -4.591907E-03
       150   -4.827929E-04
       151    2.873080E-04
       152   -8.989618E-05
       153   -1.974119E-04
       154   -1.221539E-04
       155   -8.071807E-03
       156   -4.583606E-04
       157    8.976917E-05
       158    2.918044E-04
       159   -3.815735E-04
       160   -1.714086E-03
       161    3.663990E-03
       162   -3.271448E-03
       163    9.500987E-06
       164    1.588503E-06
       165    1.324912E-03
       166   -6.346696E-06
       167    1.939320E-06
       168   -1.466209E-03
       169   -6.400217E-06
       170   -4.070521E-06
       171   -3.113474E-04
       172    4.616226E-05
       173   -1.363352E-07
       174   -2.185103E-07
       175   -5.206993E-06
       176    1.475452E-05
       177    1.830714E-03
       178    1.361027E-04
       179   -8.155178E-07
       180   -2.696247E-04
       181   -4.811830E-06
       182    1.475334E-05
       183   -1.312952E-04
       184   -2.638469E-06
       185    6.853751E-04
       186    2.377441E-02
       187   -8.500108E-06
       188   -2.016095E-07
       189    5.621630E-08
       190    1.453932E-07
       191    2.559858E-05
       192   -6.018975E-07
       193    7.631456E-03
       194   -4.099608E-07
       195    6.017911E-06
       196   -5.607950E-06
       197    9.165617E-05
       198   -4.632737E-07
       199    1.606133E-02
       200    3.120089E-05
       201    1.202215E-05
       202   -4.322304E-05
       203    1.354400E-03
       204    6.327388E-07
       205   -7.798813E-03
       206   -5.587214E-08
       207    6.165545E-06
       208   -5.716663E-09
       209    1.992145E-07
       210   -7.625068E-06
       211    7.874800E-08
       212   -1.242541E-07
       213   -6.468779E-07
       214   -7.107829E-08
       215    1.190017E-03
       216   -8.844533E-06
       217   -2.280985E-05
       218    2.140501E-04
       219   -1.648417E-03
       220   -1.571943E-02
       221   -5.585553E-04
       222   -3.006916E-04
       223    1.055995E-04
       224    2.015583E-01
       225   -8.827511E-04
       226    3.437993E-04
       227    2.044262E-01
       228    8.592431E-03
       229    1.004357E-02
       230    1.320608E-01
       231   -2.208671E-05
       232   -7.108358E-06
       233    2.919507E-05
       234   -8.414021E-06
       235    4.592138E-03
       236   -4.825929E-04
       237   -2.986616E-04
       238    9.148401E-05
       239    2.071776E-04
       240   -1.289659E-04
       241    8.072048E-03
       242   -4.568005E-04
       243   -7.856327E-05
       244   -3.589786E-04
       245    4.375419E-04
       246   -1.647424E-03
       247   -3.671454E-03
       248   -3.271799E-03
       249   -9.890864E-06
       250    1.754105E-06
       251   -1.324841E-03
       252    6.688043E-06
       253    1.996319E-06
       254    1.466225E-03
       255    6.581944E-06
       256   -4.349698E-06
       257    3.112365E-04
       258    4.609550E-05
       259   -4.417611E-05
       260   -5.301506E-05
       261    7.935255E-04
       262   -1.289263E-05
       263    2.574767E-06
       264    7.733819E-03
       265   -8.315274E-05
       266   -2.498917E-04
       267    6.906590E-03
       268    4.195052E-05
       269    6.162756E-05
       270   -4.214543E-04
       271    1.254217E-05
       272    3.561371E-06
       273   -7.733654E-03
       274    4.245918E-05
       275   -1.492679E-04
       276   -6.906813E-03
       277    6.147356E-05
       278    1.940438E-04
       279    3.023973E-03
       280    3.934977E-05
       281    2.729118E-05
       282   -8.766264E-03
       283    4.038969E-04
       284    8.891961E-05
       285   -9.857132E-03
       286   -5.876439E-05
       287   -1.976343E-04
       288   -3.398992E-03
       289   -3.973271E-05
       290    2.798311E-05
       291    8.765583E-03
       292   -4.530751E-04
       293    1.941461E-04
       294    9.858298E-03
       295   -2.226150E-08
       296   -7.586030E-08
       297    3.176998E-07
       298   -3.513594E-06
       299   -1.036882E-05
       300    6.056814E-05
       301   -1.971940E-07
       302   -1.343931E-05
       303   -3.505990E-07
       304    1.744015E-06
       305    2.108073E-05
       306    3.122945E-08
       307    3.480627E-06
       308    6.590735E-04
       309   -1.404949E-06
       310   -3.411443E-08
       311    6.580015E-09
       312    2.753441E-08
       313    1.745683E-06
       314   -1.088980E-07
       315   -7.281707E-04
       316   -2.507792E-07
       317    5.079593E-07
       318   -2.571801E-07
       319   -1.582236E-05
       320   -3.215012E-07
       321   -1.774250E-03
       322    3.184341E-07
       323    5.704026E-06
       324   -6.022460E-06
       325   -1.887098E-04
       326    1.911597E-06
       327   -1.987192E-03
       328   -5.006428E-09
       329   -9.803305E-07
       330    4.167350E-09
       331    4.608397E-09
       332    2.742202E-06
       333    1.422370E-08
       334    2.108431E-09
       335   -1.426950E-06
       336   -1.981479E-08
       337   -2.856652E-04
       338   -8.733683E-07
       339   -2.330719E-06
       340    6.687383E-06
       341   -2.542225E-05
       342    1.761960E-04
       343   -2.083809E-05
       344   -1.203961E-04
       345   -1.057366E-05
       346    2.595994E-02
       347   -1.060454E-04
       348   -8.565362E-06
       349    2.433268E-02
       350   -2.473002E-04
       351    1.687545E-05
       352    1.713484E-02
       353   -3.640268E-05
       354   -2.581052E-05
       355    4.105520E-04
       356    6.126367E-08
       357    8.471548E-08
       358   -1.459792E-07
       359   -5.720320E-07
       360   -6.134609E-05
       361    1.998840E-04
       362    3.838043E-06
       363   -9.756364E-07
       364   -2.862407E-06
       365   -5.673667E-06
       366   -2.425774E-04
       367    8.331680E-04
       368    2.216615E-05
       369   -2.586192E-05
       370    3.695767E-06
       371   -2.533179E-05
       372    1.473373E-04
       373   -2.060807E-04
       374    2.104653E-07
       375   -1.428394E-07
       376   -2.273244E-05
       377   -3.320441E-07
       378    6.130230E-07
       379   -2.842972E-05
       380    4.967537E-08
       381   -4.213838E-07
       382    5.892849E-05
       383   -6.739167E-05
       384    7.796129E-07
       385    2.111682E-06
       386   -6.435736E-06
       387    2.704129E-05
       388   -2.068232E-04
       389   -3.946717E-06
       390    1.186854E-04
       391   -1.023961E-05
       392   -2.596374E-02
       393    1.054045E-04
       394   -7.438770E-06
       395   -2.433600E-02
       396    2.529682E-04
       397    2.351266E-05
       398   -1.713864E-02
       399    3.851772E-05
       400   -2.267289E-05
       401   -4.106559E-04
       402   -6.422949E-08
       403   -8.721913E-08
       404    1.514486E-07
       405   -5.337202E-07
       406    6.135338E-05
       407    1.999245E-04
       408   -3.758245E-06
       409    8.872032E-07
       410    2.871042E-06
       411   -5.860238E-06
       412    2.426357E-04
       413    8.332768E-04
       414   -2.233352E-05
       415    2.553005E-05
       416   -3.196532E-06
       417   -2.615933E-05
       418   -1.479684E-04
       419   -2.053358E-04
       420   -2.166545E-07
       421   -1.362954E-07
       422    2.274059E-05
       423    3.324175E-07
       424    6.088168E-07
       425    2.843258E-05
       426   -4.174507E-08
       427   -4.259574E-07
       428   -5.894228E-05
       429   -6.740194E-05
       430    6.145617E-07
       431    1.500135E-06
       432   -2.863289E-06
       433    2.573003E-06
       434    4.740133E-06
       435   -4.819811E-05
       436    5.518012E-07
       437   -1.402729E-03
       438    1.518431E-05
       439    2.815990E-06
       440   -1.590274E-03
       441    1.502681E-05
       442   -2.317216E-05
       443   -1.850114E-03
       444    1.428650E-05
       445   -3.923932E-08
       446    3.011253E-08
       447    9.126791E-09
       448   -2.351952E-05
       449   -4.678756E-08
       450    3.040236E-04
       451    4.149232E-08
       452   -5.274619E-07
       453    4.859696E-07
       454   -9.212216E-06
       455    4.992504E-08
       456    6.370523E-04
       457   -8.081084E-06
       458    2.326036E-06
       459    5.755048E-06
       460   -6.750177E-05
       461    1.034090E-07
       462   -3.184631E-04
       463    1.630050E-08
       464   -5.219636E-06
       465   -5.582248E-08
       466   -8.301723E-09
       467   -1.920993E-05
       468    4.555051E-08
       469   -1.356770E-08
       470    2.621281E-05
       471    2.934321E-08
       472    1.318113E-04
       473   -7.312080E-05
       474   -2.988902E-04
       475   -3.757905E-04
       476   -7.961426E-05
       477   -4.339173E-05
       478   -3.707152E-04
       479    1.444180E-04
       480   -1.886807E-04
       481   -1.749269E-03
       482    7.491526E-05
       483    3.038897E-04
       484    3.722861E-04
       485    8.032908E-05
       486   -4.388510E-05
       487    3.720855E-04
       488   -1.532411E-04
       489   -1.933553E-04
       490    1.749581E-03
 Sym= X
 Ene= -0.706116
 Spin= Alpha
 Occup= -0.706116
         1    1.742437E-04
         2    4.082447E-04
         3   -1.355481E-03
         4    4.200561E-03
         5   -2.025052E-02
         6    1.406364E-02
         7    1.579734E-03
         8    1.607297E-04
         9   -4.328128E-02
        10   -3.639551E-03
        11    4.980403E-04
        12   -4.130050E-02
        13   -3.649876E-02
        14    1.705028E-02
        15   -1.904269E-02
        16    1.419489E-05
        17    5.202941E-06
        18   -1.939783E-05
        19    1.647303E-06
        20   -6.334760E-03
        21    4.259048E-03
        22    8.680331E-04
        23   -5.062091E-04
        24   -3.618240E-04
        25    8.354604E-04
        26   -1.438424E-02
        27    7.931642E-03
        28    4.157127E-03
        29   -3.946817E-03
        30   -2.103100E-04
        31   -1.609442E-03
        32    2.575985E-03
        33   -8.631265E-03
        34   -2.878331E-05
        35    5.699552E-06
        36    2.193874E-04
        37    1.399122E-05
        38   -4.274959E-06
        39    6.589696E-04
        40    2.462564E-05
        41   -3.371792E-06
        42   -9.533087E-04
        43    7.403979E-04
        44   -3.281151E-05
        45   -7.145331E-05
        46   -1.616958E-04
        47    3.629783E-03
        48    6.905470E-02
        49   -6.445025E-03
        50    5.044641E-04
        51    1.375604E-06
        52   -2.204031E-01
        53   -4.642229E-04
        54    1.230657E-05
        55   -2.279005E-01
        56   -1.740204E-02
        57   -4.120448E-04
        58   -1.971940E-01
        59   -3.795354E-05
        60    3.399462E-05
        61    3.958924E-06
        62   -9.163039E-08