[Molden Format]
[Title]
ADC(2) - opt by CAM-B3LYP gaussian                                              
[Atoms] AU
 c     1    6 0.12592752280008E+01 0.22800132789445E+01 -.35345910021030E-01
 c     2    6 0.25511638220345E+01 0.20078340100000E-05 -.33671612667290E-01
 c     3    6 0.12592790074531E+01 -.22800111530026E+01 -.35357248377820E-01
 c     4    6 -.13364450292264E+01 -.22798221803893E+01 -.38530098554940E-01
 c     5    6 -.26857699593430E+01 -.17716182500000E-05 -.39025206801750E-01
 c     6    6 -.13364469189525E+01 0.22798205268790E+01 -.38516870472010E-01
 h     7    1 0.23055183220207E+01 0.40307538342087E+01 -.32265656424420E-01
 h     8    1 0.23055239911991E+01 -.40307498185407E+01 -.32284553685750E-01
 h     9    1 -.23548467881305E+01 -.40530977197882E+01 -.43619131030800E-01
 h    10    1 -.23548543470350E+01 0.40530922868255E+01 -.43594564591070E-01
 n    11    7 0.52860567397703E+01 0.11810788000000E-06 -.26776002008390E-01
 o    12    8 0.63771222479361E+01 -.20280728649663E+01 -.23850705954680E-01
 o    13    8 0.63771260273883E+01 0.20280712114559E+01 -.23882831298940E-01
 n    14    7 -.52615573853205E+01 0.11810788000000E-06 -.10505223788478E+00
 h    15    1 -.61955753134867E+01 -.16086254730588E+01 0.27588253543458E+00
 h    16    1 -.61955696443083E+01 0.16086275990006E+01 0.27589009433911E+00
[GTO]
    1 0
 s    6 1.00
 0.13575349682000E+05 0.60645503603591E-03
 0.20352333680000E+04 0.46979088884982E-02
 0.46322562359000E+03 0.24332477647552E-01
 0.13120019598000E+03 0.97399968307759E-01
 0.42853015891000E+02 0.30195584253780E+00
 0.15584185766000E+02 0.66233609137875E+00
 s    2 1.00
 0.62067138508000E+01 0.65595308539952E+00
 0.25764896527000E+01 0.37585633285142E+00
 s    1 1.00
 0.57696339419000E+00 0.10000000000000E+01
 s    1 1.00
 0.22972831358000E+00 0.10000000000000E+01
 s    1 1.00
 0.95164440028000E-01 0.10000000000000E+01
 s    1 1.00
 0.48475401370000E-01 0.10000000000000E+01
 p    4 1.00
 0.34697232244000E+02 0.11327220003114E-01
 0.79582622826000E+01 0.76169659202087E-01
 0.23780826883000E+01 0.30192252202676E+00
 0.81433208183000E+00 0.72785027349547E+00
 p    1 1.00
 0.28887547253000E+00 0.10000000000000E+01
 p    1 1.00
 0.10056823671000E+00 0.10000000000000E+01
 d    1 1.00
 0.10970000000000E+01 0.10000000000000E+01
 d    1 1.00
 0.31800000000000E+00 0.10000000000000E+01
 d    1 1.00
 0.90985336424000E-01 0.10000000000000E+01
 f    1 1.00
 0.76100000000000E+00 0.10000000000000E+01
 
    2 0
 s    6 1.00
 0.13575349682000E+05 0.60645503603591E-03
 0.20352333680000E+04 0.46979088884982E-02
 0.46322562359000E+03 0.24332477647552E-01
 0.13120019598000E+03 0.97399968307759E-01
 0.42853015891000E+02 0.30195584253780E+00
 0.15584185766000E+02 0.66233609137875E+00
 s    2 1.00
 0.62067138508000E+01 0.65595308539952E+00
 0.25764896527000E+01 0.37585633285142E+00
 s    1 1.00
 0.57696339419000E+00 0.10000000000000E+01
 s    1 1.00
 0.22972831358000E+00 0.10000000000000E+01
 s    1 1.00
 0.95164440028000E-01 0.10000000000000E+01
 s    1 1.00
 0.48475401370000E-01 0.10000000000000E+01
 p    4 1.00
 0.34697232244000E+02 0.11327220003114E-01
 0.79582622826000E+01 0.76169659202087E-01
 0.23780826883000E+01 0.30192252202676E+00
 0.81433208183000E+00 0.72785027349547E+00
 p    1 1.00
 0.28887547253000E+00 0.10000000000000E+01
 p    1 1.00
 0.10056823671000E+00 0.10000000000000E+01
 d    1 1.00
 0.10970000000000E+01 0.10000000000000E+01
 d    1 1.00
 0.31800000000000E+00 0.10000000000000E+01
 d    1 1.00
 0.90985336424000E-01 0.10000000000000E+01
 f    1 1.00
 0.76100000000000E+00 0.10000000000000E+01
 
    3 0
 s    6 1.00
 0.13575349682000E+05 0.60645503603591E-03
 0.20352333680000E+04 0.46979088884982E-02
 0.46322562359000E+03 0.24332477647552E-01
 0.13120019598000E+03 0.97399968307759E-01
 0.42853015891000E+02 0.30195584253780E+00
 0.15584185766000E+02 0.66233609137875E+00
 s    2 1.00
 0.62067138508000E+01 0.65595308539952E+00
 0.25764896527000E+01 0.37585633285142E+00
 s    1 1.00
 0.57696339419000E+00 0.10000000000000E+01
 s    1 1.00
 0.22972831358000E+00 0.10000000000000E+01
 s    1 1.00
 0.95164440028000E-01 0.10000000000000E+01
 s    1 1.00
 0.48475401370000E-01 0.10000000000000E+01
 p    4 1.00
 0.34697232244000E+02 0.11327220003114E-01
 0.79582622826000E+01 0.76169659202087E-01
 0.23780826883000E+01 0.30192252202676E+00
 0.81433208183000E+00 0.72785027349547E+00
 p    1 1.00
 0.28887547253000E+00 0.10000000000000E+01
 p    1 1.00
 0.10056823671000E+00 0.10000000000000E+01
 d    1 1.00
 0.10970000000000E+01 0.10000000000000E+01
 d    1 1.00
 0.31800000000000E+00 0.10000000000000E+01
 d    1 1.00
 0.90985336424000E-01 0.10000000000000E+01
 f    1 1.00
 0.76100000000000E+00 0.10000000000000E+01
 
    4 0
 s    6 1.00
 0.13575349682000E+05 0.60645503603591E-03
 0.20352333680000E+04 0.46979088884982E-02
 0.46322562359000E+03 0.24332477647552E-01
 0.13120019598000E+03 0.97399968307759E-01
 0.42853015891000E+02 0.30195584253780E+00
 0.15584185766000E+02 0.66233609137875E+00
 s    2 1.00
 0.62067138508000E+01 0.65595308539952E+00
 0.25764896527000E+01 0.37585633285142E+00
 s    1 1.00
 0.57696339419000E+00 0.10000000000000E+01
 s    1 1.00
 0.22972831358000E+00 0.10000000000000E+01
 s    1 1.00
 0.95164440028000E-01 0.10000000000000E+01
 s    1 1.00
 0.48475401370000E-01 0.10000000000000E+01
 p    4 1.00
 0.34697232244000E+02 0.11327220003114E-01
 0.79582622826000E+01 0.76169659202087E-01
 0.23780826883000E+01 0.30192252202676E+00
 0.81433208183000E+00 0.72785027349547E+00
 p    1 1.00
 0.28887547253000E+00 0.10000000000000E+01
 p    1 1.00
 0.10056823671000E+00 0.10000000000000E+01
 d    1 1.00
 0.10970000000000E+01 0.10000000000000E+01
 d    1 1.00
 0.31800000000000E+00 0.10000000000000E+01
 d    1 1.00
 0.90985336424000E-01 0.10000000000000E+01
 f    1 1.00
 0.76100000000000E+00 0.10000000000000E+01
 
    5 0
 s    6 1.00
 0.13575349682000E+05 0.60645503603591E-03
 0.20352333680000E+04 0.46979088884982E-02
 0.46322562359000E+03 0.24332477647552E-01
 0.13120019598000E+03 0.97399968307759E-01
 0.42853015891000E+02 0.30195584253780E+00
 0.15584185766000E+02 0.66233609137875E+00
 s    2 1.00
 0.62067138508000E+01 0.65595308539952E+00
 0.25764896527000E+01 0.37585633285142E+00
 s    1 1.00
 0.57696339419000E+00 0.10000000000000E+01
 s    1 1.00
 0.22972831358000E+00 0.10000000000000E+01
 s    1 1.00
 0.95164440028000E-01 0.10000000000000E+01
 s    1 1.00
 0.48475401370000E-01 0.10000000000000E+01
 p    4 1.00
 0.34697232244000E+02 0.11327220003114E-01
 0.79582622826000E+01 0.76169659202087E-01
 0.23780826883000E+01 0.30192252202676E+00
 0.81433208183000E+00 0.72785027349547E+00
 p    1 1.00
 0.28887547253000E+00 0.10000000000000E+01
 p    1 1.00
 0.10056823671000E+00 0.10000000000000E+01
 d    1 1.00
 0.10970000000000E+01 0.10000000000000E+01
 d    1 1.00
 0.31800000000000E+00 0.10000000000000E+01
 d    1 1.00
 0.90985336424000E-01 0.10000000000000E+01
 f    1 1.00
 0.76100000000000E+00 0.10000000000000E+01
 
    6 0
 s    6 1.00
 0.13575349682000E+05 0.60645503603591E-03
 0.20352333680000E+04 0.46979088884982E-02
 0.46322562359000E+03 0.24332477647552E-01
 0.13120019598000E+03 0.97399968307759E-01
 0.42853015891000E+02 0.30195584253780E+00
 0.15584185766000E+02 0.66233609137875E+00
 s    2 1.00
 0.62067138508000E+01 0.65595308539952E+00
 0.25764896527000E+01 0.37585633285142E+00
 s    1 1.00
 0.57696339419000E+00 0.10000000000000E+01
 s    1 1.00
 0.22972831358000E+00 0.10000000000000E+01
 s    1 1.00
 0.95164440028000E-01 0.10000000000000E+01
 s    1 1.00
 0.48475401370000E-01 0.10000000000000E+01
 p    4 1.00
 0.34697232244000E+02 0.11327220003114E-01
 0.79582622826000E+01 0.76169659202087E-01
 0.23780826883000E+01 0.30192252202676E+00
 0.81433208183000E+00 0.72785027349547E+00
 p    1 1.00
 0.28887547253000E+00 0.10000000000000E+01
 p    1 1.00
 0.10056823671000E+00 0.10000000000000E+01
 d    1 1.00
 0.10970000000000E+01 0.10000000000000E+01
 d    1 1.00
 0.31800000000000E+00 0.10000000000000E+01
 d    1 1.00
 0.90985336424000E-01 0.10000000000000E+01
 f    1 1.00
 0.76100000000000E+00 0.10000000000000E+01
 
    7 0
 s    3 1.00
 0.34061341000000E+02 0.25439307208879E-01
 0.51235746000000E+01 0.19008594890375E+00
 0.11646626000000E+01 0.85244113011042E+00
 s    1 1.00
 0.32723041000000E+00 0.10000000000000E+01
 s    1 1.00
 0.10307241000000E+00 0.10000000000000E+01
 p    1 1.00
 0.80000000000000E+00 0.10000000000000E+01
 p    1 1.00
 0.95774129632000E-01 0.10000000000000E+01
 
    8 0
 s    3 1.00
 0.34061341000000E+02 0.25439307208879E-01
 0.51235746000000E+01 0.19008594890375E+00
 0.11646626000000E+01 0.85244113011042E+00
 s    1 1.00
 0.32723041000000E+00 0.10000000000000E+01
 s    1 1.00
 0.10307241000000E+00 0.10000000000000E+01
 p    1 1.00
 0.80000000000000E+00 0.10000000000000E+01
 p    1 1.00
 0.95774129632000E-01 0.10000000000000E+01
 
    9 0
 s    3 1.00
 0.34061341000000E+02 0.25439307208879E-01
 0.51235746000000E+01 0.19008594890375E+00
 0.11646626000000E+01 0.85244113011042E+00
 s    1 1.00
 0.32723041000000E+00 0.10000000000000E+01
 s    1 1.00
 0.10307241000000E+00 0.10000000000000E+01
 p    1 1.00
 0.80000000000000E+00 0.10000000000000E+01
 p    1 1.00
 0.95774129632000E-01 0.10000000000000E+01
 
   10 0
 s    3 1.00
 0.34061341000000E+02 0.25439307208879E-01
 0.51235746000000E+01 0.19008594890375E+00
 0.11646626000000E+01 0.85244113011042E+00
 s    1 1.00
 0.32723041000000E+00 0.10000000000000E+01
 s    1 1.00
 0.10307241000000E+00 0.10000000000000E+01
 p    1 1.00
 0.80000000000000E+00 0.10000000000000E+01
 p    1 1.00
 0.95774129632000E-01 0.10000000000000E+01
 
   11 0
 s    6 1.00
 0.19730800647000E+05 0.58626402628763E-03
 0.29578958745000E+04 0.45428820586397E-02
 0.67322133595000E+03 0.23558413450084E-01
 0.19068249494000E+03 0.94709193292923E-01
 0.62295441898000E+02 0.29719784913376E+00
 0.22654161182000E+02 0.66916246895232E+00
 s    2 1.00
 0.89791477428000E+01 0.64596683630063E+00
 0.36863002370000E+01 0.38700574393705E+00
 s    1 1.00
 0.84660076805000E+00 0.10000000000000E+01
 s    1 1.00
 0.33647133771000E+00 0.10000000000000E+01
 s    1 1.00
 0.13647653675000E+00 0.10000000000000E+01
 s    1 1.00
 0.68441605847000E-01 0.10000000000000E+01
 p    4 1.00
 0.49200380510000E+02 0.11448825101764E-01
 0.11346790537000E+02 0.78422337970864E-01
 0.34273972411000E+01 0.30818094738830E+00
 0.11785525134000E+01 0.72027196368413E+00
 p    1 1.00
 0.41642204972000E+00 0.10000000000000E+01
 p    1 1.00
 0.14260826011000E+00 0.10000000000000E+01
 d    1 1.00
 0.16540000000000E+01 0.10000000000000E+01
 d    1 1.00
 0.46900000000000E+00 0.10000000000000E+01
 d    1 1.00
 0.12829642058000E+00 0.10000000000000E+01
 f    1 1.00
 0.10930000000000E+01 0.10000000000000E+01
 
   12 0
 s    6 1.00
 0.27032382631000E+05 0.57227335211155E-03
 0.40523871392000E+04 0.44353233492995E-02
 0.92232722710000E+03 0.23020107706038E-01
 0.26124070989000E+03 0.92822490667928E-01
 0.85354641351000E+02 0.29378500009671E+00
 0.31035035245000E+02 0.67401604501641E+00
 s    2 1.00
 0.12260860728000E+02 0.63839937025506E+00
 0.49987076005000E+01 0.39534587125718E+00
 s    1 1.00
 0.11703108158000E+01 0.10000000000000E+01
 s    1 1.00
 0.46474740994000E+00 0.10000000000000E+01
 s    1 1.00
 0.18504536357000E+00 0.10000000000000E+01
 s    1 1.00
 0.70288026270000E-01 0.10000000000000E+01
 p    4 1.00
 0.63274954801000E+02 0.12018332222616E-01
 0.14627049379000E+02 0.83005421790056E-01
 0.44501223456000E+01 0.31991743925964E+00
 0.15275799647000E+01 0.70715542916104E+00
 p    1 1.00
 0.52935117943000E+00 0.10000000000000E+01
 p    1 1.00
 0.17478421270000E+00 0.10000000000000E+01
 p    1 1.00
 0.51112745706000E-01 0.10000000000000E+01
 d    1 1.00
 0.23140000000000E+01 0.10000000000000E+01
 d    1 1.00
 0.64500000000000E+00 0.10000000000000E+01
 d    1 1.00
 0.14696477366000E+00 0.10000000000000E+01
 f    1 1.00
 0.14280000000000E+01 0.10000000000000E+01
 
   13 0
 s    6 1.00
 0.27032382631000E+05 0.57227335211155E-03
 0.40523871392000E+04 0.44353233492995E-02
 0.92232722710000E+03 0.23020107706038E-01
 0.26124070989000E+03 0.92822490667928E-01
 0.85354641351000E+02 0.29378500009671E+00
 0.31035035245000E+02 0.67401604501641E+00
 s    2 1.00
 0.12260860728000E+02 0.63839937025506E+00
 0.49987076005000E+01 0.39534587125718E+00
 s    1 1.00
 0.11703108158000E+01 0.10000000000000E+01
 s    1 1.00
 0.46474740994000E+00 0.10000000000000E+01
 s    1 1.00
 0.18504536357000E+00 0.10000000000000E+01
 s    1 1.00
 0.70288026270000E-01 0.10000000000000E+01
 p    4 1.00
 0.63274954801000E+02 0.12018332222616E-01
 0.14627049379000E+02 0.83005421790056E-01
 0.44501223456000E+01 0.31991743925964E+00
 0.15275799647000E+01 0.70715542916104E+00
 p    1 1.00
 0.52935117943000E+00 0.10000000000000E+01
 p    1 1.00
 0.17478421270000E+00 0.10000000000000E+01
 p    1 1.00
 0.51112745706000E-01 0.10000000000000E+01
 d    1 1.00
 0.23140000000000E+01 0.10000000000000E+01
 d    1 1.00
 0.64500000000000E+00 0.10000000000000E+01
 d    1 1.00
 0.14696477366000E+00 0.10000000000000E+01
 f    1 1.00
 0.14280000000000E+01 0.10000000000000E+01
 
   14 0
 s    6 1.00
 0.19730800647000E+05 0.58626402628763E-03
 0.29578958745000E+04 0.45428820586397E-02
 0.67322133595000E+03 0.23558413450084E-01
 0.19068249494000E+03 0.94709193292923E-01
 0.62295441898000E+02 0.29719784913376E+00
 0.22654161182000E+02 0.66916246895232E+00
 s    2 1.00
 0.89791477428000E+01 0.64596683630063E+00
 0.36863002370000E+01 0.38700574393705E+00
 s    1 1.00
 0.84660076805000E+00 0.10000000000000E+01
 s    1 1.00
 0.33647133771000E+00 0.10000000000000E+01
 s    1 1.00
 0.13647653675000E+00 0.10000000000000E+01
 s    1 1.00
 0.68441605847000E-01 0.10000000000000E+01
 p    4 1.00
 0.49200380510000E+02 0.11448825101764E-01
 0.11346790537000E+02 0.78422337970864E-01
 0.34273972411000E+01 0.30818094738830E+00
 0.11785525134000E+01 0.72027196368413E+00
 p    1 1.00
 0.41642204972000E+00 0.10000000000000E+01
 p    1 1.00
 0.14260826011000E+00 0.10000000000000E+01
 d    1 1.00
 0.16540000000000E+01 0.10000000000000E+01
 d    1 1.00
 0.46900000000000E+00 0.10000000000000E+01
 d    1 1.00
 0.12829642058000E+00 0.10000000000000E+01
 f    1 1.00
 0.10930000000000E+01 0.10000000000000E+01
 
   15 0
 s    3 1.00
 0.34061341000000E+02 0.25439307208879E-01
 0.51235746000000E+01 0.19008594890375E+00
 0.11646626000000E+01 0.85244113011042E+00
 s    1 1.00
 0.32723041000000E+00 0.10000000000000E+01
 s    1 1.00
 0.10307241000000E+00 0.10000000000000E+01
 p    1 1.00
 0.80000000000000E+00 0.10000000000000E+01
 p    1 1.00
 0.95774129632000E-01 0.10000000000000E+01
 
   16 0
 s    3 1.00
 0.34061341000000E+02 0.25439307208879E-01
 0.51235746000000E+01 0.19008594890375E+00
 0.11646626000000E+01 0.85244113011042E+00
 s    1 1.00
 0.32723041000000E+00 0.10000000000000E+01
 s    1 1.00
 0.10307241000000E+00 0.10000000000000E+01
 p    1 1.00
 0.80000000000000E+00 0.10000000000000E+01
 p    1 1.00
 0.95774129632000E-01 0.10000000000000E+01
 
[MO]
 Sym= X
 Ene= -0.938491
 Spin= Alpha
 Occup= -0.938491
         1    2.247236E-04
         2    5.240470E-04
         3   -1.609934E-03
         4    4.440365E-03
         5   -2.218143E-02
         6    1.562609E-02
         7    2.431540E-03
         8    1.527616E-04
         9   -2.995126E-02
        10   -3.532486E-03
        11    5.545063E-04
        12   -2.813713E-02
        13   -3.970087E-02
        14    1.726261E-02
        15   -1.417674E-02
        16   -1.105567E-05
        17    2.934730E-05
        18   -1.829163E-05
        19    1.003636E-05
        20   -6.280523E-03
        21    3.837009E-03
        22    9.281522E-04
        23   -5.390926E-04
        24   -3.890595E-04
        25    9.546861E-04
        26   -1.422245E-02
        27    7.235230E-03
        28    4.362404E-03
        29   -4.099151E-03
        30   -2.632526E-04
        31   -1.887329E-03
        32    3.240904E-03
        33   -9.143530E-03
        34   -2.974861E-05
        35    6.421298E-06
        36    1.083551E-04
        37    1.442583E-05
        38   -4.669848E-06
        39    7.179235E-04
        40    2.548611E-05
        41   -3.945226E-06
        42   -8.632972E-04
        43    6.927632E-04
        44   -3.044233E-05
        45   -6.523287E-05
        46   -2.266763E-04
        47    4.194155E-03
        48    7.105184E-02
        49   -7.752818E-03
        50    1.503543E-05
        51    1.402494E-06
        52   -2.005505E-01
        53   -9.892315E-04
        54    1.115359E-05
        55   -2.078425E-01
        56   -1.821677E-02
        57   -4.539567E-04
        58   -1.908355E-01
        59   -7.597234E-05
        60    7.082648E-05
        61    5.145851E-06
        62   -9.341207E-08
        63   -3.987733E-04
        64    4.340783E-07
        65   -5.330040E-04
        66    8.790597E-04
        67   -3.460557E-04
        68   -2.131473E-06
        69   -2.528765E-03
        70    4.146339E-07
        71   -1.566911E-02
        72    1.762821E-02
        73   -1.959105E-03
        74    8.280697E-05
        75    4.007060E-03
        76   -1.399675E-05
        77    7.419055E-06
        78    2.036524E-08
        79    1.126935E-03
        80   -8.097015E-06
        81    2.259488E-08
        82   -6.449946E-04
        83   -1.856691E-06
        84   -4.991772E-08
        85   -8.669470E-04
        86   -3.531022E-08
        87    2.249049E-04
        88    5.244464E-04
        89   -1.610784E-03
        90    4.443494E-03
        91   -2.328256E-02
        92    1.561686E-02
        93    2.433028E-03
        94   -1.544595E-04
        95   -2.997193E-02
        96   -3.507474E-03
        97   -5.510921E-04
        98   -2.815858E-02
        99   -3.989830E-02
       100   -1.768262E-02
       101   -1.421248E-02
       102   -1.113928E-05
       103    2.936843E-05
       104   -1.822915E-05
       105   -1.019491E-05
       106   -6.280156E-03
       107   -3.837117E-03
       108    9.231484E-04
       109   -5.342601E-04
       110   -3.888883E-04
       111   -9.530501E-04
       112   -1.422103E-02
       113   -7.235171E-03
       114    4.450391E-03
       115   -4.198375E-03
       116   -2.520167E-04
       117    1.800625E-03
       118    3.228039E-03
       119    9.137607E-03
       120   -2.975474E-05
       121   -6.393577E-06
       122    1.084808E-04
       123    1.450631E-05
       124    4.632244E-06
       125    7.177874E-04
       126    2.541386E-05
       127    3.945640E-06
       128   -8.633297E-04
       129   -6.927469E-04
       130   -1.350623E-04
       131   -2.906730E-04
       132   -7.248373E-04
       133    1.295921E-02
       134   -1.107017E-02
       135   -1.872536E-02
       136   -2.013832E-03
       137    7.320172E-04
       138    1.584622E-01
       139   -1.271596E-02
       140    8.145275E-03
       141    1.608276E-01
       142   -1.703160E-02
       143   -1.017643E-02
       144    9.938262E-02
       145   -1.869271E-04
       146    2.210316E-04
       147   -3.410448E-05
       148   -1.972953E-06
       149   -1.285819E-03
       150    3.386252E-03
       151   -9.776826E-04
       152    1.053139E-03
       153   -7.545623E-05
       154   -2.208298E-03
       155   -5.198773E-03
       156    5.596871E-03
       157   -1.012538E-02
       158    7.603394E-03
       159    2.521987E-03
       160    1.495926E-02
       161    4.022860E-03
       162   -1.066182E-02
       163   -2.566676E-05
       164    9.854500E-06
       165   -9.266793E-04
       166   -2.039590E-05
       167    2.587420E-05
       168    2.159034E-04
       169    5.483147E-05
       170   -3.909540E-05
       171    1.027367E-03
       172   -3.985755E-04
       173    1.361383E-03
       174    3.105677E-03
       175   -2.961860E-03
       176   -2.972385E-02
       177    5.545464E-02
       178   -9.255830E-03
       179    1.096680E-02
       180   -1.653234E-06
       181    1.370839E-01
       182    1.581669E-05
       183   -8.086086E-06
       184    1.397417E-01
       185   -5.325228E-02
       186    5.939714E-04
       187    1.368693E-01
       188   -6.362306E-04
       189    3.572246E-04
       190    2.790061E-04
       191   -1.740184E-07
       192    9.383016E-03
       193    4.095585E-07
       194    2.388869E-03
       195   -5.358275E-03
       196    2.969406E-03
       197   -1.704102E-06
       198    2.348548E-02
       199   -1.287635E-07
       200    9.960208E-03
       201   -1.116155E-02
       202    1.201346E-03
       203    1.384932E-04
       204    1.520471E-02
       205    9.255327E-06
       206    1.473931E-04
       207    1.435137E-08
       208   -5.152600E-04
       209   -1.090990E-04
       210   -4.412343E-08
       211   -8.690426E-04
       212   -8.864958E-05
       213    2.486904E-08
       214    1.560337E-03
       215    1.435896E-08
       216   -1.354202E-04
       217   -2.914412E-04
       218   -7.230735E-04
       219    1.296184E-02
       220   -1.251002E-02
       221   -1.870641E-02
       222   -2.012896E-03
       223   -7.275974E-04
       224    1.584808E-01
       225   -1.272753E-02
       226   -8.147036E-03
       227    1.608490E-01
       228   -1.682929E-02
       229    1.077575E-02
       230    9.936883E-02
       231   -1.868001E-04
       232    2.211790E-04
       233   -3.437899E-05
       234    1.707986E-06
       235   -1.285386E-03
       236   -3.386335E-03
       237   -9.821502E-04
       238    1.057182E-03
       239   -7.503228E-05
       240    2.209729E-03
       241   -5.197351E-03
       242   -5.596821E-03
       243   -1.004182E-02
       244    7.517813E-03
       245    2.524011E-03
       246   -1.504468E-02
       247    4.035696E-03
       248    1.067401E-02
       249   -2.574615E-05
       250   -9.904775E-06
       251   -9.268697E-04
       252   -2.044119E-05
       253   -2.579852E-05
       254    2.161030E-04
       255    5.498328E-05
       256    3.908717E-05
       257    1.027423E-03
       258    3.985653E-04
       259    5.085740E-04
       260    2.263359E-04
       261    2.148887E-02
       262   -9.270756E-06
       263    9.390578E-06
       264   -1.231659E-03
       265   -6.776148E-03
       266   -8.714083E-04
       267    4.834351E-03
       268    5.099146E-04
       269    2.234140E-04
       270    2.147032E-02
       271   -8.801740E-06
       272   -9.900746E-06
       273   -1.232517E-03
       274   -6.857854E-03
       275    8.374116E-04
       276    4.837825E-03
       277    5.701475E-04
       278    3.248056E-03
       279   -4.833085E-02
       280   -2.533905E-05
       281    1.407598E-04
       282    6.448848E-03
       283   -1.294156E-03
       284   -4.178343E-03
       285    6.626091E-04
       286    5.730184E-04
       287    3.247419E-03
       288   -4.846807E-02
       289   -2.519650E-05
       290   -1.406290E-04
       291    6.449835E-03
       292   -1.254565E-03
       293    4.214749E-03
       294    6.601908E-04
       295    7.089776E-05
       296    1.657467E-04
       297   -1.741110E-04
       298   -4.251886E-04
       299    9.759318E-03
       300    3.012940E-04
       301    9.687011E-04
       302   -6.583382E-07
       303   -1.670703E-02
       304    5.009824E-04
       305   -6.810140E-07
       306   -1.880702E-02
       307   -3.683102E-03
       308    1.638922E-07
       309   -4.214480E-03
       310   -4.902616E-05
       311    3.757402E-05
       312    1.145214E-05
       313   -8.769854E-08
       314    4.074961E-03
       315    2.457492E-08
       316   -7.633172E-05
       317    3.097932E-06
       318    7.323378E-05
       319   -1.739345E-07
       320    1.227656E-02
       321    1.252234E-07
       322    7.579925E-04
       323   -3.641868E-03
       324    2.883875E-03
       325   -1.209072E-05
       326    3.223349E-03
       327    3.832324E-06
       328    8.889569E-06
       329    2.047626E-08
       330    2.902474E-05
       331   -5.075627E-06
       332   -1.677001E-08
       333   -6.791384E-04
       334   -6.850981E-06
       335   -1.070177E-08
       336    6.401976E-04
       337    1.006648E-09
       338    1.784079E-05
       339    3.854709E-05
       340    2.685737E-06
       341   -7.426988E-04
       342    8.209151E-03
       343    1.641963E-03
       344   -8.868338E-04
       345    9.159951E-05
       346    6.862622E-02
       347   -9.591355E-04
       348    2.522232E-04
       349    6.369271E-02
       350   -2.004442E-03
       351    7.633426E-04
       352    5.093337E-02
       353   -3.738380E-04
       354    2.801028E-04
       355    5.921278E-03
       356   -3.421070E-06
       357    7.166070E-06
       358   -3.745000E-06
       359   -6.334988E-06
       360    1.265584E-05
       361    4.367073E-04
       362    1.925187E-05
       363    1.390877E-05
       364   -3.316064E-05
       365   -2.473678E-05
       366   -4.650756E-04
       367    1.434000E-03
       368    8.644872E-05
       369   -1.647986E-05
       370   -6.996886E-05
       371   -2.046420E-05
       372   -5.799372E-04
       373    2.453693E-04
       374    1.669980E-06
       375    1.723164E-06
       376   -5.282571E-05
       377   -3.019023E-06
       378    7.854802E-07
       379   -8.304734E-05
       380    7.785103E-07
       381   -3.097348E-06
       382    1.539205E-04
       383   -1.185606E-04
       384    1.786336E-05
       385    3.861174E-05
       386    2.522223E-06
       387   -7.425227E-04
       388    8.221496E-03
       389    1.626066E-03
       390   -8.888307E-04
       391   -8.725141E-05
       392    6.862696E-02
       393   -9.611795E-04
       394   -2.484625E-04
       395    6.369386E-02
       396   -1.997075E-03
       397   -7.653704E-04
       398    5.092676E-02
       399   -3.659699E-04
       400   -2.834156E-04
       401    5.922058E-03
       402   -3.375956E-06
       403    7.091521E-06
       404   -3.715564E-06
       405    6.333581E-06
       406    1.262390E-05
       407   -4.367307E-04
       408    1.919466E-05
       409    1.382250E-05
       410   -3.301716E-05
       411    2.462205E-05
       412   -4.650202E-04
       413   -1.433925E-03
       414    8.719415E-05
       415   -1.741846E-05
       416   -6.977569E-05
       417    2.098973E-05
       418   -5.798750E-04
       419   -2.444223E-04
       420    1.662341E-06
       421   -1.705071E-06
       422   -5.283029E-05
       423   -3.003091E-06
       424   -7.947313E-07
       425   -8.303708E-05
       426    7.728267E-07
       427    3.082324E-06
       428    1.539164E-04
       429    1.185617E-04
       430   -6.261245E-03
       431   -1.489023E-02
       432    2.322922E-02
       433    3.800576E-02
       434    1.618205E-02
       435    8.841283E-02
       436   -2.262582E-02
       437    5.965254E-06
       438   -2.356724E-01
       439   -2.598661E-02
       440    8.457275E-07
       441   -2.325470E-01
       442   -2.857404E-02
       443   -5.884402E-05
       444   -1.933859E-01
       445    1.702517E-04
       446    1.805764E-05
       447   -1.883093E-04
       448   -1.339200E-07
       449    1.205847E-03
       450    1.667231E-07
       451    3.751426E-04
       452    2.054655E-03
       453   -2.429798E-03
       454    1.995142E-06
       455    4.478064E-03
       456    3.199434E-07
       457    3.170620E-03
       458    4.980094E-03
       459   -8.150715E-03
       460    6.359828E-06
       461    2.736348E-03
       462    2.448528E-07
       463   -1.965856E-04
       464    2.732275E-08
       465    8.462494E-04
       466   -1.098919E-04
       467    1.449256E-08
       468   -3.766098E-04
       469    3.736391E-04
       470   -5.114988E-08
       471   -7.587528E-04
       472    3.480925E-08
       473   -1.298543E-02
       474   -2.490449E-02
       475   -4.615137E-02
       476   -2.903570E-03
       477   -2.530193E-03
       478   -1.189780E-02
       479    7.774940E-04
       480   -5.204612E-03
       481   -1.467304E-02
       482   -1.298183E-02
       483   -2.486061E-02
       484   -4.593678E-02
       485   -2.900977E-03
       486    2.526620E-03
       487   -1.190016E-02
       488    8.151000E-04
       489    5.180628E-03
       490   -1.468487E-02
 Sym= X
 Ene= 0.938491
 Spin= Alpha
 Occup= 0.938491
         1   -1.288581E-02
         2   -2.884580E-02
         3    2.141101E-02
         4    3.438703E-01
         5    5.780052E+00
         6   -4.396685E+00
         7    7.042836E-03
         8    1.926406E-02
         9    1.361186E-03
        10   -1.126656E-02
        11   -1.845338E-03
        12    2.815640E-04
        13    7.686669E-01
        14    2.662910E-01
        15   -8.176140E-02
        16    1.818092E-03
        17    2.105730E-04
        18   -2.028665E-03
        19   -2.926619E-04
        20    5.110680E-05
        21   -2.806604E-04
        22    1.595737E-02
        23   -1.241189E-03
        24   -1.471618E-02
        25   -9.270370E-03
        26    6.549906E-04
        27   -1.762193E-04
        28   -1.991559E-01
        29   -1.637616E-03
        30    2.007935E-01
        31    8.631913E-01
        32    1.849649E-02
        33    6.139545E-03
        34   -5.535246E-04
        35   -5.844137E-05
        36   -5.139188E-05
        37    7.402299E-04
        38   -1.233536E-05
        39    4.023015E-05
        40    2.401287E-06
        41    9.074269E-05
        42    2.871929E-05
        43    4.064353E-05
        44   -4.019424E-03
        45   -8.246363E-03
        46   -4.064110E-03
        47    2.079815E-01
        48    4.179902E+00
        49    3.349509E+00
        50    7.503400E-03
        51    2.053397E-05
        52    3.390288E-03
        53    8.211217E-02
        54   -2.909184E-05
        55    5.684707E-03
        56    2.404037E+00
        57   -2.320319E-02
        58    5.807955E-02
        59    2.571685E-04
        60    2.696800E-03
        61   -2.953969E-03
        62   -1.177650E-06