[Molden Format]
[Title]
ADC(2) - opt by CAM-B3LYP gaussian                                              
[Atoms] AU
 c     1    6 0.12592752280008E+01 0.22800132789445E+01 -.35345910021030E-01
 c     2    6 0.25511638220345E+01 0.20078340100000E-05 -.33671612667290E-01
 c     3    6 0.12592790074531E+01 -.22800111530026E+01 -.35357248377820E-01
 c     4    6 -.13364450292264E+01 -.22798221803893E+01 -.38530098554940E-01
 c     5    6 -.26857699593430E+01 -.17716182500000E-05 -.39025206801750E-01
 c     6    6 -.13364469189525E+01 0.22798205268790E+01 -.38516870472010E-01
 h     7    1 0.23055183220207E+01 0.40307538342087E+01 -.32265656424420E-01
 h     8    1 0.23055239911991E+01 -.40307498185407E+01 -.32284553685750E-01
 h     9    1 -.23548467881305E+01 -.40530977197882E+01 -.43619131030800E-01
 h    10    1 -.23548543470350E+01 0.40530922868255E+01 -.43594564591070E-01
 n    11    7 0.52860567397703E+01 0.11810788000000E-06 -.26776002008390E-01
 o    12    8 0.63771222479361E+01 -.20280728649663E+01 -.23850705954680E-01
 o    13    8 0.63771260273883E+01 0.20280712114559E+01 -.23882831298940E-01
 n    14    7 -.52615573853205E+01 0.11810788000000E-06 -.10505223788478E+00
 h    15    1 -.61955753134867E+01 -.16086254730588E+01 0.27588253543458E+00
 h    16    1 -.61955696443083E+01 0.16086275990006E+01 0.27589009433911E+00
[GTO]
    1 0
 s    6 1.00
 0.13575349682000E+05 0.60645503603591E-03
 0.20352333680000E+04 0.46979088884982E-02
 0.46322562359000E+03 0.24332477647552E-01
 0.13120019598000E+03 0.97399968307759E-01
 0.42853015891000E+02 0.30195584253780E+00
 0.15584185766000E+02 0.66233609137875E+00
 s    2 1.00
 0.62067138508000E+01 0.65595308539952E+00
 0.25764896527000E+01 0.37585633285142E+00
 s    1 1.00
 0.57696339419000E+00 0.10000000000000E+01
 s    1 1.00
 0.22972831358000E+00 0.10000000000000E+01
 s    1 1.00
 0.95164440028000E-01 0.10000000000000E+01
 s    1 1.00
 0.48475401370000E-01 0.10000000000000E+01
 p    4 1.00
 0.34697232244000E+02 0.11327220003114E-01
 0.79582622826000E+01 0.76169659202087E-01
 0.23780826883000E+01 0.30192252202676E+00
 0.81433208183000E+00 0.72785027349547E+00
 p    1 1.00
 0.28887547253000E+00 0.10000000000000E+01
 p    1 1.00
 0.10056823671000E+00 0.10000000000000E+01
 d    1 1.00
 0.10970000000000E+01 0.10000000000000E+01
 d    1 1.00
 0.31800000000000E+00 0.10000000000000E+01
 d    1 1.00
 0.90985336424000E-01 0.10000000000000E+01
 f    1 1.00
 0.76100000000000E+00 0.10000000000000E+01
 
    2 0
 s    6 1.00
 0.13575349682000E+05 0.60645503603591E-03
 0.20352333680000E+04 0.46979088884982E-02
 0.46322562359000E+03 0.24332477647552E-01
 0.13120019598000E+03 0.97399968307759E-01
 0.42853015891000E+02 0.30195584253780E+00
 0.15584185766000E+02 0.66233609137875E+00
 s    2 1.00
 0.62067138508000E+01 0.65595308539952E+00
 0.25764896527000E+01 0.37585633285142E+00
 s    1 1.00
 0.57696339419000E+00 0.10000000000000E+01
 s    1 1.00
 0.22972831358000E+00 0.10000000000000E+01
 s    1 1.00
 0.95164440028000E-01 0.10000000000000E+01
 s    1 1.00
 0.48475401370000E-01 0.10000000000000E+01
 p    4 1.00
 0.34697232244000E+02 0.11327220003114E-01
 0.79582622826000E+01 0.76169659202087E-01
 0.23780826883000E+01 0.30192252202676E+00
 0.81433208183000E+00 0.72785027349547E+00
 p    1 1.00
 0.28887547253000E+00 0.10000000000000E+01
 p    1 1.00
 0.10056823671000E+00 0.10000000000000E+01
 d    1 1.00
 0.10970000000000E+01 0.10000000000000E+01
 d    1 1.00
 0.31800000000000E+00 0.10000000000000E+01
 d    1 1.00
 0.90985336424000E-01 0.10000000000000E+01
 f    1 1.00
 0.76100000000000E+00 0.10000000000000E+01
 
    3 0
 s    6 1.00
 0.13575349682000E+05 0.60645503603591E-03
 0.20352333680000E+04 0.46979088884982E-02
 0.46322562359000E+03 0.24332477647552E-01
 0.13120019598000E+03 0.97399968307759E-01
 0.42853015891000E+02 0.30195584253780E+00
 0.15584185766000E+02 0.66233609137875E+00
 s    2 1.00
 0.62067138508000E+01 0.65595308539952E+00
 0.25764896527000E+01 0.37585633285142E+00
 s    1 1.00
 0.57696339419000E+00 0.10000000000000E+01
 s    1 1.00
 0.22972831358000E+00 0.10000000000000E+01
 s    1 1.00
 0.95164440028000E-01 0.10000000000000E+01
 s    1 1.00
 0.48475401370000E-01 0.10000000000000E+01
 p    4 1.00
 0.34697232244000E+02 0.11327220003114E-01
 0.79582622826000E+01 0.76169659202087E-01
 0.23780826883000E+01 0.30192252202676E+00
 0.81433208183000E+00 0.72785027349547E+00
 p    1 1.00
 0.28887547253000E+00 0.10000000000000E+01
 p    1 1.00
 0.10056823671000E+00 0.10000000000000E+01
 d    1 1.00
 0.10970000000000E+01 0.10000000000000E+01
 d    1 1.00
 0.31800000000000E+00 0.10000000000000E+01
 d    1 1.00
 0.90985336424000E-01 0.10000000000000E+01
 f    1 1.00
 0.76100000000000E+00 0.10000000000000E+01
 
    4 0
 s    6 1.00
 0.13575349682000E+05 0.60645503603591E-03
 0.20352333680000E+04 0.46979088884982E-02
 0.46322562359000E+03 0.24332477647552E-01
 0.13120019598000E+03 0.97399968307759E-01
 0.42853015891000E+02 0.30195584253780E+00
 0.15584185766000E+02 0.66233609137875E+00
 s    2 1.00
 0.62067138508000E+01 0.65595308539952E+00
 0.25764896527000E+01 0.37585633285142E+00
 s    1 1.00
 0.57696339419000E+00 0.10000000000000E+01
 s    1 1.00
 0.22972831358000E+00 0.10000000000000E+01
 s    1 1.00
 0.95164440028000E-01 0.10000000000000E+01
 s    1 1.00
 0.48475401370000E-01 0.10000000000000E+01
 p    4 1.00
 0.34697232244000E+02 0.11327220003114E-01
 0.79582622826000E+01 0.76169659202087E-01
 0.23780826883000E+01 0.30192252202676E+00
 0.81433208183000E+00 0.72785027349547E+00
 p    1 1.00
 0.28887547253000E+00 0.10000000000000E+01
 p    1 1.00
 0.10056823671000E+00 0.10000000000000E+01
 d    1 1.00
 0.10970000000000E+01 0.10000000000000E+01
 d    1 1.00
 0.31800000000000E+00 0.10000000000000E+01
 d    1 1.00
 0.90985336424000E-01 0.10000000000000E+01
 f    1 1.00
 0.76100000000000E+00 0.10000000000000E+01
 
    5 0
 s    6 1.00
 0.13575349682000E+05 0.60645503603591E-03
 0.20352333680000E+04 0.46979088884982E-02
 0.46322562359000E+03 0.24332477647552E-01
 0.13120019598000E+03 0.97399968307759E-01
 0.42853015891000E+02 0.30195584253780E+00
 0.15584185766000E+02 0.66233609137875E+00
 s    2 1.00
 0.62067138508000E+01 0.65595308539952E+00
 0.25764896527000E+01 0.37585633285142E+00
 s    1 1.00
 0.57696339419000E+00 0.10000000000000E+01
 s    1 1.00
 0.22972831358000E+00 0.10000000000000E+01
 s    1 1.00
 0.95164440028000E-01 0.10000000000000E+01
 s    1 1.00
 0.48475401370000E-01 0.10000000000000E+01
 p    4 1.00
 0.34697232244000E+02 0.11327220003114E-01
 0.79582622826000E+01 0.76169659202087E-01
 0.23780826883000E+01 0.30192252202676E+00
 0.81433208183000E+00 0.72785027349547E+00
 p    1 1.00
 0.28887547253000E+00 0.10000000000000E+01
 p    1 1.00
 0.10056823671000E+00 0.10000000000000E+01
 d    1 1.00
 0.10970000000000E+01 0.10000000000000E+01
 d    1 1.00
 0.31800000000000E+00 0.10000000000000E+01
 d    1 1.00
 0.90985336424000E-01 0.10000000000000E+01
 f    1 1.00
 0.76100000000000E+00 0.10000000000000E+01
 
    6 0
 s    6 1.00
 0.13575349682000E+05 0.60645503603591E-03
 0.20352333680000E+04 0.46979088884982E-02
 0.46322562359000E+03 0.24332477647552E-01
 0.13120019598000E+03 0.97399968307759E-01
 0.42853015891000E+02 0.30195584253780E+00
 0.15584185766000E+02 0.66233609137875E+00
 s    2 1.00
 0.62067138508000E+01 0.65595308539952E+00
 0.25764896527000E+01 0.37585633285142E+00
 s    1 1.00
 0.57696339419000E+00 0.10000000000000E+01
 s    1 1.00
 0.22972831358000E+00 0.10000000000000E+01
 s    1 1.00
 0.95164440028000E-01 0.10000000000000E+01
 s    1 1.00
 0.48475401370000E-01 0.10000000000000E+01
 p    4 1.00
 0.34697232244000E+02 0.11327220003114E-01
 0.79582622826000E+01 0.76169659202087E-01
 0.23780826883000E+01 0.30192252202676E+00
 0.81433208183000E+00 0.72785027349547E+00
 p    1 1.00
 0.28887547253000E+00 0.10000000000000E+01
 p    1 1.00
 0.10056823671000E+00 0.10000000000000E+01
 d    1 1.00
 0.10970000000000E+01 0.10000000000000E+01
 d    1 1.00
 0.31800000000000E+00 0.10000000000000E+01
 d    1 1.00
 0.90985336424000E-01 0.10000000000000E+01
 f    1 1.00
 0.76100000000000E+00 0.10000000000000E+01
 
    7 0
 s    3 1.00
 0.34061341000000E+02 0.25439307208879E-01
 0.51235746000000E+01 0.19008594890375E+00
 0.11646626000000E+01 0.85244113011042E+00
 s    1 1.00
 0.32723041000000E+00 0.10000000000000E+01
 s    1 1.00
 0.10307241000000E+00 0.10000000000000E+01
 p    1 1.00
 0.80000000000000E+00 0.10000000000000E+01
 p    1 1.00
 0.95774129632000E-01 0.10000000000000E+01
 
    8 0
 s    3 1.00
 0.34061341000000E+02 0.25439307208879E-01
 0.51235746000000E+01 0.19008594890375E+00
 0.11646626000000E+01 0.85244113011042E+00
 s    1 1.00
 0.32723041000000E+00 0.10000000000000E+01
 s    1 1.00
 0.10307241000000E+00 0.10000000000000E+01
 p    1 1.00
 0.80000000000000E+00 0.10000000000000E+01
 p    1 1.00
 0.95774129632000E-01 0.10000000000000E+01
 
    9 0
 s    3 1.00
 0.34061341000000E+02 0.25439307208879E-01
 0.51235746000000E+01 0.19008594890375E+00
 0.11646626000000E+01 0.85244113011042E+00
 s    1 1.00
 0.32723041000000E+00 0.10000000000000E+01
 s    1 1.00
 0.10307241000000E+00 0.10000000000000E+01
 p    1 1.00
 0.80000000000000E+00 0.10000000000000E+01
 p    1 1.00
 0.95774129632000E-01 0.10000000000000E+01
 
   10 0
 s    3 1.00
 0.34061341000000E+02 0.25439307208879E-01
 0.51235746000000E+01 0.19008594890375E+00
 0.11646626000000E+01 0.85244113011042E+00
 s    1 1.00
 0.32723041000000E+00 0.10000000000000E+01
 s    1 1.00
 0.10307241000000E+00 0.10000000000000E+01
 p    1 1.00
 0.80000000000000E+00 0.10000000000000E+01
 p    1 1.00
 0.95774129632000E-01 0.10000000000000E+01
 
   11 0
 s    6 1.00
 0.19730800647000E+05 0.58626402628763E-03
 0.29578958745000E+04 0.45428820586397E-02
 0.67322133595000E+03 0.23558413450084E-01
 0.19068249494000E+03 0.94709193292923E-01
 0.62295441898000E+02 0.29719784913376E+00
 0.22654161182000E+02 0.66916246895232E+00
 s    2 1.00
 0.89791477428000E+01 0.64596683630063E+00
 0.36863002370000E+01 0.38700574393705E+00
 s    1 1.00
 0.84660076805000E+00 0.10000000000000E+01
 s    1 1.00
 0.33647133771000E+00 0.10000000000000E+01
 s    1 1.00
 0.13647653675000E+00 0.10000000000000E+01
 s    1 1.00
 0.68441605847000E-01 0.10000000000000E+01
 p    4 1.00
 0.49200380510000E+02 0.11448825101764E-01
 0.11346790537000E+02 0.78422337970864E-01
 0.34273972411000E+01 0.30818094738830E+00
 0.11785525134000E+01 0.72027196368413E+00
 p    1 1.00
 0.41642204972000E+00 0.10000000000000E+01
 p    1 1.00
 0.14260826011000E+00 0.10000000000000E+01
 d    1 1.00
 0.16540000000000E+01 0.10000000000000E+01
 d    1 1.00
 0.46900000000000E+00 0.10000000000000E+01
 d    1 1.00
 0.12829642058000E+00 0.10000000000000E+01
 f    1 1.00
 0.10930000000000E+01 0.10000000000000E+01
 
   12 0
 s    6 1.00
 0.27032382631000E+05 0.57227335211155E-03
 0.40523871392000E+04 0.44353233492995E-02
 0.92232722710000E+03 0.23020107706038E-01
 0.26124070989000E+03 0.92822490667928E-01
 0.85354641351000E+02 0.29378500009671E+00
 0.31035035245000E+02 0.67401604501641E+00
 s    2 1.00
 0.12260860728000E+02 0.63839937025506E+00
 0.49987076005000E+01 0.39534587125718E+00
 s    1 1.00
 0.11703108158000E+01 0.10000000000000E+01
 s    1 1.00
 0.46474740994000E+00 0.10000000000000E+01
 s    1 1.00
 0.18504536357000E+00 0.10000000000000E+01
 s    1 1.00
 0.70288026270000E-01 0.10000000000000E+01
 p    4 1.00
 0.63274954801000E+02 0.12018332222616E-01
 0.14627049379000E+02 0.83005421790056E-01
 0.44501223456000E+01 0.31991743925964E+00
 0.15275799647000E+01 0.70715542916104E+00
 p    1 1.00
 0.52935117943000E+00 0.10000000000000E+01
 p    1 1.00
 0.17478421270000E+00 0.10000000000000E+01
 p    1 1.00
 0.51112745706000E-01 0.10000000000000E+01
 d    1 1.00
 0.23140000000000E+01 0.10000000000000E+01
 d    1 1.00
 0.64500000000000E+00 0.10000000000000E+01
 d    1 1.00
 0.14696477366000E+00 0.10000000000000E+01
 f    1 1.00
 0.14280000000000E+01 0.10000000000000E+01
 
   13 0
 s    6 1.00
 0.27032382631000E+05 0.57227335211155E-03
 0.40523871392000E+04 0.44353233492995E-02
 0.92232722710000E+03 0.23020107706038E-01
 0.26124070989000E+03 0.92822490667928E-01
 0.85354641351000E+02 0.29378500009671E+00
 0.31035035245000E+02 0.67401604501641E+00
 s    2 1.00
 0.12260860728000E+02 0.63839937025506E+00
 0.49987076005000E+01 0.39534587125718E+00
 s    1 1.00
 0.11703108158000E+01 0.10000000000000E+01
 s    1 1.00
 0.46474740994000E+00 0.10000000000000E+01
 s    1 1.00
 0.18504536357000E+00 0.10000000000000E+01
 s    1 1.00
 0.70288026270000E-01 0.10000000000000E+01
 p    4 1.00
 0.63274954801000E+02 0.12018332222616E-01
 0.14627049379000E+02 0.83005421790056E-01
 0.44501223456000E+01 0.31991743925964E+00
 0.15275799647000E+01 0.70715542916104E+00
 p    1 1.00
 0.52935117943000E+00 0.10000000000000E+01
 p    1 1.00
 0.17478421270000E+00 0.10000000000000E+01
 p    1 1.00
 0.51112745706000E-01 0.10000000000000E+01
 d    1 1.00
 0.23140000000000E+01 0.10000000000000E+01
 d    1 1.00
 0.64500000000000E+00 0.10000000000000E+01
 d    1 1.00
 0.14696477366000E+00 0.10000000000000E+01
 f    1 1.00
 0.14280000000000E+01 0.10000000000000E+01
 
   14 0
 s    6 1.00
 0.19730800647000E+05 0.58626402628763E-03
 0.29578958745000E+04 0.45428820586397E-02
 0.67322133595000E+03 0.23558413450084E-01
 0.19068249494000E+03 0.94709193292923E-01
 0.62295441898000E+02 0.29719784913376E+00
 0.22654161182000E+02 0.66916246895232E+00
 s    2 1.00
 0.89791477428000E+01 0.64596683630063E+00
 0.36863002370000E+01 0.38700574393705E+00
 s    1 1.00
 0.84660076805000E+00 0.10000000000000E+01
 s    1 1.00
 0.33647133771000E+00 0.10000000000000E+01
 s    1 1.00
 0.13647653675000E+00 0.10000000000000E+01
 s    1 1.00
 0.68441605847000E-01 0.10000000000000E+01
 p    4 1.00
 0.49200380510000E+02 0.11448825101764E-01
 0.11346790537000E+02 0.78422337970864E-01
 0.34273972411000E+01 0.30818094738830E+00
 0.11785525134000E+01 0.72027196368413E+00
 p    1 1.00
 0.41642204972000E+00 0.10000000000000E+01
 p    1 1.00
 0.14260826011000E+00 0.10000000000000E+01
 d    1 1.00
 0.16540000000000E+01 0.10000000000000E+01
 d    1 1.00
 0.46900000000000E+00 0.10000000000000E+01
 d    1 1.00
 0.12829642058000E+00 0.10000000000000E+01
 f    1 1.00
 0.10930000000000E+01 0.10000000000000E+01
 
   15 0
 s    3 1.00
 0.34061341000000E+02 0.25439307208879E-01
 0.51235746000000E+01 0.19008594890375E+00
 0.11646626000000E+01 0.85244113011042E+00
 s    1 1.00
 0.32723041000000E+00 0.10000000000000E+01
 s    1 1.00
 0.10307241000000E+00 0.10000000000000E+01
 p    1 1.00
 0.80000000000000E+00 0.10000000000000E+01
 p    1 1.00
 0.95774129632000E-01 0.10000000000000E+01
 
   16 0
 s    3 1.00
 0.34061341000000E+02 0.25439307208879E-01
 0.51235746000000E+01 0.19008594890375E+00
 0.11646626000000E+01 0.85244113011042E+00
 s    1 1.00
 0.32723041000000E+00 0.10000000000000E+01
 s    1 1.00
 0.10307241000000E+00 0.10000000000000E+01
 p    1 1.00
 0.80000000000000E+00 0.10000000000000E+01
 p    1 1.00
 0.95774129632000E-01 0.10000000000000E+01
 
[MO]
 Sym= X
 Ene= -0.934520
 Spin= Alpha
 Occup= -0.934520
         1    2.370843E-04
         2    5.523895E-04
         3   -1.671495E-03
         4    4.493823E-03
         5   -2.263304E-02
         6    1.599516E-02
         7    2.642238E-03
         8    1.505168E-04
         9   -2.654793E-02
        10   -3.500015E-03
        11    5.678599E-04
        12   -2.477859E-02
        13   -4.044526E-02
        14    1.728914E-02
        15   -1.292933E-02
        16   -1.739672E-05
        17    3.538128E-05
        18   -1.798455E-05
        19    1.213314E-05
        20   -6.257068E-03
        21    3.724750E-03
        22    9.418427E-04
        23   -5.465320E-04
        24   -3.953107E-04
        25    9.832189E-04
        26   -1.415953E-02
        27    7.048580E-03
        28    4.407289E-03
        29   -4.131116E-03
        30   -2.761734E-04
        31   -1.954359E-03
        32    3.403280E-03
        33   -9.258259E-03
        34   -2.994527E-05
        35    6.593022E-06
        36    8.022720E-05
        37    1.451277E-05
        38   -4.762000E-06
        39    7.316486E-04
        40    2.566302E-05
        41   -4.083467E-06
        42   -8.392847E-04
        43    6.796876E-04
        44   -2.979826E-05
        45   -6.356475E-05
        46   -2.426853E-04
        47    4.329726E-03
        48    7.144389E-02
        49   -8.070036E-03
        50   -1.082303E-04
        51    1.407077E-06
        52   -1.952386E-01
        53   -1.119890E-03
        54    1.084585E-05
        55   -2.024674E-01
        56   -1.839351E-02
        57   -4.638023E-04
        58   -1.889367E-01
        59   -8.542727E-05
        60    7.999057E-05
        61    5.436702E-06
        62   -9.371499E-08
        63   -4.709982E-04
        64    4.360975E-07
        65   -5.561262E-04
        66    9.117524E-04
        67   -3.556263E-04
        68   -2.079064E-06
        69   -2.643379E-03
        70    4.207488E-07
        71   -1.612516E-02
        72    1.810158E-02
        73   -1.976416E-03
        74    8.388210E-05
        75    3.807505E-03
        76   -1.426612E-05
        77    6.745128E-06
        78    1.724374E-08
        79    1.085890E-03
        80   -8.006827E-06
        81    2.438091E-08
        82   -6.244792E-04
        83   -1.042712E-06
        84   -4.751581E-08
        85   -8.323949E-04
        86   -3.549623E-08
        87    2.372379E-04
        88    5.527258E-04
        89   -1.672193E-03
        90    4.496966E-03
        91   -2.376681E-02
        92    1.598701E-02
        93    2.643929E-03
        94   -1.524236E-04
        95   -2.656870E-02
        96   -3.474850E-03
        97   -5.649529E-04
        98   -2.480011E-02
        99   -4.064083E-02
       100   -1.772072E-02
       101   -1.296584E-02
       102   -1.748211E-05
       103    3.540731E-05
       104   -1.792519E-05
       105   -1.230181E-05
       106   -6.256700E-03
       107   -3.724855E-03
       108    9.367716E-04
       109   -5.416723E-04
       110   -3.950993E-04
       111   -9.816762E-04
       112   -1.415810E-02
       113   -7.048545E-03
       114    4.495505E-03
       115   -4.230876E-03
       116   -2.646290E-04
       117    1.866652E-03
       118    3.390126E-03
       119    9.251632E-03
       120   -2.994988E-05
       121   -6.565896E-06
       122    8.035299E-05
       123    1.459157E-05
       124    4.721791E-06
       125    7.315128E-04
       126    2.559041E-05
       127    4.087283E-06
       128   -8.393176E-04
       129   -6.796723E-04
       130   -1.442035E-04
       131   -3.110304E-04
       132   -7.252899E-04
       133    1.332874E-02
       134   -1.068676E-02
       135   -1.916064E-02
       136   -2.228460E-03
       137    7.921646E-04
       138    1.594050E-01
       139   -1.315935E-02
       140    8.380057E-03
       141    1.617622E-01
       142   -1.740643E-02
       143   -1.053973E-02
       144    9.959381E-02
       145   -1.995348E-04
       146    2.353324E-04
       147   -3.579759E-05
       148   -1.607475E-06
       149   -1.185399E-03
       150    3.369527E-03
       151   -1.003597E-03
       152    1.085252E-03
       153   -8.165532E-05
       154   -2.266186E-03
       155   -5.021619E-03
       156    5.550725E-03
       157   -1.036376E-02
       158    7.791844E-03
       159    2.571912E-03
       160    1.526934E-02
       161    4.114410E-03
       162   -1.093899E-02
       163   -2.647790E-05
       164    1.058553E-05
       165   -9.349148E-04
       166   -2.136466E-05
       167    2.604941E-05
       168    2.297228E-04
       169    5.688849E-05
       170   -4.025139E-05
       171    1.024597E-03
       172   -3.894637E-04
       173    1.403585E-03
       174    3.201488E-03
       175   -3.072269E-03
       176   -3.030404E-02
       177    5.739893E-02
       178   -9.314942E-03
       179    1.152293E-02
       180   -1.758717E-06
       181    1.350481E-01
       182    1.667110E-04
       183   -8.466403E-06
       184    1.377768E-01
       185   -5.481817E-02
       186    5.965021E-04
       187    1.373014E-01
       188   -6.646965E-04
       189    3.781130E-04
       190    2.865835E-04
       191   -1.795365E-07
       192    9.543275E-03
       193    4.089059E-07
       194    2.448664E-03
       195   -5.484771E-03
       196    3.036107E-03
       197   -1.808452E-06
       198    2.382217E-02
       199   -8.790153E-08
       200    1.032900E-02
       201   -1.153172E-02
       202    1.202722E-03
       203    1.406095E-04
       204    1.527755E-02
       205    9.905288E-06
       206    1.524538E-04
       207    1.310504E-08
       208   -4.948189E-04
       209   -1.121201E-04
       210   -4.479291E-08
       211   -9.016657E-04
       212   -9.241821E-05
       213    2.721066E-08
       214    1.565535E-03
       215    1.582234E-08
       216   -1.445682E-04
       217   -3.118139E-04
       218   -7.235514E-04
       219    1.333194E-02
       220   -1.215114E-02
       221   -1.914000E-02
       222   -2.227392E-03
       223   -7.875796E-04
       224    1.594237E-01
       225   -1.317117E-02
       226   -8.382046E-03
       227    1.617837E-01
       228   -1.721133E-02
       229    1.114624E-02
       230    9.957834E-02
       231   -1.994075E-04
       232    2.354798E-04
       233   -3.607229E-05
       234    1.329718E-06
       235   -1.184963E-03
       236   -3.369613E-03
       237   -1.008127E-03
       238    1.089403E-03
       239   -8.127550E-05
       240    2.267666E-03
       241   -5.020181E-03
       242   -5.550638E-03
       243   -1.027901E-02
       244    7.705079E-03
       245    2.573929E-03
       246   -1.535438E-02
       247    4.127793E-03
       248    1.095183E-02
       249   -2.655459E-05
       250   -1.063659E-05
       251   -9.351039E-04
       252   -2.141505E-05
       253   -2.597217E-05
       254    2.299220E-04
       255    5.704177E-05
       256    4.024265E-05
       257    1.024651E-03
       258    3.894518E-04
       259    5.600105E-04
       260    2.956943E-04
       261    2.213398E-02
       262   -9.008525E-06
       263    3.134774E-06
       264   -1.109190E-03
       265   -6.921849E-03
       266   -9.339152E-04
       267    4.894938E-03
       268    5.615182E-04
       269    2.928843E-04
       270    2.211220E-02
       271   -8.545874E-06
       272   -3.640076E-06
       273   -1.110057E-03
       274   -7.003832E-03
       275    8.993693E-04
       276    4.898015E-03
       277    6.282119E-04
       278    3.395579E-03
       279   -4.952430E-02
       280   -2.694295E-05
       281    1.511911E-04
       282    6.471662E-03
       283   -1.458318E-03
       284   -4.261403E-03
       285    4.441815E-04
       286    6.311620E-04
       287    3.394746E-03
       288   -4.966232E-02
       289   -2.678793E-05
       290   -1.510380E-04
       291    6.472650E-03
       292   -1.418134E-03
       293    4.298345E-03
       294    4.415392E-04
       295    7.881153E-05
       296    1.843995E-04
       297   -1.975249E-04
       298   -4.930055E-04
       299    1.003556E-02
       300    5.217804E-04
       301    1.114250E-03
       302   -7.438246E-07
       303   -1.732655E-02
       304    6.253504E-04
       305   -7.695938E-07
       306   -1.940106E-02
       307   -3.750894E-03
       308    5.205634E-07
       309   -4.134945E-03
       310   -5.568777E-05
       311    4.576390E-05
       312    9.923867E-06
       313   -1.069557E-07
       314    3.974261E-03
       315    2.885184E-08
       316   -9.407667E-05
       317    2.263190E-05
       318    7.144477E-05
       319   -2.268583E-07
       320    1.199114E-02
       321    1.353413E-07
       322    7.679300E-04
       323   -3.721245E-03
       324    2.953315E-03
       325   -1.236423E-05
       326    3.083617E-03
       327    3.783988E-06
       328    9.045645E-06
       329    2.447006E-08
       330    3.235327E-05
       331   -4.902905E-06
       332   -2.296437E-08
       333   -6.645253E-04
       334   -7.233101E-06
       335   -9.865656E-09
       336    6.211188E-04
       337    1.519846E-09
       338    1.986097E-05
       339    4.334355E-05
       340   -3.776309E-06
       341   -7.790554E-04
       342    8.396455E-03
       343    1.654490E-03
       344   -1.054601E-03
       345    9.023456E-05
       346    6.675257E-02
       347   -1.111169E-03
       348    2.513303E-04
       349    6.196869E-02
       350   -2.140143E-03
       351    7.749100E-04
       352    4.974608E-02
       353   -3.937967E-04
       354    2.760895E-04
       355    5.821435E-03
       356   -3.461344E-06
       357    7.913085E-06
       358   -4.451741E-06
       359   -7.704911E-06
       360    1.937438E-05
       361    4.147613E-04
       362    2.059145E-05
       363    1.515000E-05
       364   -3.574145E-05
       365   -2.759508E-05
       366   -4.346984E-04
       367    1.367471E-03
       368    8.950190E-05
       369   -1.638707E-05
       370   -7.311483E-05
       371   -2.104650E-05
       372   -5.312342E-04
       373    2.346743E-04
       374    1.878044E-06
       375    1.732428E-06
       376   -4.949099E-05
       377   -3.451451E-06
       378    1.035570E-06
       379   -8.109517E-05
       380    9.317906E-07
       381   -3.359866E-06
       382    1.474943E-04
       383   -1.130007E-04
       384    1.988344E-05
       385    4.340788E-05
       386   -3.932427E-06
       387   -7.788730E-04
       388    8.409028E-03
       389    1.638691E-03
       390   -1.057590E-03
       391   -8.502911E-05
       392    6.675353E-02
       393   -1.114111E-03
       394   -2.468347E-04
       395    6.197002E-02
       396   -2.133334E-03
       397   -7.764155E-04
       398    4.973977E-02
       399   -3.861280E-04
       400   -2.792638E-04
       401    5.822270E-03
       402   -3.407674E-06
       403    7.827927E-06
       404   -4.420253E-06
       405    7.703182E-06
       406    1.934175E-05
       407   -4.147864E-04
       408    2.055717E-05
       409    1.504167E-05
       410   -3.559884E-05
       411    2.748608E-05
       412   -4.346498E-04
       413   -1.367403E-03
       414    9.033596E-05
       415   -1.740656E-05
       416   -7.292940E-05
       417    2.154527E-05
       418   -5.311752E-04
       419   -2.337680E-04
       420    1.869362E-06
       421   -1.711591E-06
       422   -4.949591E-05
       423   -3.434062E-06
       424   -1.048198E-06
       425   -8.108520E-05
       426    9.260503E-07
       427    3.344539E-06
       428    1.474909E-04
       429    1.130025E-04
       430   -6.418441E-03
       431   -1.526314E-02
       432    2.380724E-02
       433    3.896151E-02
       434    1.616322E-02
       435    8.953342E-02
       436   -2.341322E-02
       437    6.185755E-06
       438   -2.416925E-01
       439   -2.685253E-02
       440    9.400347E-07
       441   -2.383786E-01
       442   -2.971700E-02
       443   -5.984346E-05
       444   -1.973686E-01
       445    1.727207E-04
       446    2.565196E-05
       447   -1.983727E-04
       448   -1.401294E-07
       449    1.162525E-03
       450    1.726735E-07
       451    3.709562E-04
       452    2.132112E-03
       453   -2.503068E-03
       454    2.039074E-06
       455    4.384403E-03
       456    3.233896E-07
       457    3.140841E-03
       458    5.204005E-03
       459   -8.344846E-03
       460    6.554074E-06
       461    2.725771E-03
       462    2.371752E-07
       463   -2.001102E-04
       464    2.860548E-08
       465    8.767336E-04
       466   -1.138523E-04
       467    1.470751E-08
       468   -4.023598E-04
       469    3.823283E-04
       470   -5.308579E-08
       471   -7.739018E-04
       472    3.524337E-08
       473   -1.318272E-02
       474   -2.538887E-02
       475   -4.715158E-02
       476   -2.988102E-03
       477   -2.589168E-03
       478   -1.217148E-02
       479    6.577879E-04
       480   -5.300365E-03
       481   -1.478378E-02
       482   -1.317895E-02
       483   -2.534385E-02
       484   -4.693246E-02
       485   -2.985434E-03
       486    2.585504E-03
       487   -1.217389E-02
       488    6.961409E-04
       489    5.275854E-03
       490   -1.479600E-02
 Sym= X
 Ene= 0.934520
 Spin= Alpha
 Occup= 0.934520
         1   -3.169066E-03
         2   -6.619553E-03
         3   -3.997080E-03
         4    1.902775E-01
         5    6.969455E+00
         6    1.261675E+00
         7    1.482404E-02
         8    3.344039E-02
         9   -1.775933E-03
        10    1.013928E-01
        11    1.467321E-02
        12   -1.427508E-03
        13    4.217998E+00
        14   -4.535900E+00
        15    1.998611E-02
        16    7.857841E-04
        17    5.117123E-05
        18   -8.369553E-04
        19   -1.265478E-03
        20   -1.171392E-04
        21    3.305271E-05
        22   -2.296748E-02
        23    2.729556E-02
        24   -4.328084E-03
        25   -1.118687E-02
        26   -5.796749E-04
        27   -4.230503E-04
        28   -1.346525E+00
        29    1.328000E+00
        30    1.852464E-02
        31   -1.552458E+00
        32    6.357337E-03
        33    4.473749E-03
        34    2.019599E-04
        35   -6.362350E-05
        36   -2.584175E-05
        37    7.616774E-04
        38    4.238078E-04
        39    4.538046E-05
        40   -1.032635E-03
        41   -3.384479E-04
        42   -1.071011E-05
        43    1.639801E-06
        44   -4.255786E-06
        45   -8.483405E-06
        46   -2.581738E-05
        47    3.208854E-04
        48    2.061544E-03
        49   -9.396929E-03
        50    1.532190E-05
        51    1.230912E-02
        52   -4.040858E-06
        53    3.263220E-05
        54   -7.615315E-02
        55    6.861828E-06
        56   -6.952215E-03
        57   -9.971785E+00
        58   -4.743866E-04
        59    1.816986E-07
        60   -1.158215E-06
        61    9.765164E-07
        62    1.673357E-03