[Molden Format]
[Title]
ADC(2) - opt by CAM-B3LYP gaussian                                              
[Atoms] AU
 c     1    6 0.12592752280008E+01 0.22800132789445E+01 -.35345910021030E-01
 c     2    6 0.25511638220345E+01 0.20078340100000E-05 -.33671612667290E-01
 c     3    6 0.12592790074531E+01 -.22800111530026E+01 -.35357248377820E-01
 c     4    6 -.13364450292264E+01 -.22798221803893E+01 -.38530098554940E-01
 c     5    6 -.26857699593430E+01 -.17716182500000E-05 -.39025206801750E-01
 c     6    6 -.13364469189525E+01 0.22798205268790E+01 -.38516870472010E-01
 h     7    1 0.23055183220207E+01 0.40307538342087E+01 -.32265656424420E-01
 h     8    1 0.23055239911991E+01 -.40307498185407E+01 -.32284553685750E-01
 h     9    1 -.23548467881305E+01 -.40530977197882E+01 -.43619131030800E-01
 h    10    1 -.23548543470350E+01 0.40530922868255E+01 -.43594564591070E-01
 n    11    7 0.52860567397703E+01 0.11810788000000E-06 -.26776002008390E-01
 o    12    8 0.63771222479361E+01 -.20280728649663E+01 -.23850705954680E-01
 o    13    8 0.63771260273883E+01 0.20280712114559E+01 -.23882831298940E-01
 n    14    7 -.52615573853205E+01 0.11810788000000E-06 -.10505223788478E+00
 h    15    1 -.61955753134867E+01 -.16086254730588E+01 0.27588253543458E+00
 h    16    1 -.61955696443083E+01 0.16086275990006E+01 0.27589009433911E+00
[GTO]
    1 0
 s    6 1.00
 0.13575349682000E+05 0.60645503603591E-03
 0.20352333680000E+04 0.46979088884982E-02
 0.46322562359000E+03 0.24332477647552E-01
 0.13120019598000E+03 0.97399968307759E-01
 0.42853015891000E+02 0.30195584253780E+00
 0.15584185766000E+02 0.66233609137875E+00
 s    2 1.00
 0.62067138508000E+01 0.65595308539952E+00
 0.25764896527000E+01 0.37585633285142E+00
 s    1 1.00
 0.57696339419000E+00 0.10000000000000E+01
 s    1 1.00
 0.22972831358000E+00 0.10000000000000E+01
 s    1 1.00
 0.95164440028000E-01 0.10000000000000E+01
 s    1 1.00
 0.48475401370000E-01 0.10000000000000E+01
 p    4 1.00
 0.34697232244000E+02 0.11327220003114E-01
 0.79582622826000E+01 0.76169659202087E-01
 0.23780826883000E+01 0.30192252202676E+00
 0.81433208183000E+00 0.72785027349547E+00
 p    1 1.00
 0.28887547253000E+00 0.10000000000000E+01
 p    1 1.00
 0.10056823671000E+00 0.10000000000000E+01
 d    1 1.00
 0.10970000000000E+01 0.10000000000000E+01
 d    1 1.00
 0.31800000000000E+00 0.10000000000000E+01
 d    1 1.00
 0.90985336424000E-01 0.10000000000000E+01
 f    1 1.00
 0.76100000000000E+00 0.10000000000000E+01
 
    2 0
 s    6 1.00
 0.13575349682000E+05 0.60645503603591E-03
 0.20352333680000E+04 0.46979088884982E-02
 0.46322562359000E+03 0.24332477647552E-01
 0.13120019598000E+03 0.97399968307759E-01
 0.42853015891000E+02 0.30195584253780E+00
 0.15584185766000E+02 0.66233609137875E+00
 s    2 1.00
 0.62067138508000E+01 0.65595308539952E+00
 0.25764896527000E+01 0.37585633285142E+00
 s    1 1.00
 0.57696339419000E+00 0.10000000000000E+01
 s    1 1.00
 0.22972831358000E+00 0.10000000000000E+01
 s    1 1.00
 0.95164440028000E-01 0.10000000000000E+01
 s    1 1.00
 0.48475401370000E-01 0.10000000000000E+01
 p    4 1.00
 0.34697232244000E+02 0.11327220003114E-01
 0.79582622826000E+01 0.76169659202087E-01
 0.23780826883000E+01 0.30192252202676E+00
 0.81433208183000E+00 0.72785027349547E+00
 p    1 1.00
 0.28887547253000E+00 0.10000000000000E+01
 p    1 1.00
 0.10056823671000E+00 0.10000000000000E+01
 d    1 1.00
 0.10970000000000E+01 0.10000000000000E+01
 d    1 1.00
 0.31800000000000E+00 0.10000000000000E+01
 d    1 1.00
 0.90985336424000E-01 0.10000000000000E+01
 f    1 1.00
 0.76100000000000E+00 0.10000000000000E+01
 
    3 0
 s    6 1.00
 0.13575349682000E+05 0.60645503603591E-03
 0.20352333680000E+04 0.46979088884982E-02
 0.46322562359000E+03 0.24332477647552E-01
 0.13120019598000E+03 0.97399968307759E-01
 0.42853015891000E+02 0.30195584253780E+00
 0.15584185766000E+02 0.66233609137875E+00
 s    2 1.00
 0.62067138508000E+01 0.65595308539952E+00
 0.25764896527000E+01 0.37585633285142E+00
 s    1 1.00
 0.57696339419000E+00 0.10000000000000E+01
 s    1 1.00
 0.22972831358000E+00 0.10000000000000E+01
 s    1 1.00
 0.95164440028000E-01 0.10000000000000E+01
 s    1 1.00
 0.48475401370000E-01 0.10000000000000E+01
 p    4 1.00
 0.34697232244000E+02 0.11327220003114E-01
 0.79582622826000E+01 0.76169659202087E-01
 0.23780826883000E+01 0.30192252202676E+00
 0.81433208183000E+00 0.72785027349547E+00
 p    1 1.00
 0.28887547253000E+00 0.10000000000000E+01
 p    1 1.00
 0.10056823671000E+00 0.10000000000000E+01
 d    1 1.00
 0.10970000000000E+01 0.10000000000000E+01
 d    1 1.00
 0.31800000000000E+00 0.10000000000000E+01
 d    1 1.00
 0.90985336424000E-01 0.10000000000000E+01
 f    1 1.00
 0.76100000000000E+00 0.10000000000000E+01
 
    4 0
 s    6 1.00
 0.13575349682000E+05 0.60645503603591E-03
 0.20352333680000E+04 0.46979088884982E-02
 0.46322562359000E+03 0.24332477647552E-01
 0.13120019598000E+03 0.97399968307759E-01
 0.42853015891000E+02 0.30195584253780E+00
 0.15584185766000E+02 0.66233609137875E+00
 s    2 1.00
 0.62067138508000E+01 0.65595308539952E+00
 0.25764896527000E+01 0.37585633285142E+00
 s    1 1.00
 0.57696339419000E+00 0.10000000000000E+01
 s    1 1.00
 0.22972831358000E+00 0.10000000000000E+01
 s    1 1.00
 0.95164440028000E-01 0.10000000000000E+01
 s    1 1.00
 0.48475401370000E-01 0.10000000000000E+01
 p    4 1.00
 0.34697232244000E+02 0.11327220003114E-01
 0.79582622826000E+01 0.76169659202087E-01
 0.23780826883000E+01 0.30192252202676E+00
 0.81433208183000E+00 0.72785027349547E+00
 p    1 1.00
 0.28887547253000E+00 0.10000000000000E+01
 p    1 1.00
 0.10056823671000E+00 0.10000000000000E+01
 d    1 1.00
 0.10970000000000E+01 0.10000000000000E+01
 d    1 1.00
 0.31800000000000E+00 0.10000000000000E+01
 d    1 1.00
 0.90985336424000E-01 0.10000000000000E+01
 f    1 1.00
 0.76100000000000E+00 0.10000000000000E+01
 
    5 0
 s    6 1.00
 0.13575349682000E+05 0.60645503603591E-03
 0.20352333680000E+04 0.46979088884982E-02
 0.46322562359000E+03 0.24332477647552E-01
 0.13120019598000E+03 0.97399968307759E-01
 0.42853015891000E+02 0.30195584253780E+00
 0.15584185766000E+02 0.66233609137875E+00
 s    2 1.00
 0.62067138508000E+01 0.65595308539952E+00
 0.25764896527000E+01 0.37585633285142E+00
 s    1 1.00
 0.57696339419000E+00 0.10000000000000E+01
 s    1 1.00
 0.22972831358000E+00 0.10000000000000E+01
 s    1 1.00
 0.95164440028000E-01 0.10000000000000E+01
 s    1 1.00
 0.48475401370000E-01 0.10000000000000E+01
 p    4 1.00
 0.34697232244000E+02 0.11327220003114E-01
 0.79582622826000E+01 0.76169659202087E-01
 0.23780826883000E+01 0.30192252202676E+00
 0.81433208183000E+00 0.72785027349547E+00
 p    1 1.00
 0.28887547253000E+00 0.10000000000000E+01
 p    1 1.00
 0.10056823671000E+00 0.10000000000000E+01
 d    1 1.00
 0.10970000000000E+01 0.10000000000000E+01
 d    1 1.00
 0.31800000000000E+00 0.10000000000000E+01
 d    1 1.00
 0.90985336424000E-01 0.10000000000000E+01
 f    1 1.00
 0.76100000000000E+00 0.10000000000000E+01
 
    6 0
 s    6 1.00
 0.13575349682000E+05 0.60645503603591E-03
 0.20352333680000E+04 0.46979088884982E-02
 0.46322562359000E+03 0.24332477647552E-01
 0.13120019598000E+03 0.97399968307759E-01
 0.42853015891000E+02 0.30195584253780E+00
 0.15584185766000E+02 0.66233609137875E+00
 s    2 1.00
 0.62067138508000E+01 0.65595308539952E+00
 0.25764896527000E+01 0.37585633285142E+00
 s    1 1.00
 0.57696339419000E+00 0.10000000000000E+01
 s    1 1.00
 0.22972831358000E+00 0.10000000000000E+01
 s    1 1.00
 0.95164440028000E-01 0.10000000000000E+01
 s    1 1.00
 0.48475401370000E-01 0.10000000000000E+01
 p    4 1.00
 0.34697232244000E+02 0.11327220003114E-01
 0.79582622826000E+01 0.76169659202087E-01
 0.23780826883000E+01 0.30192252202676E+00
 0.81433208183000E+00 0.72785027349547E+00
 p    1 1.00
 0.28887547253000E+00 0.10000000000000E+01
 p    1 1.00
 0.10056823671000E+00 0.10000000000000E+01
 d    1 1.00
 0.10970000000000E+01 0.10000000000000E+01
 d    1 1.00
 0.31800000000000E+00 0.10000000000000E+01
 d    1 1.00
 0.90985336424000E-01 0.10000000000000E+01
 f    1 1.00
 0.76100000000000E+00 0.10000000000000E+01
 
    7 0
 s    3 1.00
 0.34061341000000E+02 0.25439307208879E-01
 0.51235746000000E+01 0.19008594890375E+00
 0.11646626000000E+01 0.85244113011042E+00
 s    1 1.00
 0.32723041000000E+00 0.10000000000000E+01
 s    1 1.00
 0.10307241000000E+00 0.10000000000000E+01
 p    1 1.00
 0.80000000000000E+00 0.10000000000000E+01
 p    1 1.00
 0.95774129632000E-01 0.10000000000000E+01
 
    8 0
 s    3 1.00
 0.34061341000000E+02 0.25439307208879E-01
 0.51235746000000E+01 0.19008594890375E+00
 0.11646626000000E+01 0.85244113011042E+00
 s    1 1.00
 0.32723041000000E+00 0.10000000000000E+01
 s    1 1.00
 0.10307241000000E+00 0.10000000000000E+01
 p    1 1.00
 0.80000000000000E+00 0.10000000000000E+01
 p    1 1.00
 0.95774129632000E-01 0.10000000000000E+01
 
    9 0
 s    3 1.00
 0.34061341000000E+02 0.25439307208879E-01
 0.51235746000000E+01 0.19008594890375E+00
 0.11646626000000E+01 0.85244113011042E+00
 s    1 1.00
 0.32723041000000E+00 0.10000000000000E+01
 s    1 1.00
 0.10307241000000E+00 0.10000000000000E+01
 p    1 1.00
 0.80000000000000E+00 0.10000000000000E+01
 p    1 1.00
 0.95774129632000E-01 0.10000000000000E+01
 
   10 0
 s    3 1.00
 0.34061341000000E+02 0.25439307208879E-01
 0.51235746000000E+01 0.19008594890375E+00
 0.11646626000000E+01 0.85244113011042E+00
 s    1 1.00
 0.32723041000000E+00 0.10000000000000E+01
 s    1 1.00
 0.10307241000000E+00 0.10000000000000E+01
 p    1 1.00
 0.80000000000000E+00 0.10000000000000E+01
 p    1 1.00
 0.95774129632000E-01 0.10000000000000E+01
 
   11 0
 s    6 1.00
 0.19730800647000E+05 0.58626402628763E-03
 0.29578958745000E+04 0.45428820586397E-02
 0.67322133595000E+03 0.23558413450084E-01
 0.19068249494000E+03 0.94709193292923E-01
 0.62295441898000E+02 0.29719784913376E+00
 0.22654161182000E+02 0.66916246895232E+00
 s    2 1.00
 0.89791477428000E+01 0.64596683630063E+00
 0.36863002370000E+01 0.38700574393705E+00
 s    1 1.00
 0.84660076805000E+00 0.10000000000000E+01
 s    1 1.00
 0.33647133771000E+00 0.10000000000000E+01
 s    1 1.00
 0.13647653675000E+00 0.10000000000000E+01
 s    1 1.00
 0.68441605847000E-01 0.10000000000000E+01
 p    4 1.00
 0.49200380510000E+02 0.11448825101764E-01
 0.11346790537000E+02 0.78422337970864E-01
 0.34273972411000E+01 0.30818094738830E+00
 0.11785525134000E+01 0.72027196368413E+00
 p    1 1.00
 0.41642204972000E+00 0.10000000000000E+01
 p    1 1.00
 0.14260826011000E+00 0.10000000000000E+01
 d    1 1.00
 0.16540000000000E+01 0.10000000000000E+01
 d    1 1.00
 0.46900000000000E+00 0.10000000000000E+01
 d    1 1.00
 0.12829642058000E+00 0.10000000000000E+01
 f    1 1.00
 0.10930000000000E+01 0.10000000000000E+01
 
   12 0
 s    6 1.00
 0.27032382631000E+05 0.57227335211155E-03
 0.40523871392000E+04 0.44353233492995E-02
 0.92232722710000E+03 0.23020107706038E-01
 0.26124070989000E+03 0.92822490667928E-01
 0.85354641351000E+02 0.29378500009671E+00
 0.31035035245000E+02 0.67401604501641E+00
 s    2 1.00
 0.12260860728000E+02 0.63839937025506E+00
 0.49987076005000E+01 0.39534587125718E+00
 s    1 1.00
 0.11703108158000E+01 0.10000000000000E+01
 s    1 1.00
 0.46474740994000E+00 0.10000000000000E+01
 s    1 1.00
 0.18504536357000E+00 0.10000000000000E+01
 s    1 1.00
 0.70288026270000E-01 0.10000000000000E+01
 p    4 1.00
 0.63274954801000E+02 0.12018332222616E-01
 0.14627049379000E+02 0.83005421790056E-01
 0.44501223456000E+01 0.31991743925964E+00
 0.15275799647000E+01 0.70715542916104E+00
 p    1 1.00
 0.52935117943000E+00 0.10000000000000E+01
 p    1 1.00
 0.17478421270000E+00 0.10000000000000E+01
 p    1 1.00
 0.51112745706000E-01 0.10000000000000E+01
 d    1 1.00
 0.23140000000000E+01 0.10000000000000E+01
 d    1 1.00
 0.64500000000000E+00 0.10000000000000E+01
 d    1 1.00
 0.14696477366000E+00 0.10000000000000E+01
 f    1 1.00
 0.14280000000000E+01 0.10000000000000E+01
 
   13 0
 s    6 1.00
 0.27032382631000E+05 0.57227335211155E-03
 0.40523871392000E+04 0.44353233492995E-02
 0.92232722710000E+03 0.23020107706038E-01
 0.26124070989000E+03 0.92822490667928E-01
 0.85354641351000E+02 0.29378500009671E+00
 0.31035035245000E+02 0.67401604501641E+00
 s    2 1.00
 0.12260860728000E+02 0.63839937025506E+00
 0.49987076005000E+01 0.39534587125718E+00
 s    1 1.00
 0.11703108158000E+01 0.10000000000000E+01
 s    1 1.00
 0.46474740994000E+00 0.10000000000000E+01
 s    1 1.00
 0.18504536357000E+00 0.10000000000000E+01
 s    1 1.00
 0.70288026270000E-01 0.10000000000000E+01
 p    4 1.00
 0.63274954801000E+02 0.12018332222616E-01
 0.14627049379000E+02 0.83005421790056E-01
 0.44501223456000E+01 0.31991743925964E+00
 0.15275799647000E+01 0.70715542916104E+00
 p    1 1.00
 0.52935117943000E+00 0.10000000000000E+01
 p    1 1.00
 0.17478421270000E+00 0.10000000000000E+01
 p    1 1.00
 0.51112745706000E-01 0.10000000000000E+01
 d    1 1.00
 0.23140000000000E+01 0.10000000000000E+01
 d    1 1.00
 0.64500000000000E+00 0.10000000000000E+01
 d    1 1.00
 0.14696477366000E+00 0.10000000000000E+01
 f    1 1.00
 0.14280000000000E+01 0.10000000000000E+01
 
   14 0
 s    6 1.00
 0.19730800647000E+05 0.58626402628763E-03
 0.29578958745000E+04 0.45428820586397E-02
 0.67322133595000E+03 0.23558413450084E-01
 0.19068249494000E+03 0.94709193292923E-01
 0.62295441898000E+02 0.29719784913376E+00
 0.22654161182000E+02 0.66916246895232E+00
 s    2 1.00
 0.89791477428000E+01 0.64596683630063E+00
 0.36863002370000E+01 0.38700574393705E+00
 s    1 1.00
 0.84660076805000E+00 0.10000000000000E+01
 s    1 1.00
 0.33647133771000E+00 0.10000000000000E+01
 s    1 1.00
 0.13647653675000E+00 0.10000000000000E+01
 s    1 1.00
 0.68441605847000E-01 0.10000000000000E+01
 p    4 1.00
 0.49200380510000E+02 0.11448825101764E-01
 0.11346790537000E+02 0.78422337970864E-01
 0.34273972411000E+01 0.30818094738830E+00
 0.11785525134000E+01 0.72027196368413E+00
 p    1 1.00
 0.41642204972000E+00 0.10000000000000E+01
 p    1 1.00
 0.14260826011000E+00 0.10000000000000E+01
 d    1 1.00
 0.16540000000000E+01 0.10000000000000E+01
 d    1 1.00
 0.46900000000000E+00 0.10000000000000E+01
 d    1 1.00
 0.12829642058000E+00 0.10000000000000E+01
 f    1 1.00
 0.10930000000000E+01 0.10000000000000E+01
 
   15 0
 s    3 1.00
 0.34061341000000E+02 0.25439307208879E-01
 0.51235746000000E+01 0.19008594890375E+00
 0.11646626000000E+01 0.85244113011042E+00
 s    1 1.00
 0.32723041000000E+00 0.10000000000000E+01
 s    1 1.00
 0.10307241000000E+00 0.10000000000000E+01
 p    1 1.00
 0.80000000000000E+00 0.10000000000000E+01
 p    1 1.00
 0.95774129632000E-01 0.10000000000000E+01
 
   16 0
 s    3 1.00
 0.34061341000000E+02 0.25439307208879E-01
 0.51235746000000E+01 0.19008594890375E+00
 0.11646626000000E+01 0.85244113011042E+00
 s    1 1.00
 0.32723041000000E+00 0.10000000000000E+01
 s    1 1.00
 0.10307241000000E+00 0.10000000000000E+01
 p    1 1.00
 0.80000000000000E+00 0.10000000000000E+01
 p    1 1.00
 0.95774129632000E-01 0.10000000000000E+01
 
[MO]
 Sym= X
 Ene= -0.077908
 Spin= Alpha
 Occup= -0.077908
         1    4.847241E-04
         2    1.111611E-03
         3   -2.426487E-03
         4    2.166990E-03
         5   -1.809230E-02
         6    1.465775E-02
         7    8.104804E-03
         8   -1.698427E-04
         9    1.367021E-01
        10    1.080442E-03
        11    4.567165E-04
        12    1.348920E-01
        13   -2.928953E-02
        14    9.516169E-04
        15    5.000372E-02
        16   -2.446858E-04
        17    2.330487E-04
        18    1.163711E-05
        19    8.072661E-05
        20    9.284437E-04
        21   -4.504945E-03
        22    5.528663E-04
        23   -3.014705E-04
        24   -2.513959E-04
        25    1.129267E-03
        26    2.501322E-03
        27   -7.489806E-03
        28    1.765304E-03
        29   -1.267753E-03
        30   -4.975503E-04
        31   -2.657645E-03
        32    6.481809E-03
        33   -4.488531E-03
        34   -8.649552E-06
        35    6.158516E-06
        36   -1.130465E-03
        37    3.521211E-06
        38   -3.110234E-06
        39    5.531186E-04
        40    8.083381E-06
        41   -5.152282E-06
        42    9.635595E-04
        43   -5.235368E-04
        44    4.365214E-05
        45    1.069239E-04
        46   -6.912640E-04
        47    5.263780E-03
        48    1.521579E-02
        49   -1.262042E-02
        50   -4.920778E-03
        51    1.692247E-07
        52    2.131029E-01
        53   -5.212756E-03
        54   -1.238514E-05
        55    2.156150E-01
        56   -7.004219E-03
        57   -3.945146E-04
        58    7.654057E-02
        59   -3.679093E-04
        60    3.561241E-04
        61    1.178521E-05
        62   -1.094771E-08
        63   -2.902703E-03
        64    8.053150E-08
        65   -9.080267E-04
        66    1.284099E-03
        67   -3.760720E-04
        68    2.109116E-06
        69   -4.606824E-03
        70    2.430674E-07
        71   -1.801864E-02
        72    1.870465E-02
        73   -6.860124E-04
        74    4.297531E-05
        75   -8.007930E-03
        76   -1.059317E-05
        77   -2.717027E-05
        78   -1.248332E-07
        79   -1.647426E-03
        80    3.953462E-06
        81    7.090951E-08
        82    8.232062E-04
        83    3.249928E-05
        84    9.657174E-08
        85    1.387048E-03
        86   -7.337128E-09
        87    4.836133E-04
        88    1.109083E-03
        89   -2.420303E-03
        90    2.167176E-03
        91   -1.940205E-02
        92    1.470101E-02
        93    8.112871E-03
        94    1.615283E-04
        95    1.366980E-01
        96    1.086791E-03
        97   -4.770322E-04
        98    1.348892E-01
        99   -2.921473E-02
       100   -1.415264E-03
       101    4.997307E-02
       102   -2.447573E-04
       103    2.332443E-04
       104    1.151306E-05
       105   -8.112961E-05
       106    9.284759E-04
       107    4.505042E-03
       108    5.501194E-04
       109   -3.003672E-04
       110   -2.497522E-04
       111   -1.133020E-03
       112    2.501227E-03
       113    7.488884E-03
       114    1.774193E-03
       115   -1.289014E-03
       116   -4.851786E-04
       117    2.617891E-03
       118    6.470524E-03
       119    4.460400E-03
       120   -8.586463E-06
       121   -6.182711E-06
       122   -1.130463E-03
       123    3.452582E-06
       124    3.006202E-06
       125    5.531270E-04
       126    8.067367E-06
       127    5.288776E-06
       128    9.635482E-04
       129    5.235014E-04
       130   -3.621656E-04
       131   -8.065417E-04
       132   -1.353909E-05
       133    1.461340E-02
       134    1.524802E-02
       135   -1.735847E-02
       136   -8.275781E-03
       137    2.338312E-03
       138    3.842992E-02
       139   -1.742115E-02
       140    9.275821E-03
       141    3.807177E-02
       142   -1.443412E-02
       143   -1.460426E-02
       144    8.811499E-03
       145   -4.903030E-04
       146    5.572405E-04
       147   -6.693750E-05
       148    1.742078E-05
       149    4.017437E-03
       150   -6.458854E-04
       151   -1.018937E-03
       152    1.261870E-03
       153   -2.429332E-04
       154   -2.290928E-03
       155    7.090039E-03
       156   -1.805079E-03
       157   -9.460292E-03
       158    7.490426E-03
       159    1.969866E-03
       160    1.231880E-02
       161    3.618361E-03
       162   -1.097344E-02
       163   -3.189413E-05
       164    2.821409E-05
       165   -3.369824E-04
       166   -3.792205E-05
       167    7.832313E-06
       168    5.583955E-04
       169    8.071252E-05
       170   -4.568548E-05
       171   -1.062862E-04
       172    3.618602E-04
       173    1.688563E-03
       174    3.833361E-03
       175   -4.437178E-03
       176   -2.304000E-02
       177    7.806558E-02
       178   -2.111984E-03
       179    2.178445E-02
       180   -4.186753E-06
       181   -8.009905E-02
       182    5.769495E-03
       183   -1.499686E-05
       184   -7.731889E-02
       185   -6.216184E-02
       186    1.044197E-04
       187    1.697974E-02
       188   -1.112763E-03
       189    8.131464E-04
       190    2.996169E-04
       191   -2.189958E-07
       192    6.381065E-03
       193   -2.686120E-08
       194    2.394675E-03
       195   -5.037593E-03
       196    2.642917E-03
       197   -4.115444E-06
       198    1.342148E-02
       199    1.619894E-06
       200    1.451200E-02
       201   -1.454751E-02
       202    3.551427E-05
       203    8.431056E-05
       204    2.918289E-03
       205    2.573712E-05
       206    1.993906E-04
       207   -4.887037E-08
       208    8.027031E-04
       209   -1.195470E-04
       210   -2.656280E-08
       211   -1.289556E-03
       212   -1.479636E-04
       213    9.212928E-08
       214    2.126165E-04
       215    5.801907E-08
       216   -3.624378E-04
       217   -8.071666E-04
       218   -1.445178E-05
       219    1.463577E-02
       220    1.425988E-02
       221   -1.729133E-02
       222   -8.270539E-03
       223   -2.331747E-03
       224    3.843240E-02
       225   -1.743144E-02
       226   -9.284773E-03
       227    3.807375E-02
       228   -1.472124E-02
       229    1.489494E-02
       230    8.744235E-03
       231   -4.902926E-04
       232    5.572381E-04
       233   -6.694556E-05
       234   -1.793017E-05
       235    4.017559E-03
       236    6.457780E-04
       237   -1.021516E-03
       238    1.266148E-03
       239   -2.446315E-04
       240    2.292807E-03
       241    7.090644E-03
       242    1.806566E-03
       243   -9.413316E-03
       244    7.443590E-03
       245    1.969726E-03
       246   -1.230351E-02
       247    3.639861E-03
       248    1.099929E-02
       249   -3.178969E-05
       250   -2.824472E-05
       251   -3.369279E-04
       252   -3.812218E-05
       253   -7.769738E-06
       254    5.583817E-04
       255    8.077253E-05
       256    4.566401E-05
       257   -1.063455E-04
       258   -3.619292E-04
       259    1.947848E-03
       260    2.613191E-03
       261    2.555057E-02
       262    1.347675E-05
       263   -2.341674E-04
       264    4.916963E-03
       265   -5.787843E-03
       266   -2.469435E-03
       267    2.360950E-03
       268    1.954507E-03
       269    2.617595E-03
       270    2.542140E-02
       271    1.322488E-05
       272    2.343563E-04
       273    4.916611E-03
       274   -5.798453E-03
       275    2.447637E-03
       276    2.344941E-03
       277    2.258511E-03
       278    5.787119E-03
       279   -4.751151E-02
       280   -6.137038E-05
       281    4.059297E-04
       282    9.385360E-04
       283   -6.544817E-03
       284   -3.312503E-03
       285   -8.659090E-03
       286    2.261673E-03
       287    5.779322E-03
       288   -4.754452E-02
       289   -6.087732E-05
       290   -4.050449E-04
       291    9.386103E-04
       292   -6.521692E-03
       293    3.333775E-03
       294   -8.668185E-03
       295    3.055701E-04
       296    7.199746E-04
       297   -8.969517E-04
       298   -2.636929E-03
       299    1.090810E-02
       300    8.684727E-03
       301    5.724378E-03
       302   -3.413544E-06
       303   -2.495890E-02
       304    4.883994E-03
       305   -3.537435E-06
       306   -2.392741E-02
       307   -2.701475E-03
       308    1.448395E-05
       309    3.105515E-03
       310   -2.695950E-04
       311    3.305581E-04
       312   -6.096307E-05
       313   -7.691765E-07
       314   -4.040760E-03
       315    1.709197E-07
       316   -7.166630E-04
       317    7.885238E-04
       318   -7.186081E-05
       319   -2.113344E-06
       320   -1.145139E-02
       321    4.041131E-07
       322    3.926802E-04
       323   -3.144933E-03
       324    2.752253E-03
       325   -1.093000E-05
       326   -5.591189E-03
       327   -1.973012E-06
       328    5.915193E-06
       329    1.595193E-07
       330    1.342161E-04
       331    6.948501E-06
       332   -2.474288E-07
       333    5.859897E-04
       334   -1.488457E-05
       335    3.341119E-08
       336   -7.660595E-04
       337    2.047770E-08
       338    7.675544E-05
       339    1.819213E-04
       340   -2.436971E-04
       341   -1.426256E-03
       342    7.446364E-03
       343    5.240106E-04
       344   -6.810998E-03
       345   -1.236854E-04
       346   -7.522740E-02
       347   -6.169027E-03
       348   -9.717326E-05
       349   -6.921970E-02
       350   -5.471582E-03
       351    4.232067E-04
       352   -4.764865E-02
       353   -8.016996E-04
       354   -1.602509E-04
       355   -4.004979E-03
       356   -4.380913E-07
       357    2.848035E-05
       358   -2.804226E-05
       359   -5.577151E-05
       360    2.702698E-04
       361   -8.818566E-04
       362    5.626543E-05
       363    4.597269E-05
       364   -1.022381E-04
       365   -1.174517E-04
       366    1.221217E-03
       367   -2.672584E-03
       368    1.219624E-04
       369    3.675046E-06
       370   -1.256374E-04
       371   -2.308051E-05
       372    1.950565E-03
       373   -4.305404E-04
       374    8.360949E-06
       375   -2.566091E-07
       376    1.340498E-04
       377   -1.737927E-05
       378    1.074753E-05
       379    7.833557E-05
       380    6.161883E-06
       381   -1.040325E-05
       382   -2.581822E-04
       383    2.234085E-04
       384    7.675197E-05
       385    1.819091E-04
       386   -2.434045E-04
       387   -1.425997E-03
       388    7.455258E-03
       389    5.279172E-04
       390   -6.850658E-03
       391    1.579259E-04
       392   -7.521861E-02
       393   -6.204914E-03
       394    1.265239E-04
       395   -6.921215E-02
       396   -5.493833E-03
       397   -4.022857E-04
       398   -4.763654E-02
       399   -8.096607E-04
       400    1.657903E-04
       401   -4.002762E-03
       402   -9.630659E-08
       403    2.805686E-05
       404   -2.796055E-05
       405    5.575888E-05
       406    2.702426E-04
       407    8.817889E-04
       408    5.718205E-05
       409    4.509146E-05
       410   -1.022735E-04
       411    1.176802E-04
       412    1.220947E-03
       413    2.672279E-03
       414    1.255031E-04
       415    4.475127E-07
       416   -1.259506E-04
       417    2.200125E-05
       418    1.950425E-03
       419    4.289043E-04
       420    8.319241E-06
       421    3.661407E-07
       422    1.340361E-04
       423   -1.732113E-05
       424   -1.088243E-05
       425    7.832431E-05
       426    6.159700E-06
       427    1.039120E-05
       428   -2.581527E-04
       429   -2.233818E-04
       430   -6.245174E-03
       431   -1.481515E-02
       432    2.296081E-02
       433    3.796962E-02
       434   -7.675192E-04
       435    4.426719E-02
       436   -3.096032E-02
       437    8.713640E-06
       438   -2.387332E-01
       439   -3.411110E-02
       440    3.722223E-06
       441   -2.312643E-01
       442   -4.529416E-02
       443   -3.990613E-05
       444   -1.579268E-01
       445    1.031504E-04
       446    2.960329E-04
       447   -3.991833E-04
       448   -2.455845E-07
       449   -1.710782E-03
       450    2.355318E-07
       451   -1.600439E-04
       452    3.065556E-03
       453   -2.905512E-03
       454    1.742572E-06
       455   -3.694382E-03
       456    1.361515E-07
       457   -1.210458E-03
       458    8.892124E-03
       459   -7.681667E-03
       460    7.622817E-06
       461   -3.968869E-04
       462   -3.079084E-07
       463   -1.390930E-04
       464    5.074256E-08
       465    1.208245E-03
       466   -1.569806E-04
       467    8.541539E-09
       468   -1.020008E-03
       469    3.435935E-04
       470   -7.661982E-08
       471   -6.010224E-04
       472    1.733766E-08
       473   -7.884354E-03
       474   -1.929911E-02
       475   -3.964596E-02
       476   -3.350253E-03
       477   -2.348435E-03
       478   -1.085231E-02
       479   -4.767903E-03
       480   -3.770746E-03
       481   -4.393977E-03
       482   -7.877800E-03
       483   -1.925418E-02
       484   -3.946643E-02
       485   -3.347293E-03
       486    2.344831E-03
       487   -1.085428E-02
       488   -4.738197E-03
       489    3.749932E-03
       490   -4.409652E-03
 Sym= X
 Ene= -0.829786
 Spin= Alpha
 Occup= -0.829786
         1    2.957753E-04
         2    6.857087E-04
         3   -1.869517E-03
         4    4.201852E-03
         5   -2.186940E-02
         6    1.631996E-02
         7    4.802336E-03
         8    7.328293E-04
         9   -3.309323E-02
        10   -1.905321E-03
        11    1.115031E-03
        12   -3.117156E-02
        13   -4.302063E-02
        14    1.790608E-02
        15   -1.456530E-02
        16   -7.739525E-05
        17    9.075458E-05
        18   -1.335933E-05
        19    3.324312E-05
        20   -6.146365E-03
        21    3.883907E-03
        22    8.842894E-04
        23   -5.073309E-04
        24   -3.769585E-04
        25    1.039357E-03
        26   -1.396295E-02
        27    7.302110E-03
        28    4.550136E-03
        29   -4.146463E-03
        30   -4.036735E-04
        31   -2.055165E-03
        32    3.341158E-03
        33   -9.814224E-03
        34   -2.382065E-05
        35    1.156257E-05
        36    1.403303E-04
        37    1.399138E-05
        38   -8.831933E-06
        39    6.842354E-04
        40    1.796737E-05
        41   -6.680888E-06
        42   -8.725082E-04
        43    6.873345E-04
        44   -1.600747E-04
        45   -3.565120E-04
        46    1.421204E-04
        47    5.339943E-03
        48    7.386506E-02
        49   -8.244241E-03
        50   -8.259670E-05
        51    1.492948E-06
        52   -2.021324E-01
        53   -1.106194E-03
        54    1.153691E-05
        55   -2.092493E-01
        56   -1.855965E-02
        57   -4.467880E-04
        58   -1.929382E-01
        59   -1.520439E-04
        60    1.479837E-04
        61    4.060150E-06
        62   -1.011072E-07