[Molden Format]
[Title]
ADC(2) - opt by CAM-B3LYP gaussian                                              
[Atoms] AU
 c     1    6 0.12592752280008E+01 0.22800132789445E+01 -.35345910021030E-01
 c     2    6 0.25511638220345E+01 0.20078340100000E-05 -.33671612667290E-01
 c     3    6 0.12592790074531E+01 -.22800111530026E+01 -.35357248377820E-01
 c     4    6 -.13364450292264E+01 -.22798221803893E+01 -.38530098554940E-01
 c     5    6 -.26857699593430E+01 -.17716182500000E-05 -.39025206801750E-01
 c     6    6 -.13364469189525E+01 0.22798205268790E+01 -.38516870472010E-01
 h     7    1 0.23055183220207E+01 0.40307538342087E+01 -.32265656424420E-01
 h     8    1 0.23055239911991E+01 -.40307498185407E+01 -.32284553685750E-01
 h     9    1 -.23548467881305E+01 -.40530977197882E+01 -.43619131030800E-01
 h    10    1 -.23548543470350E+01 0.40530922868255E+01 -.43594564591070E-01
 n    11    7 0.52860567397703E+01 0.11810788000000E-06 -.26776002008390E-01
 o    12    8 0.63771222479361E+01 -.20280728649663E+01 -.23850705954680E-01
 o    13    8 0.63771260273883E+01 0.20280712114559E+01 -.23882831298940E-01
 n    14    7 -.52615573853205E+01 0.11810788000000E-06 -.10505223788478E+00
 h    15    1 -.61955753134867E+01 -.16086254730588E+01 0.27588253543458E+00
 h    16    1 -.61955696443083E+01 0.16086275990006E+01 0.27589009433911E+00
[GTO]
    1 0
 s    6 1.00
 0.13575349682000E+05 0.60645503603591E-03
 0.20352333680000E+04 0.46979088884982E-02
 0.46322562359000E+03 0.24332477647552E-01
 0.13120019598000E+03 0.97399968307759E-01
 0.42853015891000E+02 0.30195584253780E+00
 0.15584185766000E+02 0.66233609137875E+00
 s    2 1.00
 0.62067138508000E+01 0.65595308539952E+00
 0.25764896527000E+01 0.37585633285142E+00
 s    1 1.00
 0.57696339419000E+00 0.10000000000000E+01
 s    1 1.00
 0.22972831358000E+00 0.10000000000000E+01
 s    1 1.00
 0.95164440028000E-01 0.10000000000000E+01
 s    1 1.00
 0.48475401370000E-01 0.10000000000000E+01
 p    4 1.00
 0.34697232244000E+02 0.11327220003114E-01
 0.79582622826000E+01 0.76169659202087E-01
 0.23780826883000E+01 0.30192252202676E+00
 0.81433208183000E+00 0.72785027349547E+00
 p    1 1.00
 0.28887547253000E+00 0.10000000000000E+01
 p    1 1.00
 0.10056823671000E+00 0.10000000000000E+01
 d    1 1.00
 0.10970000000000E+01 0.10000000000000E+01
 d    1 1.00
 0.31800000000000E+00 0.10000000000000E+01
 d    1 1.00
 0.90985336424000E-01 0.10000000000000E+01
 f    1 1.00
 0.76100000000000E+00 0.10000000000000E+01
 
    2 0
 s    6 1.00
 0.13575349682000E+05 0.60645503603591E-03
 0.20352333680000E+04 0.46979088884982E-02
 0.46322562359000E+03 0.24332477647552E-01
 0.13120019598000E+03 0.97399968307759E-01
 0.42853015891000E+02 0.30195584253780E+00
 0.15584185766000E+02 0.66233609137875E+00
 s    2 1.00
 0.62067138508000E+01 0.65595308539952E+00
 0.25764896527000E+01 0.37585633285142E+00
 s    1 1.00
 0.57696339419000E+00 0.10000000000000E+01
 s    1 1.00
 0.22972831358000E+00 0.10000000000000E+01
 s    1 1.00
 0.95164440028000E-01 0.10000000000000E+01
 s    1 1.00
 0.48475401370000E-01 0.10000000000000E+01
 p    4 1.00
 0.34697232244000E+02 0.11327220003114E-01
 0.79582622826000E+01 0.76169659202087E-01
 0.23780826883000E+01 0.30192252202676E+00
 0.81433208183000E+00 0.72785027349547E+00
 p    1 1.00
 0.28887547253000E+00 0.10000000000000E+01
 p    1 1.00
 0.10056823671000E+00 0.10000000000000E+01
 d    1 1.00
 0.10970000000000E+01 0.10000000000000E+01
 d    1 1.00
 0.31800000000000E+00 0.10000000000000E+01
 d    1 1.00
 0.90985336424000E-01 0.10000000000000E+01
 f    1 1.00
 0.76100000000000E+00 0.10000000000000E+01
 
    3 0
 s    6 1.00
 0.13575349682000E+05 0.60645503603591E-03
 0.20352333680000E+04 0.46979088884982E-02
 0.46322562359000E+03 0.24332477647552E-01
 0.13120019598000E+03 0.97399968307759E-01
 0.42853015891000E+02 0.30195584253780E+00
 0.15584185766000E+02 0.66233609137875E+00
 s    2 1.00
 0.62067138508000E+01 0.65595308539952E+00
 0.25764896527000E+01 0.37585633285142E+00
 s    1 1.00
 0.57696339419000E+00 0.10000000000000E+01
 s    1 1.00
 0.22972831358000E+00 0.10000000000000E+01
 s    1 1.00
 0.95164440028000E-01 0.10000000000000E+01
 s    1 1.00
 0.48475401370000E-01 0.10000000000000E+01
 p    4 1.00
 0.34697232244000E+02 0.11327220003114E-01
 0.79582622826000E+01 0.76169659202087E-01
 0.23780826883000E+01 0.30192252202676E+00
 0.81433208183000E+00 0.72785027349547E+00
 p    1 1.00
 0.28887547253000E+00 0.10000000000000E+01
 p    1 1.00
 0.10056823671000E+00 0.10000000000000E+01
 d    1 1.00
 0.10970000000000E+01 0.10000000000000E+01
 d    1 1.00
 0.31800000000000E+00 0.10000000000000E+01
 d    1 1.00
 0.90985336424000E-01 0.10000000000000E+01
 f    1 1.00
 0.76100000000000E+00 0.10000000000000E+01
 
    4 0
 s    6 1.00
 0.13575349682000E+05 0.60645503603591E-03
 0.20352333680000E+04 0.46979088884982E-02
 0.46322562359000E+03 0.24332477647552E-01
 0.13120019598000E+03 0.97399968307759E-01
 0.42853015891000E+02 0.30195584253780E+00
 0.15584185766000E+02 0.66233609137875E+00
 s    2 1.00
 0.62067138508000E+01 0.65595308539952E+00
 0.25764896527000E+01 0.37585633285142E+00
 s    1 1.00
 0.57696339419000E+00 0.10000000000000E+01
 s    1 1.00
 0.22972831358000E+00 0.10000000000000E+01
 s    1 1.00
 0.95164440028000E-01 0.10000000000000E+01
 s    1 1.00
 0.48475401370000E-01 0.10000000000000E+01
 p    4 1.00
 0.34697232244000E+02 0.11327220003114E-01
 0.79582622826000E+01 0.76169659202087E-01
 0.23780826883000E+01 0.30192252202676E+00
 0.81433208183000E+00 0.72785027349547E+00
 p    1 1.00
 0.28887547253000E+00 0.10000000000000E+01
 p    1 1.00
 0.10056823671000E+00 0.10000000000000E+01
 d    1 1.00
 0.10970000000000E+01 0.10000000000000E+01
 d    1 1.00
 0.31800000000000E+00 0.10000000000000E+01
 d    1 1.00
 0.90985336424000E-01 0.10000000000000E+01
 f    1 1.00
 0.76100000000000E+00 0.10000000000000E+01
 
    5 0
 s    6 1.00
 0.13575349682000E+05 0.60645503603591E-03
 0.20352333680000E+04 0.46979088884982E-02
 0.46322562359000E+03 0.24332477647552E-01
 0.13120019598000E+03 0.97399968307759E-01
 0.42853015891000E+02 0.30195584253780E+00
 0.15584185766000E+02 0.66233609137875E+00
 s    2 1.00
 0.62067138508000E+01 0.65595308539952E+00
 0.25764896527000E+01 0.37585633285142E+00
 s    1 1.00
 0.57696339419000E+00 0.10000000000000E+01
 s    1 1.00
 0.22972831358000E+00 0.10000000000000E+01
 s    1 1.00
 0.95164440028000E-01 0.10000000000000E+01
 s    1 1.00
 0.48475401370000E-01 0.10000000000000E+01
 p    4 1.00
 0.34697232244000E+02 0.11327220003114E-01
 0.79582622826000E+01 0.76169659202087E-01
 0.23780826883000E+01 0.30192252202676E+00
 0.81433208183000E+00 0.72785027349547E+00
 p    1 1.00
 0.28887547253000E+00 0.10000000000000E+01
 p    1 1.00
 0.10056823671000E+00 0.10000000000000E+01
 d    1 1.00
 0.10970000000000E+01 0.10000000000000E+01
 d    1 1.00
 0.31800000000000E+00 0.10000000000000E+01
 d    1 1.00
 0.90985336424000E-01 0.10000000000000E+01
 f    1 1.00
 0.76100000000000E+00 0.10000000000000E+01
 
    6 0
 s    6 1.00
 0.13575349682000E+05 0.60645503603591E-03
 0.20352333680000E+04 0.46979088884982E-02
 0.46322562359000E+03 0.24332477647552E-01
 0.13120019598000E+03 0.97399968307759E-01
 0.42853015891000E+02 0.30195584253780E+00
 0.15584185766000E+02 0.66233609137875E+00
 s    2 1.00
 0.62067138508000E+01 0.65595308539952E+00
 0.25764896527000E+01 0.37585633285142E+00
 s    1 1.00
 0.57696339419000E+00 0.10000000000000E+01
 s    1 1.00
 0.22972831358000E+00 0.10000000000000E+01
 s    1 1.00
 0.95164440028000E-01 0.10000000000000E+01
 s    1 1.00
 0.48475401370000E-01 0.10000000000000E+01
 p    4 1.00
 0.34697232244000E+02 0.11327220003114E-01
 0.79582622826000E+01 0.76169659202087E-01
 0.23780826883000E+01 0.30192252202676E+00
 0.81433208183000E+00 0.72785027349547E+00
 p    1 1.00
 0.28887547253000E+00 0.10000000000000E+01
 p    1 1.00
 0.10056823671000E+00 0.10000000000000E+01
 d    1 1.00
 0.10970000000000E+01 0.10000000000000E+01
 d    1 1.00
 0.31800000000000E+00 0.10000000000000E+01
 d    1 1.00
 0.90985336424000E-01 0.10000000000000E+01
 f    1 1.00
 0.76100000000000E+00 0.10000000000000E+01
 
    7 0
 s    3 1.00
 0.34061341000000E+02 0.25439307208879E-01
 0.51235746000000E+01 0.19008594890375E+00
 0.11646626000000E+01 0.85244113011042E+00
 s    1 1.00
 0.32723041000000E+00 0.10000000000000E+01
 s    1 1.00
 0.10307241000000E+00 0.10000000000000E+01
 p    1 1.00
 0.80000000000000E+00 0.10000000000000E+01
 p    1 1.00
 0.95774129632000E-01 0.10000000000000E+01
 
    8 0
 s    3 1.00
 0.34061341000000E+02 0.25439307208879E-01
 0.51235746000000E+01 0.19008594890375E+00
 0.11646626000000E+01 0.85244113011042E+00
 s    1 1.00
 0.32723041000000E+00 0.10000000000000E+01
 s    1 1.00
 0.10307241000000E+00 0.10000000000000E+01
 p    1 1.00
 0.80000000000000E+00 0.10000000000000E+01
 p    1 1.00
 0.95774129632000E-01 0.10000000000000E+01
 
    9 0
 s    3 1.00
 0.34061341000000E+02 0.25439307208879E-01
 0.51235746000000E+01 0.19008594890375E+00
 0.11646626000000E+01 0.85244113011042E+00
 s    1 1.00
 0.32723041000000E+00 0.10000000000000E+01
 s    1 1.00
 0.10307241000000E+00 0.10000000000000E+01
 p    1 1.00
 0.80000000000000E+00 0.10000000000000E+01
 p    1 1.00
 0.95774129632000E-01 0.10000000000000E+01
 
   10 0
 s    3 1.00
 0.34061341000000E+02 0.25439307208879E-01
 0.51235746000000E+01 0.19008594890375E+00
 0.11646626000000E+01 0.85244113011042E+00
 s    1 1.00
 0.32723041000000E+00 0.10000000000000E+01
 s    1 1.00
 0.10307241000000E+00 0.10000000000000E+01
 p    1 1.00
 0.80000000000000E+00 0.10000000000000E+01
 p    1 1.00
 0.95774129632000E-01 0.10000000000000E+01
 
   11 0
 s    6 1.00
 0.19730800647000E+05 0.58626402628763E-03
 0.29578958745000E+04 0.45428820586397E-02
 0.67322133595000E+03 0.23558413450084E-01
 0.19068249494000E+03 0.94709193292923E-01
 0.62295441898000E+02 0.29719784913376E+00
 0.22654161182000E+02 0.66916246895232E+00
 s    2 1.00
 0.89791477428000E+01 0.64596683630063E+00
 0.36863002370000E+01 0.38700574393705E+00
 s    1 1.00
 0.84660076805000E+00 0.10000000000000E+01
 s    1 1.00
 0.33647133771000E+00 0.10000000000000E+01
 s    1 1.00
 0.13647653675000E+00 0.10000000000000E+01
 s    1 1.00
 0.68441605847000E-01 0.10000000000000E+01
 p    4 1.00
 0.49200380510000E+02 0.11448825101764E-01
 0.11346790537000E+02 0.78422337970864E-01
 0.34273972411000E+01 0.30818094738830E+00
 0.11785525134000E+01 0.72027196368413E+00
 p    1 1.00
 0.41642204972000E+00 0.10000000000000E+01
 p    1 1.00
 0.14260826011000E+00 0.10000000000000E+01
 d    1 1.00
 0.16540000000000E+01 0.10000000000000E+01
 d    1 1.00
 0.46900000000000E+00 0.10000000000000E+01
 d    1 1.00
 0.12829642058000E+00 0.10000000000000E+01
 f    1 1.00
 0.10930000000000E+01 0.10000000000000E+01
 
   12 0
 s    6 1.00
 0.27032382631000E+05 0.57227335211155E-03
 0.40523871392000E+04 0.44353233492995E-02
 0.92232722710000E+03 0.23020107706038E-01
 0.26124070989000E+03 0.92822490667928E-01
 0.85354641351000E+02 0.29378500009671E+00
 0.31035035245000E+02 0.67401604501641E+00
 s    2 1.00
 0.12260860728000E+02 0.63839937025506E+00
 0.49987076005000E+01 0.39534587125718E+00
 s    1 1.00
 0.11703108158000E+01 0.10000000000000E+01
 s    1 1.00
 0.46474740994000E+00 0.10000000000000E+01
 s    1 1.00
 0.18504536357000E+00 0.10000000000000E+01
 s    1 1.00
 0.70288026270000E-01 0.10000000000000E+01
 p    4 1.00
 0.63274954801000E+02 0.12018332222616E-01
 0.14627049379000E+02 0.83005421790056E-01
 0.44501223456000E+01 0.31991743925964E+00
 0.15275799647000E+01 0.70715542916104E+00
 p    1 1.00
 0.52935117943000E+00 0.10000000000000E+01
 p    1 1.00
 0.17478421270000E+00 0.10000000000000E+01
 p    1 1.00
 0.51112745706000E-01 0.10000000000000E+01
 d    1 1.00
 0.23140000000000E+01 0.10000000000000E+01
 d    1 1.00
 0.64500000000000E+00 0.10000000000000E+01
 d    1 1.00
 0.14696477366000E+00 0.10000000000000E+01
 f    1 1.00
 0.14280000000000E+01 0.10000000000000E+01
 
   13 0
 s    6 1.00
 0.27032382631000E+05 0.57227335211155E-03
 0.40523871392000E+04 0.44353233492995E-02
 0.92232722710000E+03 0.23020107706038E-01
 0.26124070989000E+03 0.92822490667928E-01
 0.85354641351000E+02 0.29378500009671E+00
 0.31035035245000E+02 0.67401604501641E+00
 s    2 1.00
 0.12260860728000E+02 0.63839937025506E+00
 0.49987076005000E+01 0.39534587125718E+00
 s    1 1.00
 0.11703108158000E+01 0.10000000000000E+01
 s    1 1.00
 0.46474740994000E+00 0.10000000000000E+01
 s    1 1.00
 0.18504536357000E+00 0.10000000000000E+01
 s    1 1.00
 0.70288026270000E-01 0.10000000000000E+01
 p    4 1.00
 0.63274954801000E+02 0.12018332222616E-01
 0.14627049379000E+02 0.83005421790056E-01
 0.44501223456000E+01 0.31991743925964E+00
 0.15275799647000E+01 0.70715542916104E+00
 p    1 1.00
 0.52935117943000E+00 0.10000000000000E+01
 p    1 1.00
 0.17478421270000E+00 0.10000000000000E+01
 p    1 1.00
 0.51112745706000E-01 0.10000000000000E+01
 d    1 1.00
 0.23140000000000E+01 0.10000000000000E+01
 d    1 1.00
 0.64500000000000E+00 0.10000000000000E+01
 d    1 1.00
 0.14696477366000E+00 0.10000000000000E+01
 f    1 1.00
 0.14280000000000E+01 0.10000000000000E+01
 
   14 0
 s    6 1.00
 0.19730800647000E+05 0.58626402628763E-03
 0.29578958745000E+04 0.45428820586397E-02
 0.67322133595000E+03 0.23558413450084E-01
 0.19068249494000E+03 0.94709193292923E-01
 0.62295441898000E+02 0.29719784913376E+00
 0.22654161182000E+02 0.66916246895232E+00
 s    2 1.00
 0.89791477428000E+01 0.64596683630063E+00
 0.36863002370000E+01 0.38700574393705E+00
 s    1 1.00
 0.84660076805000E+00 0.10000000000000E+01
 s    1 1.00
 0.33647133771000E+00 0.10000000000000E+01
 s    1 1.00
 0.13647653675000E+00 0.10000000000000E+01
 s    1 1.00
 0.68441605847000E-01 0.10000000000000E+01
 p    4 1.00
 0.49200380510000E+02 0.11448825101764E-01
 0.11346790537000E+02 0.78422337970864E-01
 0.34273972411000E+01 0.30818094738830E+00
 0.11785525134000E+01 0.72027196368413E+00
 p    1 1.00
 0.41642204972000E+00 0.10000000000000E+01
 p    1 1.00
 0.14260826011000E+00 0.10000000000000E+01
 d    1 1.00
 0.16540000000000E+01 0.10000000000000E+01
 d    1 1.00
 0.46900000000000E+00 0.10000000000000E+01
 d    1 1.00
 0.12829642058000E+00 0.10000000000000E+01
 f    1 1.00
 0.10930000000000E+01 0.10000000000000E+01
 
   15 0
 s    3 1.00
 0.34061341000000E+02 0.25439307208879E-01
 0.51235746000000E+01 0.19008594890375E+00
 0.11646626000000E+01 0.85244113011042E+00
 s    1 1.00
 0.32723041000000E+00 0.10000000000000E+01
 s    1 1.00
 0.10307241000000E+00 0.10000000000000E+01
 p    1 1.00
 0.80000000000000E+00 0.10000000000000E+01
 p    1 1.00
 0.95774129632000E-01 0.10000000000000E+01
 
   16 0
 s    3 1.00
 0.34061341000000E+02 0.25439307208879E-01
 0.51235746000000E+01 0.19008594890375E+00
 0.11646626000000E+01 0.85244113011042E+00
 s    1 1.00
 0.32723041000000E+00 0.10000000000000E+01
 s    1 1.00
 0.10307241000000E+00 0.10000000000000E+01
 p    1 1.00
 0.80000000000000E+00 0.10000000000000E+01
 p    1 1.00
 0.95774129632000E-01 0.10000000000000E+01
 
[MO]
 Sym= X
 Ene= -0.153146
 Spin= Alpha
 Occup= -0.153146
         1    1.742437E-04
         2    4.082447E-04
         3   -1.355481E-03
         4    4.200561E-03
         5   -2.025052E-02
         6    1.406364E-02
         7    1.579734E-03
         8    1.607297E-04
         9   -4.328128E-02
        10   -3.639551E-03
        11    4.980403E-04
        12   -4.130050E-02
        13   -3.649876E-02
        14    1.705028E-02
        15   -1.904269E-02
        16    1.419489E-05
        17    5.202941E-06
        18   -1.939783E-05
        19    1.647303E-06
        20   -6.334760E-03
        21    4.259048E-03
        22    8.680331E-04
        23   -5.062091E-04
        24   -3.618240E-04
        25    8.354604E-04
        26   -1.438424E-02
        27    7.931642E-03
        28    4.157127E-03
        29   -3.946817E-03
        30   -2.103100E-04
        31   -1.609442E-03
        32    2.575985E-03
        33   -8.631265E-03
        34   -2.878331E-05
        35    5.699552E-06
        36    2.193874E-04
        37    1.399122E-05
        38   -4.274959E-06
        39    6.589696E-04
        40    2.462564E-05
        41   -3.371792E-06
        42   -9.533087E-04
        43    7.403979E-04
        44   -3.281151E-05
        45   -7.145331E-05
        46   -1.616958E-04
        47    3.629783E-03
        48    6.905470E-02
        49   -6.445025E-03
        50    5.044641E-04
        51    1.375604E-06
        52   -2.204031E-01
        53   -4.642229E-04
        54    1.230657E-05
        55   -2.279005E-01
        56   -1.740204E-02
        57   -4.120448E-04
        58   -1.971940E-01
        59   -3.795354E-05
        60    3.399462E-05
        61    3.958924E-06
        62   -9.163039E-08
        63   -1.094779E-04
        64    4.233702E-07
        65   -4.378774E-04
        66    7.437819E-04
        67   -3.059045E-04
        68   -2.326402E-06
        69   -2.057935E-03
        70    3.877810E-07
        71   -1.376093E-02
        72    1.563914E-02
        73   -1.878218E-03
        74    7.802433E-05
        75    4.774721E-03
        76   -1.284031E-05
        77    1.004944E-05
        78    3.263542E-08
        79    1.282954E-03
        80   -8.405013E-06
        81    1.536210E-08
        82   -7.224709E-04
        83   -5.077723E-06
        84   -5.914711E-08
        85   -9.987921E-04
        86   -3.435274E-08
        87    1.745339E-04
        88    4.088919E-04
        89   -1.356933E-03
        90    4.203613E-03
        91   -2.121524E-02
        92    1.405015E-02
        93    1.580408E-03
        94   -1.615876E-04
        95   -4.330141E-02
        96   -3.615303E-03
        97   -4.926332E-04
        98   -4.132153E-02
        99   -3.670234E-02
       100   -1.742179E-02
       101   -1.907518E-02
       102    1.411884E-05
       103    5.204480E-06
       104   -1.932332E-05
       105   -1.764640E-06
       106   -6.334399E-03
       107   -4.259165E-03
       108    8.633278E-04
       109   -5.015143E-04
       110   -3.618136E-04
       111   -8.334638E-04
       112   -1.438281E-02
       113   -7.931492E-03
       114    4.243661E-03
       115   -4.043292E-03
       116   -2.003686E-04
       117    1.527258E-03
       118    2.564351E-03
       119    8.628174E-03
       120   -2.879544E-05
       121   -5.669644E-06
       122    2.195121E-04
       123    1.407786E-05
       124    4.247932E-06
       125    6.588335E-04
       126    2.455528E-05
       127    3.358694E-06
       128   -9.533399E-04
       129   -7.403782E-04
       130   -9.792310E-05
       131   -2.080276E-04
       132   -7.185493E-04
       133    1.141143E-02
       134   -1.252421E-02
       135   -1.688071E-02
       136   -1.149008E-03
       137    4.886204E-04
       138    1.537362E-01
       139   -1.087637E-02
       140    7.162431E-03
       141    1.561196E-01
       142   -1.543754E-02
       143   -8.670636E-03
       144    9.792819E-02
       145   -1.357004E-04
       146    1.628697E-04
       147   -2.716937E-05
       148   -3.412145E-06
       149   -1.676648E-03
       150    3.431693E-03
       151   -8.687125E-04
       152    9.190830E-04
       153   -5.037047E-05
       154   -1.964726E-03
       155   -5.870092E-03
       156    5.745455E-03
       157   -9.116001E-03
       158    6.807903E-03
       159    2.308098E-03
       160    1.363515E-02
       161    3.634368E-03
       162   -9.495039E-03
       163   -2.228648E-05
       164    6.890327E-06
       165   -8.882325E-04
       166   -1.642233E-05
       167    2.501807E-05
       168    1.596853E-04
       169    4.632277E-05
       170   -3.426242E-05
       171    1.032004E-03
       172   -4.322916E-04
       173    1.185353E-03
       174    2.705946E-03
       175   -2.505050E-03
       176   -2.723563E-02
       177    4.738979E-02
       178   -8.963739E-03
       179    8.690303E-03
       180   -1.224088E-06
       181    1.443194E-01
       182   -5.835240E-04
       183   -6.525650E-06
       184    1.466790E-01
       185   -4.670380E-02
       186    5.802416E-04
       187    1.343053E-01
       188   -5.192434E-04
       189    2.720579E-04
       190    2.471855E-04
       191   -1.510266E-07
       192    8.688453E-03
       193    4.096129E-07
       194    2.136607E-03
       195   -4.822727E-03
       196    2.686120E-03
       197   -1.279141E-06
       198    2.200289E-02
       199   -2.902401E-07
       200    8.433931E-03
       201   -9.622369E-03
       202    1.188438E-03
       203    1.292311E-04
       204    1.482123E-02
       205    6.616814E-06
       206    1.263822E-04
       207    1.921199E-08
       208   -5.932455E-04
       209   -9.642546E-05
       210   -4.119137E-08
       211   -7.341037E-04
       212   -7.313412E-05
       213    1.541578E-08
       214    1.530026E-03
       215    8.458540E-09
       216   -9.825220E-05
       217   -2.087299E-04
       218   -7.166958E-04
       219    1.141176E-02
       220   -1.385773E-02
       221   -1.686860E-02
       222   -1.148603E-03
       223   -4.848840E-04
       224    1.537545E-01
       225   -1.088686E-02
       226   -7.163274E-03
       227    1.561407E-01
       228   -1.520786E-02
       229    9.237643E-03
       230    9.792118E-02
       231   -1.355752E-04
       232    1.630167E-04
       233   -2.744144E-05
       234    3.199610E-06
       235   -1.676230E-03
       236   -3.431765E-03
       237   -8.729025E-04
       238    9.226765E-04
       239   -4.977391E-05
       240    1.965958E-03
       241   -5.868740E-03
       242   -5.745554E-03
       243   -9.037692E-03
       244    6.727553E-03
       245    2.310139E-03
       246   -1.372157E-02
       247    3.644955E-03
       248    9.504591E-03
       249   -2.237612E-05
       250   -6.937178E-06
       251   -8.884272E-04
       252   -1.644708E-05
       253   -2.494911E-05
       254    1.598849E-04
       255    4.646780E-05
       256    3.425631E-05
       257    1.032065E-03
       258    4.322884E-04
       259    3.011549E-04
       260   -5.050763E-05
       261    1.879382E-02
       262   -1.025471E-05
       263    3.417591E-05
       264   -1.710386E-03
       265   -6.155548E-03
       266   -6.177775E-04
       267    4.563793E-03
       268    3.018233E-04
       269   -5.385555E-05
       270    1.878821E-02
       271   -9.763323E-06
       272   -3.470224E-05
       273   -1.711204E-03
       274   -6.235653E-03
       275    5.861724E-04
       276    4.568822E-03
       277    3.360256E-04
       278    2.642079E-03
       279   -4.329192E-02
       280   -1.881255E-05
       281    9.846249E-05
       282    6.318298E-03
       283   -6.342072E-04
       284   -3.822606E-03
       285    1.525940E-03
       286    3.385644E-04
       287    2.642226E-03
       288   -4.342510E-02
       289   -1.872038E-05
       290   -9.842090E-05
       291    6.319270E-03
       292   -5.972129E-04
       293    3.856659E-03
       294    1.524426E-03
       295    3.903081E-05
       296    9.064442E-05
       297   -8.004941E-05
       298   -1.532348E-04
       299    8.601834E-03
       300   -5.761842E-04
       301    3.846855E-04
       302   -3.147696E-07
       303   -1.414327E-02
       304    3.979177E-06
       305   -3.250200E-07
       306   -1.633140E-02
       307   -3.391062E-03
       308   -1.253562E-06
       309   -4.504226E-03
       310   -2.226738E-05
       311    4.816995E-06
       312    1.745038E-05
       313   -1.067960E-08
       314    4.449624E-03
       315    7.437880E-09
       316   -5.388747E-06
       317   -7.449601E-05
       318    7.988475E-05
       319    3.731805E-08
       320    1.333400E-02
       321    8.426667E-08
       322    7.138320E-04
       323   -3.304076E-03
       324    2.590244E-03
       325   -1.092965E-05
       326    3.758294E-03
       327    4.000537E-06
       328    8.214678E-06
       329    4.488912E-09
       330    1.562641E-05
       331   -5.730113E-06
       332    7.933417E-09
       333   -7.329637E-04
       334   -5.291034E-06
       335   -1.395592E-08
       336    7.119987E-04
       337   -1.037641E-09
       338    9.707610E-06
       339    1.926020E-05
       340    2.833165E-05
       341   -5.937156E-04
       342    7.414457E-03
       343    1.582045E-03
       344   -2.150907E-04
       345    9.645262E-05
       346    7.564186E-02
       347   -3.494267E-04
       348    2.542066E-04
       349    7.014469E-02
       350   -1.453117E-03
       351    7.126760E-04
       352    5.533291E-02
       353   -2.922606E-04
       354    2.943055E-04
       355    6.281098E-03
       356   -3.239937E-06
       357    4.155075E-06
       358   -9.151375E-07
       359   -8.553995E-07
       360   -1.410371E-05
       361    5.211555E-04
       362    1.381274E-05
       363    8.893347E-06
       364   -2.270609E-05
       365   -1.323244E-05
       366   -5.828302E-04
       367    1.689320E-03
       368    7.378812E-05
       369   -1.674625E-05
       370   -5.704188E-05
       371   -1.802494E-05
       372   -7.697574E-04
       373    2.863221E-04
       374    8.333540E-07
       375    1.675699E-06
       376   -6.574153E-05
       377   -1.283031E-06
       378   -2.125613E-07
       379   -9.028544E-05
       380    1.649688E-07
       381   -2.035624E-06
       382    1.784869E-04
       383   -1.399059E-04
       384    9.730418E-06
       385    1.932577E-05
       386    2.813978E-05
       387   -5.935654E-04
       388    7.425820E-03
       389    1.565854E-03
       390   -2.131334E-04
       391   -9.553624E-05
       392    7.564172E-02
       393   -3.478911E-04
       394   -2.533874E-04
       395    7.014507E-02
       396   -1.443580E-03
       397   -7.167653E-04
       398    5.532515E-02
       399   -2.836492E-04
       400   -2.981477E-04
       401    6.281655E-03
       402   -3.229083E-06
       403    4.123116E-06
       404   -8.940329E-07
       405    8.552821E-07
       406   -1.413274E-05
       407   -5.211719E-04
       408    1.366483E-05
       409    8.895197E-06
       410   -2.256003E-05
       411    1.309566E-05
       412   -5.827484E-04
       413   -1.689215E-03
       414    7.417698E-05
       415   -1.735780E-05
       416   -5.681917E-05
       417    1.865347E-05
       418   -7.696825E-04
       419   -2.852192E-04
       420    8.299077E-07
       421   -1.668612E-06
       422   -6.574472E-05
       423   -1.272984E-06
       424    2.167781E-07
       425   -9.027413E-05
       426    1.595463E-07
       427    2.021900E-06
       428    1.784799E-04
       429    1.399044E-04
       430   -5.598187E-03
       431   -1.331706E-02
       432    2.078982E-02
       433    3.397476E-02
       434    1.615659E-02
       435    8.341494E-02
       436   -1.935864E-02
       437    5.052626E-06
       438   -2.103048E-01
       439   -2.238683E-02
       440    4.659683E-07
       441   -2.079476E-01
       442   -2.385802E-02
       443   -5.451041E-05
       444   -1.763715E-01
       445    1.593918E-04
       446   -1.221336E-05
       447   -1.471784E-04
       448   -1.084310E-07
       449    1.370420E-03
       450    1.420597E-07
       451    3.894437E-04
       452    1.734325E-03
       453   -2.123769E-03
       454    1.808313E-06
       455    4.822273E-03
       456    3.042758E-07
       457    3.269240E-03
       458    4.060032E-03
       459   -7.329272E-03
       460    5.549022E-06
       461    2.761399E-03
       462    2.738260E-07
       463   -1.813703E-04
       464    2.205939E-08
       465    7.199455E-04
       466   -9.348321E-05
       467    1.354916E-08
       468   -2.720167E-04
       469    3.368170E-04
       470   -4.314494E-08
       471   -6.938916E-04
       472    3.286961E-08
       473   -1.212149E-02
       474   -2.282660E-02
       475   -4.189332E-02
       476   -2.549883E-03
       477   -2.280310E-03
       478   -1.073725E-02
       479    1.248063E-03
       480   -4.792107E-03
       481   -1.414236E-02
       482   -1.211857E-02
       483   -2.278749E-02
       484   -4.169804E-02
       485   -2.547602E-03
       486    2.277120E-03
       487   -1.073940E-02
       488    1.282469E-03
       489    4.770363E-03
       490   -1.415254E-02
 Sym= X
 Ene= -0.792755
 Spin= Alpha
 Occup= -0.792755
         1    2.921376E-05
         2    6.710963E-05
         3   -1.899341E-04
         4    4.066297E-04
         5    7.011481E-03
         6    4.708035E-04
         7   -8.256655E-05
         8   -1.239456E-04
         9    1.418016E-01
        10   -8.670585E-04
        11    1.195551E-04
        12    1.424954E-01
        13    4.947856E-03
        14   -5.336691E-03
        15    7.669322E-02
        16    7.268410E-06
        17   -2.837672E-06
        18   -4.430738E-06
        19   -2.511341E-07
        20   -3.892379E-03
        21   -3.918474E-04
        22    1.699810E-04
        23   -1.189064E-04
        24   -5.107467E-05
        25   -2.654596E-06
        26   -8.315718E-03
        27    5.437681E-04
        28   -1.068198E-03
        29    1.141099E-03
        30   -7.290101E-05
        31   -5.048345E-04
        32   -5.165203E-03
        33    2.964751E-03
        34   -5.531172E-06
        35   -4.227726E-07
        36   -8.468231E-04
        37    1.471290E-06
        38    2.400938E-07
        39    1.033626E-03
        40    5.949556E-06
        41    3.271152E-07
        42    1.025062E-04
        43    3.735544E-05
        44    6.334581E-08
        45    8.115434E-08
        46    3.583142E-06
        47   -1.701557E-05
        48   -1.167481E-03
        49   -6.666073E-05
        50   -1.620868E-06
        51    7.903955E-05
        52    6.084995E-06
        53    7.331501E-06
        54    4.039859E-04
        55    4.269951E-06
        56    4.849124E-04
        57   -9.601679E-03
        58    2.390802E-05
        59   -4.409114E-09
        60   -8.296481E-08
        61    8.737393E-08
        62   -6.611492E-06