[Molden Format]
[Title]
ADC(2) - opt by CAM-B3LYP gaussian                                              
[Atoms] AU
 c     1    6 0.12592752280008E+01 0.22800132789445E+01 -.35345910021030E-01
 c     2    6 0.25511638220345E+01 0.20078340100000E-05 -.33671612667290E-01
 c     3    6 0.12592790074531E+01 -.22800111530026E+01 -.35357248377820E-01
 c     4    6 -.13364450292264E+01 -.22798221803893E+01 -.38530098554940E-01
 c     5    6 -.26857699593430E+01 -.17716182500000E-05 -.39025206801750E-01
 c     6    6 -.13364469189525E+01 0.22798205268790E+01 -.38516870472010E-01
 h     7    1 0.23055183220207E+01 0.40307538342087E+01 -.32265656424420E-01
 h     8    1 0.23055239911991E+01 -.40307498185407E+01 -.32284553685750E-01
 h     9    1 -.23548467881305E+01 -.40530977197882E+01 -.43619131030800E-01
 h    10    1 -.23548543470350E+01 0.40530922868255E+01 -.43594564591070E-01
 n    11    7 0.52860567397703E+01 0.11810788000000E-06 -.26776002008390E-01
 o    12    8 0.63771222479361E+01 -.20280728649663E+01 -.23850705954680E-01
 o    13    8 0.63771260273883E+01 0.20280712114559E+01 -.23882831298940E-01
 n    14    7 -.52615573853205E+01 0.11810788000000E-06 -.10505223788478E+00
 h    15    1 -.61955753134867E+01 -.16086254730588E+01 0.27588253543458E+00
 h    16    1 -.61955696443083E+01 0.16086275990006E+01 0.27589009433911E+00
[GTO]
    1 0
 s    6 1.00
 0.13575349682000E+05 0.60645503603591E-03
 0.20352333680000E+04 0.46979088884982E-02
 0.46322562359000E+03 0.24332477647552E-01
 0.13120019598000E+03 0.97399968307759E-01
 0.42853015891000E+02 0.30195584253780E+00
 0.15584185766000E+02 0.66233609137875E+00
 s    2 1.00
 0.62067138508000E+01 0.65595308539952E+00
 0.25764896527000E+01 0.37585633285142E+00
 s    1 1.00
 0.57696339419000E+00 0.10000000000000E+01
 s    1 1.00
 0.22972831358000E+00 0.10000000000000E+01
 s    1 1.00
 0.95164440028000E-01 0.10000000000000E+01
 s    1 1.00
 0.48475401370000E-01 0.10000000000000E+01
 p    4 1.00
 0.34697232244000E+02 0.11327220003114E-01
 0.79582622826000E+01 0.76169659202087E-01
 0.23780826883000E+01 0.30192252202676E+00
 0.81433208183000E+00 0.72785027349547E+00
 p    1 1.00
 0.28887547253000E+00 0.10000000000000E+01
 p    1 1.00
 0.10056823671000E+00 0.10000000000000E+01
 d    1 1.00
 0.10970000000000E+01 0.10000000000000E+01
 d    1 1.00
 0.31800000000000E+00 0.10000000000000E+01
 d    1 1.00
 0.90985336424000E-01 0.10000000000000E+01
 f    1 1.00
 0.76100000000000E+00 0.10000000000000E+01
 
    2 0
 s    6 1.00
 0.13575349682000E+05 0.60645503603591E-03
 0.20352333680000E+04 0.46979088884982E-02
 0.46322562359000E+03 0.24332477647552E-01
 0.13120019598000E+03 0.97399968307759E-01
 0.42853015891000E+02 0.30195584253780E+00
 0.15584185766000E+02 0.66233609137875E+00
 s    2 1.00
 0.62067138508000E+01 0.65595308539952E+00
 0.25764896527000E+01 0.37585633285142E+00
 s    1 1.00
 0.57696339419000E+00 0.10000000000000E+01
 s    1 1.00
 0.22972831358000E+00 0.10000000000000E+01
 s    1 1.00
 0.95164440028000E-01 0.10000000000000E+01
 s    1 1.00
 0.48475401370000E-01 0.10000000000000E+01
 p    4 1.00
 0.34697232244000E+02 0.11327220003114E-01
 0.79582622826000E+01 0.76169659202087E-01
 0.23780826883000E+01 0.30192252202676E+00
 0.81433208183000E+00 0.72785027349547E+00
 p    1 1.00
 0.28887547253000E+00 0.10000000000000E+01
 p    1 1.00
 0.10056823671000E+00 0.10000000000000E+01
 d    1 1.00
 0.10970000000000E+01 0.10000000000000E+01
 d    1 1.00
 0.31800000000000E+00 0.10000000000000E+01
 d    1 1.00
 0.90985336424000E-01 0.10000000000000E+01
 f    1 1.00
 0.76100000000000E+00 0.10000000000000E+01
 
    3 0
 s    6 1.00
 0.13575349682000E+05 0.60645503603591E-03
 0.20352333680000E+04 0.46979088884982E-02
 0.46322562359000E+03 0.24332477647552E-01
 0.13120019598000E+03 0.97399968307759E-01
 0.42853015891000E+02 0.30195584253780E+00
 0.15584185766000E+02 0.66233609137875E+00
 s    2 1.00
 0.62067138508000E+01 0.65595308539952E+00
 0.25764896527000E+01 0.37585633285142E+00
 s    1 1.00
 0.57696339419000E+00 0.10000000000000E+01
 s    1 1.00
 0.22972831358000E+00 0.10000000000000E+01
 s    1 1.00
 0.95164440028000E-01 0.10000000000000E+01
 s    1 1.00
 0.48475401370000E-01 0.10000000000000E+01
 p    4 1.00
 0.34697232244000E+02 0.11327220003114E-01
 0.79582622826000E+01 0.76169659202087E-01
 0.23780826883000E+01 0.30192252202676E+00
 0.81433208183000E+00 0.72785027349547E+00
 p    1 1.00
 0.28887547253000E+00 0.10000000000000E+01
 p    1 1.00
 0.10056823671000E+00 0.10000000000000E+01
 d    1 1.00
 0.10970000000000E+01 0.10000000000000E+01
 d    1 1.00
 0.31800000000000E+00 0.10000000000000E+01
 d    1 1.00
 0.90985336424000E-01 0.10000000000000E+01
 f    1 1.00
 0.76100000000000E+00 0.10000000000000E+01
 
    4 0
 s    6 1.00
 0.13575349682000E+05 0.60645503603591E-03
 0.20352333680000E+04 0.46979088884982E-02
 0.46322562359000E+03 0.24332477647552E-01
 0.13120019598000E+03 0.97399968307759E-01
 0.42853015891000E+02 0.30195584253780E+00
 0.15584185766000E+02 0.66233609137875E+00
 s    2 1.00
 0.62067138508000E+01 0.65595308539952E+00
 0.25764896527000E+01 0.37585633285142E+00
 s    1 1.00
 0.57696339419000E+00 0.10000000000000E+01
 s    1 1.00
 0.22972831358000E+00 0.10000000000000E+01
 s    1 1.00
 0.95164440028000E-01 0.10000000000000E+01
 s    1 1.00
 0.48475401370000E-01 0.10000000000000E+01
 p    4 1.00
 0.34697232244000E+02 0.11327220003114E-01
 0.79582622826000E+01 0.76169659202087E-01
 0.23780826883000E+01 0.30192252202676E+00
 0.81433208183000E+00 0.72785027349547E+00
 p    1 1.00
 0.28887547253000E+00 0.10000000000000E+01
 p    1 1.00
 0.10056823671000E+00 0.10000000000000E+01
 d    1 1.00
 0.10970000000000E+01 0.10000000000000E+01
 d    1 1.00
 0.31800000000000E+00 0.10000000000000E+01
 d    1 1.00
 0.90985336424000E-01 0.10000000000000E+01
 f    1 1.00
 0.76100000000000E+00 0.10000000000000E+01
 
    5 0
 s    6 1.00
 0.13575349682000E+05 0.60645503603591E-03
 0.20352333680000E+04 0.46979088884982E-02
 0.46322562359000E+03 0.24332477647552E-01
 0.13120019598000E+03 0.97399968307759E-01
 0.42853015891000E+02 0.30195584253780E+00
 0.15584185766000E+02 0.66233609137875E+00
 s    2 1.00
 0.62067138508000E+01 0.65595308539952E+00
 0.25764896527000E+01 0.37585633285142E+00
 s    1 1.00
 0.57696339419000E+00 0.10000000000000E+01
 s    1 1.00
 0.22972831358000E+00 0.10000000000000E+01
 s    1 1.00
 0.95164440028000E-01 0.10000000000000E+01
 s    1 1.00
 0.48475401370000E-01 0.10000000000000E+01
 p    4 1.00
 0.34697232244000E+02 0.11327220003114E-01
 0.79582622826000E+01 0.76169659202087E-01
 0.23780826883000E+01 0.30192252202676E+00
 0.81433208183000E+00 0.72785027349547E+00
 p    1 1.00
 0.28887547253000E+00 0.10000000000000E+01
 p    1 1.00
 0.10056823671000E+00 0.10000000000000E+01
 d    1 1.00
 0.10970000000000E+01 0.10000000000000E+01
 d    1 1.00
 0.31800000000000E+00 0.10000000000000E+01
 d    1 1.00
 0.90985336424000E-01 0.10000000000000E+01
 f    1 1.00
 0.76100000000000E+00 0.10000000000000E+01
 
    6 0
 s    6 1.00
 0.13575349682000E+05 0.60645503603591E-03
 0.20352333680000E+04 0.46979088884982E-02
 0.46322562359000E+03 0.24332477647552E-01
 0.13120019598000E+03 0.97399968307759E-01
 0.42853015891000E+02 0.30195584253780E+00
 0.15584185766000E+02 0.66233609137875E+00
 s    2 1.00
 0.62067138508000E+01 0.65595308539952E+00
 0.25764896527000E+01 0.37585633285142E+00
 s    1 1.00
 0.57696339419000E+00 0.10000000000000E+01
 s    1 1.00
 0.22972831358000E+00 0.10000000000000E+01
 s    1 1.00
 0.95164440028000E-01 0.10000000000000E+01
 s    1 1.00
 0.48475401370000E-01 0.10000000000000E+01
 p    4 1.00
 0.34697232244000E+02 0.11327220003114E-01
 0.79582622826000E+01 0.76169659202087E-01
 0.23780826883000E+01 0.30192252202676E+00
 0.81433208183000E+00 0.72785027349547E+00
 p    1 1.00
 0.28887547253000E+00 0.10000000000000E+01
 p    1 1.00
 0.10056823671000E+00 0.10000000000000E+01
 d    1 1.00
 0.10970000000000E+01 0.10000000000000E+01
 d    1 1.00
 0.31800000000000E+00 0.10000000000000E+01
 d    1 1.00
 0.90985336424000E-01 0.10000000000000E+01
 f    1 1.00
 0.76100000000000E+00 0.10000000000000E+01
 
    7 0
 s    3 1.00
 0.34061341000000E+02 0.25439307208879E-01
 0.51235746000000E+01 0.19008594890375E+00
 0.11646626000000E+01 0.85244113011042E+00
 s    1 1.00
 0.32723041000000E+00 0.10000000000000E+01
 s    1 1.00
 0.10307241000000E+00 0.10000000000000E+01
 p    1 1.00
 0.80000000000000E+00 0.10000000000000E+01
 p    1 1.00
 0.95774129632000E-01 0.10000000000000E+01
 
    8 0
 s    3 1.00
 0.34061341000000E+02 0.25439307208879E-01
 0.51235746000000E+01 0.19008594890375E+00
 0.11646626000000E+01 0.85244113011042E+00
 s    1 1.00
 0.32723041000000E+00 0.10000000000000E+01
 s    1 1.00
 0.10307241000000E+00 0.10000000000000E+01
 p    1 1.00
 0.80000000000000E+00 0.10000000000000E+01
 p    1 1.00
 0.95774129632000E-01 0.10000000000000E+01
 
    9 0
 s    3 1.00
 0.34061341000000E+02 0.25439307208879E-01
 0.51235746000000E+01 0.19008594890375E+00
 0.11646626000000E+01 0.85244113011042E+00
 s    1 1.00
 0.32723041000000E+00 0.10000000000000E+01
 s    1 1.00
 0.10307241000000E+00 0.10000000000000E+01
 p    1 1.00
 0.80000000000000E+00 0.10000000000000E+01
 p    1 1.00
 0.95774129632000E-01 0.10000000000000E+01
 
   10 0
 s    3 1.00
 0.34061341000000E+02 0.25439307208879E-01
 0.51235746000000E+01 0.19008594890375E+00
 0.11646626000000E+01 0.85244113011042E+00
 s    1 1.00
 0.32723041000000E+00 0.10000000000000E+01
 s    1 1.00
 0.10307241000000E+00 0.10000000000000E+01
 p    1 1.00
 0.80000000000000E+00 0.10000000000000E+01
 p    1 1.00
 0.95774129632000E-01 0.10000000000000E+01
 
   11 0
 s    6 1.00
 0.19730800647000E+05 0.58626402628763E-03
 0.29578958745000E+04 0.45428820586397E-02
 0.67322133595000E+03 0.23558413450084E-01
 0.19068249494000E+03 0.94709193292923E-01
 0.62295441898000E+02 0.29719784913376E+00
 0.22654161182000E+02 0.66916246895232E+00
 s    2 1.00
 0.89791477428000E+01 0.64596683630063E+00
 0.36863002370000E+01 0.38700574393705E+00
 s    1 1.00
 0.84660076805000E+00 0.10000000000000E+01
 s    1 1.00
 0.33647133771000E+00 0.10000000000000E+01
 s    1 1.00
 0.13647653675000E+00 0.10000000000000E+01
 s    1 1.00
 0.68441605847000E-01 0.10000000000000E+01
 p    4 1.00
 0.49200380510000E+02 0.11448825101764E-01
 0.11346790537000E+02 0.78422337970864E-01
 0.34273972411000E+01 0.30818094738830E+00
 0.11785525134000E+01 0.72027196368413E+00
 p    1 1.00
 0.41642204972000E+00 0.10000000000000E+01
 p    1 1.00
 0.14260826011000E+00 0.10000000000000E+01
 d    1 1.00
 0.16540000000000E+01 0.10000000000000E+01
 d    1 1.00
 0.46900000000000E+00 0.10000000000000E+01
 d    1 1.00
 0.12829642058000E+00 0.10000000000000E+01
 f    1 1.00
 0.10930000000000E+01 0.10000000000000E+01
 
   12 0
 s    6 1.00
 0.27032382631000E+05 0.57227335211155E-03
 0.40523871392000E+04 0.44353233492995E-02
 0.92232722710000E+03 0.23020107706038E-01
 0.26124070989000E+03 0.92822490667928E-01
 0.85354641351000E+02 0.29378500009671E+00
 0.31035035245000E+02 0.67401604501641E+00
 s    2 1.00
 0.12260860728000E+02 0.63839937025506E+00
 0.49987076005000E+01 0.39534587125718E+00
 s    1 1.00
 0.11703108158000E+01 0.10000000000000E+01
 s    1 1.00
 0.46474740994000E+00 0.10000000000000E+01
 s    1 1.00
 0.18504536357000E+00 0.10000000000000E+01
 s    1 1.00
 0.70288026270000E-01 0.10000000000000E+01
 p    4 1.00
 0.63274954801000E+02 0.12018332222616E-01
 0.14627049379000E+02 0.83005421790056E-01
 0.44501223456000E+01 0.31991743925964E+00
 0.15275799647000E+01 0.70715542916104E+00
 p    1 1.00
 0.52935117943000E+00 0.10000000000000E+01
 p    1 1.00
 0.17478421270000E+00 0.10000000000000E+01
 p    1 1.00
 0.51112745706000E-01 0.10000000000000E+01
 d    1 1.00
 0.23140000000000E+01 0.10000000000000E+01
 d    1 1.00
 0.64500000000000E+00 0.10000000000000E+01
 d    1 1.00
 0.14696477366000E+00 0.10000000000000E+01
 f    1 1.00
 0.14280000000000E+01 0.10000000000000E+01
 
   13 0
 s    6 1.00
 0.27032382631000E+05 0.57227335211155E-03
 0.40523871392000E+04 0.44353233492995E-02
 0.92232722710000E+03 0.23020107706038E-01
 0.26124070989000E+03 0.92822490667928E-01
 0.85354641351000E+02 0.29378500009671E+00
 0.31035035245000E+02 0.67401604501641E+00
 s    2 1.00
 0.12260860728000E+02 0.63839937025506E+00
 0.49987076005000E+01 0.39534587125718E+00
 s    1 1.00
 0.11703108158000E+01 0.10000000000000E+01
 s    1 1.00
 0.46474740994000E+00 0.10000000000000E+01
 s    1 1.00
 0.18504536357000E+00 0.10000000000000E+01
 s    1 1.00
 0.70288026270000E-01 0.10000000000000E+01
 p    4 1.00
 0.63274954801000E+02 0.12018332222616E-01
 0.14627049379000E+02 0.83005421790056E-01
 0.44501223456000E+01 0.31991743925964E+00
 0.15275799647000E+01 0.70715542916104E+00
 p    1 1.00
 0.52935117943000E+00 0.10000000000000E+01
 p    1 1.00
 0.17478421270000E+00 0.10000000000000E+01
 p    1 1.00
 0.51112745706000E-01 0.10000000000000E+01
 d    1 1.00
 0.23140000000000E+01 0.10000000000000E+01
 d    1 1.00
 0.64500000000000E+00 0.10000000000000E+01
 d    1 1.00
 0.14696477366000E+00 0.10000000000000E+01
 f    1 1.00
 0.14280000000000E+01 0.10000000000000E+01
 
   14 0
 s    6 1.00
 0.19730800647000E+05 0.58626402628763E-03
 0.29578958745000E+04 0.45428820586397E-02
 0.67322133595000E+03 0.23558413450084E-01
 0.19068249494000E+03 0.94709193292923E-01
 0.62295441898000E+02 0.29719784913376E+00
 0.22654161182000E+02 0.66916246895232E+00
 s    2 1.00
 0.89791477428000E+01 0.64596683630063E+00
 0.36863002370000E+01 0.38700574393705E+00
 s    1 1.00
 0.84660076805000E+00 0.10000000000000E+01
 s    1 1.00
 0.33647133771000E+00 0.10000000000000E+01
 s    1 1.00
 0.13647653675000E+00 0.10000000000000E+01
 s    1 1.00
 0.68441605847000E-01 0.10000000000000E+01
 p    4 1.00
 0.49200380510000E+02 0.11448825101764E-01
 0.11346790537000E+02 0.78422337970864E-01
 0.34273972411000E+01 0.30818094738830E+00
 0.11785525134000E+01 0.72027196368413E+00
 p    1 1.00
 0.41642204972000E+00 0.10000000000000E+01
 p    1 1.00
 0.14260826011000E+00 0.10000000000000E+01
 d    1 1.00
 0.16540000000000E+01 0.10000000000000E+01
 d    1 1.00
 0.46900000000000E+00 0.10000000000000E+01
 d    1 1.00
 0.12829642058000E+00 0.10000000000000E+01
 f    1 1.00
 0.10930000000000E+01 0.10000000000000E+01
 
   15 0
 s    3 1.00
 0.34061341000000E+02 0.25439307208879E-01
 0.51235746000000E+01 0.19008594890375E+00
 0.11646626000000E+01 0.85244113011042E+00
 s    1 1.00
 0.32723041000000E+00 0.10000000000000E+01
 s    1 1.00
 0.10307241000000E+00 0.10000000000000E+01
 p    1 1.00
 0.80000000000000E+00 0.10000000000000E+01
 p    1 1.00
 0.95774129632000E-01 0.10000000000000E+01
 
   16 0
 s    3 1.00
 0.34061341000000E+02 0.25439307208879E-01
 0.51235746000000E+01 0.19008594890375E+00
 0.11646626000000E+01 0.85244113011042E+00
 s    1 1.00
 0.32723041000000E+00 0.10000000000000E+01
 s    1 1.00
 0.10307241000000E+00 0.10000000000000E+01
 p    1 1.00
 0.80000000000000E+00 0.10000000000000E+01
 p    1 1.00
 0.95774129632000E-01 0.10000000000000E+01
 
[MO]
 Sym= X
 Ene= -0.077032
 Spin= Alpha
 Occup= -0.077032
         1    1.520058E-04
         2    3.579469E-04
         3   -1.296501E-03
         4    4.404904E-03
         5   -2.103340E-02
         6    1.418549E-02
         7    5.698129E-04
         8   -1.566435E-04
         9   -3.720546E-02
        10   -4.484670E-03
        11    2.119947E-04
        12   -3.533872E-02
        13   -3.571337E-02
        14    1.675774E-02
        15   -1.723378E-02
        16    4.195055E-05
        17   -2.025162E-05
        18   -2.169893E-05
        19   -8.211560E-06
        20   -6.385195E-03
        21    4.093069E-03
        22    9.107561E-04
        23   -5.337690E-04
        24   -3.769871E-04
        25    8.277255E-04
        26   -1.446171E-02
        27    7.662789E-03
        28    4.119043E-03
        29   -3.967826E-03
        30   -1.512175E-04
        31   -1.607672E-03
        32    2.736155E-03
        33   -8.427826E-03
        34   -3.229193E-05
        35    3.141386E-06
        36    1.657347E-04
        37    1.435803E-05
        38   -2.142609E-06
        39    6.959486E-04
        40    2.896613E-05
        41   -2.072003E-06
        42   -9.183051E-04
        43    7.272883E-04
        44    3.830369E-05
        45    8.863020E-05
        46   -3.827854E-04
        47    3.189287E-03
        48    6.812775E-02
        49   -6.599423E-03
        50    3.977238E-04
        51    1.334274E-06
        52   -2.129192E-01
        53   -5.713437E-04
        54    1.171420E-05
        55   -2.204392E-01
        56   -1.746840E-02
        57   -4.292729E-04
        58   -1.938376E-01
        59   -9.036753E-06
        60    4.105420E-06
        61    4.931333E-06
        62   -8.796838E-08
        63   -2.514067E-04
        64    4.275651E-07
        65   -4.020803E-04
        66    6.948623E-04
        67   -2.927820E-04
        68   -2.227736E-06
        69   -2.297143E-03
        70    3.915904E-07
        71   -1.351766E-02
        72    1.540326E-02
        73   -1.885600E-03
        74    7.970017E-05
        75    4.462649E-03
        76   -1.253112E-05
        77    8.459030E-06
        78    2.918167E-08
        79    1.219365E-03
        80   -6.985336E-06
        81    1.551931E-08
        82   -6.920836E-04
        83   -4.363643E-06
        84   -5.467063E-08
        85   -9.438662E-04
        86   -3.438728E-08
        87    1.522533E-04
        88    3.584963E-04
        89   -1.297498E-03
        90    4.406443E-03
        91   -2.206117E-02
        92    1.417245E-02
        93    5.705627E-04
        94    1.556877E-04
        95   -3.722577E-02
        96   -4.459238E-03
        97   -2.072786E-04
        98   -3.535990E-02
        99   -3.591368E-02
       100   -1.715059E-02
       101   -1.726780E-02
       102    4.186963E-05
       103   -2.024570E-05
       104   -2.162393E-05
       105    8.089884E-06
       106   -6.384835E-03
       107   -4.093183E-03
       108    9.057312E-04
       109   -5.289438E-04
       110   -3.767874E-04
       111   -8.259013E-04
       112   -1.446026E-02
       113   -7.662676E-03
       114    4.205369E-03
       115   -4.064665E-03
       116   -1.407040E-04
       117    1.525207E-03
       118    2.725278E-03
       119    8.423971E-03
       120   -3.229310E-05
       121   -3.113719E-06
       122    1.658603E-04
       123    1.443695E-05
       124    2.112914E-06
       125    6.958112E-04
       126    2.888879E-05
       127    2.064579E-06
       128   -9.183361E-04
       129   -7.272704E-04
       130   -9.583732E-05
       131   -2.033524E-04
       132   -7.056598E-04
       133    1.126847E-02
       134   -1.248950E-02
       135   -1.730463E-02
       136   -1.954467E-04
       137    2.978146E-04
       138    1.586759E-01
       139   -1.024104E-02
       140    7.036075E-03
       141    1.609503E-01
       142   -1.378379E-02
       143   -9.449755E-03
       144    1.002393E-01
       145   -9.655176E-05
       146    1.228334E-04
       147   -2.628165E-05
       148    8.055570E-06
       149   -1.563560E-03
       150    3.524472E-03
       151   -8.359573E-04
       152    8.742930E-04
       153   -3.833564E-05
       154   -1.950055E-03
       155   -5.678248E-03
       156    5.887023E-03
       157   -9.167126E-03
       158    6.891043E-03
       159    2.276083E-03
       160    1.376268E-02
       161    3.595907E-03
       162   -9.442653E-03
       163   -2.123206E-05
       164    3.766038E-06
       165   -9.336290E-04
       166   -1.442949E-05
       167    2.863681E-05
       168    1.995429E-04
       169    4.291528E-05
       170   -3.368948E-05
       171    1.053052E-03
       172   -4.343363E-04
       173    1.245695E-03
       174    2.842465E-03
       175   -2.736454E-03
       176   -2.744890E-02
       177    5.119759E-02
       178   -8.096374E-03
       179    7.599601E-03
       180   -1.230713E-06
       181    1.480390E-01
       182   -1.455157E-03
       183   -6.175177E-06
       184    1.502701E-01
       185   -4.702273E-02
       186    5.995756E-04
       187    1.344789E-01
       188   -4.548845E-04
       189    2.107056E-04
       190    2.441788E-04
       191   -1.518377E-07
       192    8.821576E-03
       193    4.084455E-07
       194    2.233711E-03
       195   -4.918272E-03
       196    2.684562E-03
       197   -1.182288E-06
       198    2.236730E-02
       199   -3.002848E-07
       200    7.987606E-03
       201   -9.108233E-03
       202    1.120627E-03
       203    1.312714E-04
       204    1.502125E-02
       205    6.412874E-06
       206    1.213055E-04
       207    2.170599E-08
       208   -6.312768E-04
       209   -9.556957E-05
       210   -4.140727E-08
       211   -7.175527E-04
       212   -6.717883E-05
       213    1.228563E-08
       214    1.564499E-03
       215    8.244057E-09
       216   -9.619249E-05
       217   -2.041145E-04
       218   -7.034288E-04
       219    1.126745E-02
       220   -1.388864E-02
       221   -1.729240E-02
       222   -1.950989E-04
       223   -2.940177E-04
       224    1.586943E-01
       225   -1.025273E-02
       226   -7.036499E-03
       227    1.609715E-01
       228   -1.355620E-02
       229    1.003951E-02
       230    1.002307E-01
       231   -9.642746E-05
       232    1.229856E-04
       233   -2.655817E-05
       234   -8.276239E-06
       235   -1.563131E-03
       236   -3.524547E-03
       237   -8.404970E-04
       238    8.780224E-04
       239   -3.752535E-05
       240    1.951182E-03
       241   -5.676930E-03
       242   -5.887101E-03
       243   -9.089515E-03
       244    6.810778E-03
       245    2.278737E-03
       246   -1.384952E-02
       247    3.605815E-03
       248    9.452850E-03
       249   -2.133388E-05
       250   -3.811303E-06
       251   -9.338246E-04
       252   -1.444494E-05
       253   -2.856675E-05
       254    1.997428E-04
       255    4.306735E-05
       256    3.368015E-05
       257    1.053114E-03
       258    4.343332E-04
       259   -6.709425E-05
       260   -6.025865E-04
       261    1.869057E-02
       262    1.777875E-06
       263    9.019304E-05
       264   -1.501628E-03
       265   -6.211979E-03
       266   -5.755263E-04
       267    4.419321E-03
       268   -6.632859E-05
       269   -6.060939E-04
       270    1.868097E-02
       271    2.275511E-06
       272   -9.073969E-05
       273   -1.502461E-03
       274   -6.291255E-03
       275    5.437260E-04
       276    4.423394E-03
       277    1.556100E-04
       278    2.388157E-03
       279   -4.411468E-02
       280   -9.883428E-06
       281    6.704033E-05
       282    6.488520E-03
       283   -7.510137E-04
       284   -3.908252E-03
       285    1.579624E-03
       286    1.582398E-04
       287    2.388287E-03
       288   -4.425337E-02
       289   -9.797404E-06
       290   -6.699456E-05
       291    6.489488E-03
       292   -7.152802E-04
       293    3.942531E-03
       294    1.577303E-03
       295    5.530016E-06
       296    1.066074E-05
       297    4.735563E-05
       298    6.264337E-05
       299    8.432014E-03
       300   -8.449988E-04
       301    1.780322E-04
       302   -3.966361E-07
       303   -1.568429E-02
       304   -2.036576E-04
       305   -4.112918E-07
       306   -1.780568E-02
       307   -3.454127E-03
       308    2.514103E-08
       309   -4.736099E-03
       310   -4.279606E-05
       311    2.641762E-05
       312    1.637844E-05
       313   -2.960852E-08
       314    4.306055E-03
       315    1.202894E-08
       316   -5.391332E-05
       317   -2.313595E-05
       318    7.704926E-05
       319   -1.209635E-08
       320    1.293829E-02
       321    9.463928E-08
       322    7.113549E-04
       323   -3.301938E-03
       324    2.590583E-03
       325   -1.128902E-05
       326    3.606016E-03
       327    3.811533E-06
       328    7.162502E-06
       329    8.419920E-09
       330    2.398176E-05
       331   -5.401948E-06
       332    1.871006E-09
       333   -7.142095E-04
       334   -4.207557E-06
       335   -1.316751E-08
       336    6.820345E-04
       337   -6.229211E-10
       338   -3.769016E-06
       339   -1.401540E-05
       340    7.901510E-05
       341   -5.309266E-04
       342    7.507057E-03
       343    1.697718E-03
       344   -8.145521E-04
       345   -1.770268E-04
       346    7.275205E-02
       347   -8.809511E-04
       348    1.238938E-05
       349    6.748900E-02
       350   -1.797812E-03
       351    5.754351E-04
       352    5.363331E-02
       353   -3.314295E-04
       354    2.924426E-04
       355    6.156129E-03
       356    1.316030E-06
       357   -4.386443E-07
       358   -8.773862E-07
       359   -6.357617E-06
       360   -5.641071E-08
       361    4.821407E-04
       362    2.609409E-05
       363   -4.049734E-06
       364   -2.204436E-05
       365   -2.906917E-05
       366   -5.256874E-04
       367    1.574666E-03
       368    7.729221E-05
       369   -1.688441E-05
       370   -6.040780E-05
       371   -1.800802E-05
       372   -7.062260E-04
       373    2.644306E-04
       374    1.241162E-06
       375   -7.757077E-07
       376   -5.952739E-05
       377   -2.137167E-06
       378    3.021649E-06
       379   -8.752176E-05
       380    4.719739E-07
       381   -1.980928E-06
       382    1.673861E-04
       383   -1.300891E-04
       384   -3.744801E-06
       385   -1.394606E-05
       386    7.881824E-05
       387   -5.307316E-04
       388    7.517879E-03
       389    1.681389E-03
       390   -8.136121E-04
       391    1.787726E-04
       392    7.275215E-02
       393   -8.803320E-04
       394   -1.084721E-05
       395    6.748957E-02
       396   -1.788629E-03
       397   -5.788028E-04
       398    5.362613E-02
       399   -3.229391E-04
       400   -2.961435E-04
       401    6.156809E-03
       402    1.335413E-06
       403   -4.802817E-07
       404   -8.551311E-07
       405    6.358182E-06
       406   -8.600521E-08
       407   -4.821583E-04
       408    2.597098E-05
       409   -4.070676E-06
       410   -2.190031E-05
       411    2.893552E-05
       412   -5.256140E-04
       413   -1.574573E-03
       414    7.777295E-05
       415   -1.756599E-05
       416   -6.020696E-05
       417    1.857294E-05
       418   -7.061849E-04
       419   -2.633949E-04
       420    1.236589E-06
       421    7.853376E-07
       422   -5.953097E-05
       423   -2.125866E-06
       424   -3.020811E-06
       425   -8.751075E-05
       426    4.668068E-07
       427    1.967170E-06
       428    1.673799E-04
       429    1.300883E-04
       430   -5.655268E-03
       431   -1.345304E-02
       432    2.098839E-02
       433    3.431762E-02
       434    1.618062E-02
       435    8.310396E-02
       436   -1.831879E-02
       437    4.931241E-06
       438   -2.107363E-01
       439   -2.150176E-02
       440    3.853344E-07
       441   -2.084255E-01
       442   -2.371678E-02
       443   -5.578119E-05
       444   -1.768528E-01
       445    1.806942E-04
       446   -3.364656E-05
       447   -1.470477E-04
       448   -1.056048E-07
       449    1.413983E-03
       450    1.403535E-07
       451    4.160917E-04
       452    1.709866E-03
       453   -2.125958E-03
       454    1.814735E-06
       455    4.945097E-03
       456    3.036898E-07
       457    3.178035E-03
       458    4.102583E-03
       459   -7.280618E-03
       460    5.238927E-06
       461    2.869445E-03
       462    2.631372E-07
       463   -1.793120E-04
       464    2.151291E-08
       465    7.174504E-04
       466   -9.319644E-05
       467    1.367231E-08
       468   -2.654361E-04
       469    3.337687E-04
       470   -4.253490E-08
       471   -6.971246E-04
       472    3.349613E-08
       473   -1.240829E-02
       474   -2.325669E-02
       475   -4.193680E-02
       476   -2.545786E-03
       477   -2.324244E-03
       478   -1.076226E-02
       479    1.191719E-03
       480   -4.704008E-03
       481   -1.422546E-02
       482   -1.240548E-02
       483   -2.321754E-02
       484   -4.174102E-02
       485   -2.543505E-03
       486    2.321063E-03
       487   -1.076442E-02
       488    1.226551E-03
       489    4.682489E-03
       490   -1.423568E-02
 Sym= X
 Ene= -0.876152
 Spin= Alpha
 Occup= -0.876152
         1   -3.979668E-04
         2   -9.154032E-04
         3    2.184884E-03
         4   -2.946436E-03
         5    2.070128E-02
         6   -1.507457E-02
         7   -4.666790E-03
         8    1.080638E-03
         9   -1.413061E-01
        10    1.778499E-03
        11    3.801916E-04
        12   -1.394477E-01
        13    2.775517E-02
        14   -1.373787E-03
        15   -5.021353E-02
        16    1.440404E-04
        17   -1.415690E-04
        18   -2.471391E-06
        19   -4.595511E-05
        20   -2.097755E-04
        21    4.330813E-03
        22   -7.078095E-04
        23    4.011415E-04
        24    3.066681E-04
        25   -1.091201E-03
        26   -9.503127E-04
        27    7.111835E-03
        28   -1.855488E-03
        29    1.551430E-03
        30    3.040580E-04
        31    2.588196E-03
        32   -6.690326E-03
        33    4.249583E-03
        34    2.065532E-05
        35    1.377089E-06
        36    1.189585E-03
        37   -5.459109E-06
        38   -3.062663E-06
        39   -6.745101E-04
        40   -2.225291E-05
        41    1.215104E-06
        42   -9.214861E-04
        43    4.655951E-04
        44   -2.475883E-04
        45   -5.655586E-04
        46    1.306079E-03
        47   -3.872789E-03
        48   -1.686516E-02
        49    1.267559E-02
        50    4.839985E-03
        51   -1.443313E-07
        52   -2.022787E-01
        53    5.188890E-03
        54    1.226018E-05
        55   -2.039477E-01
        56    8.075353E-03
        57    4.495235E-04
        58   -6.525383E-02
        59    2.590780E-04
        60   -2.449626E-04
        61   -1.411539E-05
        62    6.632806E-09