[Molden Format]
[Title]
ADC(2) - opt by CAM-B3LYP gaussian                                              
[Atoms] AU
 c     1    6 0.12592752280008E+01 0.22800132789445E+01 -.35345910021030E-01
 c     2    6 0.25511638220345E+01 0.20078340100000E-05 -.33671612667290E-01
 c     3    6 0.12592790074531E+01 -.22800111530026E+01 -.35357248377820E-01
 c     4    6 -.13364450292264E+01 -.22798221803893E+01 -.38530098554940E-01
 c     5    6 -.26857699593430E+01 -.17716182500000E-05 -.39025206801750E-01
 c     6    6 -.13364469189525E+01 0.22798205268790E+01 -.38516870472010E-01
 h     7    1 0.23055183220207E+01 0.40307538342087E+01 -.32265656424420E-01
 h     8    1 0.23055239911991E+01 -.40307498185407E+01 -.32284553685750E-01
 h     9    1 -.23548467881305E+01 -.40530977197882E+01 -.43619131030800E-01
 h    10    1 -.23548543470350E+01 0.40530922868255E+01 -.43594564591070E-01
 n    11    7 0.52860567397703E+01 0.11810788000000E-06 -.26776002008390E-01
 o    12    8 0.63771222479361E+01 -.20280728649663E+01 -.23850705954680E-01
 o    13    8 0.63771260273883E+01 0.20280712114559E+01 -.23882831298940E-01
 n    14    7 -.52615573853205E+01 0.11810788000000E-06 -.10505223788478E+00
 h    15    1 -.61955753134867E+01 -.16086254730588E+01 0.27588253543458E+00
 h    16    1 -.61955696443083E+01 0.16086275990006E+01 0.27589009433911E+00
[GTO]
    1 0
 s    6 1.00
 0.13575349682000E+05 0.60645503603591E-03
 0.20352333680000E+04 0.46979088884982E-02
 0.46322562359000E+03 0.24332477647552E-01
 0.13120019598000E+03 0.97399968307759E-01
 0.42853015891000E+02 0.30195584253780E+00
 0.15584185766000E+02 0.66233609137875E+00
 s    2 1.00
 0.62067138508000E+01 0.65595308539952E+00
 0.25764896527000E+01 0.37585633285142E+00
 s    1 1.00
 0.57696339419000E+00 0.10000000000000E+01
 s    1 1.00
 0.22972831358000E+00 0.10000000000000E+01
 s    1 1.00
 0.95164440028000E-01 0.10000000000000E+01
 s    1 1.00
 0.48475401370000E-01 0.10000000000000E+01
 p    4 1.00
 0.34697232244000E+02 0.11327220003114E-01
 0.79582622826000E+01 0.76169659202087E-01
 0.23780826883000E+01 0.30192252202676E+00
 0.81433208183000E+00 0.72785027349547E+00
 p    1 1.00
 0.28887547253000E+00 0.10000000000000E+01
 p    1 1.00
 0.10056823671000E+00 0.10000000000000E+01
 d    1 1.00
 0.10970000000000E+01 0.10000000000000E+01
 d    1 1.00
 0.31800000000000E+00 0.10000000000000E+01
 d    1 1.00
 0.90985336424000E-01 0.10000000000000E+01
 f    1 1.00
 0.76100000000000E+00 0.10000000000000E+01
 
    2 0
 s    6 1.00
 0.13575349682000E+05 0.60645503603591E-03
 0.20352333680000E+04 0.46979088884982E-02
 0.46322562359000E+03 0.24332477647552E-01
 0.13120019598000E+03 0.97399968307759E-01
 0.42853015891000E+02 0.30195584253780E+00
 0.15584185766000E+02 0.66233609137875E+00
 s    2 1.00
 0.62067138508000E+01 0.65595308539952E+00
 0.25764896527000E+01 0.37585633285142E+00
 s    1 1.00
 0.57696339419000E+00 0.10000000000000E+01
 s    1 1.00
 0.22972831358000E+00 0.10000000000000E+01
 s    1 1.00
 0.95164440028000E-01 0.10000000000000E+01
 s    1 1.00
 0.48475401370000E-01 0.10000000000000E+01
 p    4 1.00
 0.34697232244000E+02 0.11327220003114E-01
 0.79582622826000E+01 0.76169659202087E-01
 0.23780826883000E+01 0.30192252202676E+00
 0.81433208183000E+00 0.72785027349547E+00
 p    1 1.00
 0.28887547253000E+00 0.10000000000000E+01
 p    1 1.00
 0.10056823671000E+00 0.10000000000000E+01
 d    1 1.00
 0.10970000000000E+01 0.10000000000000E+01
 d    1 1.00
 0.31800000000000E+00 0.10000000000000E+01
 d    1 1.00
 0.90985336424000E-01 0.10000000000000E+01
 f    1 1.00
 0.76100000000000E+00 0.10000000000000E+01
 
    3 0
 s    6 1.00
 0.13575349682000E+05 0.60645503603591E-03
 0.20352333680000E+04 0.46979088884982E-02
 0.46322562359000E+03 0.24332477647552E-01
 0.13120019598000E+03 0.97399968307759E-01
 0.42853015891000E+02 0.30195584253780E+00
 0.15584185766000E+02 0.66233609137875E+00
 s    2 1.00
 0.62067138508000E+01 0.65595308539952E+00
 0.25764896527000E+01 0.37585633285142E+00
 s    1 1.00
 0.57696339419000E+00 0.10000000000000E+01
 s    1 1.00
 0.22972831358000E+00 0.10000000000000E+01
 s    1 1.00
 0.95164440028000E-01 0.10000000000000E+01
 s    1 1.00
 0.48475401370000E-01 0.10000000000000E+01
 p    4 1.00
 0.34697232244000E+02 0.11327220003114E-01
 0.79582622826000E+01 0.76169659202087E-01
 0.23780826883000E+01 0.30192252202676E+00
 0.81433208183000E+00 0.72785027349547E+00
 p    1 1.00
 0.28887547253000E+00 0.10000000000000E+01
 p    1 1.00
 0.10056823671000E+00 0.10000000000000E+01
 d    1 1.00
 0.10970000000000E+01 0.10000000000000E+01
 d    1 1.00
 0.31800000000000E+00 0.10000000000000E+01
 d    1 1.00
 0.90985336424000E-01 0.10000000000000E+01
 f    1 1.00
 0.76100000000000E+00 0.10000000000000E+01
 
    4 0
 s    6 1.00
 0.13575349682000E+05 0.60645503603591E-03
 0.20352333680000E+04 0.46979088884982E-02
 0.46322562359000E+03 0.24332477647552E-01
 0.13120019598000E+03 0.97399968307759E-01
 0.42853015891000E+02 0.30195584253780E+00
 0.15584185766000E+02 0.66233609137875E+00
 s    2 1.00
 0.62067138508000E+01 0.65595308539952E+00
 0.25764896527000E+01 0.37585633285142E+00
 s    1 1.00
 0.57696339419000E+00 0.10000000000000E+01
 s    1 1.00
 0.22972831358000E+00 0.10000000000000E+01
 s    1 1.00
 0.95164440028000E-01 0.10000000000000E+01
 s    1 1.00
 0.48475401370000E-01 0.10000000000000E+01
 p    4 1.00
 0.34697232244000E+02 0.11327220003114E-01
 0.79582622826000E+01 0.76169659202087E-01
 0.23780826883000E+01 0.30192252202676E+00
 0.81433208183000E+00 0.72785027349547E+00
 p    1 1.00
 0.28887547253000E+00 0.10000000000000E+01
 p    1 1.00
 0.10056823671000E+00 0.10000000000000E+01
 d    1 1.00
 0.10970000000000E+01 0.10000000000000E+01
 d    1 1.00
 0.31800000000000E+00 0.10000000000000E+01
 d    1 1.00
 0.90985336424000E-01 0.10000000000000E+01
 f    1 1.00
 0.76100000000000E+00 0.10000000000000E+01
 
    5 0
 s    6 1.00
 0.13575349682000E+05 0.60645503603591E-03
 0.20352333680000E+04 0.46979088884982E-02
 0.46322562359000E+03 0.24332477647552E-01
 0.13120019598000E+03 0.97399968307759E-01
 0.42853015891000E+02 0.30195584253780E+00
 0.15584185766000E+02 0.66233609137875E+00
 s    2 1.00
 0.62067138508000E+01 0.65595308539952E+00
 0.25764896527000E+01 0.37585633285142E+00
 s    1 1.00
 0.57696339419000E+00 0.10000000000000E+01
 s    1 1.00
 0.22972831358000E+00 0.10000000000000E+01
 s    1 1.00
 0.95164440028000E-01 0.10000000000000E+01
 s    1 1.00
 0.48475401370000E-01 0.10000000000000E+01
 p    4 1.00
 0.34697232244000E+02 0.11327220003114E-01
 0.79582622826000E+01 0.76169659202087E-01
 0.23780826883000E+01 0.30192252202676E+00
 0.81433208183000E+00 0.72785027349547E+00
 p    1 1.00
 0.28887547253000E+00 0.10000000000000E+01
 p    1 1.00
 0.10056823671000E+00 0.10000000000000E+01
 d    1 1.00
 0.10970000000000E+01 0.10000000000000E+01
 d    1 1.00
 0.31800000000000E+00 0.10000000000000E+01
 d    1 1.00
 0.90985336424000E-01 0.10000000000000E+01
 f    1 1.00
 0.76100000000000E+00 0.10000000000000E+01
 
    6 0
 s    6 1.00
 0.13575349682000E+05 0.60645503603591E-03
 0.20352333680000E+04 0.46979088884982E-02
 0.46322562359000E+03 0.24332477647552E-01
 0.13120019598000E+03 0.97399968307759E-01
 0.42853015891000E+02 0.30195584253780E+00
 0.15584185766000E+02 0.66233609137875E+00
 s    2 1.00
 0.62067138508000E+01 0.65595308539952E+00
 0.25764896527000E+01 0.37585633285142E+00
 s    1 1.00
 0.57696339419000E+00 0.10000000000000E+01
 s    1 1.00
 0.22972831358000E+00 0.10000000000000E+01
 s    1 1.00
 0.95164440028000E-01 0.10000000000000E+01
 s    1 1.00
 0.48475401370000E-01 0.10000000000000E+01
 p    4 1.00
 0.34697232244000E+02 0.11327220003114E-01
 0.79582622826000E+01 0.76169659202087E-01
 0.23780826883000E+01 0.30192252202676E+00
 0.81433208183000E+00 0.72785027349547E+00
 p    1 1.00
 0.28887547253000E+00 0.10000000000000E+01
 p    1 1.00
 0.10056823671000E+00 0.10000000000000E+01
 d    1 1.00
 0.10970000000000E+01 0.10000000000000E+01
 d    1 1.00
 0.31800000000000E+00 0.10000000000000E+01
 d    1 1.00
 0.90985336424000E-01 0.10000000000000E+01
 f    1 1.00
 0.76100000000000E+00 0.10000000000000E+01
 
    7 0
 s    3 1.00
 0.34061341000000E+02 0.25439307208879E-01
 0.51235746000000E+01 0.19008594890375E+00
 0.11646626000000E+01 0.85244113011042E+00
 s    1 1.00
 0.32723041000000E+00 0.10000000000000E+01
 s    1 1.00
 0.10307241000000E+00 0.10000000000000E+01
 p    1 1.00
 0.80000000000000E+00 0.10000000000000E+01
 p    1 1.00
 0.95774129632000E-01 0.10000000000000E+01
 
    8 0
 s    3 1.00
 0.34061341000000E+02 0.25439307208879E-01
 0.51235746000000E+01 0.19008594890375E+00
 0.11646626000000E+01 0.85244113011042E+00
 s    1 1.00
 0.32723041000000E+00 0.10000000000000E+01
 s    1 1.00
 0.10307241000000E+00 0.10000000000000E+01
 p    1 1.00
 0.80000000000000E+00 0.10000000000000E+01
 p    1 1.00
 0.95774129632000E-01 0.10000000000000E+01
 
    9 0
 s    3 1.00
 0.34061341000000E+02 0.25439307208879E-01
 0.51235746000000E+01 0.19008594890375E+00
 0.11646626000000E+01 0.85244113011042E+00
 s    1 1.00
 0.32723041000000E+00 0.10000000000000E+01
 s    1 1.00
 0.10307241000000E+00 0.10000000000000E+01
 p    1 1.00
 0.80000000000000E+00 0.10000000000000E+01
 p    1 1.00
 0.95774129632000E-01 0.10000000000000E+01
 
   10 0
 s    3 1.00
 0.34061341000000E+02 0.25439307208879E-01
 0.51235746000000E+01 0.19008594890375E+00
 0.11646626000000E+01 0.85244113011042E+00
 s    1 1.00
 0.32723041000000E+00 0.10000000000000E+01
 s    1 1.00
 0.10307241000000E+00 0.10000000000000E+01
 p    1 1.00
 0.80000000000000E+00 0.10000000000000E+01
 p    1 1.00
 0.95774129632000E-01 0.10000000000000E+01
 
   11 0
 s    6 1.00
 0.19730800647000E+05 0.58626402628763E-03
 0.29578958745000E+04 0.45428820586397E-02
 0.67322133595000E+03 0.23558413450084E-01
 0.19068249494000E+03 0.94709193292923E-01
 0.62295441898000E+02 0.29719784913376E+00
 0.22654161182000E+02 0.66916246895232E+00
 s    2 1.00
 0.89791477428000E+01 0.64596683630063E+00
 0.36863002370000E+01 0.38700574393705E+00
 s    1 1.00
 0.84660076805000E+00 0.10000000000000E+01
 s    1 1.00
 0.33647133771000E+00 0.10000000000000E+01
 s    1 1.00
 0.13647653675000E+00 0.10000000000000E+01
 s    1 1.00
 0.68441605847000E-01 0.10000000000000E+01
 p    4 1.00
 0.49200380510000E+02 0.11448825101764E-01
 0.11346790537000E+02 0.78422337970864E-01
 0.34273972411000E+01 0.30818094738830E+00
 0.11785525134000E+01 0.72027196368413E+00
 p    1 1.00
 0.41642204972000E+00 0.10000000000000E+01
 p    1 1.00
 0.14260826011000E+00 0.10000000000000E+01
 d    1 1.00
 0.16540000000000E+01 0.10000000000000E+01
 d    1 1.00
 0.46900000000000E+00 0.10000000000000E+01
 d    1 1.00
 0.12829642058000E+00 0.10000000000000E+01
 f    1 1.00
 0.10930000000000E+01 0.10000000000000E+01
 
   12 0
 s    6 1.00
 0.27032382631000E+05 0.57227335211155E-03
 0.40523871392000E+04 0.44353233492995E-02
 0.92232722710000E+03 0.23020107706038E-01
 0.26124070989000E+03 0.92822490667928E-01
 0.85354641351000E+02 0.29378500009671E+00
 0.31035035245000E+02 0.67401604501641E+00
 s    2 1.00
 0.12260860728000E+02 0.63839937025506E+00
 0.49987076005000E+01 0.39534587125718E+00
 s    1 1.00
 0.11703108158000E+01 0.10000000000000E+01
 s    1 1.00
 0.46474740994000E+00 0.10000000000000E+01
 s    1 1.00
 0.18504536357000E+00 0.10000000000000E+01
 s    1 1.00
 0.70288026270000E-01 0.10000000000000E+01
 p    4 1.00
 0.63274954801000E+02 0.12018332222616E-01
 0.14627049379000E+02 0.83005421790056E-01
 0.44501223456000E+01 0.31991743925964E+00
 0.15275799647000E+01 0.70715542916104E+00
 p    1 1.00
 0.52935117943000E+00 0.10000000000000E+01
 p    1 1.00
 0.17478421270000E+00 0.10000000000000E+01
 p    1 1.00
 0.51112745706000E-01 0.10000000000000E+01
 d    1 1.00
 0.23140000000000E+01 0.10000000000000E+01
 d    1 1.00
 0.64500000000000E+00 0.10000000000000E+01
 d    1 1.00
 0.14696477366000E+00 0.10000000000000E+01
 f    1 1.00
 0.14280000000000E+01 0.10000000000000E+01
 
   13 0
 s    6 1.00
 0.27032382631000E+05 0.57227335211155E-03
 0.40523871392000E+04 0.44353233492995E-02
 0.92232722710000E+03 0.23020107706038E-01
 0.26124070989000E+03 0.92822490667928E-01
 0.85354641351000E+02 0.29378500009671E+00
 0.31035035245000E+02 0.67401604501641E+00
 s    2 1.00
 0.12260860728000E+02 0.63839937025506E+00
 0.49987076005000E+01 0.39534587125718E+00
 s    1 1.00
 0.11703108158000E+01 0.10000000000000E+01
 s    1 1.00
 0.46474740994000E+00 0.10000000000000E+01
 s    1 1.00
 0.18504536357000E+00 0.10000000000000E+01
 s    1 1.00
 0.70288026270000E-01 0.10000000000000E+01
 p    4 1.00
 0.63274954801000E+02 0.12018332222616E-01
 0.14627049379000E+02 0.83005421790056E-01
 0.44501223456000E+01 0.31991743925964E+00
 0.15275799647000E+01 0.70715542916104E+00
 p    1 1.00
 0.52935117943000E+00 0.10000000000000E+01
 p    1 1.00
 0.17478421270000E+00 0.10000000000000E+01
 p    1 1.00
 0.51112745706000E-01 0.10000000000000E+01
 d    1 1.00
 0.23140000000000E+01 0.10000000000000E+01
 d    1 1.00
 0.64500000000000E+00 0.10000000000000E+01
 d    1 1.00
 0.14696477366000E+00 0.10000000000000E+01
 f    1 1.00
 0.14280000000000E+01 0.10000000000000E+01
 
   14 0
 s    6 1.00
 0.19730800647000E+05 0.58626402628763E-03
 0.29578958745000E+04 0.45428820586397E-02
 0.67322133595000E+03 0.23558413450084E-01
 0.19068249494000E+03 0.94709193292923E-01
 0.62295441898000E+02 0.29719784913376E+00
 0.22654161182000E+02 0.66916246895232E+00
 s    2 1.00
 0.89791477428000E+01 0.64596683630063E+00
 0.36863002370000E+01 0.38700574393705E+00
 s    1 1.00
 0.84660076805000E+00 0.10000000000000E+01
 s    1 1.00
 0.33647133771000E+00 0.10000000000000E+01
 s    1 1.00
 0.13647653675000E+00 0.10000000000000E+01
 s    1 1.00
 0.68441605847000E-01 0.10000000000000E+01
 p    4 1.00
 0.49200380510000E+02 0.11448825101764E-01
 0.11346790537000E+02 0.78422337970864E-01
 0.34273972411000E+01 0.30818094738830E+00
 0.11785525134000E+01 0.72027196368413E+00
 p    1 1.00
 0.41642204972000E+00 0.10000000000000E+01
 p    1 1.00
 0.14260826011000E+00 0.10000000000000E+01
 d    1 1.00
 0.16540000000000E+01 0.10000000000000E+01
 d    1 1.00
 0.46900000000000E+00 0.10000000000000E+01
 d    1 1.00
 0.12829642058000E+00 0.10000000000000E+01
 f    1 1.00
 0.10930000000000E+01 0.10000000000000E+01
 
   15 0
 s    3 1.00
 0.34061341000000E+02 0.25439307208879E-01
 0.51235746000000E+01 0.19008594890375E+00
 0.11646626000000E+01 0.85244113011042E+00
 s    1 1.00
 0.32723041000000E+00 0.10000000000000E+01
 s    1 1.00
 0.10307241000000E+00 0.10000000000000E+01
 p    1 1.00
 0.80000000000000E+00 0.10000000000000E+01
 p    1 1.00
 0.95774129632000E-01 0.10000000000000E+01
 
   16 0
 s    3 1.00
 0.34061341000000E+02 0.25439307208879E-01
 0.51235746000000E+01 0.19008594890375E+00
 0.11646626000000E+01 0.85244113011042E+00
 s    1 1.00
 0.32723041000000E+00 0.10000000000000E+01
 s    1 1.00
 0.10307241000000E+00 0.10000000000000E+01
 p    1 1.00
 0.80000000000000E+00 0.10000000000000E+01
 p    1 1.00
 0.95774129632000E-01 0.10000000000000E+01
 
[MO]
 Sym= X
 Ene= -0.964158
 Spin= Alpha
 Occup= -0.964158
         1    5.417535E-03
         2    1.242447E-02
         3   -2.563250E-02
         4    5.914487E-03
         5   -1.886619E-01
         6   -3.334442E-02
         7   -4.977485E-02
         8   -2.142775E-02
         9   -9.795500E-05
        10   -5.755541E-02
        11   -1.863783E-02
        12   -9.318247E-05
        13   -3.632827E-02
        14    5.712573E-02
        15   -1.508832E-05
        16    1.716070E-03
        17   -1.927969E-03
        18    2.118991E-04
        19   -6.156347E-04
        20    1.174089E-06
        21   -2.814860E-06
        22    1.013174E-02
        23   -7.089249E-03
        24   -3.042495E-03
        25   -2.146578E-03
        26    1.416333E-05
        27   -4.649765E-06
        28   -5.072640E-03
        29    1.284439E-03
        30    3.788201E-03
        31    9.160484E-03
        32    1.043583E-04
        33   -2.988168E-05
        34   -7.825216E-05
        35    9.319591E-05
        36    4.456442E-07
        37   -5.640456E-05
        38   -2.163701E-04
        39    2.755020E-08
        40    1.613909E-04
        41    9.133470E-05
        42   -6.254446E-07
        43   -7.407824E-07
        44   -7.399910E-07
        45   -1.653486E-06
        46    2.232619E-06
        47    6.005276E-06
        48    4.156893E-05
        49   -1.951729E-06
        50    1.215446E-05
        51   -1.713883E-02
        52   -1.405470E-05
        53    1.093420E-05
        54   -2.801533E-02
        55   -1.457942E-05
        56   -1.962378E-05
        57    1.515271E-01
        58   -1.853214E-05
        59    4.755006E-07
        60   -4.289166E-07
        61   -4.658394E-08
        62    1.197601E-03
        63    2.241549E-07
        64    1.846930E-06
        65    5.457488E-07
        66   -6.947259E-07
        67    1.489770E-07
        68   -4.129553E-03
        69    1.368429E-07
        70   -5.956634E-06
        71   -9.596201E-06
        72    1.094916E-05
        73   -1.352962E-06
        74   -3.217769E-02
        75    1.934808E-06
        76   -2.222488E-04
        77    7.884830E-08
        78   -5.782575E-04
        79    1.305360E-07
        80   -5.225283E-08
        81    6.068164E-04
        82   -7.100488E-08
        83   -5.353326E-08
        84    1.689974E-04
        85   -1.041275E-07
        86    7.674765E-07
        87   -5.417617E-03
        88   -1.242465E-02
        89    2.563320E-02
        90   -5.914834E-03
        91    1.884674E-01
        92    3.335007E-02
        93    4.976766E-02
        94   -2.143536E-02
        95    7.866757E-05
        96    5.755147E-02
        97   -1.864367E-02
        98    7.393808E-05
        99    3.635008E-02
       100    5.707629E-02
       101    1.531374E-05
       102   -1.715616E-03
       103    1.927495E-03
       104   -2.118799E-04
       105   -6.157255E-04
       106   -1.261916E-06
       107   -3.430085E-06
       108   -1.013165E-02
       109    7.088977E-03
       110    3.042671E-03
       111   -2.146222E-03
       112   -1.451032E-05
       113   -5.162868E-06
       114    5.064037E-03
       115   -1.277049E-03
       116   -3.786988E-03
       117    9.174788E-03
       118   -1.030608E-04
       119   -2.640222E-05
       120    7.825911E-05
       121    9.312152E-05
       122   -2.859574E-07
       123    5.639853E-05
       124   -2.162802E-04
       125   -1.006762E-07
       126   -1.613941E-04
       127    9.134458E-05
       128    4.843283E-07
       129   -7.991454E-07
       130    3.116994E-03
       131    7.076361E-03
       132   -1.371721E-02
       133    1.044401E-02
       134   -7.117615E-02
       135   -1.166082E-02
       136   -3.627534E-02
       137    1.115404E-02
       138   -5.850476E-05
       139   -3.581022E-03
       140    1.561395E-03
       141   -7.289742E-05
       142    1.411847E-03
       143   -5.718325E-04
       144    1.386268E-04
       145   -9.064627E-04
       146    7.988591E-04
       147    1.076036E-04
       148   -9.658226E-04
       149   -1.866072E-06
       150   -1.229347E-06
       151    4.793652E-03
       152   -3.103753E-03
       153   -1.689899E-03
       154   -8.675738E-04
       155    2.899847E-05
       156   -1.686377E-05
       157    5.493226E-03
       158   -6.637812E-03
       159    1.144586E-03
       160   -1.629588E-03
       161   -1.423809E-04
       162    2.876988E-05
       163   -2.054757E-05
       164    1.585673E-05
       165    1.288975E-06
       166   -3.275257E-05
       167    6.129097E-06
       168   -8.010274E-07
       169    6.032003E-05
       170   -2.740314E-05
       171   -9.283140E-07
       172    1.441771E-06
       173   -3.043686E-07
       174   -6.945710E-07
       175    1.223881E-06
       176    5.002327E-07
       177   -7.877232E-05
       178   -7.476901E-08
       179   -1.713249E-06
       180   -3.164047E-02
       181    5.791004E-06
       182    4.072543E-07
       183   -3.500639E-02
       184    5.421567E-06
       185   -1.261251E-05
       186   -3.050181E-02
       187   -1.044711E-06
       188    1.791315E-07
       189   -1.593120E-07
       190   -1.981956E-08
       191   -5.585095E-04
       192   -5.715808E-07
       193    1.205865E-05
       194   -5.683034E-07
       195    6.807904E-07
       196   -1.124870E-07
       197   -4.330621E-03
       198   -1.103476E-06
       199   -4.440541E-05
       200    3.812783E-06
       201   -6.150160E-06
       202    2.337377E-06
       203   -3.659618E-03
       204    4.194317E-08
       205    2.435498E-04
       206   -1.465731E-08
       207   -2.556091E-04
       208   -6.419604E-08
       209    1.318078E-08
       210    1.993000E-04
       211    1.151072E-07
       212    6.484062E-09
       213    1.436355E-04
       214   -2.897915E-08
       215   -1.322755E-06
       216   -3.117195E-03
       217   -7.076829E-03
       218    1.371833E-02
       219   -1.044907E-02
       220    7.136145E-02
       221    1.166146E-02
       222    3.628330E-02
       223    1.115210E-02
       224    5.164327E-05
       225    3.590415E-03
       226    1.561164E-03
       227    6.552455E-05
       228   -1.378817E-03
       229   -6.485166E-04
       230   -1.392825E-04
       231    9.067123E-04
       232   -7.991359E-04
       233   -1.075764E-04
       234   -9.655328E-04
       235    1.276709E-06
       236   -1.328262E-06
       237   -4.793152E-03
       238    3.103485E-03
       239    1.689667E-03
       240   -8.677309E-04
       241   -3.003234E-05
       242   -1.698506E-05
       243   -5.484907E-03
       244    6.631906E-03
       245   -1.146999E-03
       246   -1.635937E-03
       247    1.428759E-04
       248    2.807748E-05
       249    2.059177E-05
       250    1.581061E-05
       251   -1.239869E-06
       252    3.274707E-05
       253    6.190245E-06
       254    7.302979E-07
       255   -6.037383E-05
       256   -2.740240E-05
       257    9.331605E-07
       258    1.500021E-06
       259   -2.516900E-02
       260   -3.583776E-02
       261   -3.472600E-02
       262    2.591697E-03
       263    3.650021E-03
       264    5.819277E-06
       265    7.611354E-03
       266   -4.264721E-04
       267   -1.972145E-05
       268    2.516939E-02
       269    3.583810E-02
       270    3.472819E-02
       271   -2.592141E-03
       272    3.650092E-03
       273   -6.572449E-06
       274   -7.595971E-03
       275   -4.219221E-04
       276    2.083118E-05
       277   -5.291265E-04
       278   -5.675144E-04
       279    1.937484E-02
       280   -7.474374E-04
       281    2.395472E-04
       282   -3.893978E-06
       283    3.208044E-04
       284    1.196248E-03
       285   -4.296431E-05
       286    5.256441E-04
       287    5.620154E-04
       288   -1.934828E-02
       289    7.474470E-04
       290    2.400255E-04
       291    3.664585E-06
       292   -3.119054E-04
       293    1.193742E-03
       294    4.477625E-05
       295   -1.640440E-07
       296   -3.804552E-07
       297    4.904351E-07
       298   -1.289929E-07
       299    2.090271E-05
       300    1.763918E-05
       301   -1.094270E-05
       302   -4.645844E-02
       303    2.102802E-06
       304   -1.028861E-05
       305   -3.465308E-02
       306    1.637395E-06
       307    7.631703E-06
       308    7.323713E-03
       309   -3.749121E-06
       310    8.360872E-07
       311   -9.800134E-07
       312    1.439262E-07
       313   -9.898490E-03
       314    3.779737E-07
       315   -2.546398E-05
       316    2.722149E-06
       317   -2.736579E-06
       318    1.442947E-08
       319   -2.657752E-02
       320    7.618985E-07
       321   -6.966793E-05
       322   -7.823972E-07
       323    1.656911E-07
       324    6.167061E-07
       325    6.096900E-03
       326   -3.005885E-06
       327    3.755265E-05
       328    4.410209E-09
       329    2.134742E-03
       330   -8.259698E-09
       331   -2.464150E-08
       332   -3.053054E-03
       333   -1.057089E-08
       334    1.872458E-08
       335    1.889972E-04
       336    2.165244E-08
       337   -9.827987E-06
       338   -3.722571E-04
       339   -1.016629E-03
       340    1.066897E-03
       341   -6.775691E-03
       342    4.650761E-03
       343   -2.053259E-02
       344    2.537608E-01
       345    2.317637E-01
       346    6.549641E-04
       347    2.305308E-01
       348    2.028629E-01
       349    5.935418E-04
       350    1.731817E-01
       351    1.444245E-01
       352    4.643831E-04
       353    2.952884E-02
       354    1.465257E-02
       355    7.540833E-05
       356   -2.149638E-03
       357    2.885149E-03
       358   -7.355113E-04
       359   -2.017839E-04
       360   -4.072753E-06
       361   -5.842197E-07
       362   -6.561624E-03
       363    7.489031E-03
       364   -9.274071E-04
       365    6.703796E-04
       366   -1.552412E-05
       367    2.702749E-06
       368   -8.101189E-03
       369    6.993671E-03
       370    1.107519E-03
       371    7.508430E-04
       372   -2.160659E-05
       373    9.601446E-06
       374    2.628380E-04
       375    7.946568E-04
       376    9.332668E-07
       377   -5.005945E-04
       378   -8.689815E-04
       379    1.624473E-07
       380    1.479603E-04
       381   -1.971625E-04
       382   -1.414556E-06
       383   -2.027931E-06
       384    3.719281E-04
       385    1.015832E-03
       386   -1.065559E-03
       387    6.780373E-03
       388   -4.655902E-03
       389    2.051923E-02
       390   -2.537148E-01
       391    2.317589E-01
       392   -6.484666E-04
       393   -2.304901E-01
       394    2.028577E-01
       395   -5.879017E-04
       396   -1.731578E-01
       397    1.444217E-01
       398   -4.536119E-04
       399   -2.952502E-02
       400    1.465191E-02
       401   -7.419153E-05
       402    2.149510E-03
       403   -2.885205E-03
       404    7.356949E-04
       405   -2.021954E-04
       406    4.062456E-06
       407   -6.276354E-07
       408    6.561084E-03
       409   -7.489076E-03
       410    9.279915E-04
       411    6.698089E-04
       412    1.538222E-05
       413    2.323957E-06
       414    8.101287E-03
       415   -6.995161E-03
       416   -1.106126E-03
       417    7.534856E-04
       418    2.330584E-05
       419    6.975233E-06
       420   -2.629078E-04
       421    7.945956E-04
       422   -9.606830E-07
       423    5.007023E-04
       424   -8.688373E-04
       425   -1.362337E-07
       426   -1.479745E-04
       427   -1.972246E-04
       428    1.425125E-06
       429   -2.014723E-06
       430    4.519288E-07
       431    1.068366E-06
       432   -1.672541E-06
       433   -2.483265E-06
       434   -1.873750E-06
       435   -9.134529E-06
       436    3.166775E-06
       437    1.201364E-02
       438    2.100406E-05
       439    3.762681E-06
       440    9.199297E-03
       441    2.032243E-05
       442    9.445896E-06
       443    5.369181E-03
       444    1.447568E-05
       445   -5.906693E-09
       446   -2.614932E-08
       447    3.205601E-08
       448   -6.431438E-04
       449    1.279743E-07
       450    1.632184E-04
       451    2.052431E-07
       452   -4.419555E-07
       453    2.367125E-07
       454   -1.788879E-03
       455    3.177698E-07
       456    2.263977E-04
       457    1.532551E-06
       458   -1.685461E-06
       459    1.529099E-07
       460    1.218679E-03
       461    2.174638E-07
       462   -1.607358E-04
       463    1.765663E-08
       464    1.010738E-04
       465   -1.042908E-07
       466    1.134771E-08
       467   -1.096218E-04
       468    8.557330E-08
       469   -3.503657E-08
       470   -2.598293E-05
       471    5.434745E-08
       472   -3.281859E-05
       473   -6.515805E-03
       474   -1.001156E-02
       475   -1.191549E-02
       476   -5.267814E-04
       477   -6.184298E-04
       478    2.264820E-04
       479   -1.384330E-03
       480   -1.280059E-03
       481    4.011918E-04
       482    6.517152E-03
       483    1.001594E-02
       484    1.192665E-02
       485    5.274217E-04
       486   -6.188893E-04
       487   -2.243810E-04
       488    1.386070E-03
       489   -1.279859E-03
       490   -3.998555E-04
 Sym= X
 Ene= 0.964158
 Spin= Alpha
 Occup= 0.964158
         1   -1.127060E-05
         2   -4.709613E-05
         3   -1.519804E-05
         4    2.639037E-03
         5   -3.423715E-01
         6   -5.335469E-02
         7   -2.439858E-04
         8   -1.616117E-04
         9    1.035871E-01
        10   -7.900599E-03
        11   -2.622693E-04
        12    1.096591E-01
        13    2.003524E-01
        14   -1.351169E-01
        15    4.839014E-02
        16    7.796010E-05
        17   -2.576511E-05
        18   -5.219499E-05
        19   -1.333365E-05
        20   -6.698548E-04
        21   -4.487560E-04
        22    6.023475E-04
        23   -5.415315E-04
        24   -6.081605E-05
        25    6.317395E-04
        26    2.516354E-03
        27    1.983567E-03
        28   -4.177218E-02
        29    5.271790E-02
        30   -1.094572E-02
        31    2.038622E-02
        32    5.165948E-02
        33    3.171413E-02
        34   -1.970378E-05
        35   -1.851565E-05
        36   -1.291354E-04
        37   -1.156094E-05
        38    1.037163E-05
        39   -1.602031E-04
        40    3.799634E-05
        41    1.446973E-05
        42    3.334564E-04
        43    2.411591E-04
        44   -5.649486E-05
        45   -1.279189E-04
        46   -5.806961E-05
        47    1.256227E-02
        48   -4.551070E-01
        49   -1.286093E-02
        50    3.522970E-05
        51   -7.609404E-07
        52   -3.025445E-02
        53   -4.177022E-03
        54   -1.175239E-05
        55   -2.395185E-02
        56    1.424624E-01
        57    5.463865E-04
        58   -1.374628E-02
        59    9.211679E-05
        60    1.092846E-05
        61   -1.030452E-04
        62   -2.050357E-07