[Molden Format]
[Title]
ADC(2) - opt by CAM-B3LYP gaussian                                              
[Atoms] AU
 c     1    6 0.12592752280008E+01 0.22800132789445E+01 -.35345910021030E-01
 c     2    6 0.25511638220345E+01 0.20078340100000E-05 -.33671612667290E-01
 c     3    6 0.12592790074531E+01 -.22800111530026E+01 -.35357248377820E-01
 c     4    6 -.13364450292264E+01 -.22798221803893E+01 -.38530098554940E-01
 c     5    6 -.26857699593430E+01 -.17716182500000E-05 -.39025206801750E-01
 c     6    6 -.13364469189525E+01 0.22798205268790E+01 -.38516870472010E-01
 h     7    1 0.23055183220207E+01 0.40307538342087E+01 -.32265656424420E-01
 h     8    1 0.23055239911991E+01 -.40307498185407E+01 -.32284553685750E-01
 h     9    1 -.23548467881305E+01 -.40530977197882E+01 -.43619131030800E-01
 h    10    1 -.23548543470350E+01 0.40530922868255E+01 -.43594564591070E-01
 n    11    7 0.52860567397703E+01 0.11810788000000E-06 -.26776002008390E-01
 o    12    8 0.63771222479361E+01 -.20280728649663E+01 -.23850705954680E-01
 o    13    8 0.63771260273883E+01 0.20280712114559E+01 -.23882831298940E-01
 n    14    7 -.52615573853205E+01 0.11810788000000E-06 -.10505223788478E+00
 h    15    1 -.61955753134867E+01 -.16086254730588E+01 0.27588253543458E+00
 h    16    1 -.61955696443083E+01 0.16086275990006E+01 0.27589009433911E+00
[GTO]
    1 0
 s    6 1.00
 0.13575349682000E+05 0.60645503603591E-03
 0.20352333680000E+04 0.46979088884982E-02
 0.46322562359000E+03 0.24332477647552E-01
 0.13120019598000E+03 0.97399968307759E-01
 0.42853015891000E+02 0.30195584253780E+00
 0.15584185766000E+02 0.66233609137875E+00
 s    2 1.00
 0.62067138508000E+01 0.65595308539952E+00
 0.25764896527000E+01 0.37585633285142E+00
 s    1 1.00
 0.57696339419000E+00 0.10000000000000E+01
 s    1 1.00
 0.22972831358000E+00 0.10000000000000E+01
 s    1 1.00
 0.95164440028000E-01 0.10000000000000E+01
 s    1 1.00
 0.48475401370000E-01 0.10000000000000E+01
 p    4 1.00
 0.34697232244000E+02 0.11327220003114E-01
 0.79582622826000E+01 0.76169659202087E-01
 0.23780826883000E+01 0.30192252202676E+00
 0.81433208183000E+00 0.72785027349547E+00
 p    1 1.00
 0.28887547253000E+00 0.10000000000000E+01
 p    1 1.00
 0.10056823671000E+00 0.10000000000000E+01
 d    1 1.00
 0.10970000000000E+01 0.10000000000000E+01
 d    1 1.00
 0.31800000000000E+00 0.10000000000000E+01
 d    1 1.00
 0.90985336424000E-01 0.10000000000000E+01
 f    1 1.00
 0.76100000000000E+00 0.10000000000000E+01
 
    2 0
 s    6 1.00
 0.13575349682000E+05 0.60645503603591E-03
 0.20352333680000E+04 0.46979088884982E-02
 0.46322562359000E+03 0.24332477647552E-01
 0.13120019598000E+03 0.97399968307759E-01
 0.42853015891000E+02 0.30195584253780E+00
 0.15584185766000E+02 0.66233609137875E+00
 s    2 1.00
 0.62067138508000E+01 0.65595308539952E+00
 0.25764896527000E+01 0.37585633285142E+00
 s    1 1.00
 0.57696339419000E+00 0.10000000000000E+01
 s    1 1.00
 0.22972831358000E+00 0.10000000000000E+01
 s    1 1.00
 0.95164440028000E-01 0.10000000000000E+01
 s    1 1.00
 0.48475401370000E-01 0.10000000000000E+01
 p    4 1.00
 0.34697232244000E+02 0.11327220003114E-01
 0.79582622826000E+01 0.76169659202087E-01
 0.23780826883000E+01 0.30192252202676E+00
 0.81433208183000E+00 0.72785027349547E+00
 p    1 1.00
 0.28887547253000E+00 0.10000000000000E+01
 p    1 1.00
 0.10056823671000E+00 0.10000000000000E+01
 d    1 1.00
 0.10970000000000E+01 0.10000000000000E+01
 d    1 1.00
 0.31800000000000E+00 0.10000000000000E+01
 d    1 1.00
 0.90985336424000E-01 0.10000000000000E+01
 f    1 1.00
 0.76100000000000E+00 0.10000000000000E+01
 
    3 0
 s    6 1.00
 0.13575349682000E+05 0.60645503603591E-03
 0.20352333680000E+04 0.46979088884982E-02
 0.46322562359000E+03 0.24332477647552E-01
 0.13120019598000E+03 0.97399968307759E-01
 0.42853015891000E+02 0.30195584253780E+00
 0.15584185766000E+02 0.66233609137875E+00
 s    2 1.00
 0.62067138508000E+01 0.65595308539952E+00
 0.25764896527000E+01 0.37585633285142E+00
 s    1 1.00
 0.57696339419000E+00 0.10000000000000E+01
 s    1 1.00
 0.22972831358000E+00 0.10000000000000E+01
 s    1 1.00
 0.95164440028000E-01 0.10000000000000E+01
 s    1 1.00
 0.48475401370000E-01 0.10000000000000E+01
 p    4 1.00
 0.34697232244000E+02 0.11327220003114E-01
 0.79582622826000E+01 0.76169659202087E-01
 0.23780826883000E+01 0.30192252202676E+00
 0.81433208183000E+00 0.72785027349547E+00
 p    1 1.00
 0.28887547253000E+00 0.10000000000000E+01
 p    1 1.00
 0.10056823671000E+00 0.10000000000000E+01
 d    1 1.00
 0.10970000000000E+01 0.10000000000000E+01
 d    1 1.00
 0.31800000000000E+00 0.10000000000000E+01
 d    1 1.00
 0.90985336424000E-01 0.10000000000000E+01
 f    1 1.00
 0.76100000000000E+00 0.10000000000000E+01
 
    4 0
 s    6 1.00
 0.13575349682000E+05 0.60645503603591E-03
 0.20352333680000E+04 0.46979088884982E-02
 0.46322562359000E+03 0.24332477647552E-01
 0.13120019598000E+03 0.97399968307759E-01
 0.42853015891000E+02 0.30195584253780E+00
 0.15584185766000E+02 0.66233609137875E+00
 s    2 1.00
 0.62067138508000E+01 0.65595308539952E+00
 0.25764896527000E+01 0.37585633285142E+00
 s    1 1.00
 0.57696339419000E+00 0.10000000000000E+01
 s    1 1.00
 0.22972831358000E+00 0.10000000000000E+01
 s    1 1.00
 0.95164440028000E-01 0.10000000000000E+01
 s    1 1.00
 0.48475401370000E-01 0.10000000000000E+01
 p    4 1.00
 0.34697232244000E+02 0.11327220003114E-01
 0.79582622826000E+01 0.76169659202087E-01
 0.23780826883000E+01 0.30192252202676E+00
 0.81433208183000E+00 0.72785027349547E+00
 p    1 1.00
 0.28887547253000E+00 0.10000000000000E+01
 p    1 1.00
 0.10056823671000E+00 0.10000000000000E+01
 d    1 1.00
 0.10970000000000E+01 0.10000000000000E+01
 d    1 1.00
 0.31800000000000E+00 0.10000000000000E+01
 d    1 1.00
 0.90985336424000E-01 0.10000000000000E+01
 f    1 1.00
 0.76100000000000E+00 0.10000000000000E+01
 
    5 0
 s    6 1.00
 0.13575349682000E+05 0.60645503603591E-03
 0.20352333680000E+04 0.46979088884982E-02
 0.46322562359000E+03 0.24332477647552E-01
 0.13120019598000E+03 0.97399968307759E-01
 0.42853015891000E+02 0.30195584253780E+00
 0.15584185766000E+02 0.66233609137875E+00
 s    2 1.00
 0.62067138508000E+01 0.65595308539952E+00
 0.25764896527000E+01 0.37585633285142E+00
 s    1 1.00
 0.57696339419000E+00 0.10000000000000E+01
 s    1 1.00
 0.22972831358000E+00 0.10000000000000E+01
 s    1 1.00
 0.95164440028000E-01 0.10000000000000E+01
 s    1 1.00
 0.48475401370000E-01 0.10000000000000E+01
 p    4 1.00
 0.34697232244000E+02 0.11327220003114E-01
 0.79582622826000E+01 0.76169659202087E-01
 0.23780826883000E+01 0.30192252202676E+00
 0.81433208183000E+00 0.72785027349547E+00
 p    1 1.00
 0.28887547253000E+00 0.10000000000000E+01
 p    1 1.00
 0.10056823671000E+00 0.10000000000000E+01
 d    1 1.00
 0.10970000000000E+01 0.10000000000000E+01
 d    1 1.00
 0.31800000000000E+00 0.10000000000000E+01
 d    1 1.00
 0.90985336424000E-01 0.10000000000000E+01
 f    1 1.00
 0.76100000000000E+00 0.10000000000000E+01
 
    6 0
 s    6 1.00
 0.13575349682000E+05 0.60645503603591E-03
 0.20352333680000E+04 0.46979088884982E-02
 0.46322562359000E+03 0.24332477647552E-01
 0.13120019598000E+03 0.97399968307759E-01
 0.42853015891000E+02 0.30195584253780E+00
 0.15584185766000E+02 0.66233609137875E+00
 s    2 1.00
 0.62067138508000E+01 0.65595308539952E+00
 0.25764896527000E+01 0.37585633285142E+00
 s    1 1.00
 0.57696339419000E+00 0.10000000000000E+01
 s    1 1.00
 0.22972831358000E+00 0.10000000000000E+01
 s    1 1.00
 0.95164440028000E-01 0.10000000000000E+01
 s    1 1.00
 0.48475401370000E-01 0.10000000000000E+01
 p    4 1.00
 0.34697232244000E+02 0.11327220003114E-01
 0.79582622826000E+01 0.76169659202087E-01
 0.23780826883000E+01 0.30192252202676E+00
 0.81433208183000E+00 0.72785027349547E+00
 p    1 1.00
 0.28887547253000E+00 0.10000000000000E+01
 p    1 1.00
 0.10056823671000E+00 0.10000000000000E+01
 d    1 1.00
 0.10970000000000E+01 0.10000000000000E+01
 d    1 1.00
 0.31800000000000E+00 0.10000000000000E+01
 d    1 1.00
 0.90985336424000E-01 0.10000000000000E+01
 f    1 1.00
 0.76100000000000E+00 0.10000000000000E+01
 
    7 0
 s    3 1.00
 0.34061341000000E+02 0.25439307208879E-01
 0.51235746000000E+01 0.19008594890375E+00
 0.11646626000000E+01 0.85244113011042E+00
 s    1 1.00
 0.32723041000000E+00 0.10000000000000E+01
 s    1 1.00
 0.10307241000000E+00 0.10000000000000E+01
 p    1 1.00
 0.80000000000000E+00 0.10000000000000E+01
 p    1 1.00
 0.95774129632000E-01 0.10000000000000E+01
 
    8 0
 s    3 1.00
 0.34061341000000E+02 0.25439307208879E-01
 0.51235746000000E+01 0.19008594890375E+00
 0.11646626000000E+01 0.85244113011042E+00
 s    1 1.00
 0.32723041000000E+00 0.10000000000000E+01
 s    1 1.00
 0.10307241000000E+00 0.10000000000000E+01
 p    1 1.00
 0.80000000000000E+00 0.10000000000000E+01
 p    1 1.00
 0.95774129632000E-01 0.10000000000000E+01
 
    9 0
 s    3 1.00
 0.34061341000000E+02 0.25439307208879E-01
 0.51235746000000E+01 0.19008594890375E+00
 0.11646626000000E+01 0.85244113011042E+00
 s    1 1.00
 0.32723041000000E+00 0.10000000000000E+01
 s    1 1.00
 0.10307241000000E+00 0.10000000000000E+01
 p    1 1.00
 0.80000000000000E+00 0.10000000000000E+01
 p    1 1.00
 0.95774129632000E-01 0.10000000000000E+01
 
   10 0
 s    3 1.00
 0.34061341000000E+02 0.25439307208879E-01
 0.51235746000000E+01 0.19008594890375E+00
 0.11646626000000E+01 0.85244113011042E+00
 s    1 1.00
 0.32723041000000E+00 0.10000000000000E+01
 s    1 1.00
 0.10307241000000E+00 0.10000000000000E+01
 p    1 1.00
 0.80000000000000E+00 0.10000000000000E+01
 p    1 1.00
 0.95774129632000E-01 0.10000000000000E+01
 
   11 0
 s    6 1.00
 0.19730800647000E+05 0.58626402628763E-03
 0.29578958745000E+04 0.45428820586397E-02
 0.67322133595000E+03 0.23558413450084E-01
 0.19068249494000E+03 0.94709193292923E-01
 0.62295441898000E+02 0.29719784913376E+00
 0.22654161182000E+02 0.66916246895232E+00
 s    2 1.00
 0.89791477428000E+01 0.64596683630063E+00
 0.36863002370000E+01 0.38700574393705E+00
 s    1 1.00
 0.84660076805000E+00 0.10000000000000E+01
 s    1 1.00
 0.33647133771000E+00 0.10000000000000E+01
 s    1 1.00
 0.13647653675000E+00 0.10000000000000E+01
 s    1 1.00
 0.68441605847000E-01 0.10000000000000E+01
 p    4 1.00
 0.49200380510000E+02 0.11448825101764E-01
 0.11346790537000E+02 0.78422337970864E-01
 0.34273972411000E+01 0.30818094738830E+00
 0.11785525134000E+01 0.72027196368413E+00
 p    1 1.00
 0.41642204972000E+00 0.10000000000000E+01
 p    1 1.00
 0.14260826011000E+00 0.10000000000000E+01
 d    1 1.00
 0.16540000000000E+01 0.10000000000000E+01
 d    1 1.00
 0.46900000000000E+00 0.10000000000000E+01
 d    1 1.00
 0.12829642058000E+00 0.10000000000000E+01
 f    1 1.00
 0.10930000000000E+01 0.10000000000000E+01
 
   12 0
 s    6 1.00
 0.27032382631000E+05 0.57227335211155E-03
 0.40523871392000E+04 0.44353233492995E-02
 0.92232722710000E+03 0.23020107706038E-01
 0.26124070989000E+03 0.92822490667928E-01
 0.85354641351000E+02 0.29378500009671E+00
 0.31035035245000E+02 0.67401604501641E+00
 s    2 1.00
 0.12260860728000E+02 0.63839937025506E+00
 0.49987076005000E+01 0.39534587125718E+00
 s    1 1.00
 0.11703108158000E+01 0.10000000000000E+01
 s    1 1.00
 0.46474740994000E+00 0.10000000000000E+01
 s    1 1.00
 0.18504536357000E+00 0.10000000000000E+01
 s    1 1.00
 0.70288026270000E-01 0.10000000000000E+01
 p    4 1.00
 0.63274954801000E+02 0.12018332222616E-01
 0.14627049379000E+02 0.83005421790056E-01
 0.44501223456000E+01 0.31991743925964E+00
 0.15275799647000E+01 0.70715542916104E+00
 p    1 1.00
 0.52935117943000E+00 0.10000000000000E+01
 p    1 1.00
 0.17478421270000E+00 0.10000000000000E+01
 p    1 1.00
 0.51112745706000E-01 0.10000000000000E+01
 d    1 1.00
 0.23140000000000E+01 0.10000000000000E+01
 d    1 1.00
 0.64500000000000E+00 0.10000000000000E+01
 d    1 1.00
 0.14696477366000E+00 0.10000000000000E+01
 f    1 1.00
 0.14280000000000E+01 0.10000000000000E+01
 
   13 0
 s    6 1.00
 0.27032382631000E+05 0.57227335211155E-03
 0.40523871392000E+04 0.44353233492995E-02
 0.92232722710000E+03 0.23020107706038E-01
 0.26124070989000E+03 0.92822490667928E-01
 0.85354641351000E+02 0.29378500009671E+00
 0.31035035245000E+02 0.67401604501641E+00
 s    2 1.00
 0.12260860728000E+02 0.63839937025506E+00
 0.49987076005000E+01 0.39534587125718E+00
 s    1 1.00
 0.11703108158000E+01 0.10000000000000E+01
 s    1 1.00
 0.46474740994000E+00 0.10000000000000E+01
 s    1 1.00
 0.18504536357000E+00 0.10000000000000E+01
 s    1 1.00
 0.70288026270000E-01 0.10000000000000E+01
 p    4 1.00
 0.63274954801000E+02 0.12018332222616E-01
 0.14627049379000E+02 0.83005421790056E-01
 0.44501223456000E+01 0.31991743925964E+00
 0.15275799647000E+01 0.70715542916104E+00
 p    1 1.00
 0.52935117943000E+00 0.10000000000000E+01
 p    1 1.00
 0.17478421270000E+00 0.10000000000000E+01
 p    1 1.00
 0.51112745706000E-01 0.10000000000000E+01
 d    1 1.00
 0.23140000000000E+01 0.10000000000000E+01
 d    1 1.00
 0.64500000000000E+00 0.10000000000000E+01
 d    1 1.00
 0.14696477366000E+00 0.10000000000000E+01
 f    1 1.00
 0.14280000000000E+01 0.10000000000000E+01
 
   14 0
 s    6 1.00
 0.19730800647000E+05 0.58626402628763E-03
 0.29578958745000E+04 0.45428820586397E-02
 0.67322133595000E+03 0.23558413450084E-01
 0.19068249494000E+03 0.94709193292923E-01
 0.62295441898000E+02 0.29719784913376E+00
 0.22654161182000E+02 0.66916246895232E+00
 s    2 1.00
 0.89791477428000E+01 0.64596683630063E+00
 0.36863002370000E+01 0.38700574393705E+00
 s    1 1.00
 0.84660076805000E+00 0.10000000000000E+01
 s    1 1.00
 0.33647133771000E+00 0.10000000000000E+01
 s    1 1.00
 0.13647653675000E+00 0.10000000000000E+01
 s    1 1.00
 0.68441605847000E-01 0.10000000000000E+01
 p    4 1.00
 0.49200380510000E+02 0.11448825101764E-01
 0.11346790537000E+02 0.78422337970864E-01
 0.34273972411000E+01 0.30818094738830E+00
 0.11785525134000E+01 0.72027196368413E+00
 p    1 1.00
 0.41642204972000E+00 0.10000000000000E+01
 p    1 1.00
 0.14260826011000E+00 0.10000000000000E+01
 d    1 1.00
 0.16540000000000E+01 0.10000000000000E+01
 d    1 1.00
 0.46900000000000E+00 0.10000000000000E+01
 d    1 1.00
 0.12829642058000E+00 0.10000000000000E+01
 f    1 1.00
 0.10930000000000E+01 0.10000000000000E+01
 
   15 0
 s    3 1.00
 0.34061341000000E+02 0.25439307208879E-01
 0.51235746000000E+01 0.19008594890375E+00
 0.11646626000000E+01 0.85244113011042E+00
 s    1 1.00
 0.32723041000000E+00 0.10000000000000E+01
 s    1 1.00
 0.10307241000000E+00 0.10000000000000E+01
 p    1 1.00
 0.80000000000000E+00 0.10000000000000E+01
 p    1 1.00
 0.95774129632000E-01 0.10000000000000E+01
 
   16 0
 s    3 1.00
 0.34061341000000E+02 0.25439307208879E-01
 0.51235746000000E+01 0.19008594890375E+00
 0.11646626000000E+01 0.85244113011042E+00
 s    1 1.00
 0.32723041000000E+00 0.10000000000000E+01
 s    1 1.00
 0.10307241000000E+00 0.10000000000000E+01
 p    1 1.00
 0.80000000000000E+00 0.10000000000000E+01
 p    1 1.00
 0.95774129632000E-01 0.10000000000000E+01
 
[MO]
 Sym= X
 Ene= -0.894676
 Spin= Alpha
 Occup= -0.894676
         1    3.954405E-05
         2    9.083056E-05
         3   -2.498964E-04
         4    4.915610E-04
         5    7.265033E-03
         6    7.153444E-04
         7   -1.233196E-04
         8   -1.857384E-04
         9    1.861944E-01
        10   -1.075131E-03
        11    1.255827E-04
        12    1.869774E-01
        13    5.206388E-03
        14   -5.750415E-03
        15    1.085633E-01
        16    9.532988E-06
        17   -4.271587E-06
        18   -5.261401E-06
        19   -1.408712E-06
        20   -4.924579E-03
        21   -5.474106E-04
        22    2.052382E-04
        23   -1.468218E-04
        24   -5.841640E-05
        25   -5.025196E-06
        26   -9.713518E-03
        27    4.717120E-04
        28   -9.604035E-04
        29    1.003708E-03
        30   -4.330415E-05
        31   -4.944484E-04
        32   -4.616244E-03
        33    1.574889E-03
        34   -7.259620E-06
        35   -5.093533E-07
        36   -1.159796E-03
        37    1.812195E-06
        38    2.396991E-07
        39    1.401427E-03
        40    7.927607E-06
        41    4.436701E-07
        42    1.546020E-04
        43    8.769585E-06
        44    8.854870E-09
        45   -6.444376E-08
        46    5.177966E-06
        47   -2.226102E-05
        48   -1.469244E-03
        49   -9.964487E-05
        50   -1.166642E-06
        51    1.145009E-04
        52    6.121980E-06
        53    1.166883E-05
        54    5.088363E-04
        55    3.490535E-06
        56    6.133255E-04
        57   -1.016301E-02
        58    1.310374E-05
        59    3.949769E-08
        60   -1.298901E-07
        61    9.039243E-08
        62   -1.033622E-05
        63   -8.303632E-08
        64    6.965963E-03
        65    1.099376E-06
        66   -4.740404E-06
        67    3.641029E-06
        68   -1.675428E-04
        69    7.820056E-07
        70    1.599907E-02
        71   -3.663888E-05
        72    4.608191E-06
        73    3.203069E-05
        74    1.297424E-03
        75   -4.107113E-07
        76    3.904337E-03
        77   -4.884036E-08
        78    7.625214E-07
        79   -4.378241E-09
        80    1.314393E-07
        81    2.336902E-06
        82    1.476046E-09
        83   -6.591310E-08
        84   -3.359932E-06
        85    4.397980E-09
        86   -1.031156E-03
        87   -3.910084E-05
        88   -8.976696E-05
        89    2.373289E-04
        90   -4.425407E-04
        91   -4.489482E-03
        92   -5.673581E-04
        93    1.225779E-04
        94   -1.832023E-04
        95   -1.861913E-01
        96    1.036505E-03
        97    1.515339E-04
        98   -1.869732E-01
        99   -5.965105E-03
       100   -4.529595E-03
       101   -1.085314E-01
       102   -9.523272E-06
       103    4.165262E-06
       104    5.358010E-06
       105   -1.198823E-06
       106    4.925109E-03
       107   -5.472194E-04
       108   -1.939309E-04
       109    1.437276E-04
       110    5.020326E-05
       111    1.474093E-06
       112    9.714514E-03
       113    4.732331E-04
       114    9.478285E-04
       115   -9.375975E-04
       116   -1.023097E-05
       117   -5.647163E-04
       118    4.608865E-03
       119    1.574716E-03
       120    6.877288E-06
       121   -3.845031E-07
       122    1.159804E-03
       123   -1.531769E-06
       124    3.202371E-07
       125   -1.401526E-03
       126   -7.695081E-06
       127    1.956280E-07
       128   -1.545142E-04
       129    8.858999E-06
       130    8.225589E-06
       131    2.132699E-05
       132   -1.984028E-04
       133    1.577134E-03
       134    1.296903E-02
       135    3.730810E-04
       136    2.970770E-04
       137    1.011803E-04
       138   -1.996911E-01
       139    8.449965E-04
       140    3.082439E-04
       141   -2.024765E-01
       142   -9.316970E-03
       143    8.917413E-03
       144   -1.309220E-01
       145    2.178045E-05
       146    7.294140E-06
       147   -2.907459E-05
       148   -7.862193E-06
       149   -4.545876E-03
       150   -4.777119E-04
       151    2.866472E-04
       152   -9.026350E-05
       153   -1.963837E-04
       154   -1.209397E-04
       155   -7.943879E-03
       156   -4.619830E-04
       157    2.629672E-05
       158    3.590034E-04
       159   -3.853001E-04
       160   -1.737947E-03
       161    3.604665E-03
       162   -3.456256E-03
       163    9.442825E-06
       164    1.585415E-06
       165    1.311745E-03
       166   -6.293507E-06
       167    1.908122E-06
       168   -1.450114E-03
       169   -6.375372E-06
       170   -4.035179E-06
       171   -3.097759E-04
       172    4.666349E-05
       173   -1.341190E-07
       174   -2.144748E-07
       175   -5.163226E-06
       176    1.460897E-05
       177    1.811290E-03
       178    1.332433E-04
       179   -7.686298E-07
       180   -2.637671E-04
       181   -4.828156E-06
       182    1.462917E-05
       183   -1.294727E-04
       184   -2.657131E-06
       185    6.781034E-04
       186    2.403849E-02
       187   -9.110332E-06
       188   -2.020030E-07
       189    5.812289E-08
       190    1.438801E-07
       191    2.543578E-05
       192   -5.854160E-07
       193    7.562749E-03
       194   -4.013495E-07
       195    5.952199E-06
       196   -5.550849E-06
       197    8.978442E-05
       198   -4.379420E-07
       199    1.589004E-02
       200    3.171913E-05
       201    1.119110E-05
       202   -4.291023E-05
       203    1.496620E-03
       204    5.870260E-07
       205   -7.784400E-03
       206   -5.500257E-08
       207    6.087954E-06
       208   -5.007091E-09
       209    1.973168E-07
       210   -7.476854E-06
       211    7.600216E-08
       212   -1.235231E-07
       213   -6.909935E-07
       214   -6.928444E-08
       215    1.178311E-03
       216   -8.689182E-06
       217   -2.244900E-05
       218    2.127131E-04
       219   -1.635821E-03
       220   -1.607075E-02
       221   -5.358563E-04
       222   -2.991648E-04
       223    1.024752E-04
       224    1.996770E-01
       225   -8.809748E-04
       226    3.372235E-04
       227    2.024617E-01
       228    8.677118E-03
       229    1.023300E-02
       230    1.308754E-01
       231   -2.184114E-05
       232   -7.038036E-06
       233    2.887918E-05
       234   -8.156038E-06
       235    4.546113E-03
       236   -4.775137E-04
       237   -2.979375E-04
       238    9.186220E-05
       239    2.060753E-04
       240   -1.276700E-04
       241    7.944166E-03
       242   -4.604386E-04
       243   -1.471288E-05
       244   -4.262971E-04
       245    4.410100E-04
       246   -1.671154E-03
       247   -3.612026E-03
       248   -3.456978E-03
       249   -9.831748E-06
       250    1.750021E-06
       251   -1.311677E-03
       252    6.633135E-06
       253    1.963862E-06
       254    1.450133E-03
       255    6.557539E-06
       256   -4.311763E-06
       257    3.096658E-04
       258    4.659655E-05
       259   -4.166314E-05
       260   -4.840333E-05
       261    7.338133E-04
       262   -1.304840E-05
       263    2.269672E-06
       264    7.613789E-03
       265   -4.591315E-05
       266   -2.625359E-04
       267    6.763802E-03
       268    3.950786E-05
       269    5.677448E-05
       270   -3.672452E-04
       271    1.269962E-05
       272    3.233271E-06
       273   -7.613614E-03
       274    5.844842E-06
       275   -1.624426E-04
       276   -6.764918E-03
       277    6.189237E-05
       278    1.956571E-04
       279    3.005271E-03
       280    3.934311E-05
       281    2.700075E-05
       282   -8.687279E-03
       283    3.557465E-04
       284    1.136035E-04
       285   -9.967329E-03
       286   -5.918186E-05
       287   -1.991672E-04
       288   -3.372875E-03
       289   -3.972672E-05
       290    2.767951E-05
       291    8.686612E-03
       292   -4.044188E-04
       293    2.174311E-04
       294    9.968620E-03
       295   -2.476782E-08
       296   -7.913650E-08
       297    2.307445E-07
       298   -2.860797E-06
       299   -8.688554E-06
       300    5.699049E-05
       301   -6.499186E-08
       302   -1.353276E-05
       303   -5.135917E-07
       304    1.987757E-06
       305    2.103857E-05
       306   -1.646640E-07
       307    2.963573E-06
       308    6.269529E-04
       309   -1.113413E-06
       310   -4.409194E-08
       311    7.561527E-09
       312    3.653041E-08
       313    4.727144E-06
       314   -1.137289E-07
       315   -1.877749E-03
       316   -2.887732E-07
       317    5.168783E-07
       318   -2.281051E-07
       319   -7.116440E-06
       320   -3.277521E-07
       321   -5.135925E-03
       322    6.326114E-07
       323    5.152264E-06
       324   -5.784875E-06
       325   -1.933477E-04
       326    2.339868E-06
       327   -2.293561E-03
       328   -6.504514E-09
       329   -9.433587E-07
       330    5.563410E-09
       331    5.214992E-09
       332    3.597887E-06
       333    1.305043E-08
       334    3.511729E-09
       335   -2.332239E-06
       336   -2.051453E-08
       337   -4.809370E-04
       338   -6.258580E-07
       339   -1.711855E-06
       340    5.579409E-06
       341   -2.653725E-05
       342    1.589274E-04
       343   -1.432762E-05
       344   -2.002739E-04
       345   -7.385889E-06
       346    5.683392E-02
       347   -1.789842E-04
       348   -5.980368E-06
       349    5.267703E-02
       350   -2.992849E-04
       351    1.289258E-05
       352    3.781520E-02
       353   -4.549563E-05
       354   -2.625987E-05
       355    3.344194E-03
       356    8.015086E-07
       357    1.032816E-07
       358   -9.047902E-07
       359   -1.268391E-06
       360   -2.303623E-04
       361    4.594979E-04
       362    6.215738E-06
       363   -1.023916E-06
       364   -5.191821E-06
       365   -7.913761E-06
       366   -7.974452E-04
       367    1.702250E-03
       368    2.358403E-05
       369   -2.620966E-05
       370    2.625628E-06
       371   -2.674095E-05
       372   -4.204741E-04
       373    5.016652E-04
       374    2.662468E-07
       375   -1.324669E-07
       376   -6.872059E-05
       377   -5.233790E-07
       378    9.915536E-07
       379   -3.690835E-05
       380    1.661715E-07
       381   -8.138306E-07
       382    1.291067E-04
       383   -1.512960E-04
       384    5.314403E-07
       385    1.489994E-06
       386   -5.298741E-06
       387    2.809927E-05
       388   -1.883556E-04
       389   -8.858626E-06
       390    1.979772E-04
       391   -7.485673E-06
       392   -5.683787E-02
       393    1.778499E-04
       394   -5.178963E-06
       395   -5.268041E-02
       396    3.046125E-04
       397    1.989766E-05
       398   -3.781952E-02
       399    4.748422E-05
       400   -2.323929E-05
       401   -3.344413E-03
       402   -8.026665E-07
       403   -9.358253E-08
       404    8.962490E-07
       405   -1.219013E-06
       406    2.303716E-04
       407    4.595428E-04
       408   -6.102753E-06
       409    9.322328E-07
       410    5.170520E-06
       411   -8.125044E-06
       412    7.975216E-04
       413    1.702367E-03
       414   -2.368124E-05
       415    2.579747E-05
       416   -2.116227E-06
       417   -2.777717E-05
       418    4.197950E-04
       419    5.025744E-04
       420   -2.746274E-07
       421   -1.269853E-07
       422    6.873083E-05
       423    5.216142E-07
       424    9.855705E-07
       425    3.690804E-05
       426   -1.531629E-07
       427   -8.152017E-07
       428   -1.291201E-04
       429   -1.513076E-04
       430    6.016480E-07
       431    1.469184E-06
       432   -2.812429E-06
       433    2.608396E-06
       434    3.773274E-06
       435   -4.712153E-05
       436    4.917724E-07
       437   -1.391636E-03
       438    1.469762E-05
       439    2.721984E-06
       440   -1.570620E-03
       441    1.454800E-05
       442   -2.317056E-05
       443   -1.808985E-03
       444    1.399241E-05
       445   -3.878983E-08
       446    3.051273E-08
       447    8.277097E-09
       448   -2.310869E-05
       449   -4.835772E-08
       450    3.010370E-04
       451    3.860912E-08
       452   -5.167772E-07
       453    4.781681E-07
       454   -1.258683E-05
       455    4.609792E-08
       456    6.365278E-04
       457   -7.961597E-06
       458    2.359778E-06
       459    5.601818E-06
       460   -7.156343E-05
       461    1.000614E-07
       462   -3.110873E-04
       463    1.597993E-08
       464   -5.122543E-06
       465   -5.367099E-08
       466   -8.514187E-09
       467   -1.901814E-05
       468    4.376730E-08
       469   -1.292514E-08
       470    2.589076E-05
       471    2.823989E-08
       472    1.307102E-04
       473   -7.207090E-05
       474   -2.787061E-04
       475   -4.419532E-04
       476   -7.788210E-05
       477   -4.022796E-05
       478   -3.672178E-04
       479    1.123558E-04
       480   -1.809266E-04
       481   -1.750173E-03
       482    7.382915E-05
       483    2.835612E-04
       484    4.372010E-04
       485    7.857622E-05
       486   -4.070830E-05
       487    3.685450E-04
       488   -1.212473E-04
       489   -1.853844E-04
       490    1.750543E-03
 Sym= X
 Ene= 0.894676
 Spin= Alpha
 Occup= 0.894676
         1    6.056418E-05
         2    2.321333E-04
         3   -1.319167E-03
         4    1.392850E-02
         5   -9.085328E-01
         6   -7.412076E-02
         7    1.520436E-03
         8    1.356673E-03
         9   -1.963871E-01
        10    5.327258E-03
        11    7.433587E-03
        12   -2.144066E-01
        13   -3.304664E-02
        14    2.501965E-01
        15   -2.240720E-01
        16    5.872813E-05
        17    2.697379E-05
        18   -8.570192E-05
        19    6.296765E-05
        20   -5.741255E-03
        21    7.322324E-04
        22   -1.147647E-03
        23   -2.228058E-04
        24    1.370453E-03
        25    6.412102E-04
        26   -1.637199E-02
        27   -3.067120E-03
        28    6.681283E-03
        29   -2.970358E-02
        30    2.302229E-02
        31   -1.923970E-02
        32   -3.753220E-02
        33   -9.086144E-02
        34    4.606088E-05
        35    3.515514E-05
        36    2.606354E-04
        37   -3.693698E-06
        38    9.335742E-06
        39    2.464670E-04
        40   -5.810346E-05
        41   -5.650131E-05
        42   -5.961461E-04
        43    3.548435E-05
        44   -7.478063E-06
        45   -1.537765E-05
        46   -2.360387E-05
        47    4.494785E-04
        48    5.879934E-03
        49   -1.674542E-02
        50    1.729283E-05
        51   -7.614919E-04
        52   -8.427596E-06
        53    1.727554E-05
        54    5.020369E-03
        55    4.681321E-06
        56   -1.275272E-02
        57    4.464803E-01
        58   -4.473367E-04
        59    1.688829E-06
        60   -1.867964E-06
        61    1.791356E-07
        62    1.281170E-04