[Molden Format]
[Title]
ADC(2) - opt by CAM-B3LYP gaussian                                              
[Atoms] AU
 c     1    6 0.12592752280008E+01 0.22800132789445E+01 -.35345910021030E-01
 c     2    6 0.25511638220345E+01 0.20078340100000E-05 -.33671612667290E-01
 c     3    6 0.12592790074531E+01 -.22800111530026E+01 -.35357248377820E-01
 c     4    6 -.13364450292264E+01 -.22798221803893E+01 -.38530098554940E-01
 c     5    6 -.26857699593430E+01 -.17716182500000E-05 -.39025206801750E-01
 c     6    6 -.13364469189525E+01 0.22798205268790E+01 -.38516870472010E-01
 h     7    1 0.23055183220207E+01 0.40307538342087E+01 -.32265656424420E-01
 h     8    1 0.23055239911991E+01 -.40307498185407E+01 -.32284553685750E-01
 h     9    1 -.23548467881305E+01 -.40530977197882E+01 -.43619131030800E-01
 h    10    1 -.23548543470350E+01 0.40530922868255E+01 -.43594564591070E-01
 n    11    7 0.52860567397703E+01 0.11810788000000E-06 -.26776002008390E-01
 o    12    8 0.63771222479361E+01 -.20280728649663E+01 -.23850705954680E-01
 o    13    8 0.63771260273883E+01 0.20280712114559E+01 -.23882831298940E-01
 n    14    7 -.52615573853205E+01 0.11810788000000E-06 -.10505223788478E+00
 h    15    1 -.61955753134867E+01 -.16086254730588E+01 0.27588253543458E+00
 h    16    1 -.61955696443083E+01 0.16086275990006E+01 0.27589009433911E+00
[GTO]
    1 0
 s    6 1.00
 0.13575349682000E+05 0.60645503603591E-03
 0.20352333680000E+04 0.46979088884982E-02
 0.46322562359000E+03 0.24332477647552E-01
 0.13120019598000E+03 0.97399968307759E-01
 0.42853015891000E+02 0.30195584253780E+00
 0.15584185766000E+02 0.66233609137875E+00
 s    2 1.00
 0.62067138508000E+01 0.65595308539952E+00
 0.25764896527000E+01 0.37585633285142E+00
 s    1 1.00
 0.57696339419000E+00 0.10000000000000E+01
 s    1 1.00
 0.22972831358000E+00 0.10000000000000E+01
 s    1 1.00
 0.95164440028000E-01 0.10000000000000E+01
 s    1 1.00
 0.48475401370000E-01 0.10000000000000E+01
 p    4 1.00
 0.34697232244000E+02 0.11327220003114E-01
 0.79582622826000E+01 0.76169659202087E-01
 0.23780826883000E+01 0.30192252202676E+00
 0.81433208183000E+00 0.72785027349547E+00
 p    1 1.00
 0.28887547253000E+00 0.10000000000000E+01
 p    1 1.00
 0.10056823671000E+00 0.10000000000000E+01
 d    1 1.00
 0.10970000000000E+01 0.10000000000000E+01
 d    1 1.00
 0.31800000000000E+00 0.10000000000000E+01
 d    1 1.00
 0.90985336424000E-01 0.10000000000000E+01
 f    1 1.00
 0.76100000000000E+00 0.10000000000000E+01
 
    2 0
 s    6 1.00
 0.13575349682000E+05 0.60645503603591E-03
 0.20352333680000E+04 0.46979088884982E-02
 0.46322562359000E+03 0.24332477647552E-01
 0.13120019598000E+03 0.97399968307759E-01
 0.42853015891000E+02 0.30195584253780E+00
 0.15584185766000E+02 0.66233609137875E+00
 s    2 1.00
 0.62067138508000E+01 0.65595308539952E+00
 0.25764896527000E+01 0.37585633285142E+00
 s    1 1.00
 0.57696339419000E+00 0.10000000000000E+01
 s    1 1.00
 0.22972831358000E+00 0.10000000000000E+01
 s    1 1.00
 0.95164440028000E-01 0.10000000000000E+01
 s    1 1.00
 0.48475401370000E-01 0.10000000000000E+01
 p    4 1.00
 0.34697232244000E+02 0.11327220003114E-01
 0.79582622826000E+01 0.76169659202087E-01
 0.23780826883000E+01 0.30192252202676E+00
 0.81433208183000E+00 0.72785027349547E+00
 p    1 1.00
 0.28887547253000E+00 0.10000000000000E+01
 p    1 1.00
 0.10056823671000E+00 0.10000000000000E+01
 d    1 1.00
 0.10970000000000E+01 0.10000000000000E+01
 d    1 1.00
 0.31800000000000E+00 0.10000000000000E+01
 d    1 1.00
 0.90985336424000E-01 0.10000000000000E+01
 f    1 1.00
 0.76100000000000E+00 0.10000000000000E+01
 
    3 0
 s    6 1.00
 0.13575349682000E+05 0.60645503603591E-03
 0.20352333680000E+04 0.46979088884982E-02
 0.46322562359000E+03 0.24332477647552E-01
 0.13120019598000E+03 0.97399968307759E-01
 0.42853015891000E+02 0.30195584253780E+00
 0.15584185766000E+02 0.66233609137875E+00
 s    2 1.00
 0.62067138508000E+01 0.65595308539952E+00
 0.25764896527000E+01 0.37585633285142E+00
 s    1 1.00
 0.57696339419000E+00 0.10000000000000E+01
 s    1 1.00
 0.22972831358000E+00 0.10000000000000E+01
 s    1 1.00
 0.95164440028000E-01 0.10000000000000E+01
 s    1 1.00
 0.48475401370000E-01 0.10000000000000E+01
 p    4 1.00
 0.34697232244000E+02 0.11327220003114E-01
 0.79582622826000E+01 0.76169659202087E-01
 0.23780826883000E+01 0.30192252202676E+00
 0.81433208183000E+00 0.72785027349547E+00
 p    1 1.00
 0.28887547253000E+00 0.10000000000000E+01
 p    1 1.00
 0.10056823671000E+00 0.10000000000000E+01
 d    1 1.00
 0.10970000000000E+01 0.10000000000000E+01
 d    1 1.00
 0.31800000000000E+00 0.10000000000000E+01
 d    1 1.00
 0.90985336424000E-01 0.10000000000000E+01
 f    1 1.00
 0.76100000000000E+00 0.10000000000000E+01
 
    4 0
 s    6 1.00
 0.13575349682000E+05 0.60645503603591E-03
 0.20352333680000E+04 0.46979088884982E-02
 0.46322562359000E+03 0.24332477647552E-01
 0.13120019598000E+03 0.97399968307759E-01
 0.42853015891000E+02 0.30195584253780E+00
 0.15584185766000E+02 0.66233609137875E+00
 s    2 1.00
 0.62067138508000E+01 0.65595308539952E+00
 0.25764896527000E+01 0.37585633285142E+00
 s    1 1.00
 0.57696339419000E+00 0.10000000000000E+01
 s    1 1.00
 0.22972831358000E+00 0.10000000000000E+01
 s    1 1.00
 0.95164440028000E-01 0.10000000000000E+01
 s    1 1.00
 0.48475401370000E-01 0.10000000000000E+01
 p    4 1.00
 0.34697232244000E+02 0.11327220003114E-01
 0.79582622826000E+01 0.76169659202087E-01
 0.23780826883000E+01 0.30192252202676E+00
 0.81433208183000E+00 0.72785027349547E+00
 p    1 1.00
 0.28887547253000E+00 0.10000000000000E+01
 p    1 1.00
 0.10056823671000E+00 0.10000000000000E+01
 d    1 1.00
 0.10970000000000E+01 0.10000000000000E+01
 d    1 1.00
 0.31800000000000E+00 0.10000000000000E+01
 d    1 1.00
 0.90985336424000E-01 0.10000000000000E+01
 f    1 1.00
 0.76100000000000E+00 0.10000000000000E+01
 
    5 0
 s    6 1.00
 0.13575349682000E+05 0.60645503603591E-03
 0.20352333680000E+04 0.46979088884982E-02
 0.46322562359000E+03 0.24332477647552E-01
 0.13120019598000E+03 0.97399968307759E-01
 0.42853015891000E+02 0.30195584253780E+00
 0.15584185766000E+02 0.66233609137875E+00
 s    2 1.00
 0.62067138508000E+01 0.65595308539952E+00
 0.25764896527000E+01 0.37585633285142E+00
 s    1 1.00
 0.57696339419000E+00 0.10000000000000E+01
 s    1 1.00
 0.22972831358000E+00 0.10000000000000E+01
 s    1 1.00
 0.95164440028000E-01 0.10000000000000E+01
 s    1 1.00
 0.48475401370000E-01 0.10000000000000E+01
 p    4 1.00
 0.34697232244000E+02 0.11327220003114E-01
 0.79582622826000E+01 0.76169659202087E-01
 0.23780826883000E+01 0.30192252202676E+00
 0.81433208183000E+00 0.72785027349547E+00
 p    1 1.00
 0.28887547253000E+00 0.10000000000000E+01
 p    1 1.00
 0.10056823671000E+00 0.10000000000000E+01
 d    1 1.00
 0.10970000000000E+01 0.10000000000000E+01
 d    1 1.00
 0.31800000000000E+00 0.10000000000000E+01
 d    1 1.00
 0.90985336424000E-01 0.10000000000000E+01
 f    1 1.00
 0.76100000000000E+00 0.10000000000000E+01
 
    6 0
 s    6 1.00
 0.13575349682000E+05 0.60645503603591E-03
 0.20352333680000E+04 0.46979088884982E-02
 0.46322562359000E+03 0.24332477647552E-01
 0.13120019598000E+03 0.97399968307759E-01
 0.42853015891000E+02 0.30195584253780E+00
 0.15584185766000E+02 0.66233609137875E+00
 s    2 1.00
 0.62067138508000E+01 0.65595308539952E+00
 0.25764896527000E+01 0.37585633285142E+00
 s    1 1.00
 0.57696339419000E+00 0.10000000000000E+01
 s    1 1.00
 0.22972831358000E+00 0.10000000000000E+01
 s    1 1.00
 0.95164440028000E-01 0.10000000000000E+01
 s    1 1.00
 0.48475401370000E-01 0.10000000000000E+01
 p    4 1.00
 0.34697232244000E+02 0.11327220003114E-01
 0.79582622826000E+01 0.76169659202087E-01
 0.23780826883000E+01 0.30192252202676E+00
 0.81433208183000E+00 0.72785027349547E+00
 p    1 1.00
 0.28887547253000E+00 0.10000000000000E+01
 p    1 1.00
 0.10056823671000E+00 0.10000000000000E+01
 d    1 1.00
 0.10970000000000E+01 0.10000000000000E+01
 d    1 1.00
 0.31800000000000E+00 0.10000000000000E+01
 d    1 1.00
 0.90985336424000E-01 0.10000000000000E+01
 f    1 1.00
 0.76100000000000E+00 0.10000000000000E+01
 
    7 0
 s    3 1.00
 0.34061341000000E+02 0.25439307208879E-01
 0.51235746000000E+01 0.19008594890375E+00
 0.11646626000000E+01 0.85244113011042E+00
 s    1 1.00
 0.32723041000000E+00 0.10000000000000E+01
 s    1 1.00
 0.10307241000000E+00 0.10000000000000E+01
 p    1 1.00
 0.80000000000000E+00 0.10000000000000E+01
 p    1 1.00
 0.95774129632000E-01 0.10000000000000E+01
 
    8 0
 s    3 1.00
 0.34061341000000E+02 0.25439307208879E-01
 0.51235746000000E+01 0.19008594890375E+00
 0.11646626000000E+01 0.85244113011042E+00
 s    1 1.00
 0.32723041000000E+00 0.10000000000000E+01
 s    1 1.00
 0.10307241000000E+00 0.10000000000000E+01
 p    1 1.00
 0.80000000000000E+00 0.10000000000000E+01
 p    1 1.00
 0.95774129632000E-01 0.10000000000000E+01
 
    9 0
 s    3 1.00
 0.34061341000000E+02 0.25439307208879E-01
 0.51235746000000E+01 0.19008594890375E+00
 0.11646626000000E+01 0.85244113011042E+00
 s    1 1.00
 0.32723041000000E+00 0.10000000000000E+01
 s    1 1.00
 0.10307241000000E+00 0.10000000000000E+01
 p    1 1.00
 0.80000000000000E+00 0.10000000000000E+01
 p    1 1.00
 0.95774129632000E-01 0.10000000000000E+01
 
   10 0
 s    3 1.00
 0.34061341000000E+02 0.25439307208879E-01
 0.51235746000000E+01 0.19008594890375E+00
 0.11646626000000E+01 0.85244113011042E+00
 s    1 1.00
 0.32723041000000E+00 0.10000000000000E+01
 s    1 1.00
 0.10307241000000E+00 0.10000000000000E+01
 p    1 1.00
 0.80000000000000E+00 0.10000000000000E+01
 p    1 1.00
 0.95774129632000E-01 0.10000000000000E+01
 
   11 0
 s    6 1.00
 0.19730800647000E+05 0.58626402628763E-03
 0.29578958745000E+04 0.45428820586397E-02
 0.67322133595000E+03 0.23558413450084E-01
 0.19068249494000E+03 0.94709193292923E-01
 0.62295441898000E+02 0.29719784913376E+00
 0.22654161182000E+02 0.66916246895232E+00
 s    2 1.00
 0.89791477428000E+01 0.64596683630063E+00
 0.36863002370000E+01 0.38700574393705E+00
 s    1 1.00
 0.84660076805000E+00 0.10000000000000E+01
 s    1 1.00
 0.33647133771000E+00 0.10000000000000E+01
 s    1 1.00
 0.13647653675000E+00 0.10000000000000E+01
 s    1 1.00
 0.68441605847000E-01 0.10000000000000E+01
 p    4 1.00
 0.49200380510000E+02 0.11448825101764E-01
 0.11346790537000E+02 0.78422337970864E-01
 0.34273972411000E+01 0.30818094738830E+00
 0.11785525134000E+01 0.72027196368413E+00
 p    1 1.00
 0.41642204972000E+00 0.10000000000000E+01
 p    1 1.00
 0.14260826011000E+00 0.10000000000000E+01
 d    1 1.00
 0.16540000000000E+01 0.10000000000000E+01
 d    1 1.00
 0.46900000000000E+00 0.10000000000000E+01
 d    1 1.00
 0.12829642058000E+00 0.10000000000000E+01
 f    1 1.00
 0.10930000000000E+01 0.10000000000000E+01
 
   12 0
 s    6 1.00
 0.27032382631000E+05 0.57227335211155E-03
 0.40523871392000E+04 0.44353233492995E-02
 0.92232722710000E+03 0.23020107706038E-01
 0.26124070989000E+03 0.92822490667928E-01
 0.85354641351000E+02 0.29378500009671E+00
 0.31035035245000E+02 0.67401604501641E+00
 s    2 1.00
 0.12260860728000E+02 0.63839937025506E+00
 0.49987076005000E+01 0.39534587125718E+00
 s    1 1.00
 0.11703108158000E+01 0.10000000000000E+01
 s    1 1.00
 0.46474740994000E+00 0.10000000000000E+01
 s    1 1.00
 0.18504536357000E+00 0.10000000000000E+01
 s    1 1.00
 0.70288026270000E-01 0.10000000000000E+01
 p    4 1.00
 0.63274954801000E+02 0.12018332222616E-01
 0.14627049379000E+02 0.83005421790056E-01
 0.44501223456000E+01 0.31991743925964E+00
 0.15275799647000E+01 0.70715542916104E+00
 p    1 1.00
 0.52935117943000E+00 0.10000000000000E+01
 p    1 1.00
 0.17478421270000E+00 0.10000000000000E+01
 p    1 1.00
 0.51112745706000E-01 0.10000000000000E+01
 d    1 1.00
 0.23140000000000E+01 0.10000000000000E+01
 d    1 1.00
 0.64500000000000E+00 0.10000000000000E+01
 d    1 1.00
 0.14696477366000E+00 0.10000000000000E+01
 f    1 1.00
 0.14280000000000E+01 0.10000000000000E+01
 
   13 0
 s    6 1.00
 0.27032382631000E+05 0.57227335211155E-03
 0.40523871392000E+04 0.44353233492995E-02
 0.92232722710000E+03 0.23020107706038E-01
 0.26124070989000E+03 0.92822490667928E-01
 0.85354641351000E+02 0.29378500009671E+00
 0.31035035245000E+02 0.67401604501641E+00
 s    2 1.00
 0.12260860728000E+02 0.63839937025506E+00
 0.49987076005000E+01 0.39534587125718E+00
 s    1 1.00
 0.11703108158000E+01 0.10000000000000E+01
 s    1 1.00
 0.46474740994000E+00 0.10000000000000E+01
 s    1 1.00
 0.18504536357000E+00 0.10000000000000E+01
 s    1 1.00
 0.70288026270000E-01 0.10000000000000E+01
 p    4 1.00
 0.63274954801000E+02 0.12018332222616E-01
 0.14627049379000E+02 0.83005421790056E-01
 0.44501223456000E+01 0.31991743925964E+00
 0.15275799647000E+01 0.70715542916104E+00
 p    1 1.00
 0.52935117943000E+00 0.10000000000000E+01
 p    1 1.00
 0.17478421270000E+00 0.10000000000000E+01
 p    1 1.00
 0.51112745706000E-01 0.10000000000000E+01
 d    1 1.00
 0.23140000000000E+01 0.10000000000000E+01
 d    1 1.00
 0.64500000000000E+00 0.10000000000000E+01
 d    1 1.00
 0.14696477366000E+00 0.10000000000000E+01
 f    1 1.00
 0.14280000000000E+01 0.10000000000000E+01
 
   14 0
 s    6 1.00
 0.19730800647000E+05 0.58626402628763E-03
 0.29578958745000E+04 0.45428820586397E-02
 0.67322133595000E+03 0.23558413450084E-01
 0.19068249494000E+03 0.94709193292923E-01
 0.62295441898000E+02 0.29719784913376E+00
 0.22654161182000E+02 0.66916246895232E+00
 s    2 1.00
 0.89791477428000E+01 0.64596683630063E+00
 0.36863002370000E+01 0.38700574393705E+00
 s    1 1.00
 0.84660076805000E+00 0.10000000000000E+01
 s    1 1.00
 0.33647133771000E+00 0.10000000000000E+01
 s    1 1.00
 0.13647653675000E+00 0.10000000000000E+01
 s    1 1.00
 0.68441605847000E-01 0.10000000000000E+01
 p    4 1.00
 0.49200380510000E+02 0.11448825101764E-01
 0.11346790537000E+02 0.78422337970864E-01
 0.34273972411000E+01 0.30818094738830E+00
 0.11785525134000E+01 0.72027196368413E+00
 p    1 1.00
 0.41642204972000E+00 0.10000000000000E+01
 p    1 1.00
 0.14260826011000E+00 0.10000000000000E+01
 d    1 1.00
 0.16540000000000E+01 0.10000000000000E+01
 d    1 1.00
 0.46900000000000E+00 0.10000000000000E+01
 d    1 1.00
 0.12829642058000E+00 0.10000000000000E+01
 f    1 1.00
 0.10930000000000E+01 0.10000000000000E+01
 
   15 0
 s    3 1.00
 0.34061341000000E+02 0.25439307208879E-01
 0.51235746000000E+01 0.19008594890375E+00
 0.11646626000000E+01 0.85244113011042E+00
 s    1 1.00
 0.32723041000000E+00 0.10000000000000E+01
 s    1 1.00
 0.10307241000000E+00 0.10000000000000E+01
 p    1 1.00
 0.80000000000000E+00 0.10000000000000E+01
 p    1 1.00
 0.95774129632000E-01 0.10000000000000E+01
 
   16 0
 s    3 1.00
 0.34061341000000E+02 0.25439307208879E-01
 0.51235746000000E+01 0.19008594890375E+00
 0.11646626000000E+01 0.85244113011042E+00
 s    1 1.00
 0.32723041000000E+00 0.10000000000000E+01
 s    1 1.00
 0.10307241000000E+00 0.10000000000000E+01
 p    1 1.00
 0.80000000000000E+00 0.10000000000000E+01
 p    1 1.00
 0.95774129632000E-01 0.10000000000000E+01
 
[MO]
 Sym= X
 Ene= -0.948839
 Spin= Alpha
 Occup= -0.948839
         1    3.665063E-04
         2    8.472804E-04
         3   -2.176753E-03
         4    4.243951E-03
         5   -2.307036E-02
         6    1.774261E-02
         7    6.539081E-03
         8    9.870604E-04
         9   -2.342892E-02
        10   -1.048069E-03
        11    1.408576E-03
        12   -2.161155E-02
        13   -4.671771E-02
        14    1.819715E-02
        15   -1.066243E-02
        16   -1.277046E-04
        17    1.377575E-04
        18   -1.005290E-05
        19    5.042158E-05
        20   -5.979399E-03
        21    3.525443E-03
        22    9.038849E-04
        23   -5.142247E-04
        24   -3.896602E-04
        25    1.164617E-03
        26   -1.357334E-02
        27    6.696872E-03
        28    4.757738E-03
        29   -4.250368E-03
        30   -5.073700E-04
        31   -2.337136E-03
        32    3.892313E-03
        33   -1.044102E-02
        34   -2.162653E-05
        35    1.440670E-05
        36    6.385800E-05
        37    1.400329E-05
        38   -1.098637E-05
        39    7.095770E-04
        40    1.501175E-05
        41   -8.342247E-06
        42   -7.952515E-04
        43    6.394475E-04
        44   -2.164503E-04
        45   -4.824915E-04
        46    2.584915E-04
        47    6.272854E-03
        48    7.604644E-02
        49   -9.447576E-03
        50   -5.229268E-04
        51    1.541651E-06
        52   -1.847890E-01
        53   -1.574071E-03
        54    1.066629E-05
        55   -1.915879E-01
        56   -1.919283E-02
        57   -4.729503E-04
        58   -1.868463E-01
        59   -2.164390E-04
        60    2.119603E-04
        61    4.478716E-06
        62   -1.050987E-07
        63   -5.008737E-04
        64    4.356925E-07
        65   -7.825278E-04
        66    1.227141E-03
        67   -4.446137E-04
        68   -2.042189E-06
        69   -2.650530E-03
        70    4.446768E-07
        71   -1.934415E-02
        72    2.139624E-02
        73   -2.052090E-03
        74    8.538126E-05
        75    3.502988E-03
        76   -1.660334E-05
        77    7.161924E-06
        78    8.721829E-09
        79    1.021199E-03
        80   -1.128238E-05
        81    3.407442E-08
        82   -5.882858E-04
        83    1.673651E-06
        84   -4.577598E-08
        85   -7.817967E-04
        86   -3.640791E-08
        87    3.666163E-04
        88    8.475200E-04
        89   -2.177798E-03
        90    4.251223E-03
        91   -2.421910E-02
        92    1.773946E-02
        93    6.541719E-03
        94   -9.898894E-04
        95   -2.344978E-02
        96   -1.025237E-03
        97   -1.406706E-03
        98   -2.163305E-02
        99   -4.691120E-02
       100   -1.863666E-02
       101   -1.069911E-02
       102   -1.277869E-04
       103    1.377996E-04
       104   -1.001269E-05
       105   -5.063596E-05
       106   -5.979026E-03
       107   -3.525543E-03
       108    8.992941E-04
       109   -5.095672E-04
       110   -3.897269E-04
       111   -1.163145E-03
       112   -1.357199E-02
       113   -6.696871E-03
       114    4.847681E-03
       115   -4.352060E-03
       116   -4.956212E-04
       117    2.244612E-03
       118    3.875505E-03
       119    1.043244E-02
       120   -2.165181E-05
       121   -1.437699E-05
       122    6.398158E-05
       123    1.409311E-05
       124    1.093856E-05
       125    7.094461E-04
       126    1.495585E-05
       127    8.350204E-06
       128   -7.952864E-04
       129   -6.394324E-04
       130   -2.015249E-04
       131   -4.387797E-04
       132   -7.612793E-04
       133    1.579167E-02
       134   -8.584586E-03
       135   -2.047118E-02
       136   -5.997396E-03
       137    1.643563E-03
       138    1.513027E-01
       139   -1.736026E-02
       140    1.004011E-02
       141    1.539015E-01
       142   -2.393737E-02
       143   -1.050324E-02
       144    9.445887E-02
       145   -3.756824E-04
       146    4.234254E-04
       147   -4.774297E-05
       148   -3.022402E-05
       149   -9.155995E-04
       150    3.021086E-03
       151   -1.237056E-03
       152    1.386036E-03
       153   -1.489796E-04
       154   -2.631073E-03
       155   -4.520777E-03
       156    4.901211E-03
       157   -1.156620E-02
       158    8.628691E-03
       159    2.937505E-03
       160    1.666748E-02
       161    4.731525E-03
       162   -1.263814E-02
       163   -3.387079E-05
       164    2.308739E-05
       165   -8.588081E-04
       166   -3.217292E-05
       167    1.731983E-05
       168    2.012323E-04
       169    7.761536E-05
       170   -4.829482E-05
       171    9.509797E-04
       172   -3.316215E-04
       173    1.479819E-03
       174    3.375808E-03
       175   -3.075763E-03
       176   -3.298529E-02
       177    5.817083E-02
       178   -1.195868E-02
       179    1.758597E-02
       180   -2.337862E-06
       181    1.133193E-01
       182    3.357202E-03
       183   -1.155337E-05
       184    1.167909E-01
       185   -6.278213E-02
       186    5.582406E-04
       187    1.390872E-01
       188   -9.977588E-04
       189    6.604899E-04
       190    3.372689E-04
       191   -2.084584E-07
       192    1.008349E-02
       193    4.077099E-07
       194    2.524923E-03
       195   -5.939754E-03
       196    3.414831E-03
       197   -2.658067E-06
       198    2.472468E-02
       199    1.713545E-07
       200    1.360425E-02
       201   -1.499451E-02
       202    1.390260E-03
       203    1.469653E-04
       204    1.513331E-02
       205    1.413039E-05
       206    1.945776E-04
       207   -6.738390E-10
       208   -2.761019E-04
       209   -1.314137E-04
       210   -4.795297E-08
       211   -1.130031E-03
       212   -1.296396E-04
       213    4.885702E-08
       214    1.500461E-03
       215    2.468981E-08
       216   -2.018573E-04
       217   -4.394893E-04
       218   -7.606978E-04
       219    1.580175E-02
       220   -1.001053E-02
       221   -2.044128E-02
       222   -5.995425E-03
       223   -1.638208E-03
       224    1.513217E-01
       225   -1.737027E-02
       226   -1.004452E-02
       227    1.539230E-01
       228   -2.377795E-02
       229    1.108887E-02
       230    9.443826E-02
       231   -3.755515E-04
       232    4.235579E-04
       233   -4.800642E-05
       234    2.989577E-05
       235   -9.151764E-04
       236   -3.021178E-03
       237   -1.241001E-03
       238    1.390425E-03
       239   -1.494232E-04
       240    2.633104E-03
       241   -4.519164E-03
       242   -4.900968E-03
       243   -1.147294E-02
       244    8.535099E-03
       245    2.937836E-03
       246   -1.674908E-02
       247    4.749809E-03
       248    1.265292E-02
       249   -3.389940E-05
       250   -2.314708E-05
       251   -8.589865E-04
       252   -3.227713E-05
       253   -1.723672E-05
       254    2.014288E-04
       255    7.775794E-05
       256    4.829179E-05
       257    9.510226E-04
       258    3.315995E-04
       259    1.837218E-03
       260    2.167221E-03
       261    2.604372E-02
       262   -3.971282E-05
       263   -1.823680E-04
       264   -9.702760E-04
       265   -7.588529E-03
       266   -1.400869E-03
       267    5.618675E-03
       268    1.839414E-03
       269    2.165478E-03
       270    2.601429E-02
       271   -3.930376E-05
       272    1.819455E-04
       273   -9.711515E-04
       274   -7.674177E-03
       275    1.363776E-03
       276    5.622049E-03
       277    1.440205E-03
       278    4.908625E-03
       279   -5.403081E-02
       280   -5.991931E-05
       281    2.943594E-04
       282    6.135999E-03
       283   -2.076480E-03
       284   -4.497841E-03
       285   -9.416045E-04
       286    1.443357E-03
       287    4.906722E-03
       288   -5.415842E-02
       289   -5.967723E-05
       290   -2.940912E-04
       291    6.137010E-03
       292   -2.029617E-03
       293    4.537166E-03
       294   -9.433542E-04
       295    2.133442E-04
       296    5.042319E-04
       297   -6.713317E-04
       298   -1.455553E-03
       299    1.204510E-02
       300    2.493672E-03
       301    2.492961E-03
       302   -1.009435E-06
       303   -1.669669E-02
       304    1.887045E-03
       305   -1.040955E-06
       306   -1.880196E-02
       307   -3.961769E-03
       308   -8.758512E-07
       309   -3.056060E-03
       310   -3.851537E-05
       311    3.442291E-05
       312    4.092458E-06
       313   -1.655753E-07
       314    3.780288E-03
       315    4.082723E-08
       316   -6.490075E-05
       317   -3.859233E-06
       318    6.875998E-05
       319   -3.950394E-07
       320    1.141022E-02
       321    1.648786E-07
       322    8.298911E-04
       323   -4.172538E-03
       324    3.342647E-03
       325   -1.293825E-05
       326    2.692454E-03
       327    4.009529E-06
       328    1.273557E-05
       329    3.660975E-08
       330    2.885730E-05
       331   -4.792321E-06
       332   -4.190790E-08
       333   -6.306785E-04
       334   -1.229423E-05
       335   -7.209235E-09
       336    5.919624E-04
       337    3.324214E-09
       338    6.738629E-05
       339    1.596095E-04
       340   -1.761640E-04
       341   -1.152591E-03
       342    9.200563E-03
       343    1.413580E-03
       344   -4.019154E-04
       345    8.143761E-04
       346    6.373916E-02
       347   -5.508278E-04
       348    8.931624E-04
       349    5.918617E-02
       350   -1.985535E-03
       351    1.206853E-03
       352    4.747310E-02
       353   -4.017966E-04
       354    2.578536E-04
       355    5.579784E-03
       356   -1.588022E-05
       357    2.444308E-05
       358   -8.562861E-06
       359   -7.512560E-07
       360    1.992888E-05
       361    3.938443E-04
       362   -4.699921E-06
       363    5.682710E-05
       364   -5.212718E-05
       365   -1.407959E-06
       366   -4.143580E-04
       367    1.294212E-03
       368    9.734109E-05
       369   -1.546537E-05
       370   -8.187572E-05
       371   -2.436979E-05
       372   -4.236953E-04
       373    2.321363E-04
       374    1.966161E-06
       375    8.344275E-06
       376   -4.709790E-05
       377   -3.617667E-06
       378   -6.201757E-06
       379   -7.727645E-05
       380    9.797850E-07
       381   -4.993263E-06
       382    1.404649E-04
       383   -1.075095E-04
       384    6.740442E-05
       385    1.596617E-04
       386   -1.762645E-04
       387   -1.152493E-03
       388    9.215861E-03
       389    1.398737E-03
       390   -4.078184E-04
       391   -8.065261E-04
       392    6.374073E-02
       393   -5.564170E-04
       394   -8.864322E-04
       395    5.918808E-02
       396   -1.980960E-03
       397   -1.207319E-03
       398    4.746695E-02
       399   -3.949494E-04
       400   -2.606140E-04
       401    5.580599E-03
       402   -1.580083E-05
       403    2.432366E-05
       404   -8.522839E-06
       405    7.458703E-07
       406    1.989391E-05
       407   -3.938759E-04
       408   -4.670219E-06
       409    5.665460E-05
       410   -5.198438E-05
       411    1.323308E-06
       412   -4.143248E-04
       413   -1.294156E-03
       414    9.843166E-05
       415   -1.675563E-05
       416   -8.167603E-05
       417    2.488603E-05
       418   -4.235646E-04
       419   -2.312830E-04
       420    1.954574E-06
       421   -8.314685E-06
       422   -4.710370E-05
       423   -3.595382E-06
       424    6.179001E-06
       425   -7.726729E-05
       426    9.730462E-07
       427    4.976320E-06
       428    1.404635E-04
       429    1.075130E-04
       430   -7.149465E-03
       431   -1.699573E-02
       432    2.652527E-02
       433    4.341743E-02
       434    1.596768E-02
       435    9.660069E-02
       436   -3.063678E-02
       437    7.754626E-06
       438   -2.743910E-01
       439   -3.410287E-02
       440    1.690455E-06
       441   -2.698863E-01
       442   -3.654657E-02
       443   -6.203268E-05
       444   -2.184203E-01
       445    1.294736E-04
       446    1.261468E-04
       447   -2.556204E-04
       448   -1.827757E-07
       449    7.979585E-04
       450    2.108009E-07
       451    2.752783E-04
       452    2.634614E-03
       453   -2.909892E-03
       454    2.268524E-06
       455    3.516761E-03
       456    3.440602E-07
       457    3.211024E-03
       458    6.354908E-03
       459   -9.565931E-03
       460    8.478306E-06
       461    2.372370E-03
       462    2.217961E-07
       463   -2.253527E-04
       464    3.731585E-08
       465    1.055356E-03
       466   -1.369584E-04
       467    1.557753E-08
       468   -5.657209E-04
       469    4.393008E-04
       470   -6.564199E-08
       471   -8.501883E-04
       472    3.598089E-08
       473   -1.351659E-02
       474   -2.695260E-02
       475   -5.264936E-02
       476   -3.475030E-03
       477   -2.802880E-03
       478   -1.364174E-02
       479    1.272767E-04
       480   -6.072462E-03
       481   -1.516861E-02
       482   -1.351159E-02
       483   -2.690131E-02
       484   -5.240616E-02
       485   -3.471943E-03
       486    2.798682E-03
       487   -1.364440E-02
       488    1.686810E-04
       489    6.044391E-03
       490   -1.518296E-02
 Sym= X
 Ene= 0.948839
 Spin= Alpha
 Occup= 0.948839
         1    3.167970E-03
         2    7.057580E-03
         3   -1.804944E-02
         4    3.824529E-02
         5    3.730123E+00
         6   -1.475160E+00
         7   -1.406643E-02
         8   -2.791668E-03
         9   -1.528822E-03
        10   -1.463224E-01
        11   -1.771343E-02
        12   -1.350052E-04
        13   -3.900751E-01
        14   -5.245277E-01
        15   -2.385703E-01
        16   -6.159079E-04
        17   -5.065870E-04
        18    1.122495E-03
        19    1.103913E-03
        20   -2.954586E-05
        21    1.805201E-04
        22    2.489259E-02
        23   -2.474617E-02
        24   -1.464202E-04
        25   -1.728961E-03
        26    9.988113E-04
        27    8.151871E-04
        28    6.325793E-01
        29   -4.750039E-01
        30   -1.575754E-01
        31    8.900360E-01
        32    2.782958E-02
        33    2.826946E-02
        34   -4.286774E-04
        35   -1.858714E-04
        36   -5.156337E-05
        37   -3.433528E-04
        38   -5.648984E-05
        39    6.443620E-05
        40    9.184838E-04
        41    3.058624E-04
        42    4.743311E-06
        43    1.522068E-05
        44    4.665420E-03
        45    1.022832E-02
        46   -4.103202E-03
        47   -1.129087E-01
        48    2.412181E+00
        49    1.703196E+00
        50    3.219124E-03
        51    3.235554E-06
        52   -5.593436E-03
        53   -5.977523E-02
        54   -1.311568E-05
        55   -1.159858E-02
        56   -7.838387E-01
        57   -5.798464E-03
        58    1.537511E-01
        59    1.338343E-03
        60   -2.543186E-03
        61    1.204843E-03
        62   -1.961656E-07