[Molden Format]
[Title]
ADC(2) - opt by CAM-B3LYP gaussian                                              
[Atoms] AU
 c     1    6 0.12592752280008E+01 0.22800132789445E+01 -.35345910021030E-01
 c     2    6 0.25511638220345E+01 0.20078340100000E-05 -.33671612667290E-01
 c     3    6 0.12592790074531E+01 -.22800111530026E+01 -.35357248377820E-01
 c     4    6 -.13364450292264E+01 -.22798221803893E+01 -.38530098554940E-01
 c     5    6 -.26857699593430E+01 -.17716182500000E-05 -.39025206801750E-01
 c     6    6 -.13364469189525E+01 0.22798205268790E+01 -.38516870472010E-01
 h     7    1 0.23055183220207E+01 0.40307538342087E+01 -.32265656424420E-01
 h     8    1 0.23055239911991E+01 -.40307498185407E+01 -.32284553685750E-01
 h     9    1 -.23548467881305E+01 -.40530977197882E+01 -.43619131030800E-01
 h    10    1 -.23548543470350E+01 0.40530922868255E+01 -.43594564591070E-01
 n    11    7 0.52860567397703E+01 0.11810788000000E-06 -.26776002008390E-01
 o    12    8 0.63771222479361E+01 -.20280728649663E+01 -.23850705954680E-01
 o    13    8 0.63771260273883E+01 0.20280712114559E+01 -.23882831298940E-01
 n    14    7 -.52615573853205E+01 0.11810788000000E-06 -.10505223788478E+00
 h    15    1 -.61955753134867E+01 -.16086254730588E+01 0.27588253543458E+00
 h    16    1 -.61955696443083E+01 0.16086275990006E+01 0.27589009433911E+00
[GTO]
    1 0
 s    6 1.00
 0.13575349682000E+05 0.60645503603591E-03
 0.20352333680000E+04 0.46979088884982E-02
 0.46322562359000E+03 0.24332477647552E-01
 0.13120019598000E+03 0.97399968307759E-01
 0.42853015891000E+02 0.30195584253780E+00
 0.15584185766000E+02 0.66233609137875E+00
 s    2 1.00
 0.62067138508000E+01 0.65595308539952E+00
 0.25764896527000E+01 0.37585633285142E+00
 s    1 1.00
 0.57696339419000E+00 0.10000000000000E+01
 s    1 1.00
 0.22972831358000E+00 0.10000000000000E+01
 s    1 1.00
 0.95164440028000E-01 0.10000000000000E+01
 s    1 1.00
 0.48475401370000E-01 0.10000000000000E+01
 p    4 1.00
 0.34697232244000E+02 0.11327220003114E-01
 0.79582622826000E+01 0.76169659202087E-01
 0.23780826883000E+01 0.30192252202676E+00
 0.81433208183000E+00 0.72785027349547E+00
 p    1 1.00
 0.28887547253000E+00 0.10000000000000E+01
 p    1 1.00
 0.10056823671000E+00 0.10000000000000E+01
 d    1 1.00
 0.10970000000000E+01 0.10000000000000E+01
 d    1 1.00
 0.31800000000000E+00 0.10000000000000E+01
 d    1 1.00
 0.90985336424000E-01 0.10000000000000E+01
 f    1 1.00
 0.76100000000000E+00 0.10000000000000E+01
 
    2 0
 s    6 1.00
 0.13575349682000E+05 0.60645503603591E-03
 0.20352333680000E+04 0.46979088884982E-02
 0.46322562359000E+03 0.24332477647552E-01
 0.13120019598000E+03 0.97399968307759E-01
 0.42853015891000E+02 0.30195584253780E+00
 0.15584185766000E+02 0.66233609137875E+00
 s    2 1.00
 0.62067138508000E+01 0.65595308539952E+00
 0.25764896527000E+01 0.37585633285142E+00
 s    1 1.00
 0.57696339419000E+00 0.10000000000000E+01
 s    1 1.00
 0.22972831358000E+00 0.10000000000000E+01
 s    1 1.00
 0.95164440028000E-01 0.10000000000000E+01
 s    1 1.00
 0.48475401370000E-01 0.10000000000000E+01
 p    4 1.00
 0.34697232244000E+02 0.11327220003114E-01
 0.79582622826000E+01 0.76169659202087E-01
 0.23780826883000E+01 0.30192252202676E+00
 0.81433208183000E+00 0.72785027349547E+00
 p    1 1.00
 0.28887547253000E+00 0.10000000000000E+01
 p    1 1.00
 0.10056823671000E+00 0.10000000000000E+01
 d    1 1.00
 0.10970000000000E+01 0.10000000000000E+01
 d    1 1.00
 0.31800000000000E+00 0.10000000000000E+01
 d    1 1.00
 0.90985336424000E-01 0.10000000000000E+01
 f    1 1.00
 0.76100000000000E+00 0.10000000000000E+01
 
    3 0
 s    6 1.00
 0.13575349682000E+05 0.60645503603591E-03
 0.20352333680000E+04 0.46979088884982E-02
 0.46322562359000E+03 0.24332477647552E-01
 0.13120019598000E+03 0.97399968307759E-01
 0.42853015891000E+02 0.30195584253780E+00
 0.15584185766000E+02 0.66233609137875E+00
 s    2 1.00
 0.62067138508000E+01 0.65595308539952E+00
 0.25764896527000E+01 0.37585633285142E+00
 s    1 1.00
 0.57696339419000E+00 0.10000000000000E+01
 s    1 1.00
 0.22972831358000E+00 0.10000000000000E+01
 s    1 1.00
 0.95164440028000E-01 0.10000000000000E+01
 s    1 1.00
 0.48475401370000E-01 0.10000000000000E+01
 p    4 1.00
 0.34697232244000E+02 0.11327220003114E-01
 0.79582622826000E+01 0.76169659202087E-01
 0.23780826883000E+01 0.30192252202676E+00
 0.81433208183000E+00 0.72785027349547E+00
 p    1 1.00
 0.28887547253000E+00 0.10000000000000E+01
 p    1 1.00
 0.10056823671000E+00 0.10000000000000E+01
 d    1 1.00
 0.10970000000000E+01 0.10000000000000E+01
 d    1 1.00
 0.31800000000000E+00 0.10000000000000E+01
 d    1 1.00
 0.90985336424000E-01 0.10000000000000E+01
 f    1 1.00
 0.76100000000000E+00 0.10000000000000E+01
 
    4 0
 s    6 1.00
 0.13575349682000E+05 0.60645503603591E-03
 0.20352333680000E+04 0.46979088884982E-02
 0.46322562359000E+03 0.24332477647552E-01
 0.13120019598000E+03 0.97399968307759E-01
 0.42853015891000E+02 0.30195584253780E+00
 0.15584185766000E+02 0.66233609137875E+00
 s    2 1.00
 0.62067138508000E+01 0.65595308539952E+00
 0.25764896527000E+01 0.37585633285142E+00
 s    1 1.00
 0.57696339419000E+00 0.10000000000000E+01
 s    1 1.00
 0.22972831358000E+00 0.10000000000000E+01
 s    1 1.00
 0.95164440028000E-01 0.10000000000000E+01
 s    1 1.00
 0.48475401370000E-01 0.10000000000000E+01
 p    4 1.00
 0.34697232244000E+02 0.11327220003114E-01
 0.79582622826000E+01 0.76169659202087E-01
 0.23780826883000E+01 0.30192252202676E+00
 0.81433208183000E+00 0.72785027349547E+00
 p    1 1.00
 0.28887547253000E+00 0.10000000000000E+01
 p    1 1.00
 0.10056823671000E+00 0.10000000000000E+01
 d    1 1.00
 0.10970000000000E+01 0.10000000000000E+01
 d    1 1.00
 0.31800000000000E+00 0.10000000000000E+01
 d    1 1.00
 0.90985336424000E-01 0.10000000000000E+01
 f    1 1.00
 0.76100000000000E+00 0.10000000000000E+01
 
    5 0
 s    6 1.00
 0.13575349682000E+05 0.60645503603591E-03
 0.20352333680000E+04 0.46979088884982E-02
 0.46322562359000E+03 0.24332477647552E-01
 0.13120019598000E+03 0.97399968307759E-01
 0.42853015891000E+02 0.30195584253780E+00
 0.15584185766000E+02 0.66233609137875E+00
 s    2 1.00
 0.62067138508000E+01 0.65595308539952E+00
 0.25764896527000E+01 0.37585633285142E+00
 s    1 1.00
 0.57696339419000E+00 0.10000000000000E+01
 s    1 1.00
 0.22972831358000E+00 0.10000000000000E+01
 s    1 1.00
 0.95164440028000E-01 0.10000000000000E+01
 s    1 1.00
 0.48475401370000E-01 0.10000000000000E+01
 p    4 1.00
 0.34697232244000E+02 0.11327220003114E-01
 0.79582622826000E+01 0.76169659202087E-01
 0.23780826883000E+01 0.30192252202676E+00
 0.81433208183000E+00 0.72785027349547E+00
 p    1 1.00
 0.28887547253000E+00 0.10000000000000E+01
 p    1 1.00
 0.10056823671000E+00 0.10000000000000E+01
 d    1 1.00
 0.10970000000000E+01 0.10000000000000E+01
 d    1 1.00
 0.31800000000000E+00 0.10000000000000E+01
 d    1 1.00
 0.90985336424000E-01 0.10000000000000E+01
 f    1 1.00
 0.76100000000000E+00 0.10000000000000E+01
 
    6 0
 s    6 1.00
 0.13575349682000E+05 0.60645503603591E-03
 0.20352333680000E+04 0.46979088884982E-02
 0.46322562359000E+03 0.24332477647552E-01
 0.13120019598000E+03 0.97399968307759E-01
 0.42853015891000E+02 0.30195584253780E+00
 0.15584185766000E+02 0.66233609137875E+00
 s    2 1.00
 0.62067138508000E+01 0.65595308539952E+00
 0.25764896527000E+01 0.37585633285142E+00
 s    1 1.00
 0.57696339419000E+00 0.10000000000000E+01
 s    1 1.00
 0.22972831358000E+00 0.10000000000000E+01
 s    1 1.00
 0.95164440028000E-01 0.10000000000000E+01
 s    1 1.00
 0.48475401370000E-01 0.10000000000000E+01
 p    4 1.00
 0.34697232244000E+02 0.11327220003114E-01
 0.79582622826000E+01 0.76169659202087E-01
 0.23780826883000E+01 0.30192252202676E+00
 0.81433208183000E+00 0.72785027349547E+00
 p    1 1.00
 0.28887547253000E+00 0.10000000000000E+01
 p    1 1.00
 0.10056823671000E+00 0.10000000000000E+01
 d    1 1.00
 0.10970000000000E+01 0.10000000000000E+01
 d    1 1.00
 0.31800000000000E+00 0.10000000000000E+01
 d    1 1.00
 0.90985336424000E-01 0.10000000000000E+01
 f    1 1.00
 0.76100000000000E+00 0.10000000000000E+01
 
    7 0
 s    3 1.00
 0.34061341000000E+02 0.25439307208879E-01
 0.51235746000000E+01 0.19008594890375E+00
 0.11646626000000E+01 0.85244113011042E+00
 s    1 1.00
 0.32723041000000E+00 0.10000000000000E+01
 s    1 1.00
 0.10307241000000E+00 0.10000000000000E+01
 p    1 1.00
 0.80000000000000E+00 0.10000000000000E+01
 p    1 1.00
 0.95774129632000E-01 0.10000000000000E+01
 
    8 0
 s    3 1.00
 0.34061341000000E+02 0.25439307208879E-01
 0.51235746000000E+01 0.19008594890375E+00
 0.11646626000000E+01 0.85244113011042E+00
 s    1 1.00
 0.32723041000000E+00 0.10000000000000E+01
 s    1 1.00
 0.10307241000000E+00 0.10000000000000E+01
 p    1 1.00
 0.80000000000000E+00 0.10000000000000E+01
 p    1 1.00
 0.95774129632000E-01 0.10000000000000E+01
 
    9 0
 s    3 1.00
 0.34061341000000E+02 0.25439307208879E-01
 0.51235746000000E+01 0.19008594890375E+00
 0.11646626000000E+01 0.85244113011042E+00
 s    1 1.00
 0.32723041000000E+00 0.10000000000000E+01
 s    1 1.00
 0.10307241000000E+00 0.10000000000000E+01
 p    1 1.00
 0.80000000000000E+00 0.10000000000000E+01
 p    1 1.00
 0.95774129632000E-01 0.10000000000000E+01
 
   10 0
 s    3 1.00
 0.34061341000000E+02 0.25439307208879E-01
 0.51235746000000E+01 0.19008594890375E+00
 0.11646626000000E+01 0.85244113011042E+00
 s    1 1.00
 0.32723041000000E+00 0.10000000000000E+01
 s    1 1.00
 0.10307241000000E+00 0.10000000000000E+01
 p    1 1.00
 0.80000000000000E+00 0.10000000000000E+01
 p    1 1.00
 0.95774129632000E-01 0.10000000000000E+01
 
   11 0
 s    6 1.00
 0.19730800647000E+05 0.58626402628763E-03
 0.29578958745000E+04 0.45428820586397E-02
 0.67322133595000E+03 0.23558413450084E-01
 0.19068249494000E+03 0.94709193292923E-01
 0.62295441898000E+02 0.29719784913376E+00
 0.22654161182000E+02 0.66916246895232E+00
 s    2 1.00
 0.89791477428000E+01 0.64596683630063E+00
 0.36863002370000E+01 0.38700574393705E+00
 s    1 1.00
 0.84660076805000E+00 0.10000000000000E+01
 s    1 1.00
 0.33647133771000E+00 0.10000000000000E+01
 s    1 1.00
 0.13647653675000E+00 0.10000000000000E+01
 s    1 1.00
 0.68441605847000E-01 0.10000000000000E+01
 p    4 1.00
 0.49200380510000E+02 0.11448825101764E-01
 0.11346790537000E+02 0.78422337970864E-01
 0.34273972411000E+01 0.30818094738830E+00
 0.11785525134000E+01 0.72027196368413E+00
 p    1 1.00
 0.41642204972000E+00 0.10000000000000E+01
 p    1 1.00
 0.14260826011000E+00 0.10000000000000E+01
 d    1 1.00
 0.16540000000000E+01 0.10000000000000E+01
 d    1 1.00
 0.46900000000000E+00 0.10000000000000E+01
 d    1 1.00
 0.12829642058000E+00 0.10000000000000E+01
 f    1 1.00
 0.10930000000000E+01 0.10000000000000E+01
 
   12 0
 s    6 1.00
 0.27032382631000E+05 0.57227335211155E-03
 0.40523871392000E+04 0.44353233492995E-02
 0.92232722710000E+03 0.23020107706038E-01
 0.26124070989000E+03 0.92822490667928E-01
 0.85354641351000E+02 0.29378500009671E+00
 0.31035035245000E+02 0.67401604501641E+00
 s    2 1.00
 0.12260860728000E+02 0.63839937025506E+00
 0.49987076005000E+01 0.39534587125718E+00
 s    1 1.00
 0.11703108158000E+01 0.10000000000000E+01
 s    1 1.00
 0.46474740994000E+00 0.10000000000000E+01
 s    1 1.00
 0.18504536357000E+00 0.10000000000000E+01
 s    1 1.00
 0.70288026270000E-01 0.10000000000000E+01
 p    4 1.00
 0.63274954801000E+02 0.12018332222616E-01
 0.14627049379000E+02 0.83005421790056E-01
 0.44501223456000E+01 0.31991743925964E+00
 0.15275799647000E+01 0.70715542916104E+00
 p    1 1.00
 0.52935117943000E+00 0.10000000000000E+01
 p    1 1.00
 0.17478421270000E+00 0.10000000000000E+01
 p    1 1.00
 0.51112745706000E-01 0.10000000000000E+01
 d    1 1.00
 0.23140000000000E+01 0.10000000000000E+01
 d    1 1.00
 0.64500000000000E+00 0.10000000000000E+01
 d    1 1.00
 0.14696477366000E+00 0.10000000000000E+01
 f    1 1.00
 0.14280000000000E+01 0.10000000000000E+01
 
   13 0
 s    6 1.00
 0.27032382631000E+05 0.57227335211155E-03
 0.40523871392000E+04 0.44353233492995E-02
 0.92232722710000E+03 0.23020107706038E-01
 0.26124070989000E+03 0.92822490667928E-01
 0.85354641351000E+02 0.29378500009671E+00
 0.31035035245000E+02 0.67401604501641E+00
 s    2 1.00
 0.12260860728000E+02 0.63839937025506E+00
 0.49987076005000E+01 0.39534587125718E+00
 s    1 1.00
 0.11703108158000E+01 0.10000000000000E+01
 s    1 1.00
 0.46474740994000E+00 0.10000000000000E+01
 s    1 1.00
 0.18504536357000E+00 0.10000000000000E+01
 s    1 1.00
 0.70288026270000E-01 0.10000000000000E+01
 p    4 1.00
 0.63274954801000E+02 0.12018332222616E-01
 0.14627049379000E+02 0.83005421790056E-01
 0.44501223456000E+01 0.31991743925964E+00
 0.15275799647000E+01 0.70715542916104E+00
 p    1 1.00
 0.52935117943000E+00 0.10000000000000E+01
 p    1 1.00
 0.17478421270000E+00 0.10000000000000E+01
 p    1 1.00
 0.51112745706000E-01 0.10000000000000E+01
 d    1 1.00
 0.23140000000000E+01 0.10000000000000E+01
 d    1 1.00
 0.64500000000000E+00 0.10000000000000E+01
 d    1 1.00
 0.14696477366000E+00 0.10000000000000E+01
 f    1 1.00
 0.14280000000000E+01 0.10000000000000E+01
 
   14 0
 s    6 1.00
 0.19730800647000E+05 0.58626402628763E-03
 0.29578958745000E+04 0.45428820586397E-02
 0.67322133595000E+03 0.23558413450084E-01
 0.19068249494000E+03 0.94709193292923E-01
 0.62295441898000E+02 0.29719784913376E+00
 0.22654161182000E+02 0.66916246895232E+00
 s    2 1.00
 0.89791477428000E+01 0.64596683630063E+00
 0.36863002370000E+01 0.38700574393705E+00
 s    1 1.00
 0.84660076805000E+00 0.10000000000000E+01
 s    1 1.00
 0.33647133771000E+00 0.10000000000000E+01
 s    1 1.00
 0.13647653675000E+00 0.10000000000000E+01
 s    1 1.00
 0.68441605847000E-01 0.10000000000000E+01
 p    4 1.00
 0.49200380510000E+02 0.11448825101764E-01
 0.11346790537000E+02 0.78422337970864E-01
 0.34273972411000E+01 0.30818094738830E+00
 0.11785525134000E+01 0.72027196368413E+00
 p    1 1.00
 0.41642204972000E+00 0.10000000000000E+01
 p    1 1.00
 0.14260826011000E+00 0.10000000000000E+01
 d    1 1.00
 0.16540000000000E+01 0.10000000000000E+01
 d    1 1.00
 0.46900000000000E+00 0.10000000000000E+01
 d    1 1.00
 0.12829642058000E+00 0.10000000000000E+01
 f    1 1.00
 0.10930000000000E+01 0.10000000000000E+01
 
   15 0
 s    3 1.00
 0.34061341000000E+02 0.25439307208879E-01
 0.51235746000000E+01 0.19008594890375E+00
 0.11646626000000E+01 0.85244113011042E+00
 s    1 1.00
 0.32723041000000E+00 0.10000000000000E+01
 s    1 1.00
 0.10307241000000E+00 0.10000000000000E+01
 p    1 1.00
 0.80000000000000E+00 0.10000000000000E+01
 p    1 1.00
 0.95774129632000E-01 0.10000000000000E+01
 
   16 0
 s    3 1.00
 0.34061341000000E+02 0.25439307208879E-01
 0.51235746000000E+01 0.19008594890375E+00
 0.11646626000000E+01 0.85244113011042E+00
 s    1 1.00
 0.32723041000000E+00 0.10000000000000E+01
 s    1 1.00
 0.10307241000000E+00 0.10000000000000E+01
 p    1 1.00
 0.80000000000000E+00 0.10000000000000E+01
 p    1 1.00
 0.95774129632000E-01 0.10000000000000E+01
 
[MO]
 Sym= X
 Ene= -0.944134
 Spin= Alpha
 Occup= -0.944134
         1    2.078067E-04
         2    4.852487E-04
         3   -1.525192E-03
         4    4.363754E-03
         5   -2.154945E-02
         6    1.511213E-02
         7    2.144568E-03
         8    1.556413E-04
         9   -3.451777E-02
        10   -3.572826E-03
        11    5.359206E-04
        12   -3.264494E-02
        13   -3.865608E-02
        14    1.720961E-02
        15   -1.584729E-02
        16   -2.480924E-06
        17    2.116909E-05
        18   -1.868817E-05
        19    7.194628E-06
        20   -6.305954E-03
        21    3.984802E-03
        22    9.087398E-04
        23   -5.285095E-04
        24   -3.802303E-04
        25    9.152027E-04
        26   -1.429329E-02
        27    7.480110E-03
        28    4.297448E-03
        29   -4.051907E-03
        30   -2.455411E-04
        31   -1.794927E-03
        32    3.018388E-03
        33   -8.979494E-03
        34   -2.945343E-05
        35    6.182994E-06
        36    1.462348E-04
        37    1.429408E-05
        38   -4.540752E-06
        39    6.986735E-04
        40    2.522184E-05
        41   -3.754605E-06
        42   -8.948681E-04
        43    7.097331E-04
        44   -3.128189E-05
        45   -6.742085E-05
        46   -2.048303E-04
        47    4.006893E-03
        48    7.045170E-02
        49   -7.316696E-03
        50    1.814939E-04
        51    1.394910E-06
        52   -2.075250E-01
        53   -8.117905E-04
        54    1.155809E-05
        55   -2.148949E-01
        56   -1.795997E-02
        57   -4.402086E-04
        58   -1.932101E-01
        59   -6.312767E-05
        60    5.837973E-05
        61    4.747933E-06
        62   -9.291009E-08
        63   -3.008352E-04
        64    4.309196E-07
        65   -5.012469E-04
        66    8.340332E-04
        67   -3.327863E-04
        68   -2.200134E-06
        69   -2.371462E-03
        70    4.059632E-07
        71   -1.503762E-02
        72    1.697139E-02
        73   -1.933777E-03
        74    8.127264E-05
        75    4.272579E-03
        76   -1.361905E-05
        77    8.321832E-06
        78    2.456066E-08
        79    1.181246E-03
        80   -8.210764E-06
        81    2.016034E-08
        82   -6.720598E-04
        83   -2.954145E-06
        84   -5.311192E-08
        85   -9.127485E-04
        86   -3.502389E-08
        87    2.080252E-04
        88    4.857328E-04
        89   -1.526248E-03
        90    4.366860E-03
        91   -2.260542E-02
        92    1.510144E-02
        93    2.145781E-03
        94   -1.570554E-04
        95   -3.453827E-02
        96   -3.548046E-03
        97   -5.318248E-04
        98   -3.266627E-02
        99   -3.885582E-02
       100   -1.761359E-02
       101   -1.588197E-02
       102   -2.562054E-06
       103    2.118358E-05
       104   -1.862153E-05
       105   -7.339337E-06
       106   -6.305589E-03
       107   -3.984913E-03
       108    9.038320E-04
       109   -5.237185E-04
       110   -3.801135E-04
       111   -9.134422E-04
       112   -1.429187E-02
       113   -7.480021E-03
       114    4.385039E-03
       115   -4.150306E-03
       116   -2.347329E-04
       117    1.709663E-03
       118    3.005927E-03
       119    8.974528E-03
       120   -2.946161E-05
       121   -6.154500E-06
       122    1.463603E-04
       123    1.437675E-05
       124    4.506703E-06
       125    6.985373E-04
       126    2.515015E-05
       127    3.750425E-06
       128   -8.949002E-04
       129   -7.097157E-04
       130   -1.225825E-04
       131   -2.628909E-04
       132   -7.235053E-04
       133    1.244727E-02
       134   -1.157696E-02
       135   -1.811887E-02
       136   -1.721969E-03
       137    6.500587E-04
       138    1.570313E-01
       139   -1.210451E-02
       140    7.820097E-03
       141    1.594055E-01
       142   -1.650845E-02
       143   -9.675672E-03
       144    9.899856E-02
       145   -1.697142E-04
       146    2.014981E-04
       147   -3.178397E-05
       148   -2.464579E-06
       149   -1.420160E-03
       150    3.405473E-03
       151   -9.417124E-04
       152    1.008722E-03
       153   -6.700917E-05
       154   -2.127922E-03
       155   -5.432854E-03
       156    5.653627E-03
       157   -9.793382E-03
       158    7.341327E-03
       159    2.452055E-03
       160    1.452561E-02
       161    3.895220E-03
       162   -1.027689E-02
       163   -2.454577E-05
       164    8.857426E-06
       165   -9.146354E-04
       166   -1.906728E-05
       167    2.561184E-05
       168    1.970253E-04
       169    5.199888E-05
       170   -3.749532E-05
       171    1.030087E-03
       172   -4.104848E-04
       173    1.303034E-03
       174    2.973194E-03
       175   -2.809806E-03
       176   -2.891074E-02
       177    5.277369E-02
       178   -9.166794E-03
       179    1.020482E-02
       180   -1.509132E-06
       181    1.396970E-01
       182   -1.879856E-04
       183   -7.564418E-06
       184    1.422563E-01
       185   -5.108456E-02
       186    5.899630E-04
       187    1.361496E-01
       188   -5.971541E-04
       189    3.286590E-04
       190    2.684951E-04
       191   -1.663931E-07
       192    9.157252E-03
       193    4.100326E-07
       194    2.305739E-03
       195   -5.182110E-03
       196    2.876371E-03
       197   -1.561480E-06
       198    2.300742E-02
       199   -1.838207E-07
       200    9.452242E-03
       201   -1.065054E-02
       202    1.198293E-03
       203    1.354975E-04
       204    1.509121E-02
       205    8.368335E-06
       206    1.404118E-04
       207    1.602030E-08
       208   -5.423540E-04
       209   -1.049104E-04
       210   -4.317540E-08
       211   -8.241203E-04
       212   -8.347180E-05
       213    2.168190E-08
       214    1.551765E-03
       215    1.236836E-08
       216   -1.229310E-04
       217   -2.636375E-04
       218   -7.217090E-04
       219    1.244912E-02
       220   -1.298226E-02
       221   -1.810223E-02
       222   -1.721212E-03
       223   -6.458664E-04
       224    1.570498E-01
       225   -1.211572E-02
       226   -7.821548E-03
       227    1.594268E-01
       228   -1.629661E-02
       229    1.026467E-02
       230    9.898706E-02
       231   -1.695877E-04
       232    2.016456E-04
       233   -3.205796E-05
       234    2.217148E-06
       235   -1.419732E-03
       236   -3.405551E-03
       237   -9.460905E-04
       238    1.012617E-03
       239   -6.652605E-05
       240    2.129287E-03
       241   -5.431454E-03
       242   -5.653627E-03
       243   -9.711517E-03
       244    7.257430E-03
       245    2.454087E-03
       246   -1.461146E-02
       247    3.907305E-03
       248    1.028820E-02
       249   -2.462874E-05
       250   -8.906592E-06
       251   -9.148275E-04
       252   -1.910564E-05
       253   -2.553836E-05
       254    1.972251E-04
       255    5.214855E-05
       256    3.748781E-05
       257    1.030145E-03
       258    4.104770E-04
       259    4.386020E-04
       260    1.324405E-04
       261    2.059626E-02
       262   -9.615687E-06
       263    1.782986E-05
       264   -1.395831E-03
       265   -6.572636E-03
       266   -7.861246E-04
       267    4.747719E-03
       268    4.397155E-04
       269    1.293705E-04
       270    2.058209E-02
       271   -9.138540E-06
       272   -1.834609E-05
       273   -1.396677E-03
       274   -6.653889E-03
       275    7.529034E-04
       276    4.751726E-03
       277    4.911631E-04
       278    3.045593E-03
       279   -4.667101E-02
       280   -2.314775E-05
       281    1.265322E-04
       282    6.411625E-03
       283   -1.071164E-03
       284   -4.062015E-03
       285    9.569421E-04
       286    4.939243E-04
       287    3.045221E-03
       288   -4.680701E-02
       289   -2.302217E-05
       290   -1.264316E-04
       291    6.412608E-03
       292   -1.032412E-03
       293    4.097661E-03
       294    9.548288E-04
       295    6.013953E-05
       296    1.403908E-04
       297   -1.423168E-04
       298   -3.331773E-04
       299    9.376545E-03
       300    3.222108E-06
       301    7.711705E-04
       302   -5.422320E-07
       303   -1.585375E-02
       304    3.325221E-04
       305   -5.607074E-07
       306   -1.798605E-02
       307   -3.587884E-03
       308   -3.179641E-07
       309   -4.317703E-03
       310   -3.998075E-05
       311    2.647602E-05
       312    1.350472E-05
       313   -6.160400E-08
       314    4.206907E-03
       315    1.877441E-08
       316   -5.229081E-05
       317   -2.328626E-05
       318    7.557707E-05
       319   -1.022866E-07
       320    1.264983E-02
       321    1.114344E-07
       322    7.438179E-04
       323   -3.531045E-03
       324    2.787227E-03
       325   -1.170932E-05
       326    3.408856E-03
       327    3.893792E-06
       328    8.669946E-06
       329    1.506216E-08
       330    2.450061E-05
       331   -5.303847E-06
       332   -8.387682E-09
       333   -6.981985E-04
       334   -6.328106E-06
       335   -1.182033E-08
       336    6.653275E-04
       337    3.125589E-10
       338    1.509476E-05
       339    3.203101E-05
       340    1.141022E-05
       341   -6.928598E-04
       342    7.948029E-03
       343    1.623413E-03
       344   -6.593784E-04
       345    9.335182E-05
       346    7.108840E-02
       347   -7.528567E-04
       348    2.531783E-04
       349    6.595771E-02
       350   -1.819181E-03
       351    7.469614E-04
       352    5.248620E-02
       353   -3.465115E-04
       354    2.852444E-04
       355    6.050230E-03
       356   -3.363277E-06
       357    6.150082E-06
       358   -2.786805E-06
       359   -4.478572E-06
       360    3.569709E-06
       361    4.659117E-04
       362    1.742358E-05
       363    1.221863E-05
       364   -2.964221E-05
       365   -2.085198E-05
       366   -5.056382E-04
       367    1.522423E-03
       368    8.223935E-05
       369   -1.658878E-05
       370   -6.565057E-05
       371   -1.965744E-05
       372   -6.451352E-04
       373    2.595692E-04
       374    1.387323E-06
       375    1.708939E-06
       376   -5.727681E-05
       377   -2.432016E-06
       378    4.469466E-07
       379   -8.560121E-05
       380    5.707271E-07
       381   -2.739729E-06
       382    1.624461E-04
       383   -1.259515E-04
       384    1.511744E-05
       385    3.209605E-05
       386    1.123688E-05
       387   -6.926923E-04
       388    7.960054E-03
       389    1.607398E-03
       390   -6.600327E-04
       391   -9.016593E-05
       392    7.108884E-02
       393   -7.536856E-04
       394   -2.504137E-04
       395    6.595860E-02
       396   -1.811068E-03
       397   -7.496925E-04
       398    5.247919E-02
       399   -3.383820E-04
       400   -2.887409E-04
       401    6.050935E-03
       402   -3.329764E-06
       403    6.089934E-06
       404   -2.760170E-06
       405    4.477602E-06
       406    3.538716E-06
       407   -4.659328E-04
       408    1.733546E-05
       409    1.216223E-05
       410   -2.949769E-05
       411    2.072962E-05
       412   -5.055737E-04
       413   -1.522337E-03
       414    8.286436E-05
       415   -1.741721E-05
       416   -6.544715E-05
       417    2.021858E-05
       418   -6.450686E-04
       419   -2.585681E-04
       420    1.381102E-06
       421   -1.694569E-06
       422   -5.728091E-05
       423   -2.418069E-06
       424   -4.516279E-07
       425   -8.559059E-05
       426    5.651260E-07
       427    2.725131E-06
       428    1.624410E-04
       429    1.259517E-04
       430   -6.042722E-03
       431   -1.437180E-02
       432    2.242548E-02
       433    3.667721E-02
       434    1.619140E-02
       435    8.681154E-02
       436   -2.153991E-02
       437    5.661529E-06
       438   -2.273077E-01
       439   -2.479133E-02
       440    7.175223E-07
       441   -2.244401E-01
       442   -2.700203E-02
       443   -5.743574E-05
       444   -1.878149E-01
       445    1.667479E-04
       446    7.783365E-06
       447   -1.745313E-04
       448   -1.254008E-07
       449    1.263155E-03
       450    1.585212E-07
       451    3.804233E-04
       452    1.948005E-03
       453   -2.328429E-03
       454    1.933826E-06
       455    4.600102E-03
       456    3.149712E-07
       457    3.207685E-03
       458    4.672746E-03
       459   -7.880431E-03
       460    6.091170E-06
       461    2.747911E-03
       462    2.549782E-07
       463   -1.916300E-04
       464    2.556322E-08
       465    8.042382E-04
       466   -1.044340E-04
       467    1.418786E-08
       468   -3.414594E-04
       469    3.615325E-04
       470   -4.848451E-08
       471   -7.375393E-04
       472    3.418836E-08
       473   -1.270607E-02
       474   -2.422556E-02
       475   -4.475466E-02
       476   -2.786520E-03
       477   -2.448029E-03
       478   -1.151636E-02
       479    9.383869E-04
       480   -5.070120E-03
       481   -1.450889E-02
       482   -1.270270E-02
       483   -2.418325E-02
       484   -4.454640E-02
       485   -2.784031E-03
       486    2.444582E-03
       487   -1.151865E-02
       488    9.749466E-04
       489    5.046871E-03
       490   -1.452017E-02
 Sym= X
 Ene= 0.944134
 Spin= Alpha
 Occup= 0.944134
         1   -3.535721E-03
         2   -7.977150E-03
         3    8.192289E-03
         4    3.295074E-02
         5    3.311190E+00
         6    8.581656E-01
         7    2.344137E-02
         8    3.652506E-02
         9    1.330131E-03
        10   -7.131638E-03
        11    1.178716E-01
        12    7.170945E-04
        13   -9.399046E-01
        14   -2.161267E+00
        15    1.576766E-01
        16    2.049723E-03
        17   -4.702873E-03
        18    2.653150E-03
        19   -2.114718E-03
        20   -1.090916E-04
        21   -3.250702E-04
        22   -7.445075E-03
        23   -1.583802E-03
        24    9.028876E-03
        25    1.150536E-02
        26   -2.010563E-04
        27   -1.125750E-03
        28   -3.809377E-02
        29   -1.251510E-01
        30    1.632447E-01
        31   -7.910083E-01
        32   -1.909446E-02
        33    6.263931E-02
        34   -1.405886E-04
        35    3.333079E-04
        36    5.709254E-05
        37    5.186440E-04
        38    2.918719E-04
        39   -1.037195E-04
        40   -3.300246E-04
        41   -7.390514E-04
        42    2.712181E-05
        43   -3.274626E-05
        44    1.955433E-03
        45    4.098685E-03
        46   -3.647096E-03
        47   -9.332559E-02
        48   -6.532484E+00
        49    4.251712E+00
        50    4.495911E-02
        51    1.336322E-05
        52    1.187047E-02
        53    1.103546E-02
        54   -4.687522E-05
        55    1.510945E-02
        56    2.367847E+00
        57   -1.723678E-02
        58    9.330325E-02
        59   -5.179768E-03
        60    1.245706E-03
        61    3.934062E-03
        62   -9.743272E-07