[Molden Format]
[Title]
ADC(2) - opt by CAM-B3LYP gaussian                                              
[Atoms] AU
 c     1    6 0.12592752280008E+01 0.22800132789445E+01 -.35345910021030E-01
 c     2    6 0.25511638220345E+01 0.20078340100000E-05 -.33671612667290E-01
 c     3    6 0.12592790074531E+01 -.22800111530026E+01 -.35357248377820E-01
 c     4    6 -.13364450292264E+01 -.22798221803893E+01 -.38530098554940E-01
 c     5    6 -.26857699593430E+01 -.17716182500000E-05 -.39025206801750E-01
 c     6    6 -.13364469189525E+01 0.22798205268790E+01 -.38516870472010E-01
 h     7    1 0.23055183220207E+01 0.40307538342087E+01 -.32265656424420E-01
 h     8    1 0.23055239911991E+01 -.40307498185407E+01 -.32284553685750E-01
 h     9    1 -.23548467881305E+01 -.40530977197882E+01 -.43619131030800E-01
 h    10    1 -.23548543470350E+01 0.40530922868255E+01 -.43594564591070E-01
 n    11    7 0.52860567397703E+01 0.11810788000000E-06 -.26776002008390E-01
 o    12    8 0.63771222479361E+01 -.20280728649663E+01 -.23850705954680E-01
 o    13    8 0.63771260273883E+01 0.20280712114559E+01 -.23882831298940E-01
 n    14    7 -.52615573853205E+01 0.11810788000000E-06 -.10505223788478E+00
 h    15    1 -.61955753134867E+01 -.16086254730588E+01 0.27588253543458E+00
 h    16    1 -.61955696443083E+01 0.16086275990006E+01 0.27589009433911E+00
[GTO]
    1 0
 s    6 1.00
 0.13575349682000E+05 0.60645503603591E-03
 0.20352333680000E+04 0.46979088884982E-02
 0.46322562359000E+03 0.24332477647552E-01
 0.13120019598000E+03 0.97399968307759E-01
 0.42853015891000E+02 0.30195584253780E+00
 0.15584185766000E+02 0.66233609137875E+00
 s    2 1.00
 0.62067138508000E+01 0.65595308539952E+00
 0.25764896527000E+01 0.37585633285142E+00
 s    1 1.00
 0.57696339419000E+00 0.10000000000000E+01
 s    1 1.00
 0.22972831358000E+00 0.10000000000000E+01
 s    1 1.00
 0.95164440028000E-01 0.10000000000000E+01
 s    1 1.00
 0.48475401370000E-01 0.10000000000000E+01
 p    4 1.00
 0.34697232244000E+02 0.11327220003114E-01
 0.79582622826000E+01 0.76169659202087E-01
 0.23780826883000E+01 0.30192252202676E+00
 0.81433208183000E+00 0.72785027349547E+00
 p    1 1.00
 0.28887547253000E+00 0.10000000000000E+01
 p    1 1.00
 0.10056823671000E+00 0.10000000000000E+01
 d    1 1.00
 0.10970000000000E+01 0.10000000000000E+01
 d    1 1.00
 0.31800000000000E+00 0.10000000000000E+01
 d    1 1.00
 0.90985336424000E-01 0.10000000000000E+01
 f    1 1.00
 0.76100000000000E+00 0.10000000000000E+01
 
    2 0
 s    6 1.00
 0.13575349682000E+05 0.60645503603591E-03
 0.20352333680000E+04 0.46979088884982E-02
 0.46322562359000E+03 0.24332477647552E-01
 0.13120019598000E+03 0.97399968307759E-01
 0.42853015891000E+02 0.30195584253780E+00
 0.15584185766000E+02 0.66233609137875E+00
 s    2 1.00
 0.62067138508000E+01 0.65595308539952E+00
 0.25764896527000E+01 0.37585633285142E+00
 s    1 1.00
 0.57696339419000E+00 0.10000000000000E+01
 s    1 1.00
 0.22972831358000E+00 0.10000000000000E+01
 s    1 1.00
 0.95164440028000E-01 0.10000000000000E+01
 s    1 1.00
 0.48475401370000E-01 0.10000000000000E+01
 p    4 1.00
 0.34697232244000E+02 0.11327220003114E-01
 0.79582622826000E+01 0.76169659202087E-01
 0.23780826883000E+01 0.30192252202676E+00
 0.81433208183000E+00 0.72785027349547E+00
 p    1 1.00
 0.28887547253000E+00 0.10000000000000E+01
 p    1 1.00
 0.10056823671000E+00 0.10000000000000E+01
 d    1 1.00
 0.10970000000000E+01 0.10000000000000E+01
 d    1 1.00
 0.31800000000000E+00 0.10000000000000E+01
 d    1 1.00
 0.90985336424000E-01 0.10000000000000E+01
 f    1 1.00
 0.76100000000000E+00 0.10000000000000E+01
 
    3 0
 s    6 1.00
 0.13575349682000E+05 0.60645503603591E-03
 0.20352333680000E+04 0.46979088884982E-02
 0.46322562359000E+03 0.24332477647552E-01
 0.13120019598000E+03 0.97399968307759E-01
 0.42853015891000E+02 0.30195584253780E+00
 0.15584185766000E+02 0.66233609137875E+00
 s    2 1.00
 0.62067138508000E+01 0.65595308539952E+00
 0.25764896527000E+01 0.37585633285142E+00
 s    1 1.00
 0.57696339419000E+00 0.10000000000000E+01
 s    1 1.00
 0.22972831358000E+00 0.10000000000000E+01
 s    1 1.00
 0.95164440028000E-01 0.10000000000000E+01
 s    1 1.00
 0.48475401370000E-01 0.10000000000000E+01
 p    4 1.00
 0.34697232244000E+02 0.11327220003114E-01
 0.79582622826000E+01 0.76169659202087E-01
 0.23780826883000E+01 0.30192252202676E+00
 0.81433208183000E+00 0.72785027349547E+00
 p    1 1.00
 0.28887547253000E+00 0.10000000000000E+01
 p    1 1.00
 0.10056823671000E+00 0.10000000000000E+01
 d    1 1.00
 0.10970000000000E+01 0.10000000000000E+01
 d    1 1.00
 0.31800000000000E+00 0.10000000000000E+01
 d    1 1.00
 0.90985336424000E-01 0.10000000000000E+01
 f    1 1.00
 0.76100000000000E+00 0.10000000000000E+01
 
    4 0
 s    6 1.00
 0.13575349682000E+05 0.60645503603591E-03
 0.20352333680000E+04 0.46979088884982E-02
 0.46322562359000E+03 0.24332477647552E-01
 0.13120019598000E+03 0.97399968307759E-01
 0.42853015891000E+02 0.30195584253780E+00
 0.15584185766000E+02 0.66233609137875E+00
 s    2 1.00
 0.62067138508000E+01 0.65595308539952E+00
 0.25764896527000E+01 0.37585633285142E+00
 s    1 1.00
 0.57696339419000E+00 0.10000000000000E+01
 s    1 1.00
 0.22972831358000E+00 0.10000000000000E+01
 s    1 1.00
 0.95164440028000E-01 0.10000000000000E+01
 s    1 1.00
 0.48475401370000E-01 0.10000000000000E+01
 p    4 1.00
 0.34697232244000E+02 0.11327220003114E-01
 0.79582622826000E+01 0.76169659202087E-01
 0.23780826883000E+01 0.30192252202676E+00
 0.81433208183000E+00 0.72785027349547E+00
 p    1 1.00
 0.28887547253000E+00 0.10000000000000E+01
 p    1 1.00
 0.10056823671000E+00 0.10000000000000E+01
 d    1 1.00
 0.10970000000000E+01 0.10000000000000E+01
 d    1 1.00
 0.31800000000000E+00 0.10000000000000E+01
 d    1 1.00
 0.90985336424000E-01 0.10000000000000E+01
 f    1 1.00
 0.76100000000000E+00 0.10000000000000E+01
 
    5 0
 s    6 1.00
 0.13575349682000E+05 0.60645503603591E-03
 0.20352333680000E+04 0.46979088884982E-02
 0.46322562359000E+03 0.24332477647552E-01
 0.13120019598000E+03 0.97399968307759E-01
 0.42853015891000E+02 0.30195584253780E+00
 0.15584185766000E+02 0.66233609137875E+00
 s    2 1.00
 0.62067138508000E+01 0.65595308539952E+00
 0.25764896527000E+01 0.37585633285142E+00
 s    1 1.00
 0.57696339419000E+00 0.10000000000000E+01
 s    1 1.00
 0.22972831358000E+00 0.10000000000000E+01
 s    1 1.00
 0.95164440028000E-01 0.10000000000000E+01
 s    1 1.00
 0.48475401370000E-01 0.10000000000000E+01
 p    4 1.00
 0.34697232244000E+02 0.11327220003114E-01
 0.79582622826000E+01 0.76169659202087E-01
 0.23780826883000E+01 0.30192252202676E+00
 0.81433208183000E+00 0.72785027349547E+00
 p    1 1.00
 0.28887547253000E+00 0.10000000000000E+01
 p    1 1.00
 0.10056823671000E+00 0.10000000000000E+01
 d    1 1.00
 0.10970000000000E+01 0.10000000000000E+01
 d    1 1.00
 0.31800000000000E+00 0.10000000000000E+01
 d    1 1.00
 0.90985336424000E-01 0.10000000000000E+01
 f    1 1.00
 0.76100000000000E+00 0.10000000000000E+01
 
    6 0
 s    6 1.00
 0.13575349682000E+05 0.60645503603591E-03
 0.20352333680000E+04 0.46979088884982E-02
 0.46322562359000E+03 0.24332477647552E-01
 0.13120019598000E+03 0.97399968307759E-01
 0.42853015891000E+02 0.30195584253780E+00
 0.15584185766000E+02 0.66233609137875E+00
 s    2 1.00
 0.62067138508000E+01 0.65595308539952E+00
 0.25764896527000E+01 0.37585633285142E+00
 s    1 1.00
 0.57696339419000E+00 0.10000000000000E+01
 s    1 1.00
 0.22972831358000E+00 0.10000000000000E+01
 s    1 1.00
 0.95164440028000E-01 0.10000000000000E+01
 s    1 1.00
 0.48475401370000E-01 0.10000000000000E+01
 p    4 1.00
 0.34697232244000E+02 0.11327220003114E-01
 0.79582622826000E+01 0.76169659202087E-01
 0.23780826883000E+01 0.30192252202676E+00
 0.81433208183000E+00 0.72785027349547E+00
 p    1 1.00
 0.28887547253000E+00 0.10000000000000E+01
 p    1 1.00
 0.10056823671000E+00 0.10000000000000E+01
 d    1 1.00
 0.10970000000000E+01 0.10000000000000E+01
 d    1 1.00
 0.31800000000000E+00 0.10000000000000E+01
 d    1 1.00
 0.90985336424000E-01 0.10000000000000E+01
 f    1 1.00
 0.76100000000000E+00 0.10000000000000E+01
 
    7 0
 s    3 1.00
 0.34061341000000E+02 0.25439307208879E-01
 0.51235746000000E+01 0.19008594890375E+00
 0.11646626000000E+01 0.85244113011042E+00
 s    1 1.00
 0.32723041000000E+00 0.10000000000000E+01
 s    1 1.00
 0.10307241000000E+00 0.10000000000000E+01
 p    1 1.00
 0.80000000000000E+00 0.10000000000000E+01
 p    1 1.00
 0.95774129632000E-01 0.10000000000000E+01
 
    8 0
 s    3 1.00
 0.34061341000000E+02 0.25439307208879E-01
 0.51235746000000E+01 0.19008594890375E+00
 0.11646626000000E+01 0.85244113011042E+00
 s    1 1.00
 0.32723041000000E+00 0.10000000000000E+01
 s    1 1.00
 0.10307241000000E+00 0.10000000000000E+01
 p    1 1.00
 0.80000000000000E+00 0.10000000000000E+01
 p    1 1.00
 0.95774129632000E-01 0.10000000000000E+01
 
    9 0
 s    3 1.00
 0.34061341000000E+02 0.25439307208879E-01
 0.51235746000000E+01 0.19008594890375E+00
 0.11646626000000E+01 0.85244113011042E+00
 s    1 1.00
 0.32723041000000E+00 0.10000000000000E+01
 s    1 1.00
 0.10307241000000E+00 0.10000000000000E+01
 p    1 1.00
 0.80000000000000E+00 0.10000000000000E+01
 p    1 1.00
 0.95774129632000E-01 0.10000000000000E+01
 
   10 0
 s    3 1.00
 0.34061341000000E+02 0.25439307208879E-01
 0.51235746000000E+01 0.19008594890375E+00
 0.11646626000000E+01 0.85244113011042E+00
 s    1 1.00
 0.32723041000000E+00 0.10000000000000E+01
 s    1 1.00
 0.10307241000000E+00 0.10000000000000E+01
 p    1 1.00
 0.80000000000000E+00 0.10000000000000E+01
 p    1 1.00
 0.95774129632000E-01 0.10000000000000E+01
 
   11 0
 s    6 1.00
 0.19730800647000E+05 0.58626402628763E-03
 0.29578958745000E+04 0.45428820586397E-02
 0.67322133595000E+03 0.23558413450084E-01
 0.19068249494000E+03 0.94709193292923E-01
 0.62295441898000E+02 0.29719784913376E+00
 0.22654161182000E+02 0.66916246895232E+00
 s    2 1.00
 0.89791477428000E+01 0.64596683630063E+00
 0.36863002370000E+01 0.38700574393705E+00
 s    1 1.00
 0.84660076805000E+00 0.10000000000000E+01
 s    1 1.00
 0.33647133771000E+00 0.10000000000000E+01
 s    1 1.00
 0.13647653675000E+00 0.10000000000000E+01
 s    1 1.00
 0.68441605847000E-01 0.10000000000000E+01
 p    4 1.00
 0.49200380510000E+02 0.11448825101764E-01
 0.11346790537000E+02 0.78422337970864E-01
 0.34273972411000E+01 0.30818094738830E+00
 0.11785525134000E+01 0.72027196368413E+00
 p    1 1.00
 0.41642204972000E+00 0.10000000000000E+01
 p    1 1.00
 0.14260826011000E+00 0.10000000000000E+01
 d    1 1.00
 0.16540000000000E+01 0.10000000000000E+01
 d    1 1.00
 0.46900000000000E+00 0.10000000000000E+01
 d    1 1.00
 0.12829642058000E+00 0.10000000000000E+01
 f    1 1.00
 0.10930000000000E+01 0.10000000000000E+01
 
   12 0
 s    6 1.00
 0.27032382631000E+05 0.57227335211155E-03
 0.40523871392000E+04 0.44353233492995E-02
 0.92232722710000E+03 0.23020107706038E-01
 0.26124070989000E+03 0.92822490667928E-01
 0.85354641351000E+02 0.29378500009671E+00
 0.31035035245000E+02 0.67401604501641E+00
 s    2 1.00
 0.12260860728000E+02 0.63839937025506E+00
 0.49987076005000E+01 0.39534587125718E+00
 s    1 1.00
 0.11703108158000E+01 0.10000000000000E+01
 s    1 1.00
 0.46474740994000E+00 0.10000000000000E+01
 s    1 1.00
 0.18504536357000E+00 0.10000000000000E+01
 s    1 1.00
 0.70288026270000E-01 0.10000000000000E+01
 p    4 1.00
 0.63274954801000E+02 0.12018332222616E-01
 0.14627049379000E+02 0.83005421790056E-01
 0.44501223456000E+01 0.31991743925964E+00
 0.15275799647000E+01 0.70715542916104E+00
 p    1 1.00
 0.52935117943000E+00 0.10000000000000E+01
 p    1 1.00
 0.17478421270000E+00 0.10000000000000E+01
 p    1 1.00
 0.51112745706000E-01 0.10000000000000E+01
 d    1 1.00
 0.23140000000000E+01 0.10000000000000E+01
 d    1 1.00
 0.64500000000000E+00 0.10000000000000E+01
 d    1 1.00
 0.14696477366000E+00 0.10000000000000E+01
 f    1 1.00
 0.14280000000000E+01 0.10000000000000E+01
 
   13 0
 s    6 1.00
 0.27032382631000E+05 0.57227335211155E-03
 0.40523871392000E+04 0.44353233492995E-02
 0.92232722710000E+03 0.23020107706038E-01
 0.26124070989000E+03 0.92822490667928E-01
 0.85354641351000E+02 0.29378500009671E+00
 0.31035035245000E+02 0.67401604501641E+00
 s    2 1.00
 0.12260860728000E+02 0.63839937025506E+00
 0.49987076005000E+01 0.39534587125718E+00
 s    1 1.00
 0.11703108158000E+01 0.10000000000000E+01
 s    1 1.00
 0.46474740994000E+00 0.10000000000000E+01
 s    1 1.00
 0.18504536357000E+00 0.10000000000000E+01
 s    1 1.00
 0.70288026270000E-01 0.10000000000000E+01
 p    4 1.00
 0.63274954801000E+02 0.12018332222616E-01
 0.14627049379000E+02 0.83005421790056E-01
 0.44501223456000E+01 0.31991743925964E+00
 0.15275799647000E+01 0.70715542916104E+00
 p    1 1.00
 0.52935117943000E+00 0.10000000000000E+01
 p    1 1.00
 0.17478421270000E+00 0.10000000000000E+01
 p    1 1.00
 0.51112745706000E-01 0.10000000000000E+01
 d    1 1.00
 0.23140000000000E+01 0.10000000000000E+01
 d    1 1.00
 0.64500000000000E+00 0.10000000000000E+01
 d    1 1.00
 0.14696477366000E+00 0.10000000000000E+01
 f    1 1.00
 0.14280000000000E+01 0.10000000000000E+01
 
   14 0
 s    6 1.00
 0.19730800647000E+05 0.58626402628763E-03
 0.29578958745000E+04 0.45428820586397E-02
 0.67322133595000E+03 0.23558413450084E-01
 0.19068249494000E+03 0.94709193292923E-01
 0.62295441898000E+02 0.29719784913376E+00
 0.22654161182000E+02 0.66916246895232E+00
 s    2 1.00
 0.89791477428000E+01 0.64596683630063E+00
 0.36863002370000E+01 0.38700574393705E+00
 s    1 1.00
 0.84660076805000E+00 0.10000000000000E+01
 s    1 1.00
 0.33647133771000E+00 0.10000000000000E+01
 s    1 1.00
 0.13647653675000E+00 0.10000000000000E+01
 s    1 1.00
 0.68441605847000E-01 0.10000000000000E+01
 p    4 1.00
 0.49200380510000E+02 0.11448825101764E-01
 0.11346790537000E+02 0.78422337970864E-01
 0.34273972411000E+01 0.30818094738830E+00
 0.11785525134000E+01 0.72027196368413E+00
 p    1 1.00
 0.41642204972000E+00 0.10000000000000E+01
 p    1 1.00
 0.14260826011000E+00 0.10000000000000E+01
 d    1 1.00
 0.16540000000000E+01 0.10000000000000E+01
 d    1 1.00
 0.46900000000000E+00 0.10000000000000E+01
 d    1 1.00
 0.12829642058000E+00 0.10000000000000E+01
 f    1 1.00
 0.10930000000000E+01 0.10000000000000E+01
 
   15 0
 s    3 1.00
 0.34061341000000E+02 0.25439307208879E-01
 0.51235746000000E+01 0.19008594890375E+00
 0.11646626000000E+01 0.85244113011042E+00
 s    1 1.00
 0.32723041000000E+00 0.10000000000000E+01
 s    1 1.00
 0.10307241000000E+00 0.10000000000000E+01
 p    1 1.00
 0.80000000000000E+00 0.10000000000000E+01
 p    1 1.00
 0.95774129632000E-01 0.10000000000000E+01
 
   16 0
 s    3 1.00
 0.34061341000000E+02 0.25439307208879E-01
 0.51235746000000E+01 0.19008594890375E+00
 0.11646626000000E+01 0.85244113011042E+00
 s    1 1.00
 0.32723041000000E+00 0.10000000000000E+01
 s    1 1.00
 0.10307241000000E+00 0.10000000000000E+01
 p    1 1.00
 0.80000000000000E+00 0.10000000000000E+01
 p    1 1.00
 0.95774129632000E-01 0.10000000000000E+01
 
[MO]
 Sym= X
 Ene= -0.092161
 Spin= Alpha
 Occup= -0.092161
         1    3.813760E-04
         2    8.827500E-04
         3   -2.362506E-03
         4    4.922584E-03
         5   -2.711841E-02
         6    1.980139E-02
         7    5.180581E-03
         8    1.134148E-04
         9    1.835042E-02
        10   -2.888860E-03
        11    7.061917E-04
        12    1.944888E-02
        13   -4.766156E-02
        14    1.665418E-02
        15    3.707079E-03
        16   -9.728661E-05
        17    1.103423E-04
        18   -1.305570E-05
        19    3.819086E-05
        20   -5.605669E-03
        21    2.083379E-03
        22    1.063417E-03
        23   -6.106390E-04
        24   -4.527781E-04
        25    1.291750E-03
        26   -1.255984E-02
        27    4.271355E-03
        28    4.731592E-03
        29   -4.306186E-03
        30   -4.254067E-04
        31   -2.699185E-03
        32    5.282507E-03
        33   -1.020019E-02
        34   -3.076743E-05
        35    8.411888E-06
        36   -2.830127E-04
        37    1.480440E-05
        38   -5.669136E-06
        39    8.654976E-04
        40    2.647444E-05
        41   -5.616596E-06
        42   -4.857962E-04
        43    4.746655E-04
        44   -1.990663E-05
        45   -3.871204E-05
        46   -4.331897E-04
        47    5.814937E-03
        48    7.242161E-02
        49   -1.166128E-02
        50   -1.674180E-03
        51    1.386309E-06
        52   -1.165027E-01
        53   -2.723164E-03
        54    6.310641E-06
        55   -1.225194E-01
        56   -1.961196E-02
        57   -5.632541E-04
        58   -1.540834E-01
        59   -2.011993E-04
        60    1.923593E-04
        61    8.839922E-06
        62   -9.230210E-08
        63   -1.365586E-03
        64    4.372969E-07
        65   -8.197005E-04
        66    1.277361E-03
        67   -4.576608E-04
        68   -1.293617E-06
        69   -3.956265E-03
        70    4.750467E-07
        71   -2.103349E-02
        72    2.311942E-02
        73   -2.085926E-03
        74    9.287102E-05
        75    1.048169E-03
        76   -1.689828E-05
        77   -2.229398E-06
        78   -2.353653E-08
        79    5.012972E-04
        80   -6.405855E-06
        81    4.578600E-08
        82   -3.276827E-04
        83    9.396905E-06
        84   -1.420843E-08
        85   -3.448781E-04
        86   -3.587014E-08
        87    3.811677E-04
        88    8.822635E-04
        89   -2.361215E-03
        90    4.925735E-03
        91   -2.860452E-02
        92    1.980756E-02
        93    5.184763E-03
        94   -1.178780E-04
        95    1.832949E-02
        96   -2.863155E-03
        97   -7.099165E-04
        98    1.942767E-02
        99   -4.782246E-02
       100   -1.720888E-02
       101    3.662886E-03
       102   -9.738982E-05
       103    1.104294E-04
       104   -1.303954E-05
       105   -3.847923E-05
       106   -5.605312E-03
       107   -2.083448E-03
       108    1.057773E-03
       109   -6.057066E-04
       110   -4.520659E-04
       111   -1.291485E-03
       112   -1.255853E-02
       113   -4.271615E-03
       114    4.817760E-03
       115   -4.407181E-03
       116   -4.105789E-04
       117    2.603623E-03
       118    5.266400E-03
       119    1.018496E-02
       120   -3.075242E-05
       121   -8.393865E-06
       122   -2.828933E-04
       123    1.485739E-05
       124    5.597970E-06
       125    8.653721E-04
       126    2.640130E-05
       127    5.663582E-06
       128   -4.858309E-04
       129   -4.746622E-04
       130   -2.526661E-04
       131   -5.531426E-04
       132   -6.902287E-04
       133    1.729105E-02
       134   -5.195363E-03
       135   -2.363323E-02
       136   -4.840217E-03
       137    1.514643E-03
       138    1.624549E-01
       139   -1.807314E-02
       140    1.090250E-02
       141    1.645745E-01
       142   -2.120674E-02
       143   -1.457958E-02
       144    9.668021E-02
       145   -3.490908E-04
       146    4.044658E-04
       147   -5.537501E-05
       148    3.144075E-06
       149    1.620222E-04
       150    2.966526E-03
       151   -1.277589E-03
       152    1.433706E-03
       153   -1.561170E-04
       154   -2.876868E-03
       155   -2.479610E-03
       156    4.649708E-03
       157   -1.282034E-02
       158    9.756524E-03
       159    3.063818E-03
       160    1.836427E-02
       161    5.050333E-03
       162   -1.385798E-02
       163   -3.533195E-05
       164    1.931261E-05
       165   -9.873103E-04
       166   -3.251672E-05
       167    2.681742E-05
       168    3.930322E-04
       169    7.991950E-05
       170   -5.272801E-05
       171    9.315836E-04
       172   -2.513320E-04
       173    1.862781E-03
       174    4.243148E-03
       175   -4.307370E-03
       176   -3.599720E-02
       177    7.896346E-02
       178   -9.544386E-03
       179    1.796670E-02
       180   -3.004961E-06
       181    1.014815E-01
       182    2.081724E-03
       183   -1.284004E-05
       184    1.049616E-01
       185   -7.170217E-02
       186    5.951937E-04
       187    1.350822E-01
       188   -9.903075E-04
       189    6.232214E-04
       190    3.670861E-04
       191   -2.398022E-07
       192    1.104982E-02
       193    3.775617E-07
       194    3.073388E-03
       195   -6.789227E-03
       196    3.715839E-03
       197   -3.037445E-06
       198    2.677490E-02
       199    4.381724E-07
       200    1.445079E-02
       201   -1.560335E-02
       202    1.152561E-03
       203    1.596821E-04
       204    1.534644E-02
       205    1.763677E-05
       206    2.084122E-04
       207   -3.527617E-09
       208   -2.062683E-04
       209   -1.443368E-04
       210   -5.080922E-08
       211   -1.266953E-03
       212   -1.352775E-04
       213    5.554201E-08
       214    1.543691E-03
       215    3.359440E-08
       216   -2.530957E-04
       217   -5.540783E-04
       218   -6.889111E-04
       219    1.730137E-02
       220   -6.890124E-03
       221   -2.359218E-02
       222   -4.837520E-03
       223   -1.508210E-03
       224    1.624734E-01
       225   -1.808750E-02
       226   -1.090729E-02
       227    1.645954E-01
       228   -2.111459E-02
       229    1.524378E-02
       230    9.664412E-02
       231   -3.489672E-04
       232    4.046038E-04
       233   -5.563661E-05
       234   -3.569304E-06
       235    1.624720E-04
       236   -2.966640E-03
       237   -1.282667E-03
       238    1.438988E-03
       239   -1.563213E-04
       240    2.878877E-03
       241   -2.478055E-03
       242   -4.649150E-03
       243   -1.272518E-02
       244    9.659548E-03
       245    3.065628E-03
       246   -1.843962E-02
       247    5.069931E-03
       248    1.387836E-02
       249   -3.536982E-05
       250   -1.937079E-05
       251   -9.874712E-04
       252   -3.262934E-05
       253   -2.672447E-05
       254    3.932159E-04
       255    8.008294E-05
       256    5.271312E-05
       257    9.316158E-04
       258    2.512986E-04
       259    1.184467E-03
       260    1.163595E-03
       261    2.911516E-02
       262   -5.157045E-06
       263   -7.682379E-05
       264    5.151378E-04
       265   -8.390323E-03
       266   -1.678506E-03
       267    5.392041E-03
       268    1.188021E-03
       269    1.162370E-03
       270    2.905343E-02
       271   -4.801618E-06
       272    7.640900E-05
       273    5.142078E-04
       274   -8.471208E-03
       275    1.638900E-03
       276    5.389882E-03
       277    1.333356E-03
       278    5.085814E-03
       279   -6.195651E-02
       280   -4.588105E-05
       281    2.757116E-04
       282    6.398257E-03
       283   -3.469817E-03
       284   -5.080766E-03
       285   -2.366496E-03
       286    1.337150E-03
       287    5.082524E-03
       288   -6.209698E-02
       289   -4.557580E-05
       290   -2.752832E-04
       291    6.399214E-03
       292   -3.424344E-03
       293    5.122462E-03
       294   -2.371846E-03
       295    1.753010E-04
       296    4.119027E-04
       297   -4.850083E-04
       298   -1.330139E-03
       299    1.299353E-02
       300    3.304331E-03
       301    2.907745E-03
       302   -1.792181E-06
       303   -2.425191E-02
       304    2.176245E-03
       305   -1.855951E-06
       306   -2.588479E-02
       307   -4.404298E-03
       308    5.039987E-06
       309   -2.887818E-03
       310   -1.375100E-04
       311    1.476353E-04
       312   -1.012535E-05
       313   -3.465269E-07
       314    2.466254E-03
       315    8.177222E-08
       316   -3.150868E-04
       317    2.704801E-04
       318    4.460663E-05
       319   -8.890392E-07
       320    7.675963E-03
       321    2.567580E-07
       322    8.514320E-04
       323   -4.524064E-03
       324    3.672632E-03
       325   -1.515622E-05
       326    1.127966E-03
       327    2.954512E-06
       328    1.052686E-05
       329    7.402654E-08
       330    7.298155E-05
       331   -2.424088E-06
       332   -1.006701E-07
       333   -4.407473E-04
       334   -1.169917E-05
       335    1.353024E-09
       336    3.428322E-04
       337    7.979252E-09
       338    4.450664E-05
       339    1.020741E-04
       340   -8.597604E-05
       341   -1.198861E-03
       342    1.031248E-02
       343    1.721098E-03
       344   -3.134810E-03
       345    6.774680E-05
       346    3.909917E-02
       347   -2.987538E-03
       348    2.257931E-04
       349    3.649292E-02
       350   -3.750293E-03
       351    8.788061E-04
       352    3.180345E-02
       353   -6.261650E-04
       354    2.093629E-04
       355    4.220362E-03
       356   -3.780097E-06
       357    1.699448E-05
       358   -1.321438E-05
       359   -2.474216E-05
       360    1.039670E-04
       361    1.115266E-04
       362    3.651628E-05
       363    3.012679E-05
       364   -6.664307E-05
       365   -6.249421E-05
       366   -2.281676E-05
       367    4.420230E-04
       368    1.234011E-04
       369   -1.428114E-05
       370   -1.091200E-04
       371   -2.728786E-05
       372    1.197980E-04
       373    8.506540E-05
       374    4.425813E-06
       375    1.753041E-06
       376   -4.176042E-06
       377   -8.772012E-06
       378    4.166736E-06
       379   -5.163297E-05
       380    2.834160E-06
       381   -6.518687E-06
       382    5.723572E-05
       383   -3.573201E-05
       384    4.452664E-05
       385    1.021306E-04
       386   -8.602906E-05
       387   -1.198609E-03
       388    1.032726E-02
       389    1.707446E-03
       390   -3.150289E-03
       391   -5.190034E-05
       392    3.910289E-02
       393   -3.001769E-03
       394   -2.121790E-04
       395    3.649659E-02
       396   -3.750982E-03
       397   -8.735660E-04
       398    3.180133E-02
       399   -6.214716E-04
       400   -2.105921E-04
       401    4.221853E-03
       402   -3.620325E-06
       403    1.677882E-05
       404   -1.315850E-05
       405    2.473641E-05
       406    1.039275E-04
       407   -1.115719E-04
       408    3.677633E-05
       409    2.974329E-05
       410   -6.651962E-05
       411    6.246443E-05
       412   -2.285692E-05
       413   -4.420556E-04
       414    1.253185E-04
       415   -1.627482E-05
       416   -1.090437E-04
       417    2.741731E-05
       418    1.198115E-04
       419   -8.472979E-05
       420    4.404310E-06
       421   -1.698389E-06
       422   -4.185035E-06
       423   -8.737020E-06
       424   -4.221720E-06
       425   -5.162715E-05
       426    2.828018E-06
       427    6.500348E-06
       428    5.724197E-05
       429    3.574221E-05
       430   -8.061852E-03
       431   -1.915962E-02
       432    2.983859E-02
       433    4.895695E-02
       434    1.501305E-02
       435    9.878391E-02
       436   -3.213708E-02
       437    8.649619E-06
       438   -3.048619E-01
       439   -3.638403E-02
       440    2.089838E-06
       441   -2.993299E-01
       442   -4.262041E-02
       443   -6.922047E-05
       444   -2.370494E-01
       445    1.944849E-04
       446    1.210604E-04
       447   -3.155452E-04
       448   -2.114306E-07
       449    5.445768E-04
       450    2.388389E-07
       451    2.966815E-04
       452    2.999901E-03
       453   -3.296583E-03
       454    2.484561E-06
       455    2.943083E-03
       456    3.491325E-07
       457    2.584228E-03
       458    7.766616E-03
       459   -1.035084E-02
       460    8.662363E-06
       461    2.437423E-03
       462    1.259068E-07
       463   -2.337951E-04
       464    4.335407E-08
       465    1.216148E-03
       466   -1.579507E-04
       467    1.662079E-08
       468   -7.081033E-04
       469    4.716197E-04
       470   -7.478638E-08
       471   -9.235304E-04
       472    3.879560E-08
       473   -1.495662E-02
       474   -3.013689E-02
       475   -5.725301E-02
       476   -3.897933E-03
       477   -3.195532E-03
       478   -1.497650E-02
       479   -9.058920E-04
       480   -6.223123E-03
       481   -1.536376E-02
       482   -1.495095E-02
       483   -3.007996E-02
       484   -5.698848E-02
       485   -3.894464E-03
       486    3.190914E-03
       487   -1.497940E-02
       488   -8.601709E-04
       489    6.193275E-03
       490   -1.538033E-02
 Sym= X
 Ene= -0.845483
 Spin= Alpha
 Occup= -0.845483
         1   -2.361436E-05
         2   -5.422844E-05
         3    1.400027E-04
         4   -2.181219E-04
         5   -1.486237E-03
         6   -5.272080E-04
         7    8.845130E-05
         8    1.339368E-04
         9   -1.038210E-01
        10    5.157730E-04
        11   -2.854380E-05
        12   -1.040886E-01
        13   -1.198353E-03
        14    1.545903E-03
        15   -7.091777E-02
        16   -5.301160E-06
        17    3.102486E-06
        18    2.198674E-06
        19    2.210800E-06
        20    2.499740E-03
        21    3.486819E-04
        22   -9.071777E-05
        23    6.956896E-05
        24    2.114881E-05
        25    4.835773E-06
        26    3.823679E-03
        27    5.704211E-05
        28   -4.864288E-05
        29    9.374317E-05
        30   -4.510029E-05
        31    5.320341E-05
        32   -2.872953E-04
        33    2.183963E-03
        34    4.043757E-06
        35    2.235455E-07
        36    7.099248E-04
        37   -8.523439E-07
        38   -3.384080E-08
        39   -8.398319E-04
        40   -4.572925E-06
        41   -2.660769E-07
        42   -1.126321E-04
        43    4.832088E-05
        44    9.324264E-08
        45    2.618316E-07
        46   -3.512144E-06
        47    1.230500E-05
        48    7.350522E-04
        49    7.156567E-05
        50   -6.198453E-07
        51   -7.800245E-05
        52   -9.459434E-07
        53   -9.204120E-06
        54   -2.551610E-04
        55    8.491806E-07
        56   -3.110824E-04
        57    2.437516E-03
        58    1.685329E-05
        59   -8.184833E-08
        60    1.001040E-07
        61   -1.825564E-08
        62    7.949581E-06