[Molden Format]
[Title]
ADC(2) - opt by CAM-B3LYP gaussian                                              
[Atoms] AU
 c     1    6 -.12588789760523E+01 -.22833296301999E+01 -.24948636837890E-01
 c     2    6 -.25574931053929E+01 0.00000000000000E+00 -.23691968959520E-01
 c     3    6 -.12588770863262E+01 0.22833296301999E+01 -.24954306016290E-01
 c     4    6 0.13320886199507E+01 0.22850077070059E+01 -.26951746538750E-01
 c     5    6 0.26868238359857E+01 0.00000000000000E+00 -.26437741030600E-01
 c     6    6 0.13320867302245E+01 -.22850077070059E+01 -.26946077360350E-01
 h     7    1 -.22977937121289E+01 -.40382313624087E+01 -.22371050392630E-01
 h     8    1 -.22977918224027E+01 0.40382332521348E+01 -.22380499023300E-01
 h     9    1 0.23512179234159E+01 0.40571966538783E+01 -.29234535707270E-01
 h    10    1 0.23512179234159E+01 -.40571947641522E+01 -.29223197350470E-01
 n    11    7 -.52733186864479E+01 0.00000000000000E+00 -.17996334395000E-01
 o    12    8 -.63812046469225E+01 0.20269448165729E+01 -.15568036314240E-01
 o    13    8 -.63812027571964E+01 -.20269467062990E+01 -.15583154123310E-01
 n    14    7 0.52441127328484E+01 0.00000000000000E+00 -.70347417454330E-01
 h    15    1 0.62045074583774E+01 0.16172030580838E+01 0.18832018534119E+00
 h    16    1 0.62045055686513E+01 -.16172049478099E+01 0.18831451616279E+00
[GTO]
    1 0
 s    6 1.00
 0.13575349682000E+05 0.60645503603591E-03
 0.20352333680000E+04 0.46979088884982E-02
 0.46322562359000E+03 0.24332477647552E-01
 0.13120019598000E+03 0.97399968307759E-01
 0.42853015891000E+02 0.30195584253780E+00
 0.15584185766000E+02 0.66233609137875E+00
 s    2 1.00
 0.62067138508000E+01 0.65595308539952E+00
 0.25764896527000E+01 0.37585633285142E+00
 s    1 1.00
 0.57696339419000E+00 0.10000000000000E+01
 s    1 1.00
 0.22972831358000E+00 0.10000000000000E+01
 s    1 1.00
 0.95164440028000E-01 0.10000000000000E+01
 s    1 1.00
 0.48475401370000E-01 0.10000000000000E+01
 p    4 1.00
 0.34697232244000E+02 0.11327220003114E-01
 0.79582622826000E+01 0.76169659202087E-01
 0.23780826883000E+01 0.30192252202676E+00
 0.81433208183000E+00 0.72785027349547E+00
 p    1 1.00
 0.28887547253000E+00 0.10000000000000E+01
 p    1 1.00
 0.10056823671000E+00 0.10000000000000E+01
 d    1 1.00
 0.10970000000000E+01 0.10000000000000E+01
 d    1 1.00
 0.31800000000000E+00 0.10000000000000E+01
 d    1 1.00
 0.90985336424000E-01 0.10000000000000E+01
 f    1 1.00
 0.76100000000000E+00 0.10000000000000E+01
 
    2 0
 s    6 1.00
 0.13575349682000E+05 0.60645503603591E-03
 0.20352333680000E+04 0.46979088884982E-02
 0.46322562359000E+03 0.24332477647552E-01
 0.13120019598000E+03 0.97399968307759E-01
 0.42853015891000E+02 0.30195584253780E+00
 0.15584185766000E+02 0.66233609137875E+00
 s    2 1.00
 0.62067138508000E+01 0.65595308539952E+00
 0.25764896527000E+01 0.37585633285142E+00
 s    1 1.00
 0.57696339419000E+00 0.10000000000000E+01
 s    1 1.00
 0.22972831358000E+00 0.10000000000000E+01
 s    1 1.00
 0.95164440028000E-01 0.10000000000000E+01
 s    1 1.00
 0.48475401370000E-01 0.10000000000000E+01
 p    4 1.00
 0.34697232244000E+02 0.11327220003114E-01
 0.79582622826000E+01 0.76169659202087E-01
 0.23780826883000E+01 0.30192252202676E+00
 0.81433208183000E+00 0.72785027349547E+00
 p    1 1.00
 0.28887547253000E+00 0.10000000000000E+01
 p    1 1.00
 0.10056823671000E+00 0.10000000000000E+01
 d    1 1.00
 0.10970000000000E+01 0.10000000000000E+01
 d    1 1.00
 0.31800000000000E+00 0.10000000000000E+01
 d    1 1.00
 0.90985336424000E-01 0.10000000000000E+01
 f    1 1.00
 0.76100000000000E+00 0.10000000000000E+01
 
    3 0
 s    6 1.00
 0.13575349682000E+05 0.60645503603591E-03
 0.20352333680000E+04 0.46979088884982E-02
 0.46322562359000E+03 0.24332477647552E-01
 0.13120019598000E+03 0.97399968307759E-01
 0.42853015891000E+02 0.30195584253780E+00
 0.15584185766000E+02 0.66233609137875E+00
 s    2 1.00
 0.62067138508000E+01 0.65595308539952E+00
 0.25764896527000E+01 0.37585633285142E+00
 s    1 1.00
 0.57696339419000E+00 0.10000000000000E+01
 s    1 1.00
 0.22972831358000E+00 0.10000000000000E+01
 s    1 1.00
 0.95164440028000E-01 0.10000000000000E+01
 s    1 1.00
 0.48475401370000E-01 0.10000000000000E+01
 p    4 1.00
 0.34697232244000E+02 0.11327220003114E-01
 0.79582622826000E+01 0.76169659202087E-01
 0.23780826883000E+01 0.30192252202676E+00
 0.81433208183000E+00 0.72785027349547E+00
 p    1 1.00
 0.28887547253000E+00 0.10000000000000E+01
 p    1 1.00
 0.10056823671000E+00 0.10000000000000E+01
 d    1 1.00
 0.10970000000000E+01 0.10000000000000E+01
 d    1 1.00
 0.31800000000000E+00 0.10000000000000E+01
 d    1 1.00
 0.90985336424000E-01 0.10000000000000E+01
 f    1 1.00
 0.76100000000000E+00 0.10000000000000E+01
 
    4 0
 s    6 1.00
 0.13575349682000E+05 0.60645503603591E-03
 0.20352333680000E+04 0.46979088884982E-02
 0.46322562359000E+03 0.24332477647552E-01
 0.13120019598000E+03 0.97399968307759E-01
 0.42853015891000E+02 0.30195584253780E+00
 0.15584185766000E+02 0.66233609137875E+00
 s    2 1.00
 0.62067138508000E+01 0.65595308539952E+00
 0.25764896527000E+01 0.37585633285142E+00
 s    1 1.00
 0.57696339419000E+00 0.10000000000000E+01
 s    1 1.00
 0.22972831358000E+00 0.10000000000000E+01
 s    1 1.00
 0.95164440028000E-01 0.10000000000000E+01
 s    1 1.00
 0.48475401370000E-01 0.10000000000000E+01
 p    4 1.00
 0.34697232244000E+02 0.11327220003114E-01
 0.79582622826000E+01 0.76169659202087E-01
 0.23780826883000E+01 0.30192252202676E+00
 0.81433208183000E+00 0.72785027349547E+00
 p    1 1.00
 0.28887547253000E+00 0.10000000000000E+01
 p    1 1.00
 0.10056823671000E+00 0.10000000000000E+01
 d    1 1.00
 0.10970000000000E+01 0.10000000000000E+01
 d    1 1.00
 0.31800000000000E+00 0.10000000000000E+01
 d    1 1.00
 0.90985336424000E-01 0.10000000000000E+01
 f    1 1.00
 0.76100000000000E+00 0.10000000000000E+01
 
    5 0
 s    6 1.00
 0.13575349682000E+05 0.60645503603591E-03
 0.20352333680000E+04 0.46979088884982E-02
 0.46322562359000E+03 0.24332477647552E-01
 0.13120019598000E+03 0.97399968307759E-01
 0.42853015891000E+02 0.30195584253780E+00
 0.15584185766000E+02 0.66233609137875E+00
 s    2 1.00
 0.62067138508000E+01 0.65595308539952E+00
 0.25764896527000E+01 0.37585633285142E+00
 s    1 1.00
 0.57696339419000E+00 0.10000000000000E+01
 s    1 1.00
 0.22972831358000E+00 0.10000000000000E+01
 s    1 1.00
 0.95164440028000E-01 0.10000000000000E+01
 s    1 1.00
 0.48475401370000E-01 0.10000000000000E+01
 p    4 1.00
 0.34697232244000E+02 0.11327220003114E-01
 0.79582622826000E+01 0.76169659202087E-01
 0.23780826883000E+01 0.30192252202676E+00
 0.81433208183000E+00 0.72785027349547E+00
 p    1 1.00
 0.28887547253000E+00 0.10000000000000E+01
 p    1 1.00
 0.10056823671000E+00 0.10000000000000E+01
 d    1 1.00
 0.10970000000000E+01 0.10000000000000E+01
 d    1 1.00
 0.31800000000000E+00 0.10000000000000E+01
 d    1 1.00
 0.90985336424000E-01 0.10000000000000E+01
 f    1 1.00
 0.76100000000000E+00 0.10000000000000E+01
 
    6 0
 s    6 1.00
 0.13575349682000E+05 0.60645503603591E-03
 0.20352333680000E+04 0.46979088884982E-02
 0.46322562359000E+03 0.24332477647552E-01
 0.13120019598000E+03 0.97399968307759E-01
 0.42853015891000E+02 0.30195584253780E+00
 0.15584185766000E+02 0.66233609137875E+00
 s    2 1.00
 0.62067138508000E+01 0.65595308539952E+00
 0.25764896527000E+01 0.37585633285142E+00
 s    1 1.00
 0.57696339419000E+00 0.10000000000000E+01
 s    1 1.00
 0.22972831358000E+00 0.10000000000000E+01
 s    1 1.00
 0.95164440028000E-01 0.10000000000000E+01
 s    1 1.00
 0.48475401370000E-01 0.10000000000000E+01
 p    4 1.00
 0.34697232244000E+02 0.11327220003114E-01
 0.79582622826000E+01 0.76169659202087E-01
 0.23780826883000E+01 0.30192252202676E+00
 0.81433208183000E+00 0.72785027349547E+00
 p    1 1.00
 0.28887547253000E+00 0.10000000000000E+01
 p    1 1.00
 0.10056823671000E+00 0.10000000000000E+01
 d    1 1.00
 0.10970000000000E+01 0.10000000000000E+01
 d    1 1.00
 0.31800000000000E+00 0.10000000000000E+01
 d    1 1.00
 0.90985336424000E-01 0.10000000000000E+01
 f    1 1.00
 0.76100000000000E+00 0.10000000000000E+01
 
    7 0
 s    3 1.00
 0.34061341000000E+02 0.25439307208879E-01
 0.51235746000000E+01 0.19008594890375E+00
 0.11646626000000E+01 0.85244113011042E+00
 s    1 1.00
 0.32723041000000E+00 0.10000000000000E+01
 s    1 1.00
 0.10307241000000E+00 0.10000000000000E+01
 p    1 1.00
 0.80000000000000E+00 0.10000000000000E+01
 p    1 1.00
 0.95774129632000E-01 0.10000000000000E+01
 
    8 0
 s    3 1.00
 0.34061341000000E+02 0.25439307208879E-01
 0.51235746000000E+01 0.19008594890375E+00
 0.11646626000000E+01 0.85244113011042E+00
 s    1 1.00
 0.32723041000000E+00 0.10000000000000E+01
 s    1 1.00
 0.10307241000000E+00 0.10000000000000E+01
 p    1 1.00
 0.80000000000000E+00 0.10000000000000E+01
 p    1 1.00
 0.95774129632000E-01 0.10000000000000E+01
 
    9 0
 s    3 1.00
 0.34061341000000E+02 0.25439307208879E-01
 0.51235746000000E+01 0.19008594890375E+00
 0.11646626000000E+01 0.85244113011042E+00
 s    1 1.00
 0.32723041000000E+00 0.10000000000000E+01
 s    1 1.00
 0.10307241000000E+00 0.10000000000000E+01
 p    1 1.00
 0.80000000000000E+00 0.10000000000000E+01
 p    1 1.00
 0.95774129632000E-01 0.10000000000000E+01
 
   10 0
 s    3 1.00
 0.34061341000000E+02 0.25439307208879E-01
 0.51235746000000E+01 0.19008594890375E+00
 0.11646626000000E+01 0.85244113011042E+00
 s    1 1.00
 0.32723041000000E+00 0.10000000000000E+01
 s    1 1.00
 0.10307241000000E+00 0.10000000000000E+01
 p    1 1.00
 0.80000000000000E+00 0.10000000000000E+01
 p    1 1.00
 0.95774129632000E-01 0.10000000000000E+01
 
   11 0
 s    6 1.00
 0.19730800647000E+05 0.58626402628763E-03
 0.29578958745000E+04 0.45428820586397E-02
 0.67322133595000E+03 0.23558413450084E-01
 0.19068249494000E+03 0.94709193292923E-01
 0.62295441898000E+02 0.29719784913376E+00
 0.22654161182000E+02 0.66916246895232E+00
 s    2 1.00
 0.89791477428000E+01 0.64596683630063E+00
 0.36863002370000E+01 0.38700574393705E+00
 s    1 1.00
 0.84660076805000E+00 0.10000000000000E+01
 s    1 1.00
 0.33647133771000E+00 0.10000000000000E+01
 s    1 1.00
 0.13647653675000E+00 0.10000000000000E+01
 s    1 1.00
 0.68441605847000E-01 0.10000000000000E+01
 p    4 1.00
 0.49200380510000E+02 0.11448825101764E-01
 0.11346790537000E+02 0.78422337970864E-01
 0.34273972411000E+01 0.30818094738830E+00
 0.11785525134000E+01 0.72027196368413E+00
 p    1 1.00
 0.41642204972000E+00 0.10000000000000E+01
 p    1 1.00
 0.14260826011000E+00 0.10000000000000E+01
 d    1 1.00
 0.16540000000000E+01 0.10000000000000E+01
 d    1 1.00
 0.46900000000000E+00 0.10000000000000E+01
 d    1 1.00
 0.12829642058000E+00 0.10000000000000E+01
 f    1 1.00
 0.10930000000000E+01 0.10000000000000E+01
 
   12 0
 s    6 1.00
 0.27032382631000E+05 0.57227335211155E-03
 0.40523871392000E+04 0.44353233492995E-02
 0.92232722710000E+03 0.23020107706038E-01
 0.26124070989000E+03 0.92822490667928E-01
 0.85354641351000E+02 0.29378500009671E+00
 0.31035035245000E+02 0.67401604501641E+00
 s    2 1.00
 0.12260860728000E+02 0.63839937025506E+00
 0.49987076005000E+01 0.39534587125718E+00
 s    1 1.00
 0.11703108158000E+01 0.10000000000000E+01
 s    1 1.00
 0.46474740994000E+00 0.10000000000000E+01
 s    1 1.00
 0.18504536357000E+00 0.10000000000000E+01
 s    1 1.00
 0.70288026270000E-01 0.10000000000000E+01
 p    4 1.00
 0.63274954801000E+02 0.12018332222616E-01
 0.14627049379000E+02 0.83005421790056E-01
 0.44501223456000E+01 0.31991743925964E+00
 0.15275799647000E+01 0.70715542916104E+00
 p    1 1.00
 0.52935117943000E+00 0.10000000000000E+01
 p    1 1.00
 0.17478421270000E+00 0.10000000000000E+01
 p    1 1.00
 0.51112745706000E-01 0.10000000000000E+01
 d    1 1.00
 0.23140000000000E+01 0.10000000000000E+01
 d    1 1.00
 0.64500000000000E+00 0.10000000000000E+01
 d    1 1.00
 0.14696477366000E+00 0.10000000000000E+01
 f    1 1.00
 0.14280000000000E+01 0.10000000000000E+01
 
   13 0
 s    6 1.00
 0.27032382631000E+05 0.57227335211155E-03
 0.40523871392000E+04 0.44353233492995E-02
 0.92232722710000E+03 0.23020107706038E-01
 0.26124070989000E+03 0.92822490667928E-01
 0.85354641351000E+02 0.29378500009671E+00
 0.31035035245000E+02 0.67401604501641E+00
 s    2 1.00
 0.12260860728000E+02 0.63839937025506E+00
 0.49987076005000E+01 0.39534587125718E+00
 s    1 1.00
 0.11703108158000E+01 0.10000000000000E+01
 s    1 1.00
 0.46474740994000E+00 0.10000000000000E+01
 s    1 1.00
 0.18504536357000E+00 0.10000000000000E+01
 s    1 1.00
 0.70288026270000E-01 0.10000000000000E+01
 p    4 1.00
 0.63274954801000E+02 0.12018332222616E-01
 0.14627049379000E+02 0.83005421790056E-01
 0.44501223456000E+01 0.31991743925964E+00
 0.15275799647000E+01 0.70715542916104E+00
 p    1 1.00
 0.52935117943000E+00 0.10000000000000E+01
 p    1 1.00
 0.17478421270000E+00 0.10000000000000E+01
 p    1 1.00
 0.51112745706000E-01 0.10000000000000E+01
 d    1 1.00
 0.23140000000000E+01 0.10000000000000E+01
 d    1 1.00
 0.64500000000000E+00 0.10000000000000E+01
 d    1 1.00
 0.14696477366000E+00 0.10000000000000E+01
 f    1 1.00
 0.14280000000000E+01 0.10000000000000E+01
 
   14 0
 s    6 1.00
 0.19730800647000E+05 0.58626402628763E-03
 0.29578958745000E+04 0.45428820586397E-02
 0.67322133595000E+03 0.23558413450084E-01
 0.19068249494000E+03 0.94709193292923E-01
 0.62295441898000E+02 0.29719784913376E+00
 0.22654161182000E+02 0.66916246895232E+00
 s    2 1.00
 0.89791477428000E+01 0.64596683630063E+00
 0.36863002370000E+01 0.38700574393705E+00
 s    1 1.00
 0.84660076805000E+00 0.10000000000000E+01
 s    1 1.00
 0.33647133771000E+00 0.10000000000000E+01
 s    1 1.00
 0.13647653675000E+00 0.10000000000000E+01
 s    1 1.00
 0.68441605847000E-01 0.10000000000000E+01
 p    4 1.00
 0.49200380510000E+02 0.11448825101764E-01
 0.11346790537000E+02 0.78422337970864E-01
 0.34273972411000E+01 0.30818094738830E+00
 0.11785525134000E+01 0.72027196368413E+00
 p    1 1.00
 0.41642204972000E+00 0.10000000000000E+01
 p    1 1.00
 0.14260826011000E+00 0.10000000000000E+01
 d    1 1.00
 0.16540000000000E+01 0.10000000000000E+01
 d    1 1.00
 0.46900000000000E+00 0.10000000000000E+01
 d    1 1.00
 0.12829642058000E+00 0.10000000000000E+01
 f    1 1.00
 0.10930000000000E+01 0.10000000000000E+01
 
   15 0
 s    3 1.00
 0.34061341000000E+02 0.25439307208879E-01
 0.51235746000000E+01 0.19008594890375E+00
 0.11646626000000E+01 0.85244113011042E+00
 s    1 1.00
 0.32723041000000E+00 0.10000000000000E+01
 s    1 1.00
 0.10307241000000E+00 0.10000000000000E+01
 p    1 1.00
 0.80000000000000E+00 0.10000000000000E+01
 p    1 1.00
 0.95774129632000E-01 0.10000000000000E+01
 
   16 0
 s    3 1.00
 0.34061341000000E+02 0.25439307208879E-01
 0.51235746000000E+01 0.19008594890375E+00
 0.11646626000000E+01 0.85244113011042E+00
 s    1 1.00
 0.32723041000000E+00 0.10000000000000E+01
 s    1 1.00
 0.10307241000000E+00 0.10000000000000E+01
 p    1 1.00
 0.80000000000000E+00 0.10000000000000E+01
 p    1 1.00
 0.95774129632000E-01 0.10000000000000E+01
 
[MO]
 Sym= X
 Ene= -0.899479
 Spin= Alpha
 Occup= -0.899479
         1   -2.219475E-05
         2   -5.057923E-05
         3    1.256117E-04
         4   -1.771649E-04
         5   -9.700648E-03
         6   -4.608533E-04
         7   -1.351011E-04
         8   -1.534927E-04
         9   -1.883160E-01
        10   -5.662163E-04
        11   -2.846244E-05
        12   -1.887929E-01
        13    3.741578E-03
        14   -6.237393E-03
        15   -1.099748E-01
        16   -7.753344E-06
        17    2.381721E-06
        18    5.371623E-06
        19    1.398169E-06
        20   -4.964392E-03
        21   -5.423659E-04
        22   -9.940874E-05
        23    6.041365E-05
        24    3.899509E-05
        25    1.682471E-05
        26   -9.532717E-03
        27    4.143773E-04
        28    8.235301E-04
        29   -9.600821E-04
        30    1.365520E-04
        31    4.594273E-04
        32   -2.816017E-03
        33   -4.801766E-04
        34   -4.265600E-06
        35   -8.042912E-07
        36    1.161984E-03
        37    8.704975E-07
        38    1.525954E-07
        39   -1.405181E-03
        40    4.852405E-06
        41    9.264745E-07
        42   -1.537840E-04
        43   -3.152638E-06
        44    1.232291E-07
        45    2.953679E-07
        46    6.500683E-07
        47   -3.215986E-05
        48    2.144771E-03
        49    1.144304E-04
        50   -1.859868E-06
        51    9.785803E-05
        52   -1.697707E-05
        53   -4.334581E-06
        54    2.042045E-04
        55   -1.000286E-05
        56    1.015433E-03
        57   -9.560354E-03
        58    4.531409E-05
        59   -1.022894E-08
        60   -1.239798E-07
        61    1.342087E-07
        62    9.805531E-06
        63   -2.212474E-07
        64    7.021708E-03
        65   -1.024022E-06
        66    2.535417E-06
        67   -1.511394E-06
        68    7.203576E-05
        69    2.476096E-06
        70    1.592601E-02
        71    1.928352E-05
        72    1.627974E-05
        73   -3.556327E-05
        74   -1.396696E-03
        75    9.749538E-06
        76    1.803003E-03
        77    4.941528E-08
        78    1.871640E-07
        79   -8.644579E-09
        80   -7.841366E-08
        81    1.702476E-06
        82    1.194667E-09
        83    1.211611E-08
        84   -1.953583E-06
        85    1.040325E-08
        86    1.017180E-03
        87    2.147849E-05
        88    4.911713E-05
        89   -1.225201E-04
        90    2.036992E-04
        91    5.957203E-03
        92    3.135347E-04
        93    1.356727E-04
        94   -1.493888E-04
        95    1.883063E-01
        96    5.236172E-04
        97   -2.103914E-05
        98    1.887817E-01
        99   -4.738307E-03
       100   -4.426410E-03
       101    1.098142E-01
       102    8.174160E-06
       103   -2.443909E-06
       104   -5.730251E-06
       105    1.120036E-06
       106    4.965895E-03
       107   -5.420006E-04
       108    8.548432E-05
       109   -5.161233E-05
       110   -3.387199E-05
       111    1.390753E-05
       112    9.535263E-03
       113    4.193449E-04
       114   -7.790686E-04
       115    8.629681E-04
       116   -8.389945E-05
       117    5.576649E-04
       118    2.785098E-03
       119   -4.437798E-04
       120    4.027306E-06
       121   -7.812584E-07
       122   -1.161967E-03
       123   -8.782490E-07
       124    2.920869E-07
       125    1.405441E-03
       126   -4.524949E-06
       127    7.560813E-07
       128    1.535008E-04
       129   -3.391751E-06
       130   -1.413370E-05
       131   -3.357190E-05
       132    1.339401E-04
       133   -5.595268E-04
       134   -9.642060E-03
       135   -4.407183E-04
       136    1.415394E-04
       137    7.422240E-05
       138    1.991680E-01
       139    3.392800E-04
       140    1.559327E-04
       141    2.018162E-01
       142   -5.392030E-03
       143    6.722018E-03
       144    1.288307E-01
       145   -1.202608E-05
       146   -8.913700E-07
       147    1.291745E-05
       148    7.029973E-06
       149   -4.672714E-03
       150   -4.871773E-04
       151   -1.339860E-04
       152    4.155167E-05
       153    9.243431E-05
       154    6.910884E-05
       155   -8.317079E-03
       156   -7.582196E-04
       157    2.449601E-04
       158   -4.493467E-04
       159    2.043866E-04
       160    9.127928E-04
       161   -4.679284E-04
       162   -2.741896E-03
       163    5.061952E-06
       164    1.214490E-06
       165   -1.306072E-03
       166   -3.157590E-06
       167    5.147036E-07
       168    1.458439E-03
       169   -3.633731E-06
       170   -2.144113E-06
       171    2.938407E-04
       172   -4.712091E-05
       173    6.145237E-07
       174    1.266110E-06
       175    3.959152E-06
       176   -1.189139E-05
       177   -2.618203E-03
       178   -1.564850E-04
       179   -1.986512E-07
       180   -1.132107E-04
       181    1.146141E-05
       182    1.176344E-05
       183   -1.003468E-04
       184    4.275571E-06
       185    9.431464E-04
       186    1.425984E-02
       187   -1.003369E-05
       188    1.961218E-07
       189   -1.192144E-07
       190   -7.690746E-08
       191   -2.221702E-05
       192   -1.613457E-06
       193    7.448152E-03
       194   -2.009341E-07
       195   -6.037614E-06
       196    6.238548E-06
       197   -8.879590E-05
       198   -1.165554E-06
       199    1.547988E-02
       200   -2.116569E-05
       201   -3.747169E-05
       202    5.863739E-05
       203   -2.592087E-03
       204    1.627678E-06
       205   -3.024156E-03
       206   -1.164492E-07
       207    4.500817E-06
       208    8.397814E-08
       209    2.278774E-07
       210   -3.414772E-06
       211   -2.403846E-07
       212   -7.164449E-08
       213   -2.623707E-06
       214    1.277161E-07
       215   -1.175403E-03
       216    1.491300E-05
       217    3.528559E-05
       218   -1.450664E-04
       219    5.913633E-04
       220    1.394629E-02
       221    5.908307E-04
       222   -1.470141E-04
       223    7.663520E-05
       224   -1.991298E-01
       225   -3.804915E-04
       226    1.878979E-04
       227   -2.017749E-01
       228    4.730275E-03
       229    8.546861E-03
       230   -1.286526E-01
       231    1.212987E-05
       232    4.503787E-07
       233   -1.258025E-05
       234    7.317839E-06
       235    4.673276E-03
       236   -4.867769E-04
       237    1.443074E-04
       238   -4.489798E-05
       239   -9.940947E-05
       240    7.615348E-05
       241    8.318803E-03
       242   -7.532593E-04
       243   -3.011049E-04
       244    5.660098E-04
       245   -2.649049E-04
       246    8.221309E-04
       247    4.472963E-04
       248   -2.722054E-03
       249   -5.345116E-06
       250    1.377776E-06
       251    1.305932E-03
       252    3.338145E-06
       253    6.025053E-07
       254   -1.458544E-03
       255    3.833081E-06
       256   -2.450985E-06
       257   -2.935471E-04
       258   -4.689837E-05
       259    2.774415E-05
       260    2.043437E-05
       261   -7.492696E-04
       262   -1.004715E-05
       263   -1.835519E-06
       264   -7.692849E-03
       265    7.504190E-05
       266   -3.082830E-04
       267   -7.491451E-03
       268   -2.497382E-05
       269   -3.721209E-05
       270    1.497986E-04
       271    9.269195E-06
       272   -6.379194E-07
       273    7.692110E-03
       274   -1.111456E-04
       275   -1.563412E-04
       276    7.458828E-03
       277    1.017789E-05
       278    8.731917E-06
       279   -1.845143E-03
       280    1.424609E-05
       281    3.825846E-06
       282    8.553221E-03
       283    4.514869E-04
       284    1.600943E-04
       285    9.600940E-03
       286   -1.435265E-05
       287   -1.102682E-06
       288    2.237521E-03
       289   -1.498965E-05
       290    5.234090E-06
       291   -8.551689E-03
       292   -4.825729E-04
       293    2.946419E-04
       294   -9.594627E-03
       295   -2.134579E-08
       296   -2.359165E-08
       297   -6.006080E-07
       298    2.523525E-06
       299    1.388816E-04
       300   -6.354249E-05
       301    4.902065E-07
       302   -9.828732E-06
       303    2.462019E-07
       304    1.976077E-06
       305    7.256937E-06
       306    2.012990E-07
       307    3.178148E-05
       308    2.376293E-04
       309   -1.291180E-06
       310    1.027411E-07
       311   -1.256384E-07
       312    2.289729E-08
       313   -2.428880E-06
       314   -3.295331E-07
       315   -1.422524E-03
       316    3.437548E-07
       317   -3.994384E-08
       318   -3.038109E-07
       319    4.058839E-06
       320   -8.387953E-07
       321   -3.733342E-03
       322   -7.550905E-06
       323   -5.192351E-06
       324    1.274326E-05
       325    1.487859E-04
       326    5.360751E-07
       327   -2.173019E-03
       328    1.810376E-08
       329   -7.149082E-07
       330   -8.069947E-09
       331   -3.151807E-08
       332    2.564847E-06
       333   -4.362572E-08
       334    7.229326E-09
       335   -1.605697E-06
       336    5.445269E-08
       337    4.185039E-04
       338    7.953644E-07
       339    2.003063E-06
       340   -3.709438E-06
       341    4.706217E-06
       342   -1.201270E-05
       343   -2.551380E-05
       344   -1.402894E-04
       345   -6.956660E-06
       346   -4.568311E-02
       347   -1.253379E-04
       348   -3.132848E-06
       349   -4.249070E-02
       350   -1.876153E-04
       351   -4.715223E-05
       352   -3.046101E-02
       353   -2.502089E-05
       354   -9.830924E-06
       355   -1.853188E-03
       356   -3.832007E-07
       357   -1.582610E-07
       358    5.414617E-07
       359    9.473679E-07
       360   -1.599746E-04
       361    3.558221E-04
       362   -4.176643E-06
       363    6.959824E-07
       364    3.480660E-06
       365    4.826128E-06
       366   -5.636071E-04
       367    1.371076E-03
       368   -7.841392E-06
       369    1.665666E-05
       370   -8.815265E-06
       371    8.378699E-06
       372    8.291353E-05
       373    1.445683E-04
       374    1.900114E-07
       375   -8.010987E-08
       376    5.307707E-05
       377   -3.566097E-07
       378    6.370799E-07
       379    3.157196E-05
       380    1.016827E-07
       381   -5.296012E-07
       382   -1.027823E-04
       383    1.209440E-04
       384   -7.324506E-07
       385   -1.869514E-06
       386    3.982661E-06
       387   -7.977588E-06
       388    4.837454E-05
       389    6.532578E-05
       390    1.351761E-04
       391   -6.093715E-06
       392    4.569440E-02
       393    1.216947E-04
       394   -3.196219E-06
       395    4.250096E-02
       396    1.809741E-04
       397   -3.638933E-05
       398    3.047013E-02
       399    2.968291E-05
       400   -4.887420E-06
       401    1.853076E-03
       402    3.889796E-07
       403    1.547336E-07
       404   -5.437132E-07
       405    8.860900E-07
       406    1.599875E-04
       407    3.559237E-04
       408    3.941548E-06
       409   -6.538881E-07
       410   -3.287659E-06
       411    4.730592E-06
       412    5.637354E-04
       413    1.371409E-03
       414    7.210906E-06
       415   -1.492030E-05
       416    7.709397E-06
       417    6.494146E-06
       418   -8.357254E-05
       419    1.454273E-04
       420   -1.963635E-07
       421   -6.220926E-08
       422   -5.309224E-05
       423    3.304460E-07
       424    6.158448E-07
       425   -3.158816E-05
       426   -6.699667E-08
       427   -5.323823E-07
       428    1.028189E-04
       429    1.209715E-04
       430   -9.823795E-07
       431   -2.370353E-06
       432    3.859873E-06
       433    6.944918E-07
       434   -1.760226E-05
       435    7.047667E-05
       436    1.239092E-06
       437   -8.469607E-04
       438   -4.051891E-05
       439    2.942541E-06
       440   -1.107040E-03
       441   -3.947822E-05
       442   -3.618797E-05
       443   -1.404308E-03
       444   -3.603228E-05
       445    3.521210E-08
       446   -3.253990E-08
       447   -2.672204E-09
       448    1.855276E-05
       449   -6.250661E-08
       450    2.967204E-04
       451    3.334477E-07
       452    4.497582E-07
       453   -7.832059E-07
       454   -4.901694E-05
       455   -4.931621E-08
       456    6.515324E-04
       457    1.191532E-05
       458   -2.867924E-06
       459   -9.047391E-06
       460   -6.338384E-04
       461    1.336159E-06
       462   -1.045111E-03
       463    5.552890E-09
       464   -3.881971E-06
       465    1.712181E-07
       466    2.062561E-08
       467   -1.402408E-05
       468   -1.202861E-07
       469   -2.807559E-08
       470    1.923230E-05
       471   -1.094271E-07
       472   -1.331331E-04
       473    6.008586E-05
       474    5.870444E-04
       475    4.000483E-03
       476   -6.395682E-05
       477   -8.002771E-05
       478    3.694898E-04
       479   -3.142729E-04
       480   -8.449768E-04
       481    1.910386E-03
       482   -6.324761E-05
       483   -5.955362E-04
       484   -3.995834E-03
       485    6.510146E-05
       486   -8.105361E-05
       487   -3.733405E-04
       488    2.971605E-04
       489   -8.546734E-04
       490   -1.913130E-03
 Sym= X
 Ene= 0.899479
 Spin= Alpha
 Occup= 0.899479
         1    1.911401E-04
         2    4.847933E-04
         3   -1.473737E-03
         4    7.695688E-03
         5    5.320220E-03
         6    1.101482E-01
         7   -5.103303E-04
         8   -3.035245E-04
         9   -1.946349E-01
        10   -7.828667E-03
        11   -9.387797E-04
        12   -2.126112E-01
        13   -1.941320E-01
        14    1.501303E-01
        15   -2.374528E-01
        16    3.465516E-05
        17    6.955366E-06
        18   -4.161053E-05
        19    1.270395E-05
        20    5.936306E-03
        21   -7.089759E-04
        22   -1.955972E-03
        23    1.539810E-03
        24    4.161618E-04
        25   -3.867440E-04
        26    1.679694E-02
        27    2.802811E-03
        28   -4.549014E-02
        29    4.025991E-02
        30    5.230225E-03
        31   -8.437074E-02
        32    3.219742E-02
        33    9.077582E-02
        34   -2.801214E-05
        35   -2.057630E-06
        36    2.469414E-04
        37   -3.264517E-05
        38   -3.291187E-05
        39    2.699733E-04
        40    7.022740E-05
        41    3.567247E-05
        42   -6.012799E-04
        43    3.714725E-05
        44   -5.580512E-06
        45   -1.238368E-05
        46    1.789788E-06
        47    1.366617E-04
        48   -3.606966E-03
        49   -1.760407E-02
        50    2.104601E-05
        51   -3.399886E-06
        52   -5.547722E-05
        53    5.398435E-05
        54    2.603802E-03
        55   -5.739155E-05
        56    1.239546E-02
        57    3.384513E-01
        58   -2.977576E-04
        59    3.713585E-06
        60   -3.378255E-06
        61   -3.353302E-07
        62    6.324799E-05