[Molden Format]
[Title]
ADC(2) - opt by CAM-B3LYP gaussian                                              
[Atoms] AU
 c     1    6 -.12588789760523E+01 -.22833296301999E+01 -.24948636837890E-01
 c     2    6 -.25574931053929E+01 0.00000000000000E+00 -.23691968959520E-01
 c     3    6 -.12588770863262E+01 0.22833296301999E+01 -.24954306016290E-01
 c     4    6 0.13320886199507E+01 0.22850077070059E+01 -.26951746538750E-01
 c     5    6 0.26868238359857E+01 0.00000000000000E+00 -.26437741030600E-01
 c     6    6 0.13320867302245E+01 -.22850077070059E+01 -.26946077360350E-01
 h     7    1 -.22977937121289E+01 -.40382313624087E+01 -.22371050392630E-01
 h     8    1 -.22977918224027E+01 0.40382332521348E+01 -.22380499023300E-01
 h     9    1 0.23512179234159E+01 0.40571966538783E+01 -.29234535707270E-01
 h    10    1 0.23512179234159E+01 -.40571947641522E+01 -.29223197350470E-01
 n    11    7 -.52733186864479E+01 0.00000000000000E+00 -.17996334395000E-01
 o    12    8 -.63812046469225E+01 0.20269448165729E+01 -.15568036314240E-01
 o    13    8 -.63812027571964E+01 -.20269467062990E+01 -.15583154123310E-01
 n    14    7 0.52441127328484E+01 0.00000000000000E+00 -.70347417454330E-01
 h    15    1 0.62045074583774E+01 0.16172030580838E+01 0.18832018534119E+00
 h    16    1 0.62045055686513E+01 -.16172049478099E+01 0.18831451616279E+00
[GTO]
    1 0
 s    6 1.00
 0.13575349682000E+05 0.60645503603591E-03
 0.20352333680000E+04 0.46979088884982E-02
 0.46322562359000E+03 0.24332477647552E-01
 0.13120019598000E+03 0.97399968307759E-01
 0.42853015891000E+02 0.30195584253780E+00
 0.15584185766000E+02 0.66233609137875E+00
 s    2 1.00
 0.62067138508000E+01 0.65595308539952E+00
 0.25764896527000E+01 0.37585633285142E+00
 s    1 1.00
 0.57696339419000E+00 0.10000000000000E+01
 s    1 1.00
 0.22972831358000E+00 0.10000000000000E+01
 s    1 1.00
 0.95164440028000E-01 0.10000000000000E+01
 s    1 1.00
 0.48475401370000E-01 0.10000000000000E+01
 p    4 1.00
 0.34697232244000E+02 0.11327220003114E-01
 0.79582622826000E+01 0.76169659202087E-01
 0.23780826883000E+01 0.30192252202676E+00
 0.81433208183000E+00 0.72785027349547E+00
 p    1 1.00
 0.28887547253000E+00 0.10000000000000E+01
 p    1 1.00
 0.10056823671000E+00 0.10000000000000E+01
 d    1 1.00
 0.10970000000000E+01 0.10000000000000E+01
 d    1 1.00
 0.31800000000000E+00 0.10000000000000E+01
 d    1 1.00
 0.90985336424000E-01 0.10000000000000E+01
 f    1 1.00
 0.76100000000000E+00 0.10000000000000E+01
 
    2 0
 s    6 1.00
 0.13575349682000E+05 0.60645503603591E-03
 0.20352333680000E+04 0.46979088884982E-02
 0.46322562359000E+03 0.24332477647552E-01
 0.13120019598000E+03 0.97399968307759E-01
 0.42853015891000E+02 0.30195584253780E+00
 0.15584185766000E+02 0.66233609137875E+00
 s    2 1.00
 0.62067138508000E+01 0.65595308539952E+00
 0.25764896527000E+01 0.37585633285142E+00
 s    1 1.00
 0.57696339419000E+00 0.10000000000000E+01
 s    1 1.00
 0.22972831358000E+00 0.10000000000000E+01
 s    1 1.00
 0.95164440028000E-01 0.10000000000000E+01
 s    1 1.00
 0.48475401370000E-01 0.10000000000000E+01
 p    4 1.00
 0.34697232244000E+02 0.11327220003114E-01
 0.79582622826000E+01 0.76169659202087E-01
 0.23780826883000E+01 0.30192252202676E+00
 0.81433208183000E+00 0.72785027349547E+00
 p    1 1.00
 0.28887547253000E+00 0.10000000000000E+01
 p    1 1.00
 0.10056823671000E+00 0.10000000000000E+01
 d    1 1.00
 0.10970000000000E+01 0.10000000000000E+01
 d    1 1.00
 0.31800000000000E+00 0.10000000000000E+01
 d    1 1.00
 0.90985336424000E-01 0.10000000000000E+01
 f    1 1.00
 0.76100000000000E+00 0.10000000000000E+01
 
    3 0
 s    6 1.00
 0.13575349682000E+05 0.60645503603591E-03
 0.20352333680000E+04 0.46979088884982E-02
 0.46322562359000E+03 0.24332477647552E-01
 0.13120019598000E+03 0.97399968307759E-01
 0.42853015891000E+02 0.30195584253780E+00
 0.15584185766000E+02 0.66233609137875E+00
 s    2 1.00
 0.62067138508000E+01 0.65595308539952E+00
 0.25764896527000E+01 0.37585633285142E+00
 s    1 1.00
 0.57696339419000E+00 0.10000000000000E+01
 s    1 1.00
 0.22972831358000E+00 0.10000000000000E+01
 s    1 1.00
 0.95164440028000E-01 0.10000000000000E+01
 s    1 1.00
 0.48475401370000E-01 0.10000000000000E+01
 p    4 1.00
 0.34697232244000E+02 0.11327220003114E-01
 0.79582622826000E+01 0.76169659202087E-01
 0.23780826883000E+01 0.30192252202676E+00
 0.81433208183000E+00 0.72785027349547E+00
 p    1 1.00
 0.28887547253000E+00 0.10000000000000E+01
 p    1 1.00
 0.10056823671000E+00 0.10000000000000E+01
 d    1 1.00
 0.10970000000000E+01 0.10000000000000E+01
 d    1 1.00
 0.31800000000000E+00 0.10000000000000E+01
 d    1 1.00
 0.90985336424000E-01 0.10000000000000E+01
 f    1 1.00
 0.76100000000000E+00 0.10000000000000E+01
 
    4 0
 s    6 1.00
 0.13575349682000E+05 0.60645503603591E-03
 0.20352333680000E+04 0.46979088884982E-02
 0.46322562359000E+03 0.24332477647552E-01
 0.13120019598000E+03 0.97399968307759E-01
 0.42853015891000E+02 0.30195584253780E+00
 0.15584185766000E+02 0.66233609137875E+00
 s    2 1.00
 0.62067138508000E+01 0.65595308539952E+00
 0.25764896527000E+01 0.37585633285142E+00
 s    1 1.00
 0.57696339419000E+00 0.10000000000000E+01
 s    1 1.00
 0.22972831358000E+00 0.10000000000000E+01
 s    1 1.00
 0.95164440028000E-01 0.10000000000000E+01
 s    1 1.00
 0.48475401370000E-01 0.10000000000000E+01
 p    4 1.00
 0.34697232244000E+02 0.11327220003114E-01
 0.79582622826000E+01 0.76169659202087E-01
 0.23780826883000E+01 0.30192252202676E+00
 0.81433208183000E+00 0.72785027349547E+00
 p    1 1.00
 0.28887547253000E+00 0.10000000000000E+01
 p    1 1.00
 0.10056823671000E+00 0.10000000000000E+01
 d    1 1.00
 0.10970000000000E+01 0.10000000000000E+01
 d    1 1.00
 0.31800000000000E+00 0.10000000000000E+01
 d    1 1.00
 0.90985336424000E-01 0.10000000000000E+01
 f    1 1.00
 0.76100000000000E+00 0.10000000000000E+01
 
    5 0
 s    6 1.00
 0.13575349682000E+05 0.60645503603591E-03
 0.20352333680000E+04 0.46979088884982E-02
 0.46322562359000E+03 0.24332477647552E-01
 0.13120019598000E+03 0.97399968307759E-01
 0.42853015891000E+02 0.30195584253780E+00
 0.15584185766000E+02 0.66233609137875E+00
 s    2 1.00
 0.62067138508000E+01 0.65595308539952E+00
 0.25764896527000E+01 0.37585633285142E+00
 s    1 1.00
 0.57696339419000E+00 0.10000000000000E+01
 s    1 1.00
 0.22972831358000E+00 0.10000000000000E+01
 s    1 1.00
 0.95164440028000E-01 0.10000000000000E+01
 s    1 1.00
 0.48475401370000E-01 0.10000000000000E+01
 p    4 1.00
 0.34697232244000E+02 0.11327220003114E-01
 0.79582622826000E+01 0.76169659202087E-01
 0.23780826883000E+01 0.30192252202676E+00
 0.81433208183000E+00 0.72785027349547E+00
 p    1 1.00
 0.28887547253000E+00 0.10000000000000E+01
 p    1 1.00
 0.10056823671000E+00 0.10000000000000E+01
 d    1 1.00
 0.10970000000000E+01 0.10000000000000E+01
 d    1 1.00
 0.31800000000000E+00 0.10000000000000E+01
 d    1 1.00
 0.90985336424000E-01 0.10000000000000E+01
 f    1 1.00
 0.76100000000000E+00 0.10000000000000E+01
 
    6 0
 s    6 1.00
 0.13575349682000E+05 0.60645503603591E-03
 0.20352333680000E+04 0.46979088884982E-02
 0.46322562359000E+03 0.24332477647552E-01
 0.13120019598000E+03 0.97399968307759E-01
 0.42853015891000E+02 0.30195584253780E+00
 0.15584185766000E+02 0.66233609137875E+00
 s    2 1.00
 0.62067138508000E+01 0.65595308539952E+00
 0.25764896527000E+01 0.37585633285142E+00
 s    1 1.00
 0.57696339419000E+00 0.10000000000000E+01
 s    1 1.00
 0.22972831358000E+00 0.10000000000000E+01
 s    1 1.00
 0.95164440028000E-01 0.10000000000000E+01
 s    1 1.00
 0.48475401370000E-01 0.10000000000000E+01
 p    4 1.00
 0.34697232244000E+02 0.11327220003114E-01
 0.79582622826000E+01 0.76169659202087E-01
 0.23780826883000E+01 0.30192252202676E+00
 0.81433208183000E+00 0.72785027349547E+00
 p    1 1.00
 0.28887547253000E+00 0.10000000000000E+01
 p    1 1.00
 0.10056823671000E+00 0.10000000000000E+01
 d    1 1.00
 0.10970000000000E+01 0.10000000000000E+01
 d    1 1.00
 0.31800000000000E+00 0.10000000000000E+01
 d    1 1.00
 0.90985336424000E-01 0.10000000000000E+01
 f    1 1.00
 0.76100000000000E+00 0.10000000000000E+01
 
    7 0
 s    3 1.00
 0.34061341000000E+02 0.25439307208879E-01
 0.51235746000000E+01 0.19008594890375E+00
 0.11646626000000E+01 0.85244113011042E+00
 s    1 1.00
 0.32723041000000E+00 0.10000000000000E+01
 s    1 1.00
 0.10307241000000E+00 0.10000000000000E+01
 p    1 1.00
 0.80000000000000E+00 0.10000000000000E+01
 p    1 1.00
 0.95774129632000E-01 0.10000000000000E+01
 
    8 0
 s    3 1.00
 0.34061341000000E+02 0.25439307208879E-01
 0.51235746000000E+01 0.19008594890375E+00
 0.11646626000000E+01 0.85244113011042E+00
 s    1 1.00
 0.32723041000000E+00 0.10000000000000E+01
 s    1 1.00
 0.10307241000000E+00 0.10000000000000E+01
 p    1 1.00
 0.80000000000000E+00 0.10000000000000E+01
 p    1 1.00
 0.95774129632000E-01 0.10000000000000E+01
 
    9 0
 s    3 1.00
 0.34061341000000E+02 0.25439307208879E-01
 0.51235746000000E+01 0.19008594890375E+00
 0.11646626000000E+01 0.85244113011042E+00
 s    1 1.00
 0.32723041000000E+00 0.10000000000000E+01
 s    1 1.00
 0.10307241000000E+00 0.10000000000000E+01
 p    1 1.00
 0.80000000000000E+00 0.10000000000000E+01
 p    1 1.00
 0.95774129632000E-01 0.10000000000000E+01
 
   10 0
 s    3 1.00
 0.34061341000000E+02 0.25439307208879E-01
 0.51235746000000E+01 0.19008594890375E+00
 0.11646626000000E+01 0.85244113011042E+00
 s    1 1.00
 0.32723041000000E+00 0.10000000000000E+01
 s    1 1.00
 0.10307241000000E+00 0.10000000000000E+01
 p    1 1.00
 0.80000000000000E+00 0.10000000000000E+01
 p    1 1.00
 0.95774129632000E-01 0.10000000000000E+01
 
   11 0
 s    6 1.00
 0.19730800647000E+05 0.58626402628763E-03
 0.29578958745000E+04 0.45428820586397E-02
 0.67322133595000E+03 0.23558413450084E-01
 0.19068249494000E+03 0.94709193292923E-01
 0.62295441898000E+02 0.29719784913376E+00
 0.22654161182000E+02 0.66916246895232E+00
 s    2 1.00
 0.89791477428000E+01 0.64596683630063E+00
 0.36863002370000E+01 0.38700574393705E+00
 s    1 1.00
 0.84660076805000E+00 0.10000000000000E+01
 s    1 1.00
 0.33647133771000E+00 0.10000000000000E+01
 s    1 1.00
 0.13647653675000E+00 0.10000000000000E+01
 s    1 1.00
 0.68441605847000E-01 0.10000000000000E+01
 p    4 1.00
 0.49200380510000E+02 0.11448825101764E-01
 0.11346790537000E+02 0.78422337970864E-01
 0.34273972411000E+01 0.30818094738830E+00
 0.11785525134000E+01 0.72027196368413E+00
 p    1 1.00
 0.41642204972000E+00 0.10000000000000E+01
 p    1 1.00
 0.14260826011000E+00 0.10000000000000E+01
 d    1 1.00
 0.16540000000000E+01 0.10000000000000E+01
 d    1 1.00
 0.46900000000000E+00 0.10000000000000E+01
 d    1 1.00
 0.12829642058000E+00 0.10000000000000E+01
 f    1 1.00
 0.10930000000000E+01 0.10000000000000E+01
 
   12 0
 s    6 1.00
 0.27032382631000E+05 0.57227335211155E-03
 0.40523871392000E+04 0.44353233492995E-02
 0.92232722710000E+03 0.23020107706038E-01
 0.26124070989000E+03 0.92822490667928E-01
 0.85354641351000E+02 0.29378500009671E+00
 0.31035035245000E+02 0.67401604501641E+00
 s    2 1.00
 0.12260860728000E+02 0.63839937025506E+00
 0.49987076005000E+01 0.39534587125718E+00
 s    1 1.00
 0.11703108158000E+01 0.10000000000000E+01
 s    1 1.00
 0.46474740994000E+00 0.10000000000000E+01
 s    1 1.00
 0.18504536357000E+00 0.10000000000000E+01
 s    1 1.00
 0.70288026270000E-01 0.10000000000000E+01
 p    4 1.00
 0.63274954801000E+02 0.12018332222616E-01
 0.14627049379000E+02 0.83005421790056E-01
 0.44501223456000E+01 0.31991743925964E+00
 0.15275799647000E+01 0.70715542916104E+00
 p    1 1.00
 0.52935117943000E+00 0.10000000000000E+01
 p    1 1.00
 0.17478421270000E+00 0.10000000000000E+01
 p    1 1.00
 0.51112745706000E-01 0.10000000000000E+01
 d    1 1.00
 0.23140000000000E+01 0.10000000000000E+01
 d    1 1.00
 0.64500000000000E+00 0.10000000000000E+01
 d    1 1.00
 0.14696477366000E+00 0.10000000000000E+01
 f    1 1.00
 0.14280000000000E+01 0.10000000000000E+01
 
   13 0
 s    6 1.00
 0.27032382631000E+05 0.57227335211155E-03
 0.40523871392000E+04 0.44353233492995E-02
 0.92232722710000E+03 0.23020107706038E-01
 0.26124070989000E+03 0.92822490667928E-01
 0.85354641351000E+02 0.29378500009671E+00
 0.31035035245000E+02 0.67401604501641E+00
 s    2 1.00
 0.12260860728000E+02 0.63839937025506E+00
 0.49987076005000E+01 0.39534587125718E+00
 s    1 1.00
 0.11703108158000E+01 0.10000000000000E+01
 s    1 1.00
 0.46474740994000E+00 0.10000000000000E+01
 s    1 1.00
 0.18504536357000E+00 0.10000000000000E+01
 s    1 1.00
 0.70288026270000E-01 0.10000000000000E+01
 p    4 1.00
 0.63274954801000E+02 0.12018332222616E-01
 0.14627049379000E+02 0.83005421790056E-01
 0.44501223456000E+01 0.31991743925964E+00
 0.15275799647000E+01 0.70715542916104E+00
 p    1 1.00
 0.52935117943000E+00 0.10000000000000E+01
 p    1 1.00
 0.17478421270000E+00 0.10000000000000E+01
 p    1 1.00
 0.51112745706000E-01 0.10000000000000E+01
 d    1 1.00
 0.23140000000000E+01 0.10000000000000E+01
 d    1 1.00
 0.64500000000000E+00 0.10000000000000E+01
 d    1 1.00
 0.14696477366000E+00 0.10000000000000E+01
 f    1 1.00
 0.14280000000000E+01 0.10000000000000E+01
 
   14 0
 s    6 1.00
 0.19730800647000E+05 0.58626402628763E-03
 0.29578958745000E+04 0.45428820586397E-02
 0.67322133595000E+03 0.23558413450084E-01
 0.19068249494000E+03 0.94709193292923E-01
 0.62295441898000E+02 0.29719784913376E+00
 0.22654161182000E+02 0.66916246895232E+00
 s    2 1.00
 0.89791477428000E+01 0.64596683630063E+00
 0.36863002370000E+01 0.38700574393705E+00
 s    1 1.00
 0.84660076805000E+00 0.10000000000000E+01
 s    1 1.00
 0.33647133771000E+00 0.10000000000000E+01
 s    1 1.00
 0.13647653675000E+00 0.10000000000000E+01
 s    1 1.00
 0.68441605847000E-01 0.10000000000000E+01
 p    4 1.00
 0.49200380510000E+02 0.11448825101764E-01
 0.11346790537000E+02 0.78422337970864E-01
 0.34273972411000E+01 0.30818094738830E+00
 0.11785525134000E+01 0.72027196368413E+00
 p    1 1.00
 0.41642204972000E+00 0.10000000000000E+01
 p    1 1.00
 0.14260826011000E+00 0.10000000000000E+01
 d    1 1.00
 0.16540000000000E+01 0.10000000000000E+01
 d    1 1.00
 0.46900000000000E+00 0.10000000000000E+01
 d    1 1.00
 0.12829642058000E+00 0.10000000000000E+01
 f    1 1.00
 0.10930000000000E+01 0.10000000000000E+01
 
   15 0
 s    3 1.00
 0.34061341000000E+02 0.25439307208879E-01
 0.51235746000000E+01 0.19008594890375E+00
 0.11646626000000E+01 0.85244113011042E+00
 s    1 1.00
 0.32723041000000E+00 0.10000000000000E+01
 s    1 1.00
 0.10307241000000E+00 0.10000000000000E+01
 p    1 1.00
 0.80000000000000E+00 0.10000000000000E+01
 p    1 1.00
 0.95774129632000E-01 0.10000000000000E+01
 
   16 0
 s    3 1.00
 0.34061341000000E+02 0.25439307208879E-01
 0.51235746000000E+01 0.19008594890375E+00
 0.11646626000000E+01 0.85244113011042E+00
 s    1 1.00
 0.32723041000000E+00 0.10000000000000E+01
 s    1 1.00
 0.10307241000000E+00 0.10000000000000E+01
 p    1 1.00
 0.80000000000000E+00 0.10000000000000E+01
 p    1 1.00
 0.95774129632000E-01 0.10000000000000E+01
 
[MO]
 Sym= X
 Ene= -0.077738
 Spin= Alpha
 Occup= -0.077738
         1    3.416377E-04
         2    7.833856E-04
         3   -1.635412E-03
         4    1.005805E-03
         5   -6.435701E-03
         6    9.901263E-03
         7   -5.224707E-03
         8   -3.635491E-04
         9    1.322864E-01
        10   -7.673651E-04
        11   -6.712493E-04
        12    1.302949E-01
        13    1.950450E-02
        14   -5.354463E-04
        15    5.069570E-02
        16   -1.443046E-04
        17    1.345439E-04
        18    9.760716E-06
        19    6.092279E-05
        20   -1.216326E-03
        21    4.495435E-03
        22    3.485524E-04
        23   -2.094449E-04
        24   -1.391075E-04
        25    7.722483E-04
        26   -3.167549E-03
        27    7.578736E-03
        28    1.700255E-03
        29   -1.474437E-03
        30   -2.258186E-04
        31   -1.767327E-03
        32   -6.826177E-03
        33    5.283530E-03
        34    3.688080E-06
        35   -9.211989E-06
        36   -1.092661E-03
        37    1.795362E-07
        38    8.162416E-06
        39    5.069249E-04
        40   -5.127614E-06
        41    4.196764E-06
        42    9.590332E-04
        43   -5.571845E-04
        44   -7.348933E-05
        45   -1.614630E-04
        46   -1.137190E-04
        47    4.134219E-03
        48    1.067567E-02
        49   -9.185687E-03
        50    1.891191E-03
        51   -2.424743E-06
        52    2.177244E-01
        53    2.440028E-03
        54    8.516718E-06
        55    2.204196E-01
        56    7.483638E-03
        57    8.896800E-04
        58    7.857802E-02
        59   -1.925370E-04
        60    1.916924E-04
        61    8.446119E-07
        62   -1.038096E-07
        63    2.505428E-03
        64   -2.574586E-07
        65   -5.949680E-04
        66    8.439391E-04
        67   -2.489711E-04
        68    1.518154E-06
        69    3.539800E-03
        70    7.851547E-07
        71   -1.092428E-02
        72    1.130160E-02
        73   -3.773192E-04
        74    8.667294E-05
        75    7.844741E-03
        76    3.746243E-06
        77    9.028867E-06
        78    1.177776E-07
        79   -1.672287E-03
        80    4.928585E-06
        81   -8.063685E-08
        82    8.801840E-04
        83   -1.704208E-05
        84   -7.737838E-08
        85    1.363424E-03
        86    5.027662E-08
        87    3.408872E-04
        88    7.817054E-04
        89   -1.632604E-03
        90    1.022379E-03
        91   -8.311131E-03
        92    9.944953E-03
        93   -5.230590E-03
        94    3.733460E-04
        95    1.322779E-01
        96   -7.595729E-04
        97    6.930018E-04
        98    1.302861E-01
        99    1.986449E-02
       100    1.419229E-03
       101    5.064980E-02
       102   -1.441735E-04
       103    1.346006E-04
       104    9.572892E-06
       105   -6.140127E-05
       106   -1.216552E-03
       107   -4.495594E-03
       108    3.476285E-04
       109   -2.089924E-04
       110   -1.386361E-04
       111   -7.768397E-04
       112   -3.167059E-03
       113   -7.576623E-03
       114    1.752440E-03
       115   -1.537803E-03
       116   -2.146373E-04
       117    1.675606E-03
       118   -6.829813E-03
       119   -5.240087E-03
       120    3.712805E-06
       121    9.264326E-06
       122   -1.092588E-03
       123    1.711424E-07
       124   -8.094998E-06
       125    5.068744E-04
       126   -5.152393E-06
       127   -4.334399E-06
       128    9.589868E-04
       129    5.570326E-04
       130   -2.694507E-04
       131   -6.003223E-04
       132   -3.539541E-06
       133    1.039482E-02
       134    3.323194E-03
       135   -1.152675E-02
       136    5.291332E-03
       137   -1.716077E-03
       138    2.838931E-02
       139    1.135473E-02
       140   -6.385596E-03
       141    2.824241E-02
       142    1.037658E-02
       143    9.341446E-03
       144    2.876103E-03
       145   -3.282279E-04
       146    3.758780E-04
       147   -4.765005E-05
       148   -4.430267E-06
       149   -4.033029E-03
       150    9.082037E-04
       151   -6.077865E-04
       152    8.291292E-04
       153   -2.213427E-04
       154   -1.611509E-03
       155   -7.142172E-03
       156    2.178792E-03
       157   -6.696456E-03
       158    5.593130E-03
       159    1.103326E-03
       160    7.639150E-03
       161   -3.304723E-03
       162    1.213080E-02
       163    1.633191E-05
       164   -2.253760E-05
       165   -2.479228E-04
       166    2.982119E-05
       167   -1.120766E-06
       168    5.047346E-04
       169   -5.173275E-05
       170    3.135813E-05
       171   -1.721113E-04
       172    3.948995E-04
       173    1.207217E-03
       174    2.740714E-03
       175   -3.333145E-03
       176   -1.513249E-02
       177    4.808339E-02
       178   -4.828626E-04
       179   -1.532745E-02
       180    5.473878E-06
       181   -9.527272E-02
       182   -3.910073E-03
       183    1.491130E-05
       184   -9.205844E-02
       185    3.614311E-02
       186   -5.628924E-04
       187    1.434290E-02
       188   -7.669554E-04
       189    5.455702E-04
       190    2.213852E-04
       191   -3.200690E-07
       192   -6.397749E-03
       193   -6.444635E-08
       194    1.690551E-03
       195   -3.508072E-03
       196    1.817520E-03
       197   -2.842687E-06
       198   -1.295222E-02
       199   -1.608173E-06
       200    7.191754E-03
       201   -7.409934E-03
       202    2.181796E-04
       203    1.169370E-04
       204   -4.237342E-03
       205   -1.723961E-05
       206   -1.364090E-04
       207    1.767710E-08
       208    9.074377E-04
       209    8.059566E-05
       210    7.722966E-08
       211   -1.354292E-03
       212    1.024162E-04
       213   -1.009460E-07
       214    1.368366E-04
       215    5.839791E-08
       216   -2.692360E-04
       217   -5.997603E-04
       218   -8.089486E-06
       219    1.043187E-02
       220    1.824367E-03
       221   -1.147844E-02
       222    5.287371E-03
       223    1.706799E-03
       224    2.839503E-02
       225    1.135185E-02
       226    6.392298E-03
       227    2.824672E-02
       228    1.018847E-02
       229   -1.007038E-02
       230    2.805453E-03
       231   -3.282402E-04
       232    3.758978E-04
       233   -4.765766E-05
       234    3.894602E-06
       235   -4.033528E-03
       236   -9.081236E-04
       237   -6.077300E-04
       238    8.307310E-04
       239   -2.230010E-04
       240    1.612490E-03
       241   -7.141194E-03
       242   -2.179871E-03
       243   -6.601168E-03
       244    5.492242E-03
       245    1.108925E-03
       246   -7.679501E-03
       247   -3.319246E-03
       248   -1.215839E-02
       249    1.620885E-05
       250    2.255973E-05
       251   -2.479164E-04
       252    2.996625E-05
       253    1.110788E-06
       254    5.047228E-04
       255   -5.171270E-05
       256   -3.137784E-05
       257   -1.721081E-04
       258   -3.949009E-04
       259    1.383216E-03
       260    1.890074E-03
       261    1.732732E-02
       262    1.538751E-05
       263    1.727498E-04
       264    4.753230E-03
       265    3.969659E-03
       266    1.433289E-03
       267    2.308800E-03
       268    1.389898E-03
       269    1.893978E-03
       270    1.712989E-02
       271    1.545211E-05
       272   -1.730753E-04
       273    4.752610E-03
       274    3.980339E-03
       275   -1.410257E-03
       276    2.270820E-03
       277    1.388564E-03
       278    3.637264E-03
       279   -3.185252E-02
       280    3.739699E-05
       281   -2.537829E-04
       282    5.426804E-04
       283    4.732045E-03
       284    1.992544E-03
       285   -1.012537E-02
       286    1.392404E-03
       287    3.637944E-03
       288   -3.197596E-02
       289    3.649791E-05
       290    2.537162E-04
       291    5.427107E-04
       292    4.707918E-03
       293   -2.036752E-03
       294   -1.013663E-02
       295    1.868337E-04
       296    4.418387E-04
       297   -5.839886E-04
       298   -1.535342E-03
       299    8.211472E-03
       300    5.639462E-03
       301   -2.558611E-03
       302    2.115507E-06
       303   -1.693749E-02
       304   -2.077634E-03
       305    5.294017E-06
       306   -1.612215E-02
       307    2.971552E-03
       308   -4.908350E-05
       309    8.217603E-03
       310   -6.709296E-05
       311    9.954788E-05
       312   -3.245492E-05
       313   -5.356290E-07
       314    4.314794E-03
       315   -5.292391E-07
       316   -1.437883E-04
       317    1.930246E-04
       318   -4.923632E-05
       319   -2.075173E-06
       320    1.236465E-02
       321   -1.724735E-06
       322    2.734285E-04
       323   -2.047959E-03
       324    1.774530E-03
       325   -2.823208E-05
       326    5.953332E-03
       327    4.882499E-06
       328   -2.928890E-06
       329   -1.105192E-07
       330    1.201654E-04
       331   -1.603082E-06
       332    1.863992E-07
       333    6.181918E-04
       334    5.532601E-06
       335   -3.812214E-08
       336   -7.794106E-04
       337    8.915080E-08
       338    4.407528E-05
       339    1.045805E-04
       340   -1.306354E-04
       341   -7.605724E-04
       342    4.938120E-03
       343    3.605691E-04
       344    1.742010E-03
       345   -2.759141E-04
       346   -7.968236E-02
       347    1.644858E-03
       348   -3.114587E-04
       349   -7.338557E-02
       350    1.901631E-03
       351   -6.608592E-04
       352   -5.272161E-02
       353    3.553845E-04
       354    4.659127E-05
       355   -4.621157E-03
       356   -6.698888E-06
       357    1.655136E-05
       358   -9.852476E-06
       359   -1.237942E-05
       360   -2.313734E-04
       361    8.373172E-04
       362    7.318785E-06
       363    3.749917E-05
       364   -4.481796E-05
       365   -2.523006E-05
       366   -1.125770E-03
       367    2.584335E-03
       368    2.906430E-05
       369    3.755046E-05
       370   -6.661476E-05
       371    1.102939E-05
       372   -1.617163E-03
       373    4.194872E-04
       374   -2.401006E-06
       375   -3.207121E-06
       376    1.298416E-04
       377    5.506045E-06
       378    3.662647E-07
       379    7.665702E-05
       380   -2.284757E-06
       381    3.936540E-06
       382   -2.508578E-04
       383    2.186937E-04
       384    4.417459E-05
       385    1.047957E-04
       386   -1.306005E-04
       387   -7.624948E-04
       388    4.957129E-03
       389    3.828094E-04
       390    1.769049E-03
       391    2.519881E-04
       392   -7.965233E-02
       393    1.670649E-03
       394    2.923457E-04
       395   -7.335928E-02
       396    1.898563E-03
       397    6.502860E-04
       398   -5.269007E-02
       399    3.625015E-04
       400   -4.876838E-05
       401   -4.616128E-03
       402   -6.415165E-06
       403    1.620235E-05
       404   -9.787188E-06
       405    1.235182E-05
       406   -2.312435E-04
       407   -8.370648E-04
       408    7.575048E-06
       409    3.740333E-05
       410   -4.497837E-05
       411    2.561566E-05
       412   -1.125116E-03
       413   -2.583574E-03
       414    3.129220E-05
       415    3.529734E-05
       416   -6.658954E-05
       417   -1.602986E-05
       418   -1.616328E-03
       419   -4.167585E-04
       420   -2.369422E-06
       421    3.140761E-06
       422    1.297972E-04
       423    5.494199E-06
       424   -2.830182E-07
       425    7.664993E-05
       426   -2.315286E-06
       427   -3.930754E-06
       428   -2.507911E-04
       429   -2.186164E-04
       430   -4.111719E-03
       431   -9.755249E-03
       432    1.513281E-02
       433    2.408904E-02
       434    4.370129E-03
       435    2.820968E-02
       436    2.087175E-02
       437   -1.164767E-05
       438   -2.378749E-01
       439    2.307674E-02
       440   -3.539837E-06
       441   -2.311111E-01
       442    2.908502E-02
       443    9.786375E-05
       444   -1.575303E-01
       445    3.631386E-05
       446    1.900881E-04
       447   -2.264020E-04
       448   -3.841324E-07
       449    1.971312E-03
       450   -3.083122E-07
       451   -1.979059E-04
       452    2.041819E-03
       453   -1.843913E-03
       454    3.905484E-06
       455    4.146694E-03
       456   -6.039043E-07
       457   -1.426146E-03
       458    5.523642E-03
       459   -4.097496E-03
       460    1.073317E-05
       461    4.874995E-04
       462   -3.693069E-06
       463    9.375491E-05
       464   -3.518045E-08
       465    1.284694E-03
       466    1.060587E-04
       467    1.321601E-08
       468   -1.108641E-03
       469   -2.318441E-04
       470    3.398351E-08
       471   -6.149575E-04
       472   -1.627035E-08
       473   -5.140947E-03
       474   -1.255435E-02
       475   -2.325033E-02
       476    2.285291E-03
       477    1.565238E-03
       478   -1.094021E-02
       479    2.934260E-03
       480    2.082714E-03
       481   -4.552072E-03
       482   -5.131953E-03
       483   -1.247725E-02
       484   -2.300689E-02
       485    2.281037E-03
       486   -1.558059E-03
       487   -1.094280E-02
       488    2.911945E-03
       489   -2.034872E-03
       490   -4.565938E-03
 Sym= X
 Ene= -0.843005
 Spin= Alpha
 Occup= -0.843005
         1   -1.716841E-04
         2   -3.995939E-04
         3    1.114963E-03
         4   -2.393401E-03
         5   -1.031975E-02
         6   -1.046044E-02
         7    1.736752E-03
         8    1.762742E-04
         9    1.593641E-02
        10   -2.078567E-03
        11    3.664819E-04
        12    1.423229E-02
        13   -3.303069E-02
        14    9.231262E-03
        15    9.443640E-04
        16    1.063932E-05
        17   -2.122040E-05
        18    1.058108E-05
        19   -1.195947E-05
        20   -6.420311E-03
        21    3.625776E-03
        22   -6.058213E-04
        23    3.605618E-04
        24    2.452596E-04
        25   -6.570086E-04
        26   -1.440232E-02
        27    6.896328E-03
        28   -4.799795E-03
        29    4.498691E-03
        30    3.011033E-04
        31    1.020533E-03
        32    1.753144E-03
        33   -1.008583E-02
        34   -1.765635E-05
        35    6.137477E-06
        36   -3.298010E-05
        37    7.423032E-06
        38   -6.183296E-06
        39   -7.532117E-04
        40    1.626544E-05
        41   -2.050993E-06
        42    7.974591E-04
        43   -6.830205E-04
        44    2.849000E-05
        45    6.251736E-05
        46    1.113638E-04
        47   -2.551061E-03
        48   -4.721612E-02
        49    5.182578E-03
        50    2.059710E-04
        51    1.480707E-06
        52    1.941154E-01
        53   -5.042219E-04
        54    2.013982E-05
        55    2.017641E-01
        56   -1.554692E-02
        57   -1.309099E-03
        58    1.975354E-01
        59    4.652778E-05
        60   -4.431472E-05
        61   -2.213062E-06
        62    1.089409E-07