[Molden Format]
[Title]
ADC(2) - opt by CAM-B3LYP gaussian                                              
[Atoms] AU
 c     1    6 -.12588789760523E+01 -.22833296301999E+01 -.24948636837890E-01
 c     2    6 -.25574931053929E+01 0.00000000000000E+00 -.23691968959520E-01
 c     3    6 -.12588770863262E+01 0.22833296301999E+01 -.24954306016290E-01
 c     4    6 0.13320886199507E+01 0.22850077070059E+01 -.26951746538750E-01
 c     5    6 0.26868238359857E+01 0.00000000000000E+00 -.26437741030600E-01
 c     6    6 0.13320867302245E+01 -.22850077070059E+01 -.26946077360350E-01
 h     7    1 -.22977937121289E+01 -.40382313624087E+01 -.22371050392630E-01
 h     8    1 -.22977918224027E+01 0.40382332521348E+01 -.22380499023300E-01
 h     9    1 0.23512179234159E+01 0.40571966538783E+01 -.29234535707270E-01
 h    10    1 0.23512179234159E+01 -.40571947641522E+01 -.29223197350470E-01
 n    11    7 -.52733186864479E+01 0.00000000000000E+00 -.17996334395000E-01
 o    12    8 -.63812046469225E+01 0.20269448165729E+01 -.15568036314240E-01
 o    13    8 -.63812027571964E+01 -.20269467062990E+01 -.15583154123310E-01
 n    14    7 0.52441127328484E+01 0.00000000000000E+00 -.70347417454330E-01
 h    15    1 0.62045074583774E+01 0.16172030580838E+01 0.18832018534119E+00
 h    16    1 0.62045055686513E+01 -.16172049478099E+01 0.18831451616279E+00
[GTO]
    1 0
 s    6 1.00
 0.13575349682000E+05 0.60645503603591E-03
 0.20352333680000E+04 0.46979088884982E-02
 0.46322562359000E+03 0.24332477647552E-01
 0.13120019598000E+03 0.97399968307759E-01
 0.42853015891000E+02 0.30195584253780E+00
 0.15584185766000E+02 0.66233609137875E+00
 s    2 1.00
 0.62067138508000E+01 0.65595308539952E+00
 0.25764896527000E+01 0.37585633285142E+00
 s    1 1.00
 0.57696339419000E+00 0.10000000000000E+01
 s    1 1.00
 0.22972831358000E+00 0.10000000000000E+01
 s    1 1.00
 0.95164440028000E-01 0.10000000000000E+01
 s    1 1.00
 0.48475401370000E-01 0.10000000000000E+01
 p    4 1.00
 0.34697232244000E+02 0.11327220003114E-01
 0.79582622826000E+01 0.76169659202087E-01
 0.23780826883000E+01 0.30192252202676E+00
 0.81433208183000E+00 0.72785027349547E+00
 p    1 1.00
 0.28887547253000E+00 0.10000000000000E+01
 p    1 1.00
 0.10056823671000E+00 0.10000000000000E+01
 d    1 1.00
 0.10970000000000E+01 0.10000000000000E+01
 d    1 1.00
 0.31800000000000E+00 0.10000000000000E+01
 d    1 1.00
 0.90985336424000E-01 0.10000000000000E+01
 f    1 1.00
 0.76100000000000E+00 0.10000000000000E+01
 
    2 0
 s    6 1.00
 0.13575349682000E+05 0.60645503603591E-03
 0.20352333680000E+04 0.46979088884982E-02
 0.46322562359000E+03 0.24332477647552E-01
 0.13120019598000E+03 0.97399968307759E-01
 0.42853015891000E+02 0.30195584253780E+00
 0.15584185766000E+02 0.66233609137875E+00
 s    2 1.00
 0.62067138508000E+01 0.65595308539952E+00
 0.25764896527000E+01 0.37585633285142E+00
 s    1 1.00
 0.57696339419000E+00 0.10000000000000E+01
 s    1 1.00
 0.22972831358000E+00 0.10000000000000E+01
 s    1 1.00
 0.95164440028000E-01 0.10000000000000E+01
 s    1 1.00
 0.48475401370000E-01 0.10000000000000E+01
 p    4 1.00
 0.34697232244000E+02 0.11327220003114E-01
 0.79582622826000E+01 0.76169659202087E-01
 0.23780826883000E+01 0.30192252202676E+00
 0.81433208183000E+00 0.72785027349547E+00
 p    1 1.00
 0.28887547253000E+00 0.10000000000000E+01
 p    1 1.00
 0.10056823671000E+00 0.10000000000000E+01
 d    1 1.00
 0.10970000000000E+01 0.10000000000000E+01
 d    1 1.00
 0.31800000000000E+00 0.10000000000000E+01
 d    1 1.00
 0.90985336424000E-01 0.10000000000000E+01
 f    1 1.00
 0.76100000000000E+00 0.10000000000000E+01
 
    3 0
 s    6 1.00
 0.13575349682000E+05 0.60645503603591E-03
 0.20352333680000E+04 0.46979088884982E-02
 0.46322562359000E+03 0.24332477647552E-01
 0.13120019598000E+03 0.97399968307759E-01
 0.42853015891000E+02 0.30195584253780E+00
 0.15584185766000E+02 0.66233609137875E+00
 s    2 1.00
 0.62067138508000E+01 0.65595308539952E+00
 0.25764896527000E+01 0.37585633285142E+00
 s    1 1.00
 0.57696339419000E+00 0.10000000000000E+01
 s    1 1.00
 0.22972831358000E+00 0.10000000000000E+01
 s    1 1.00
 0.95164440028000E-01 0.10000000000000E+01
 s    1 1.00
 0.48475401370000E-01 0.10000000000000E+01
 p    4 1.00
 0.34697232244000E+02 0.11327220003114E-01
 0.79582622826000E+01 0.76169659202087E-01
 0.23780826883000E+01 0.30192252202676E+00
 0.81433208183000E+00 0.72785027349547E+00
 p    1 1.00
 0.28887547253000E+00 0.10000000000000E+01
 p    1 1.00
 0.10056823671000E+00 0.10000000000000E+01
 d    1 1.00
 0.10970000000000E+01 0.10000000000000E+01
 d    1 1.00
 0.31800000000000E+00 0.10000000000000E+01
 d    1 1.00
 0.90985336424000E-01 0.10000000000000E+01
 f    1 1.00
 0.76100000000000E+00 0.10000000000000E+01
 
    4 0
 s    6 1.00
 0.13575349682000E+05 0.60645503603591E-03
 0.20352333680000E+04 0.46979088884982E-02
 0.46322562359000E+03 0.24332477647552E-01
 0.13120019598000E+03 0.97399968307759E-01
 0.42853015891000E+02 0.30195584253780E+00
 0.15584185766000E+02 0.66233609137875E+00
 s    2 1.00
 0.62067138508000E+01 0.65595308539952E+00
 0.25764896527000E+01 0.37585633285142E+00
 s    1 1.00
 0.57696339419000E+00 0.10000000000000E+01
 s    1 1.00
 0.22972831358000E+00 0.10000000000000E+01
 s    1 1.00
 0.95164440028000E-01 0.10000000000000E+01
 s    1 1.00
 0.48475401370000E-01 0.10000000000000E+01
 p    4 1.00
 0.34697232244000E+02 0.11327220003114E-01
 0.79582622826000E+01 0.76169659202087E-01
 0.23780826883000E+01 0.30192252202676E+00
 0.81433208183000E+00 0.72785027349547E+00
 p    1 1.00
 0.28887547253000E+00 0.10000000000000E+01
 p    1 1.00
 0.10056823671000E+00 0.10000000000000E+01
 d    1 1.00
 0.10970000000000E+01 0.10000000000000E+01
 d    1 1.00
 0.31800000000000E+00 0.10000000000000E+01
 d    1 1.00
 0.90985336424000E-01 0.10000000000000E+01
 f    1 1.00
 0.76100000000000E+00 0.10000000000000E+01
 
    5 0
 s    6 1.00
 0.13575349682000E+05 0.60645503603591E-03
 0.20352333680000E+04 0.46979088884982E-02
 0.46322562359000E+03 0.24332477647552E-01
 0.13120019598000E+03 0.97399968307759E-01
 0.42853015891000E+02 0.30195584253780E+00
 0.15584185766000E+02 0.66233609137875E+00
 s    2 1.00
 0.62067138508000E+01 0.65595308539952E+00
 0.25764896527000E+01 0.37585633285142E+00
 s    1 1.00
 0.57696339419000E+00 0.10000000000000E+01
 s    1 1.00
 0.22972831358000E+00 0.10000000000000E+01
 s    1 1.00
 0.95164440028000E-01 0.10000000000000E+01
 s    1 1.00
 0.48475401370000E-01 0.10000000000000E+01
 p    4 1.00
 0.34697232244000E+02 0.11327220003114E-01
 0.79582622826000E+01 0.76169659202087E-01
 0.23780826883000E+01 0.30192252202676E+00
 0.81433208183000E+00 0.72785027349547E+00
 p    1 1.00
 0.28887547253000E+00 0.10000000000000E+01
 p    1 1.00
 0.10056823671000E+00 0.10000000000000E+01
 d    1 1.00
 0.10970000000000E+01 0.10000000000000E+01
 d    1 1.00
 0.31800000000000E+00 0.10000000000000E+01
 d    1 1.00
 0.90985336424000E-01 0.10000000000000E+01
 f    1 1.00
 0.76100000000000E+00 0.10000000000000E+01
 
    6 0
 s    6 1.00
 0.13575349682000E+05 0.60645503603591E-03
 0.20352333680000E+04 0.46979088884982E-02
 0.46322562359000E+03 0.24332477647552E-01
 0.13120019598000E+03 0.97399968307759E-01
 0.42853015891000E+02 0.30195584253780E+00
 0.15584185766000E+02 0.66233609137875E+00
 s    2 1.00
 0.62067138508000E+01 0.65595308539952E+00
 0.25764896527000E+01 0.37585633285142E+00
 s    1 1.00
 0.57696339419000E+00 0.10000000000000E+01
 s    1 1.00
 0.22972831358000E+00 0.10000000000000E+01
 s    1 1.00
 0.95164440028000E-01 0.10000000000000E+01
 s    1 1.00
 0.48475401370000E-01 0.10000000000000E+01
 p    4 1.00
 0.34697232244000E+02 0.11327220003114E-01
 0.79582622826000E+01 0.76169659202087E-01
 0.23780826883000E+01 0.30192252202676E+00
 0.81433208183000E+00 0.72785027349547E+00
 p    1 1.00
 0.28887547253000E+00 0.10000000000000E+01
 p    1 1.00
 0.10056823671000E+00 0.10000000000000E+01
 d    1 1.00
 0.10970000000000E+01 0.10000000000000E+01
 d    1 1.00
 0.31800000000000E+00 0.10000000000000E+01
 d    1 1.00
 0.90985336424000E-01 0.10000000000000E+01
 f    1 1.00
 0.76100000000000E+00 0.10000000000000E+01
 
    7 0
 s    3 1.00
 0.34061341000000E+02 0.25439307208879E-01
 0.51235746000000E+01 0.19008594890375E+00
 0.11646626000000E+01 0.85244113011042E+00
 s    1 1.00
 0.32723041000000E+00 0.10000000000000E+01
 s    1 1.00
 0.10307241000000E+00 0.10000000000000E+01
 p    1 1.00
 0.80000000000000E+00 0.10000000000000E+01
 p    1 1.00
 0.95774129632000E-01 0.10000000000000E+01
 
    8 0
 s    3 1.00
 0.34061341000000E+02 0.25439307208879E-01
 0.51235746000000E+01 0.19008594890375E+00
 0.11646626000000E+01 0.85244113011042E+00
 s    1 1.00
 0.32723041000000E+00 0.10000000000000E+01
 s    1 1.00
 0.10307241000000E+00 0.10000000000000E+01
 p    1 1.00
 0.80000000000000E+00 0.10000000000000E+01
 p    1 1.00
 0.95774129632000E-01 0.10000000000000E+01
 
    9 0
 s    3 1.00
 0.34061341000000E+02 0.25439307208879E-01
 0.51235746000000E+01 0.19008594890375E+00
 0.11646626000000E+01 0.85244113011042E+00
 s    1 1.00
 0.32723041000000E+00 0.10000000000000E+01
 s    1 1.00
 0.10307241000000E+00 0.10000000000000E+01
 p    1 1.00
 0.80000000000000E+00 0.10000000000000E+01
 p    1 1.00
 0.95774129632000E-01 0.10000000000000E+01
 
   10 0
 s    3 1.00
 0.34061341000000E+02 0.25439307208879E-01
 0.51235746000000E+01 0.19008594890375E+00
 0.11646626000000E+01 0.85244113011042E+00
 s    1 1.00
 0.32723041000000E+00 0.10000000000000E+01
 s    1 1.00
 0.10307241000000E+00 0.10000000000000E+01
 p    1 1.00
 0.80000000000000E+00 0.10000000000000E+01
 p    1 1.00
 0.95774129632000E-01 0.10000000000000E+01
 
   11 0
 s    6 1.00
 0.19730800647000E+05 0.58626402628763E-03
 0.29578958745000E+04 0.45428820586397E-02
 0.67322133595000E+03 0.23558413450084E-01
 0.19068249494000E+03 0.94709193292923E-01
 0.62295441898000E+02 0.29719784913376E+00
 0.22654161182000E+02 0.66916246895232E+00
 s    2 1.00
 0.89791477428000E+01 0.64596683630063E+00
 0.36863002370000E+01 0.38700574393705E+00
 s    1 1.00
 0.84660076805000E+00 0.10000000000000E+01
 s    1 1.00
 0.33647133771000E+00 0.10000000000000E+01
 s    1 1.00
 0.13647653675000E+00 0.10000000000000E+01
 s    1 1.00
 0.68441605847000E-01 0.10000000000000E+01
 p    4 1.00
 0.49200380510000E+02 0.11448825101764E-01
 0.11346790537000E+02 0.78422337970864E-01
 0.34273972411000E+01 0.30818094738830E+00
 0.11785525134000E+01 0.72027196368413E+00
 p    1 1.00
 0.41642204972000E+00 0.10000000000000E+01
 p    1 1.00
 0.14260826011000E+00 0.10000000000000E+01
 d    1 1.00
 0.16540000000000E+01 0.10000000000000E+01
 d    1 1.00
 0.46900000000000E+00 0.10000000000000E+01
 d    1 1.00
 0.12829642058000E+00 0.10000000000000E+01
 f    1 1.00
 0.10930000000000E+01 0.10000000000000E+01
 
   12 0
 s    6 1.00
 0.27032382631000E+05 0.57227335211155E-03
 0.40523871392000E+04 0.44353233492995E-02
 0.92232722710000E+03 0.23020107706038E-01
 0.26124070989000E+03 0.92822490667928E-01
 0.85354641351000E+02 0.29378500009671E+00
 0.31035035245000E+02 0.67401604501641E+00
 s    2 1.00
 0.12260860728000E+02 0.63839937025506E+00
 0.49987076005000E+01 0.39534587125718E+00
 s    1 1.00
 0.11703108158000E+01 0.10000000000000E+01
 s    1 1.00
 0.46474740994000E+00 0.10000000000000E+01
 s    1 1.00
 0.18504536357000E+00 0.10000000000000E+01
 s    1 1.00
 0.70288026270000E-01 0.10000000000000E+01
 p    4 1.00
 0.63274954801000E+02 0.12018332222616E-01
 0.14627049379000E+02 0.83005421790056E-01
 0.44501223456000E+01 0.31991743925964E+00
 0.15275799647000E+01 0.70715542916104E+00
 p    1 1.00
 0.52935117943000E+00 0.10000000000000E+01
 p    1 1.00
 0.17478421270000E+00 0.10000000000000E+01
 p    1 1.00
 0.51112745706000E-01 0.10000000000000E+01
 d    1 1.00
 0.23140000000000E+01 0.10000000000000E+01
 d    1 1.00
 0.64500000000000E+00 0.10000000000000E+01
 d    1 1.00
 0.14696477366000E+00 0.10000000000000E+01
 f    1 1.00
 0.14280000000000E+01 0.10000000000000E+01
 
   13 0
 s    6 1.00
 0.27032382631000E+05 0.57227335211155E-03
 0.40523871392000E+04 0.44353233492995E-02
 0.92232722710000E+03 0.23020107706038E-01
 0.26124070989000E+03 0.92822490667928E-01
 0.85354641351000E+02 0.29378500009671E+00
 0.31035035245000E+02 0.67401604501641E+00
 s    2 1.00
 0.12260860728000E+02 0.63839937025506E+00
 0.49987076005000E+01 0.39534587125718E+00
 s    1 1.00
 0.11703108158000E+01 0.10000000000000E+01
 s    1 1.00
 0.46474740994000E+00 0.10000000000000E+01
 s    1 1.00
 0.18504536357000E+00 0.10000000000000E+01
 s    1 1.00
 0.70288026270000E-01 0.10000000000000E+01
 p    4 1.00
 0.63274954801000E+02 0.12018332222616E-01
 0.14627049379000E+02 0.83005421790056E-01
 0.44501223456000E+01 0.31991743925964E+00
 0.15275799647000E+01 0.70715542916104E+00
 p    1 1.00
 0.52935117943000E+00 0.10000000000000E+01
 p    1 1.00
 0.17478421270000E+00 0.10000000000000E+01
 p    1 1.00
 0.51112745706000E-01 0.10000000000000E+01
 d    1 1.00
 0.23140000000000E+01 0.10000000000000E+01
 d    1 1.00
 0.64500000000000E+00 0.10000000000000E+01
 d    1 1.00
 0.14696477366000E+00 0.10000000000000E+01
 f    1 1.00
 0.14280000000000E+01 0.10000000000000E+01
 
   14 0
 s    6 1.00
 0.19730800647000E+05 0.58626402628763E-03
 0.29578958745000E+04 0.45428820586397E-02
 0.67322133595000E+03 0.23558413450084E-01
 0.19068249494000E+03 0.94709193292923E-01
 0.62295441898000E+02 0.29719784913376E+00
 0.22654161182000E+02 0.66916246895232E+00
 s    2 1.00
 0.89791477428000E+01 0.64596683630063E+00
 0.36863002370000E+01 0.38700574393705E+00
 s    1 1.00
 0.84660076805000E+00 0.10000000000000E+01
 s    1 1.00
 0.33647133771000E+00 0.10000000000000E+01
 s    1 1.00
 0.13647653675000E+00 0.10000000000000E+01
 s    1 1.00
 0.68441605847000E-01 0.10000000000000E+01
 p    4 1.00
 0.49200380510000E+02 0.11448825101764E-01
 0.11346790537000E+02 0.78422337970864E-01
 0.34273972411000E+01 0.30818094738830E+00
 0.11785525134000E+01 0.72027196368413E+00
 p    1 1.00
 0.41642204972000E+00 0.10000000000000E+01
 p    1 1.00
 0.14260826011000E+00 0.10000000000000E+01
 d    1 1.00
 0.16540000000000E+01 0.10000000000000E+01
 d    1 1.00
 0.46900000000000E+00 0.10000000000000E+01
 d    1 1.00
 0.12829642058000E+00 0.10000000000000E+01
 f    1 1.00
 0.10930000000000E+01 0.10000000000000E+01
 
   15 0
 s    3 1.00
 0.34061341000000E+02 0.25439307208879E-01
 0.51235746000000E+01 0.19008594890375E+00
 0.11646626000000E+01 0.85244113011042E+00
 s    1 1.00
 0.32723041000000E+00 0.10000000000000E+01
 s    1 1.00
 0.10307241000000E+00 0.10000000000000E+01
 p    1 1.00
 0.80000000000000E+00 0.10000000000000E+01
 p    1 1.00
 0.95774129632000E-01 0.10000000000000E+01
 
   16 0
 s    3 1.00
 0.34061341000000E+02 0.25439307208879E-01
 0.51235746000000E+01 0.19008594890375E+00
 0.11646626000000E+01 0.85244113011042E+00
 s    1 1.00
 0.32723041000000E+00 0.10000000000000E+01
 s    1 1.00
 0.10307241000000E+00 0.10000000000000E+01
 p    1 1.00
 0.80000000000000E+00 0.10000000000000E+01
 p    1 1.00
 0.95774129632000E-01 0.10000000000000E+01
 
[MO]
 Sym= X
 Ene= -0.947572
 Spin= Alpha
 Occup= -0.947572
         1   -1.556983E-04
         2   -3.629315E-04
         3    1.038125E-03
         4   -2.344317E-03
         5   -1.060638E-02
         6   -9.991274E-03
         7    1.493229E-03
         8    1.592699E-04
         9    2.203813E-02
        10   -2.111836E-03
        11    3.350417E-04
        12    2.024372E-02
        13   -3.209317E-02
        14    9.196615E-03
        15    3.288232E-03
        16    3.953263E-06
        17   -1.497449E-05
        18    1.102123E-05
        19   -9.128744E-06
        20   -6.469700E-03
        21    3.829827E-03
        22   -5.890510E-04
        23    3.504882E-04
        24    2.385628E-04
        25   -6.205859E-04
        26   -1.453342E-02
        27    7.239493E-03
        28   -4.716014E-03
        29    4.425678E-03
        30    2.903360E-04
        31    9.376945E-04
        32    1.435529E-03
        33   -9.830647E-03
        34   -1.746686E-05
        35    5.704817E-06
        36   -8.348473E-05
        37    7.423392E-06
        38   -5.799134E-06
        39   -7.289582E-04
        40    1.601086E-05
        41   -1.854681E-06
        42    8.409648E-04
        43   -7.080614E-04
        44    2.506033E-05
        45    5.498214E-05
        46    1.059847E-04
        47   -2.357106E-03
        48   -4.667179E-02
        49    4.752157E-03
        50    2.932257E-04
        51    1.366968E-06
        52    2.039782E-01
        53   -3.908212E-04
        54    2.051219E-05
        55    2.117434E-01
        56   -1.518413E-02
        57   -1.266547E-03
        58    2.009585E-01
        59    3.757238E-05
        60   -3.540075E-05
        61   -2.171626E-06
        62    1.040227E-07
        63   -9.372107E-04
        64    1.257321E-06
        65    3.332445E-04
        66   -5.519431E-04
        67    2.186986E-04
        68    4.763032E-06
        69   -3.824790E-03
        70    2.130975E-06
        71    7.779370E-03
        72   -8.795454E-03
        73    1.016085E-03
        74   -2.104599E-04
        75    4.991100E-03
        76   -1.358973E-05
        77    6.703545E-06
        78    4.165973E-08
        79   -1.146290E-03
        80   -5.605800E-06
        81    4.019122E-08
        82    7.129780E-04
        83   -3.387949E-06
        84   -9.608361E-08
        85    8.249308E-04
        86    1.456683E-07
        87   -1.558500E-04
        88   -3.633845E-04
        89    1.046285E-03
        90   -2.418135E-03
        91   -8.335576E-03
        92   -9.920570E-03
        93    1.494621E-03
        94   -1.613475E-04
        95    2.209828E-02
        96   -2.095466E-03
        97   -3.211694E-04
        98    2.030203E-02
        99   -3.286832E-02
       100   -1.056335E-02
       101    3.411265E-03
       102    3.799872E-06
       103   -1.498403E-05
       104    1.118415E-05
       105    9.435364E-06
       106   -6.468918E-03
       107   -3.830076E-03
       108   -5.848007E-04
       109    3.451928E-04
       110    2.396080E-04
       111    6.169958E-04
       112   -1.452927E-02
       113   -7.239103E-03
       114   -4.943480E-03
       115    4.678724E-03
       116    2.647553E-04
       117   -7.771348E-04
       118    1.444398E-03
       119    9.800633E-03
       120   -1.760852E-05
       121   -5.686018E-06
       122   -8.382107E-05
       123    7.707631E-06
       124    5.801381E-06
       125   -7.285788E-04
       126    1.591668E-05
       127    1.827213E-06
       128    8.410366E-04
       129    7.079990E-04
       130    9.926661E-05
       131    2.133503E-04
       132    5.231315E-04
       133   -9.104984E-03
       134    2.789833E-02
       135    1.120337E-02
       136   -1.199146E-03
       137    5.201001E-04
       138   -1.596004E-01
       139   -8.054032E-03
       140    5.379201E-03
       141   -1.622800E-01
       142   -2.301061E-02
       143   -6.192812E-03
       144   -9.735840E-02
       145    1.278544E-04
       146   -1.527287E-04
       147    2.487430E-05
       148   -4.473165E-06
       149   -8.775304E-04
       150    3.159770E-03
       151    5.555366E-04
       152   -6.608216E-04
       153    1.052850E-04
       154    1.493396E-03
       155   -4.123572E-03
       156    5.363832E-03
       157    7.527716E-03
       158   -5.947782E-03
       159   -1.579933E-03
       160   -7.582122E-03
       161    3.261410E-03
       162   -1.142186E-02
       163   -1.383421E-05
       164    7.602268E-06
       165    9.192013E-04
       166   -1.622349E-05
       167    1.564439E-05
       168   -2.517428E-04
       169    3.478403E-05
       170   -2.584391E-05
       171   -9.814952E-04
       172    3.643528E-04
       173   -9.535545E-04
       174   -2.175892E-03
       175    2.220554E-03
       176    1.917495E-02
       177   -1.129419E-02
       178    8.471503E-03
       179    7.741621E-03
       180    9.982816E-07
       181   -1.237433E-01
       182    2.846679E-04
       183   -1.040664E-05
       184   -1.259902E-01
       185   -2.200723E-02
       186    1.374526E-03
       187   -1.314559E-01
       188    4.184318E-04
       189   -2.346269E-04
       190   -1.838049E-04
       191    9.254526E-08
       192    9.670363E-03
       193    9.873391E-07
       194   -1.642550E-03
       195    3.606395E-03
       196   -1.963844E-03
       197    2.899250E-06
       198    2.414915E-02
       199   -6.452934E-07
       200   -4.839498E-03
       201    5.984540E-03
       202   -1.145043E-03
       203   -2.264500E-04
       204    1.916477E-02
       205   -7.991048E-06
       206    9.959323E-05
       207    1.759044E-08
       208    4.416241E-04
       209   -7.025971E-05
       210   -7.311802E-08
       211    9.217835E-04
       212   -6.335863E-05
       213    4.951796E-08
       214   -1.514284E-03
       215   -2.314227E-08
       216    1.000170E-04
       217    2.148280E-04
       218    5.271409E-04
       219   -9.183249E-03
       220    3.040300E-02
       221    1.125321E-02
       222   -1.200583E-03
       223   -5.141265E-04
       224   -1.596460E-01
       225   -8.060992E-03
       226   -5.391332E-03
       227   -1.623336E-01
       228   -2.207073E-02
       229    7.805451E-03
       230   -9.731322E-02
       231    1.276191E-04
       232   -1.532835E-04
       233    2.566446E-05
       234    4.529980E-06
       235   -8.761625E-04
       236   -3.159982E-03
       237    5.574590E-04
       238   -6.627243E-04
       239    1.052652E-04
       240   -1.495438E-03
       241   -4.119572E-03
       242   -5.363669E-03
       243    7.300200E-03
       244   -5.704472E-03
       245   -1.595728E-03
       246    7.787763E-03
       247    3.251617E-03
       248    1.146219E-02
       249   -1.379737E-05
       250   -7.641023E-06
       251    9.197466E-04
       252   -1.639233E-05
       253   -1.559201E-05
       254   -2.523177E-04
       255    3.490344E-05
       256    2.584352E-05
       257   -9.816518E-04
       258   -3.643236E-04
       259   -3.187821E-04
       260   -1.902632E-04
       261   -1.541226E-02
       262   -1.060888E-05
       263   -8.334783E-08
       264    8.805526E-04
       265   -4.742038E-03
       266   -1.934512E-04
       267   -6.294493E-03
       268   -3.205866E-04
       269   -1.842339E-04
       270   -1.522377E-02
       271   -9.562102E-06
       272   -5.511182E-07
       273    8.833645E-04
       274   -4.854979E-03
       275    9.222339E-05
       276   -6.267046E-03
       277   -3.983365E-04
       278   -2.135960E-03
       279    3.020920E-02
       280   -6.075821E-06
       281    9.282918E-05
       282   -6.469576E-03
       283   -1.435980E-03
       284   -2.411899E-03
       285    1.057304E-03
       286   -4.024464E-04
       287   -2.141277E-03
       288    3.061540E-02
       289   -5.756839E-06
       290   -9.304856E-05
       291   -6.471837E-03
       292   -1.351728E-03
       293    2.539976E-03
       294    1.087517E-03
       295   -4.275464E-05
       296   -9.921179E-05
       297    8.733025E-05
       298    3.995176E-04
       299   -5.656887E-03
       300    1.204606E-03
       301    4.891443E-04
       302   -2.457477E-07
       303    2.720157E-02
       304    2.150926E-04
       305    5.369868E-07
       306    2.926611E-02
       307   -2.585906E-03
       308    3.948567E-05
       309    1.171906E-02
       310    2.438180E-05
       311   -1.054939E-05
       312   -1.383241E-05
       313    3.587667E-08
       314    4.394553E-03
       315    2.581244E-08
       316    2.120024E-05
       317    4.133608E-05
       318   -6.253632E-05
       319   -4.403319E-07
       320    1.333633E-02
       321   -8.029969E-08
       322   -9.665688E-04
       323    2.544377E-03
       324   -1.577808E-03
       325    3.814899E-05
       326    3.361800E-03
       327    2.625130E-06
       328    6.459868E-06
       329    1.402103E-08
       330   -3.453918E-05
       331   -4.156263E-06
       332    6.469406E-09
       333    7.162990E-04
       334   -4.510560E-06
       335   -2.528060E-08
       336   -6.699598E-04
       337    2.853434E-08
       338   -1.021397E-05
       339   -2.179746E-05
       340   -6.570072E-06
       341    4.516323E-04
       342   -5.165606E-03
       343   -8.046240E-04
       344   -3.146543E-04
       345    8.716312E-05
       346   -7.565611E-02
       347   -3.724304E-04
       348    2.027418E-04
       349   -7.026349E-02
       350   -1.423465E-03
       351    3.976445E-04
       352   -5.859231E-02
       353   -1.461056E-04
       354    1.941724E-04
       355   -7.447324E-03
       356    3.279945E-06
       357   -4.101611E-06
       358    8.216662E-07
       359    1.288312E-06
       360    5.979835E-05
       361    3.867448E-04
       362   -1.189676E-05
       363   -9.048398E-06
       364    2.094516E-05
       365    1.227694E-05
       366   -3.652914E-04
       367    1.337987E-03
       368   -7.627529E-05
       369    5.687215E-05
       370    1.940314E-05
       371    8.934187E-05
       372   -1.218745E-04
       373    1.507745E-04
       374    8.606239E-07
       375    1.292127E-06
       376    4.769553E-05
       377   -1.518822E-06
       378   -4.310343E-08
       379    8.354919E-05
       380    3.641734E-07
       381   -1.690467E-06
       382   -1.475395E-04
       383    1.134489E-04
       384   -1.009976E-05
       385   -2.156609E-05
       386   -6.295968E-06
       387    4.461976E-04
       388   -5.165835E-03
       389   -7.669864E-04
       390   -3.125384E-04
       391   -8.666416E-05
       392   -7.565401E-02
       393   -3.707384E-04
       394   -2.016720E-04
       395   -7.026159E-02
       396   -1.382542E-03
       397   -3.966617E-04
       398   -5.858774E-02
       399   -1.291168E-04
       400   -1.981823E-04
       401   -7.453030E-03
       402    3.243579E-06
       403   -4.091493E-06
       404    8.479142E-07
       405   -1.341974E-06
       406    5.975259E-05
       407   -3.867271E-04
       408   -1.151854E-05
       409   -9.013116E-06
       410    2.053166E-05
       411   -1.179120E-05
       412   -3.652124E-04
       413   -1.337945E-03
       414   -7.560247E-05
       415    5.760510E-05
       416    1.799737E-05
       417   -8.793146E-05
       418   -1.233291E-04
       419   -1.502725E-04
       420    8.604633E-07
       421   -1.285984E-06
       422    4.770195E-05
       423   -1.501641E-06
       424    4.391006E-08
       425    8.353886E-05
       426    3.472084E-07
       427    1.681418E-06
       428   -1.475377E-04
       429   -1.134505E-04
       430    4.120697E-03
       431    9.804378E-03
       432   -1.535967E-02
       433   -2.376752E-02
       434   -2.028166E-02
       435   -6.350765E-02
       436   -1.482532E-02
       437    7.928274E-06
       438    2.355008E-01
       439   -1.708554E-02
       440   -9.795764E-07
       441    2.331436E-01
       442   -1.530675E-02
       443   -1.104494E-04
       444    1.936544E-01
       445   -8.612625E-05
       446    1.070635E-05
       447    7.541989E-05
       448    1.788441E-07
       449    9.627701E-04
       450    2.615661E-07
       451   -1.978062E-04
       452   -1.300341E-03
       453    1.498147E-03
       454   -3.768089E-06
       455    4.078003E-03
       456    9.234931E-07
       457   -1.772656E-03
       458   -2.478214E-03
       459    4.250870E-03
       460   -8.423426E-06
       461    2.299181E-03
       462    9.759898E-06
       463   -1.308189E-04
       464    2.383780E-08
       465   -9.045127E-04
       466   -6.937507E-05
       467   -2.419246E-08
       468    4.463362E-04
       469    2.448871E-04
       470   -7.789302E-09
       471    7.671949E-04
       472    1.486501E-08
       473    8.797924E-03
       474    1.631328E-02
       475    2.688041E-02
       476   -2.002818E-03
       477   -1.716015E-03
       478    1.206315E-02
       479    1.481700E-03
       480   -3.162110E-03
       481    1.461329E-02
       482    8.792970E-03
       483    1.624345E-02
       484    2.661195E-02
       485   -1.999463E-03
       486    1.709167E-03
       487    1.206674E-02
       488    1.507322E-03
       489    3.117809E-03
       490    1.462707E-02
 Sym= X
 Ene= 0.947572
 Spin= Alpha
 Occup= 0.947572
         1   -3.547343E-03
         2   -8.729290E-03
         3    3.581621E-02
         4   -1.200854E-01
         5   -6.004702E-01
         6   -1.412730E+00
         7    1.147629E-02
         8    3.389206E-03
         9   -2.426885E-03
        10   -3.023715E-02
        11   -1.367873E-02
        12    8.051824E-04
        13    5.081536E-01
        14   -1.320562E+00
        15   -1.562649E-01
        16    7.013774E-04
        17   -2.073753E-04
        18   -4.940021E-04
        19    5.147958E-04
        20    2.162314E-05
        21   -1.243889E-04
        22   -1.465082E-02
        23    5.289058E-03
        24    9.361766E-03
        25   -2.878469E-03
        26   -1.043654E-04
        27   -2.600596E-04
        28   -6.001193E-01
        29    5.732847E-01
        30    2.683460E-02
        31    1.019639E-02
        32   -1.517878E-02
        33   -2.735511E-02
        34   -2.577116E-04
        35    3.034301E-04
        36   -3.814853E-05
        37    3.840566E-04
        38   -5.516160E-05
        39    5.059027E-05
        40   -3.830018E-05
        41   -3.519326E-04
        42    5.913630E-07
        43   -1.270078E-05
        44    4.629195E-03
        45    9.280990E-03
        46    2.025422E-02
        47   -3.729975E-01
        48    1.269083E+00
        49    7.217832E+00
        50    1.937003E-02
        51    1.607654E-05
        52   -6.889611E-04
        53    7.048489E-02
        54   -2.130268E-04
        55   -4.630690E-03
        56   -1.203451E-01
        57   -1.996340E-02
        58    1.292590E-01
        59   -3.389944E-04
        60   -6.945144E-06
        61    3.459396E-04
        62   -1.272771E-08