[Molden Format]
[Title]
ADC(2) - opt by CAM-B3LYP gaussian                                              
[Atoms] AU
 c     1    6 -.12588789760523E+01 -.22833296301999E+01 -.24948636837890E-01
 c     2    6 -.25574931053929E+01 0.00000000000000E+00 -.23691968959520E-01
 c     3    6 -.12588770863262E+01 0.22833296301999E+01 -.24954306016290E-01
 c     4    6 0.13320886199507E+01 0.22850077070059E+01 -.26951746538750E-01
 c     5    6 0.26868238359857E+01 0.00000000000000E+00 -.26437741030600E-01
 c     6    6 0.13320867302245E+01 -.22850077070059E+01 -.26946077360350E-01
 h     7    1 -.22977937121289E+01 -.40382313624087E+01 -.22371050392630E-01
 h     8    1 -.22977918224027E+01 0.40382332521348E+01 -.22380499023300E-01
 h     9    1 0.23512179234159E+01 0.40571966538783E+01 -.29234535707270E-01
 h    10    1 0.23512179234159E+01 -.40571947641522E+01 -.29223197350470E-01
 n    11    7 -.52733186864479E+01 0.00000000000000E+00 -.17996334395000E-01
 o    12    8 -.63812046469225E+01 0.20269448165729E+01 -.15568036314240E-01
 o    13    8 -.63812027571964E+01 -.20269467062990E+01 -.15583154123310E-01
 n    14    7 0.52441127328484E+01 0.00000000000000E+00 -.70347417454330E-01
 h    15    1 0.62045074583774E+01 0.16172030580838E+01 0.18832018534119E+00
 h    16    1 0.62045055686513E+01 -.16172049478099E+01 0.18831451616279E+00
[GTO]
    1 0
 s    6 1.00
 0.13575349682000E+05 0.60645503603591E-03
 0.20352333680000E+04 0.46979088884982E-02
 0.46322562359000E+03 0.24332477647552E-01
 0.13120019598000E+03 0.97399968307759E-01
 0.42853015891000E+02 0.30195584253780E+00
 0.15584185766000E+02 0.66233609137875E+00
 s    2 1.00
 0.62067138508000E+01 0.65595308539952E+00
 0.25764896527000E+01 0.37585633285142E+00
 s    1 1.00
 0.57696339419000E+00 0.10000000000000E+01
 s    1 1.00
 0.22972831358000E+00 0.10000000000000E+01
 s    1 1.00
 0.95164440028000E-01 0.10000000000000E+01
 s    1 1.00
 0.48475401370000E-01 0.10000000000000E+01
 p    4 1.00
 0.34697232244000E+02 0.11327220003114E-01
 0.79582622826000E+01 0.76169659202087E-01
 0.23780826883000E+01 0.30192252202676E+00
 0.81433208183000E+00 0.72785027349547E+00
 p    1 1.00
 0.28887547253000E+00 0.10000000000000E+01
 p    1 1.00
 0.10056823671000E+00 0.10000000000000E+01
 d    1 1.00
 0.10970000000000E+01 0.10000000000000E+01
 d    1 1.00
 0.31800000000000E+00 0.10000000000000E+01
 d    1 1.00
 0.90985336424000E-01 0.10000000000000E+01
 f    1 1.00
 0.76100000000000E+00 0.10000000000000E+01
 
    2 0
 s    6 1.00
 0.13575349682000E+05 0.60645503603591E-03
 0.20352333680000E+04 0.46979088884982E-02
 0.46322562359000E+03 0.24332477647552E-01
 0.13120019598000E+03 0.97399968307759E-01
 0.42853015891000E+02 0.30195584253780E+00
 0.15584185766000E+02 0.66233609137875E+00
 s    2 1.00
 0.62067138508000E+01 0.65595308539952E+00
 0.25764896527000E+01 0.37585633285142E+00
 s    1 1.00
 0.57696339419000E+00 0.10000000000000E+01
 s    1 1.00
 0.22972831358000E+00 0.10000000000000E+01
 s    1 1.00
 0.95164440028000E-01 0.10000000000000E+01
 s    1 1.00
 0.48475401370000E-01 0.10000000000000E+01
 p    4 1.00
 0.34697232244000E+02 0.11327220003114E-01
 0.79582622826000E+01 0.76169659202087E-01
 0.23780826883000E+01 0.30192252202676E+00
 0.81433208183000E+00 0.72785027349547E+00
 p    1 1.00
 0.28887547253000E+00 0.10000000000000E+01
 p    1 1.00
 0.10056823671000E+00 0.10000000000000E+01
 d    1 1.00
 0.10970000000000E+01 0.10000000000000E+01
 d    1 1.00
 0.31800000000000E+00 0.10000000000000E+01
 d    1 1.00
 0.90985336424000E-01 0.10000000000000E+01
 f    1 1.00
 0.76100000000000E+00 0.10000000000000E+01
 
    3 0
 s    6 1.00
 0.13575349682000E+05 0.60645503603591E-03
 0.20352333680000E+04 0.46979088884982E-02
 0.46322562359000E+03 0.24332477647552E-01
 0.13120019598000E+03 0.97399968307759E-01
 0.42853015891000E+02 0.30195584253780E+00
 0.15584185766000E+02 0.66233609137875E+00
 s    2 1.00
 0.62067138508000E+01 0.65595308539952E+00
 0.25764896527000E+01 0.37585633285142E+00
 s    1 1.00
 0.57696339419000E+00 0.10000000000000E+01
 s    1 1.00
 0.22972831358000E+00 0.10000000000000E+01
 s    1 1.00
 0.95164440028000E-01 0.10000000000000E+01
 s    1 1.00
 0.48475401370000E-01 0.10000000000000E+01
 p    4 1.00
 0.34697232244000E+02 0.11327220003114E-01
 0.79582622826000E+01 0.76169659202087E-01
 0.23780826883000E+01 0.30192252202676E+00
 0.81433208183000E+00 0.72785027349547E+00
 p    1 1.00
 0.28887547253000E+00 0.10000000000000E+01
 p    1 1.00
 0.10056823671000E+00 0.10000000000000E+01
 d    1 1.00
 0.10970000000000E+01 0.10000000000000E+01
 d    1 1.00
 0.31800000000000E+00 0.10000000000000E+01
 d    1 1.00
 0.90985336424000E-01 0.10000000000000E+01
 f    1 1.00
 0.76100000000000E+00 0.10000000000000E+01
 
    4 0
 s    6 1.00
 0.13575349682000E+05 0.60645503603591E-03
 0.20352333680000E+04 0.46979088884982E-02
 0.46322562359000E+03 0.24332477647552E-01
 0.13120019598000E+03 0.97399968307759E-01
 0.42853015891000E+02 0.30195584253780E+00
 0.15584185766000E+02 0.66233609137875E+00
 s    2 1.00
 0.62067138508000E+01 0.65595308539952E+00
 0.25764896527000E+01 0.37585633285142E+00
 s    1 1.00
 0.57696339419000E+00 0.10000000000000E+01
 s    1 1.00
 0.22972831358000E+00 0.10000000000000E+01
 s    1 1.00
 0.95164440028000E-01 0.10000000000000E+01
 s    1 1.00
 0.48475401370000E-01 0.10000000000000E+01
 p    4 1.00
 0.34697232244000E+02 0.11327220003114E-01
 0.79582622826000E+01 0.76169659202087E-01
 0.23780826883000E+01 0.30192252202676E+00
 0.81433208183000E+00 0.72785027349547E+00
 p    1 1.00
 0.28887547253000E+00 0.10000000000000E+01
 p    1 1.00
 0.10056823671000E+00 0.10000000000000E+01
 d    1 1.00
 0.10970000000000E+01 0.10000000000000E+01
 d    1 1.00
 0.31800000000000E+00 0.10000000000000E+01
 d    1 1.00
 0.90985336424000E-01 0.10000000000000E+01
 f    1 1.00
 0.76100000000000E+00 0.10000000000000E+01
 
    5 0
 s    6 1.00
 0.13575349682000E+05 0.60645503603591E-03
 0.20352333680000E+04 0.46979088884982E-02
 0.46322562359000E+03 0.24332477647552E-01
 0.13120019598000E+03 0.97399968307759E-01
 0.42853015891000E+02 0.30195584253780E+00
 0.15584185766000E+02 0.66233609137875E+00
 s    2 1.00
 0.62067138508000E+01 0.65595308539952E+00
 0.25764896527000E+01 0.37585633285142E+00
 s    1 1.00
 0.57696339419000E+00 0.10000000000000E+01
 s    1 1.00
 0.22972831358000E+00 0.10000000000000E+01
 s    1 1.00
 0.95164440028000E-01 0.10000000000000E+01
 s    1 1.00
 0.48475401370000E-01 0.10000000000000E+01
 p    4 1.00
 0.34697232244000E+02 0.11327220003114E-01
 0.79582622826000E+01 0.76169659202087E-01
 0.23780826883000E+01 0.30192252202676E+00
 0.81433208183000E+00 0.72785027349547E+00
 p    1 1.00
 0.28887547253000E+00 0.10000000000000E+01
 p    1 1.00
 0.10056823671000E+00 0.10000000000000E+01
 d    1 1.00
 0.10970000000000E+01 0.10000000000000E+01
 d    1 1.00
 0.31800000000000E+00 0.10000000000000E+01
 d    1 1.00
 0.90985336424000E-01 0.10000000000000E+01
 f    1 1.00
 0.76100000000000E+00 0.10000000000000E+01
 
    6 0
 s    6 1.00
 0.13575349682000E+05 0.60645503603591E-03
 0.20352333680000E+04 0.46979088884982E-02
 0.46322562359000E+03 0.24332477647552E-01
 0.13120019598000E+03 0.97399968307759E-01
 0.42853015891000E+02 0.30195584253780E+00
 0.15584185766000E+02 0.66233609137875E+00
 s    2 1.00
 0.62067138508000E+01 0.65595308539952E+00
 0.25764896527000E+01 0.37585633285142E+00
 s    1 1.00
 0.57696339419000E+00 0.10000000000000E+01
 s    1 1.00
 0.22972831358000E+00 0.10000000000000E+01
 s    1 1.00
 0.95164440028000E-01 0.10000000000000E+01
 s    1 1.00
 0.48475401370000E-01 0.10000000000000E+01
 p    4 1.00
 0.34697232244000E+02 0.11327220003114E-01
 0.79582622826000E+01 0.76169659202087E-01
 0.23780826883000E+01 0.30192252202676E+00
 0.81433208183000E+00 0.72785027349547E+00
 p    1 1.00
 0.28887547253000E+00 0.10000000000000E+01
 p    1 1.00
 0.10056823671000E+00 0.10000000000000E+01
 d    1 1.00
 0.10970000000000E+01 0.10000000000000E+01
 d    1 1.00
 0.31800000000000E+00 0.10000000000000E+01
 d    1 1.00
 0.90985336424000E-01 0.10000000000000E+01
 f    1 1.00
 0.76100000000000E+00 0.10000000000000E+01
 
    7 0
 s    3 1.00
 0.34061341000000E+02 0.25439307208879E-01
 0.51235746000000E+01 0.19008594890375E+00
 0.11646626000000E+01 0.85244113011042E+00
 s    1 1.00
 0.32723041000000E+00 0.10000000000000E+01
 s    1 1.00
 0.10307241000000E+00 0.10000000000000E+01
 p    1 1.00
 0.80000000000000E+00 0.10000000000000E+01
 p    1 1.00
 0.95774129632000E-01 0.10000000000000E+01
 
    8 0
 s    3 1.00
 0.34061341000000E+02 0.25439307208879E-01
 0.51235746000000E+01 0.19008594890375E+00
 0.11646626000000E+01 0.85244113011042E+00
 s    1 1.00
 0.32723041000000E+00 0.10000000000000E+01
 s    1 1.00
 0.10307241000000E+00 0.10000000000000E+01
 p    1 1.00
 0.80000000000000E+00 0.10000000000000E+01
 p    1 1.00
 0.95774129632000E-01 0.10000000000000E+01
 
    9 0
 s    3 1.00
 0.34061341000000E+02 0.25439307208879E-01
 0.51235746000000E+01 0.19008594890375E+00
 0.11646626000000E+01 0.85244113011042E+00
 s    1 1.00
 0.32723041000000E+00 0.10000000000000E+01
 s    1 1.00
 0.10307241000000E+00 0.10000000000000E+01
 p    1 1.00
 0.80000000000000E+00 0.10000000000000E+01
 p    1 1.00
 0.95774129632000E-01 0.10000000000000E+01
 
   10 0
 s    3 1.00
 0.34061341000000E+02 0.25439307208879E-01
 0.51235746000000E+01 0.19008594890375E+00
 0.11646626000000E+01 0.85244113011042E+00
 s    1 1.00
 0.32723041000000E+00 0.10000000000000E+01
 s    1 1.00
 0.10307241000000E+00 0.10000000000000E+01
 p    1 1.00
 0.80000000000000E+00 0.10000000000000E+01
 p    1 1.00
 0.95774129632000E-01 0.10000000000000E+01
 
   11 0
 s    6 1.00
 0.19730800647000E+05 0.58626402628763E-03
 0.29578958745000E+04 0.45428820586397E-02
 0.67322133595000E+03 0.23558413450084E-01
 0.19068249494000E+03 0.94709193292923E-01
 0.62295441898000E+02 0.29719784913376E+00
 0.22654161182000E+02 0.66916246895232E+00
 s    2 1.00
 0.89791477428000E+01 0.64596683630063E+00
 0.36863002370000E+01 0.38700574393705E+00
 s    1 1.00
 0.84660076805000E+00 0.10000000000000E+01
 s    1 1.00
 0.33647133771000E+00 0.10000000000000E+01
 s    1 1.00
 0.13647653675000E+00 0.10000000000000E+01
 s    1 1.00
 0.68441605847000E-01 0.10000000000000E+01
 p    4 1.00
 0.49200380510000E+02 0.11448825101764E-01
 0.11346790537000E+02 0.78422337970864E-01
 0.34273972411000E+01 0.30818094738830E+00
 0.11785525134000E+01 0.72027196368413E+00
 p    1 1.00
 0.41642204972000E+00 0.10000000000000E+01
 p    1 1.00
 0.14260826011000E+00 0.10000000000000E+01
 d    1 1.00
 0.16540000000000E+01 0.10000000000000E+01
 d    1 1.00
 0.46900000000000E+00 0.10000000000000E+01
 d    1 1.00
 0.12829642058000E+00 0.10000000000000E+01
 f    1 1.00
 0.10930000000000E+01 0.10000000000000E+01
 
   12 0
 s    6 1.00
 0.27032382631000E+05 0.57227335211155E-03
 0.40523871392000E+04 0.44353233492995E-02
 0.92232722710000E+03 0.23020107706038E-01
 0.26124070989000E+03 0.92822490667928E-01
 0.85354641351000E+02 0.29378500009671E+00
 0.31035035245000E+02 0.67401604501641E+00
 s    2 1.00
 0.12260860728000E+02 0.63839937025506E+00
 0.49987076005000E+01 0.39534587125718E+00
 s    1 1.00
 0.11703108158000E+01 0.10000000000000E+01
 s    1 1.00
 0.46474740994000E+00 0.10000000000000E+01
 s    1 1.00
 0.18504536357000E+00 0.10000000000000E+01
 s    1 1.00
 0.70288026270000E-01 0.10000000000000E+01
 p    4 1.00
 0.63274954801000E+02 0.12018332222616E-01
 0.14627049379000E+02 0.83005421790056E-01
 0.44501223456000E+01 0.31991743925964E+00
 0.15275799647000E+01 0.70715542916104E+00
 p    1 1.00
 0.52935117943000E+00 0.10000000000000E+01
 p    1 1.00
 0.17478421270000E+00 0.10000000000000E+01
 p    1 1.00
 0.51112745706000E-01 0.10000000000000E+01
 d    1 1.00
 0.23140000000000E+01 0.10000000000000E+01
 d    1 1.00
 0.64500000000000E+00 0.10000000000000E+01
 d    1 1.00
 0.14696477366000E+00 0.10000000000000E+01
 f    1 1.00
 0.14280000000000E+01 0.10000000000000E+01
 
   13 0
 s    6 1.00
 0.27032382631000E+05 0.57227335211155E-03
 0.40523871392000E+04 0.44353233492995E-02
 0.92232722710000E+03 0.23020107706038E-01
 0.26124070989000E+03 0.92822490667928E-01
 0.85354641351000E+02 0.29378500009671E+00
 0.31035035245000E+02 0.67401604501641E+00
 s    2 1.00
 0.12260860728000E+02 0.63839937025506E+00
 0.49987076005000E+01 0.39534587125718E+00
 s    1 1.00
 0.11703108158000E+01 0.10000000000000E+01
 s    1 1.00
 0.46474740994000E+00 0.10000000000000E+01
 s    1 1.00
 0.18504536357000E+00 0.10000000000000E+01
 s    1 1.00
 0.70288026270000E-01 0.10000000000000E+01
 p    4 1.00
 0.63274954801000E+02 0.12018332222616E-01
 0.14627049379000E+02 0.83005421790056E-01
 0.44501223456000E+01 0.31991743925964E+00
 0.15275799647000E+01 0.70715542916104E+00
 p    1 1.00
 0.52935117943000E+00 0.10000000000000E+01
 p    1 1.00
 0.17478421270000E+00 0.10000000000000E+01
 p    1 1.00
 0.51112745706000E-01 0.10000000000000E+01
 d    1 1.00
 0.23140000000000E+01 0.10000000000000E+01
 d    1 1.00
 0.64500000000000E+00 0.10000000000000E+01
 d    1 1.00
 0.14696477366000E+00 0.10000000000000E+01
 f    1 1.00
 0.14280000000000E+01 0.10000000000000E+01
 
   14 0
 s    6 1.00
 0.19730800647000E+05 0.58626402628763E-03
 0.29578958745000E+04 0.45428820586397E-02
 0.67322133595000E+03 0.23558413450084E-01
 0.19068249494000E+03 0.94709193292923E-01
 0.62295441898000E+02 0.29719784913376E+00
 0.22654161182000E+02 0.66916246895232E+00
 s    2 1.00
 0.89791477428000E+01 0.64596683630063E+00
 0.36863002370000E+01 0.38700574393705E+00
 s    1 1.00
 0.84660076805000E+00 0.10000000000000E+01
 s    1 1.00
 0.33647133771000E+00 0.10000000000000E+01
 s    1 1.00
 0.13647653675000E+00 0.10000000000000E+01
 s    1 1.00
 0.68441605847000E-01 0.10000000000000E+01
 p    4 1.00
 0.49200380510000E+02 0.11448825101764E-01
 0.11346790537000E+02 0.78422337970864E-01
 0.34273972411000E+01 0.30818094738830E+00
 0.11785525134000E+01 0.72027196368413E+00
 p    1 1.00
 0.41642204972000E+00 0.10000000000000E+01
 p    1 1.00
 0.14260826011000E+00 0.10000000000000E+01
 d    1 1.00
 0.16540000000000E+01 0.10000000000000E+01
 d    1 1.00
 0.46900000000000E+00 0.10000000000000E+01
 d    1 1.00
 0.12829642058000E+00 0.10000000000000E+01
 f    1 1.00
 0.10930000000000E+01 0.10000000000000E+01
 
   15 0
 s    3 1.00
 0.34061341000000E+02 0.25439307208879E-01
 0.51235746000000E+01 0.19008594890375E+00
 0.11646626000000E+01 0.85244113011042E+00
 s    1 1.00
 0.32723041000000E+00 0.10000000000000E+01
 s    1 1.00
 0.10307241000000E+00 0.10000000000000E+01
 p    1 1.00
 0.80000000000000E+00 0.10000000000000E+01
 p    1 1.00
 0.95774129632000E-01 0.10000000000000E+01
 
   16 0
 s    3 1.00
 0.34061341000000E+02 0.25439307208879E-01
 0.51235746000000E+01 0.19008594890375E+00
 0.11646626000000E+01 0.85244113011042E+00
 s    1 1.00
 0.32723041000000E+00 0.10000000000000E+01
 s    1 1.00
 0.10307241000000E+00 0.10000000000000E+01
 p    1 1.00
 0.80000000000000E+00 0.10000000000000E+01
 p    1 1.00
 0.95774129632000E-01 0.10000000000000E+01
 
[MO]
 Sym= X
 Ene= -0.223737
 Spin= Alpha
 Occup= -0.223737
         1   -1.292206E-04
         2   -3.021805E-04
         3    9.095507E-04
         4   -2.254600E-03
         5   -1.102070E-02
         6   -9.189725E-03
         7    1.093842E-03
         8    1.311341E-04
         9    3.177705E-02
        10   -2.155953E-03
        11    2.828366E-04
        12    2.984516E-02
        13   -3.043678E-02
        14    9.099269E-03
        15    7.052623E-03
        16   -6.845073E-06
        17   -4.836130E-06
        18    1.168120E-05
        19   -4.523348E-06
        20   -6.520150E-03
        21    4.141562E-03
        22   -5.593537E-04
        23    3.326648E-04
        24    2.266889E-04
        25   -5.590591E-04
        26   -1.467924E-02
        27    7.760155E-03
        28   -4.559655E-03
        29    4.287989E-03
        30    2.716654E-04
        31    7.998977E-04
        32    9.169369E-04
        33   -9.374857E-03
        34   -1.708255E-05
        35    4.981469E-06
        36   -1.645411E-04
        37    7.390487E-06
        38   -5.153558E-06
        39   -6.865642E-04
        40    1.552816E-05
        41   -1.529784E-06
        42    9.073193E-04
        43   -7.452434E-04
        44    1.941734E-05
        45    4.258445E-05
        46    9.683335E-05
        47   -2.033744E-03
        48   -4.558360E-02
        49    4.036715E-03
        50    4.325914E-04
        51    1.177411E-06
        52    2.189609E-01
        53   -2.062125E-04
        54    2.102008E-05
        55    2.268789E-01
        56   -1.453069E-02
        57   -1.192223E-03
        58    2.055715E-01
        59    2.296333E-05
        60   -2.086831E-05
        61   -2.095021E-06
        62    9.562346E-08
        63   -7.443109E-04
        64    1.230255E-06
        65    2.867458E-04
        66   -4.854921E-04
        67    1.987463E-04
        68    4.846663E-06
        69   -3.536652E-03
        70    2.176300E-06
        71    6.915242E-03
        72   -7.896818E-03
        73    9.815758E-04
        74   -2.026761E-04
        75    5.545647E-03
        76   -1.322526E-05
        77    7.335815E-06
        78    5.019304E-08
        79   -1.263990E-03
        80   -5.202866E-06
        81    3.392021E-08
        82    7.742441E-04
        83   -4.639164E-06
        84   -1.012612E-07
        85    9.215770E-04
        86    1.485132E-07
        87   -1.294274E-04
        88   -3.027561E-04
        89    9.178692E-04
        90   -2.326721E-03
        91   -8.904080E-03
        92   -9.116200E-03
        93    1.094785E-03
        94   -1.324673E-04
        95    3.183619E-02
        96   -2.139103E-03
        97   -2.674269E-04
        98    2.990244E-02
        99   -3.118021E-02
       100   -1.039150E-02
       101    7.171461E-03
       102   -6.987718E-06
       103   -4.841373E-06
       104    1.182909E-05
       105    4.792332E-06
       106   -6.519391E-03
       107   -4.141821E-03
       108   -5.551990E-04
       109    3.274362E-04
       110    2.277628E-04
       111    5.551485E-04
       112   -1.467509E-02
       113   -7.759608E-03
       114   -4.781805E-03
       115    4.534726E-03
       116    2.470790E-04
       117   -6.471874E-04
       118    9.254792E-04
       119    9.348274E-03
       120   -1.722148E-05
       121   -4.958880E-06
       122   -1.648700E-04
       123    7.672326E-06
       124    5.160824E-06
       125   -6.861909E-04
       126    1.543272E-05
       127    1.492212E-06
       128    9.073872E-04
       129    7.451700E-04
       130    7.853038E-05
       131    1.671997E-04
       132    5.196039E-04
       133   -8.272116E-03
       134    2.797240E-02
       135    1.027290E-02
       136   -7.966188E-04
       137    3.887346E-04
       138   -1.564852E-01
       139   -7.156053E-03
       140    4.868901E-03
       141   -1.591591E-01
       142   -2.209236E-02
       143   -5.456755E-03
       144   -9.653633E-02
       145    1.025516E-04
       146   -1.237132E-04
       147    2.116161E-05
       148   -4.776021E-06
       149   -1.173159E-03
       150    3.207865E-03
       151    5.066942E-04
       152   -5.947971E-04
       153    8.810295E-05
       154    1.363766E-03
       155   -4.631077E-03
       156    5.493038E-03
       157    6.980804E-03
       158   -5.493100E-03
       159   -1.487704E-03
       160   -6.964490E-03
       161    2.994336E-03
       162   -1.044493E-02
       163   -1.252858E-05
       164    5.872203E-06
       165    8.949574E-04
       166   -1.389585E-05
       167    1.546313E-05
       168   -2.124893E-04
       169    3.070471E-05
       170   -2.334151E-05
       171   -9.882221E-04
       172    3.915627E-04
       173   -8.574761E-04
       174   -1.957699E-03
       175    1.957851E-03
       176    1.792555E-02
       177   -7.633867E-03
       178    8.382605E-03
       179    6.548991E-03
       180    1.400730E-06
       181   -1.300843E-01
       182   -9.031049E-06
       183   -9.228459E-06
       184   -1.320773E-01
       185   -1.917152E-02
       186    1.323926E-03
       187   -1.295650E-01
       188    3.585612E-04
       189   -1.924313E-04
       190   -1.661299E-04
       191    6.807184E-08
       192    9.132387E-03
       193    9.763684E-07
       194   -1.506088E-03
       195    3.321987E-03
       196   -1.815899E-03
       197    2.668931E-06
       198    2.303150E-02
       199   -7.613329E-07
       200   -4.272377E-03
       201    5.393988E-03
       202   -1.121610E-03
       203   -2.163070E-04
       204    1.872886E-02
       205   -9.228295E-06
       206    8.878776E-05
       207    1.880047E-08
       208    5.066178E-04
       209   -6.380420E-05
       210   -6.689598E-08
       211    8.149228E-04
       212   -5.531707E-05
       213    4.167250E-08
       214   -1.494622E-03
       215   -1.863796E-08
       216    7.929213E-05
       217    1.687102E-04
       218    5.232485E-04
       219   -8.347126E-03
       220    3.034954E-02
       221    1.032604E-02
       222   -7.983424E-04
       223   -3.834910E-04
       224   -1.565302E-01
       225   -7.163185E-03
       226   -4.880455E-03
       227   -1.592120E-01
       228   -2.117238E-02
       229    7.004911E-03
       230   -9.649670E-02
       231    1.023168E-04
       232   -1.242630E-04
       233    2.194627E-05
       234    4.792489E-06
       235   -1.171837E-03
       236   -3.208069E-03
       237    5.086088E-04
       238   -5.965683E-04
       239    8.795945E-05
       240   -1.365722E-03
       241   -4.627030E-03
       242   -5.492957E-03
       243    6.761821E-03
       244   -5.258840E-03
       245   -1.502982E-03
       246    7.165835E-03
       247    2.983520E-03
       248    1.048295E-02
       249   -1.250115E-05
       250   -5.909064E-06
       251    8.954997E-04
       252   -1.405281E-05
       253   -1.541181E-05
       254   -2.130614E-04
       255    3.082487E-05
       256    2.333965E-05
       257   -9.883775E-04
       258   -3.915339E-04
       259   -2.135237E-04
       260   -4.796481E-05
       261   -1.402247E-02
       262   -9.393882E-06
       263    1.281454E-05
       264    1.229932E-03
       265   -4.416084E-03
       266   -8.523619E-05
       267   -6.082854E-03
       268   -2.148180E-04
       269   -4.168160E-05
       270   -1.384990E-02
       271   -8.348809E-06
       272   -1.346935E-05
       273    1.232680E-03
       274   -4.527523E-03
       275   -1.364065E-05
       276   -6.058413E-03
       277   -2.921825E-04
       278   -1.851080E-03
       279    2.764266E-02
       280   -3.245887E-06
       281    7.330285E-05
       282   -6.388702E-03
       283   -1.073731E-03
       284   -2.248091E-03
       285    2.947561E-04
       286   -2.959800E-04
       287   -1.856313E-03
       288    2.803711E-02
       289   -2.996020E-06
       290   -7.352584E-05
       291   -6.390946E-03
       292   -9.918065E-04
       293    2.372069E-03
       294    3.239393E-04
       295   -2.853907E-05
       296   -6.560554E-05
       297    4.318532E-05
       298    2.823979E-04
       299   -5.008535E-03
       300    1.618130E-03
       301    2.950690E-04
       302   -8.627249E-08
       303    2.576734E-02
       304    5.863626E-05
       305    9.288843E-07
       306    2.787988E-02
       307   -2.347921E-03
       308    3.557481E-05
       309    1.225947E-02
       310    1.922059E-05
       311   -3.051413E-06
       312   -1.616918E-05
       313   -4.336795E-09
       314    4.689278E-03
       315   -1.386118E-08
       316    1.033286E-05
       317    5.548929E-05
       318   -6.582215E-05
       319   -5.925159E-07
       320    1.417627E-02
       321   -2.085662E-07
       322   -9.401252E-04
       323    2.375606E-03
       324   -1.435481E-03
       325    3.580322E-05
       326    3.785300E-03
       327    2.973277E-06
       328    6.200902E-06
       329    5.682288E-09
       330   -2.535226E-05
       331   -4.250021E-06
       332    2.034547E-08
       333    7.579843E-04
       334   -4.069362E-06
       335   -2.796906E-08
       336   -7.239707E-04
       337    3.501227E-08
       338   -6.859623E-06
       339   -1.385358E-05
       340   -1.628223E-05
       341    3.920311E-04
       342   -4.764705E-03
       343   -7.726848E-04
       344   -1.826343E-04
       345    6.601984E-05
       346   -8.113317E-02
       347   -2.473032E-04
       348    1.782238E-04
       349   -7.530409E-02
       350   -1.272611E-03
       351    3.458247E-04
       352   -6.216295E-02
       353   -1.186614E-04
       354    1.964396E-04
       355   -7.745878E-03
       356    2.759350E-06
       357   -2.840312E-06
       358    8.096208E-08
       359    3.560373E-07
       360    4.215116E-05
       361    4.468457E-04
       362   -1.127613E-05
       363   -6.192292E-06
       364    1.746842E-05
       365    1.031669E-05
       366   -4.470617E-04
       367    1.522585E-03
       368   -7.362955E-05
       369    5.932086E-05
       370    1.430869E-05
       371    8.960799E-05
       372   -2.418504E-04
       373    1.811526E-04
       374    6.759978E-07
       375    1.044625E-06
       376    5.709187E-05
       377   -1.098270E-06
       378   -1.548950E-08
       379    8.875115E-05
       380    1.913234E-07
       381   -1.386022E-06
       382   -1.653479E-04
       383    1.290687E-04
       384   -6.738712E-06
       385   -1.360758E-05
       386   -1.600723E-05
       387    3.864868E-04
       388   -4.763514E-03
       389   -7.336215E-04
       390   -1.785129E-04
       391   -6.731029E-05
       392   -8.112885E-02
       393   -2.436963E-04
       394   -1.785876E-04
       395   -7.530023E-02
       396   -1.232173E-03
       397   -3.456374E-04
       398   -6.215606E-02
       399   -1.012472E-04
       400   -2.005870E-04
       401   -7.751174E-03
       402    2.744394E-06
       403   -2.856314E-06
       404    1.119207E-07
       405   -4.114244E-07
       406    4.211538E-05
       407   -4.468092E-04
       408   -1.088114E-05
       409   -6.164386E-06
       410    1.704553E-05
       411   -9.805202E-06
       412   -4.469344E-04
       413   -1.522486E-03
       414   -7.279459E-05
       415    5.988102E-05
       416    1.291357E-05
       417   -8.857970E-05
       418   -2.432335E-04
       419   -1.804499E-04
       420    6.781963E-07
       421   -1.043475E-06
       422    5.709493E-05
       423   -1.082081E-06
       424    2.250621E-08
       425    8.874035E-05
       426    1.721849E-07
       427    1.377462E-06
       428   -1.653412E-04
       429   -1.290645E-04
       430    3.788013E-03
       431    9.014897E-03
       432   -1.413405E-02
       433   -2.182079E-02
       434   -1.982887E-02
       435   -6.100537E-02
       436   -1.317457E-02
       437    7.009210E-06
       438    2.162721E-01
       439   -1.525606E-02
       440   -1.237747E-06
       441    2.144346E-01
       442   -1.303980E-02
       443   -1.024540E-04
       444    1.806852E-01
       445   -8.287781E-05
       446    2.483140E-05
       447    5.804641E-05
       448    1.490494E-07
       449    1.103941E-03
       450    2.369161E-07
       451   -2.113477E-04
       452   -1.139789E-03
       453    1.351136E-03
       454   -3.453002E-06
       455    4.362152E-03
       456    8.726451E-07
       457   -1.868073E-03
       458   -2.050363E-03
       459    3.918436E-03
       460   -7.569549E-06
       461    2.321234E-03
       462    9.423292E-06
       463   -1.230032E-04
       464    2.106255E-08
       465   -8.029558E-04
       466   -6.102403E-05
       467   -2.305485E-08
       468    3.607816E-04
       469    2.260501E-04
       470   -5.203527E-09
       471    7.164967E-04
       472    1.355755E-08
       473    8.359222E-03
       474    1.527421E-02
       475    2.497687E-02
       476   -1.819706E-03
       477   -1.588450E-03
       478    1.117111E-02
       479    1.691527E-03
       480   -2.986890E-03
       481    1.418228E-02
       482    8.354970E-03
       483    1.521058E-02
       484    2.472826E-02
       485   -1.816690E-03
       486    1.582181E-03
       487    1.117449E-02
       488    1.715323E-03
       489    2.946438E-03
       490    1.419494E-02
 Sym= X
 Ene= -0.741585
 Spin= Alpha
 Occup= -0.741585
         1   -2.247379E-05
         2   -5.121763E-05
         3    1.268429E-04
         4   -1.759784E-04
         5   -9.662382E-03
         6   -4.720945E-04
         7   -1.375685E-04
         8   -1.570271E-04
         9   -1.895807E-01
        10   -5.653402E-04
        11   -3.255205E-05
        12   -1.900595E-01
        13    3.700482E-03
        14   -6.212403E-03
        15   -1.113685E-01
        16   -7.823166E-06
        17    2.458454E-06
        18    5.364712E-06
        19    1.536931E-06
        20   -4.980458E-03
        21   -5.491273E-04
        22   -9.879395E-05
        23    6.003436E-05
        24    3.875958E-05
        25    1.727988E-05
        26   -9.477174E-03
        27    3.916154E-04
        28    8.023190E-04
        29   -9.364622E-04
        30    1.341432E-04
        31    4.541218E-04
        32   -2.597558E-03
        33   -6.990597E-04
        34   -4.298902E-06
        35   -8.091006E-07
        36    1.174699E-03
        37    8.729282E-07
        38    1.449831E-07
        39   -1.419093E-03
        40    4.894654E-06
        41    9.405392E-07
        42   -1.569303E-04
        43    1.026872E-06
        44    1.654907E-07
        45    3.916195E-07
        46    4.262242E-07
        47   -3.249615E-05
        48    2.159864E-03
        49    1.186960E-04
        50   -1.314286E-06
        51    1.000086E-04
        52   -1.636405E-05
        53   -4.024396E-06
        54    2.029077E-04
        55   -9.282453E-06
        56    1.018064E-03
        57   -9.499833E-03
        58    4.686954E-05
        59   -3.228537E-08
        60   -1.072018E-07
        61    1.394871E-07
        62    1.003559E-05