[Molden Format]
[Title]
ADC(2) - opt by CAM-B3LYP gaussian                                              
[Atoms] AU
 c     1    6 -.12588789760523E+01 -.22833296301999E+01 -.24948636837890E-01
 c     2    6 -.25574931053929E+01 0.00000000000000E+00 -.23691968959520E-01
 c     3    6 -.12588770863262E+01 0.22833296301999E+01 -.24954306016290E-01
 c     4    6 0.13320886199507E+01 0.22850077070059E+01 -.26951746538750E-01
 c     5    6 0.26868238359857E+01 0.00000000000000E+00 -.26437741030600E-01
 c     6    6 0.13320867302245E+01 -.22850077070059E+01 -.26946077360350E-01
 h     7    1 -.22977937121289E+01 -.40382313624087E+01 -.22371050392630E-01
 h     8    1 -.22977918224027E+01 0.40382332521348E+01 -.22380499023300E-01
 h     9    1 0.23512179234159E+01 0.40571966538783E+01 -.29234535707270E-01
 h    10    1 0.23512179234159E+01 -.40571947641522E+01 -.29223197350470E-01
 n    11    7 -.52733186864479E+01 0.00000000000000E+00 -.17996334395000E-01
 o    12    8 -.63812046469225E+01 0.20269448165729E+01 -.15568036314240E-01
 o    13    8 -.63812027571964E+01 -.20269467062990E+01 -.15583154123310E-01
 n    14    7 0.52441127328484E+01 0.00000000000000E+00 -.70347417454330E-01
 h    15    1 0.62045074583774E+01 0.16172030580838E+01 0.18832018534119E+00
 h    16    1 0.62045055686513E+01 -.16172049478099E+01 0.18831451616279E+00
[GTO]
    1 0
 s    6 1.00
 0.13575349682000E+05 0.60645503603591E-03
 0.20352333680000E+04 0.46979088884982E-02
 0.46322562359000E+03 0.24332477647552E-01
 0.13120019598000E+03 0.97399968307759E-01
 0.42853015891000E+02 0.30195584253780E+00
 0.15584185766000E+02 0.66233609137875E+00
 s    2 1.00
 0.62067138508000E+01 0.65595308539952E+00
 0.25764896527000E+01 0.37585633285142E+00
 s    1 1.00
 0.57696339419000E+00 0.10000000000000E+01
 s    1 1.00
 0.22972831358000E+00 0.10000000000000E+01
 s    1 1.00
 0.95164440028000E-01 0.10000000000000E+01
 s    1 1.00
 0.48475401370000E-01 0.10000000000000E+01
 p    4 1.00
 0.34697232244000E+02 0.11327220003114E-01
 0.79582622826000E+01 0.76169659202087E-01
 0.23780826883000E+01 0.30192252202676E+00
 0.81433208183000E+00 0.72785027349547E+00
 p    1 1.00
 0.28887547253000E+00 0.10000000000000E+01
 p    1 1.00
 0.10056823671000E+00 0.10000000000000E+01
 d    1 1.00
 0.10970000000000E+01 0.10000000000000E+01
 d    1 1.00
 0.31800000000000E+00 0.10000000000000E+01
 d    1 1.00
 0.90985336424000E-01 0.10000000000000E+01
 f    1 1.00
 0.76100000000000E+00 0.10000000000000E+01
 
    2 0
 s    6 1.00
 0.13575349682000E+05 0.60645503603591E-03
 0.20352333680000E+04 0.46979088884982E-02
 0.46322562359000E+03 0.24332477647552E-01
 0.13120019598000E+03 0.97399968307759E-01
 0.42853015891000E+02 0.30195584253780E+00
 0.15584185766000E+02 0.66233609137875E+00
 s    2 1.00
 0.62067138508000E+01 0.65595308539952E+00
 0.25764896527000E+01 0.37585633285142E+00
 s    1 1.00
 0.57696339419000E+00 0.10000000000000E+01
 s    1 1.00
 0.22972831358000E+00 0.10000000000000E+01
 s    1 1.00
 0.95164440028000E-01 0.10000000000000E+01
 s    1 1.00
 0.48475401370000E-01 0.10000000000000E+01
 p    4 1.00
 0.34697232244000E+02 0.11327220003114E-01
 0.79582622826000E+01 0.76169659202087E-01
 0.23780826883000E+01 0.30192252202676E+00
 0.81433208183000E+00 0.72785027349547E+00
 p    1 1.00
 0.28887547253000E+00 0.10000000000000E+01
 p    1 1.00
 0.10056823671000E+00 0.10000000000000E+01
 d    1 1.00
 0.10970000000000E+01 0.10000000000000E+01
 d    1 1.00
 0.31800000000000E+00 0.10000000000000E+01
 d    1 1.00
 0.90985336424000E-01 0.10000000000000E+01
 f    1 1.00
 0.76100000000000E+00 0.10000000000000E+01
 
    3 0
 s    6 1.00
 0.13575349682000E+05 0.60645503603591E-03
 0.20352333680000E+04 0.46979088884982E-02
 0.46322562359000E+03 0.24332477647552E-01
 0.13120019598000E+03 0.97399968307759E-01
 0.42853015891000E+02 0.30195584253780E+00
 0.15584185766000E+02 0.66233609137875E+00
 s    2 1.00
 0.62067138508000E+01 0.65595308539952E+00
 0.25764896527000E+01 0.37585633285142E+00
 s    1 1.00
 0.57696339419000E+00 0.10000000000000E+01
 s    1 1.00
 0.22972831358000E+00 0.10000000000000E+01
 s    1 1.00
 0.95164440028000E-01 0.10000000000000E+01
 s    1 1.00
 0.48475401370000E-01 0.10000000000000E+01
 p    4 1.00
 0.34697232244000E+02 0.11327220003114E-01
 0.79582622826000E+01 0.76169659202087E-01
 0.23780826883000E+01 0.30192252202676E+00
 0.81433208183000E+00 0.72785027349547E+00
 p    1 1.00
 0.28887547253000E+00 0.10000000000000E+01
 p    1 1.00
 0.10056823671000E+00 0.10000000000000E+01
 d    1 1.00
 0.10970000000000E+01 0.10000000000000E+01
 d    1 1.00
 0.31800000000000E+00 0.10000000000000E+01
 d    1 1.00
 0.90985336424000E-01 0.10000000000000E+01
 f    1 1.00
 0.76100000000000E+00 0.10000000000000E+01
 
    4 0
 s    6 1.00
 0.13575349682000E+05 0.60645503603591E-03
 0.20352333680000E+04 0.46979088884982E-02
 0.46322562359000E+03 0.24332477647552E-01
 0.13120019598000E+03 0.97399968307759E-01
 0.42853015891000E+02 0.30195584253780E+00
 0.15584185766000E+02 0.66233609137875E+00
 s    2 1.00
 0.62067138508000E+01 0.65595308539952E+00
 0.25764896527000E+01 0.37585633285142E+00
 s    1 1.00
 0.57696339419000E+00 0.10000000000000E+01
 s    1 1.00
 0.22972831358000E+00 0.10000000000000E+01
 s    1 1.00
 0.95164440028000E-01 0.10000000000000E+01
 s    1 1.00
 0.48475401370000E-01 0.10000000000000E+01
 p    4 1.00
 0.34697232244000E+02 0.11327220003114E-01
 0.79582622826000E+01 0.76169659202087E-01
 0.23780826883000E+01 0.30192252202676E+00
 0.81433208183000E+00 0.72785027349547E+00
 p    1 1.00
 0.28887547253000E+00 0.10000000000000E+01
 p    1 1.00
 0.10056823671000E+00 0.10000000000000E+01
 d    1 1.00
 0.10970000000000E+01 0.10000000000000E+01
 d    1 1.00
 0.31800000000000E+00 0.10000000000000E+01
 d    1 1.00
 0.90985336424000E-01 0.10000000000000E+01
 f    1 1.00
 0.76100000000000E+00 0.10000000000000E+01
 
    5 0
 s    6 1.00
 0.13575349682000E+05 0.60645503603591E-03
 0.20352333680000E+04 0.46979088884982E-02
 0.46322562359000E+03 0.24332477647552E-01
 0.13120019598000E+03 0.97399968307759E-01
 0.42853015891000E+02 0.30195584253780E+00
 0.15584185766000E+02 0.66233609137875E+00
 s    2 1.00
 0.62067138508000E+01 0.65595308539952E+00
 0.25764896527000E+01 0.37585633285142E+00
 s    1 1.00
 0.57696339419000E+00 0.10000000000000E+01
 s    1 1.00
 0.22972831358000E+00 0.10000000000000E+01
 s    1 1.00
 0.95164440028000E-01 0.10000000000000E+01
 s    1 1.00
 0.48475401370000E-01 0.10000000000000E+01
 p    4 1.00
 0.34697232244000E+02 0.11327220003114E-01
 0.79582622826000E+01 0.76169659202087E-01
 0.23780826883000E+01 0.30192252202676E+00
 0.81433208183000E+00 0.72785027349547E+00
 p    1 1.00
 0.28887547253000E+00 0.10000000000000E+01
 p    1 1.00
 0.10056823671000E+00 0.10000000000000E+01
 d    1 1.00
 0.10970000000000E+01 0.10000000000000E+01
 d    1 1.00
 0.31800000000000E+00 0.10000000000000E+01
 d    1 1.00
 0.90985336424000E-01 0.10000000000000E+01
 f    1 1.00
 0.76100000000000E+00 0.10000000000000E+01
 
    6 0
 s    6 1.00
 0.13575349682000E+05 0.60645503603591E-03
 0.20352333680000E+04 0.46979088884982E-02
 0.46322562359000E+03 0.24332477647552E-01
 0.13120019598000E+03 0.97399968307759E-01
 0.42853015891000E+02 0.30195584253780E+00
 0.15584185766000E+02 0.66233609137875E+00
 s    2 1.00
 0.62067138508000E+01 0.65595308539952E+00
 0.25764896527000E+01 0.37585633285142E+00
 s    1 1.00
 0.57696339419000E+00 0.10000000000000E+01
 s    1 1.00
 0.22972831358000E+00 0.10000000000000E+01
 s    1 1.00
 0.95164440028000E-01 0.10000000000000E+01
 s    1 1.00
 0.48475401370000E-01 0.10000000000000E+01
 p    4 1.00
 0.34697232244000E+02 0.11327220003114E-01
 0.79582622826000E+01 0.76169659202087E-01
 0.23780826883000E+01 0.30192252202676E+00
 0.81433208183000E+00 0.72785027349547E+00
 p    1 1.00
 0.28887547253000E+00 0.10000000000000E+01
 p    1 1.00
 0.10056823671000E+00 0.10000000000000E+01
 d    1 1.00
 0.10970000000000E+01 0.10000000000000E+01
 d    1 1.00
 0.31800000000000E+00 0.10000000000000E+01
 d    1 1.00
 0.90985336424000E-01 0.10000000000000E+01
 f    1 1.00
 0.76100000000000E+00 0.10000000000000E+01
 
    7 0
 s    3 1.00
 0.34061341000000E+02 0.25439307208879E-01
 0.51235746000000E+01 0.19008594890375E+00
 0.11646626000000E+01 0.85244113011042E+00
 s    1 1.00
 0.32723041000000E+00 0.10000000000000E+01
 s    1 1.00
 0.10307241000000E+00 0.10000000000000E+01
 p    1 1.00
 0.80000000000000E+00 0.10000000000000E+01
 p    1 1.00
 0.95774129632000E-01 0.10000000000000E+01
 
    8 0
 s    3 1.00
 0.34061341000000E+02 0.25439307208879E-01
 0.51235746000000E+01 0.19008594890375E+00
 0.11646626000000E+01 0.85244113011042E+00
 s    1 1.00
 0.32723041000000E+00 0.10000000000000E+01
 s    1 1.00
 0.10307241000000E+00 0.10000000000000E+01
 p    1 1.00
 0.80000000000000E+00 0.10000000000000E+01
 p    1 1.00
 0.95774129632000E-01 0.10000000000000E+01
 
    9 0
 s    3 1.00
 0.34061341000000E+02 0.25439307208879E-01
 0.51235746000000E+01 0.19008594890375E+00
 0.11646626000000E+01 0.85244113011042E+00
 s    1 1.00
 0.32723041000000E+00 0.10000000000000E+01
 s    1 1.00
 0.10307241000000E+00 0.10000000000000E+01
 p    1 1.00
 0.80000000000000E+00 0.10000000000000E+01
 p    1 1.00
 0.95774129632000E-01 0.10000000000000E+01
 
   10 0
 s    3 1.00
 0.34061341000000E+02 0.25439307208879E-01
 0.51235746000000E+01 0.19008594890375E+00
 0.11646626000000E+01 0.85244113011042E+00
 s    1 1.00
 0.32723041000000E+00 0.10000000000000E+01
 s    1 1.00
 0.10307241000000E+00 0.10000000000000E+01
 p    1 1.00
 0.80000000000000E+00 0.10000000000000E+01
 p    1 1.00
 0.95774129632000E-01 0.10000000000000E+01
 
   11 0
 s    6 1.00
 0.19730800647000E+05 0.58626402628763E-03
 0.29578958745000E+04 0.45428820586397E-02
 0.67322133595000E+03 0.23558413450084E-01
 0.19068249494000E+03 0.94709193292923E-01
 0.62295441898000E+02 0.29719784913376E+00
 0.22654161182000E+02 0.66916246895232E+00
 s    2 1.00
 0.89791477428000E+01 0.64596683630063E+00
 0.36863002370000E+01 0.38700574393705E+00
 s    1 1.00
 0.84660076805000E+00 0.10000000000000E+01
 s    1 1.00
 0.33647133771000E+00 0.10000000000000E+01
 s    1 1.00
 0.13647653675000E+00 0.10000000000000E+01
 s    1 1.00
 0.68441605847000E-01 0.10000000000000E+01
 p    4 1.00
 0.49200380510000E+02 0.11448825101764E-01
 0.11346790537000E+02 0.78422337970864E-01
 0.34273972411000E+01 0.30818094738830E+00
 0.11785525134000E+01 0.72027196368413E+00
 p    1 1.00
 0.41642204972000E+00 0.10000000000000E+01
 p    1 1.00
 0.14260826011000E+00 0.10000000000000E+01
 d    1 1.00
 0.16540000000000E+01 0.10000000000000E+01
 d    1 1.00
 0.46900000000000E+00 0.10000000000000E+01
 d    1 1.00
 0.12829642058000E+00 0.10000000000000E+01
 f    1 1.00
 0.10930000000000E+01 0.10000000000000E+01
 
   12 0
 s    6 1.00
 0.27032382631000E+05 0.57227335211155E-03
 0.40523871392000E+04 0.44353233492995E-02
 0.92232722710000E+03 0.23020107706038E-01
 0.26124070989000E+03 0.92822490667928E-01
 0.85354641351000E+02 0.29378500009671E+00
 0.31035035245000E+02 0.67401604501641E+00
 s    2 1.00
 0.12260860728000E+02 0.63839937025506E+00
 0.49987076005000E+01 0.39534587125718E+00
 s    1 1.00
 0.11703108158000E+01 0.10000000000000E+01
 s    1 1.00
 0.46474740994000E+00 0.10000000000000E+01
 s    1 1.00
 0.18504536357000E+00 0.10000000000000E+01
 s    1 1.00
 0.70288026270000E-01 0.10000000000000E+01
 p    4 1.00
 0.63274954801000E+02 0.12018332222616E-01
 0.14627049379000E+02 0.83005421790056E-01
 0.44501223456000E+01 0.31991743925964E+00
 0.15275799647000E+01 0.70715542916104E+00
 p    1 1.00
 0.52935117943000E+00 0.10000000000000E+01
 p    1 1.00
 0.17478421270000E+00 0.10000000000000E+01
 p    1 1.00
 0.51112745706000E-01 0.10000000000000E+01
 d    1 1.00
 0.23140000000000E+01 0.10000000000000E+01
 d    1 1.00
 0.64500000000000E+00 0.10000000000000E+01
 d    1 1.00
 0.14696477366000E+00 0.10000000000000E+01
 f    1 1.00
 0.14280000000000E+01 0.10000000000000E+01
 
   13 0
 s    6 1.00
 0.27032382631000E+05 0.57227335211155E-03
 0.40523871392000E+04 0.44353233492995E-02
 0.92232722710000E+03 0.23020107706038E-01
 0.26124070989000E+03 0.92822490667928E-01
 0.85354641351000E+02 0.29378500009671E+00
 0.31035035245000E+02 0.67401604501641E+00
 s    2 1.00
 0.12260860728000E+02 0.63839937025506E+00
 0.49987076005000E+01 0.39534587125718E+00
 s    1 1.00
 0.11703108158000E+01 0.10000000000000E+01
 s    1 1.00
 0.46474740994000E+00 0.10000000000000E+01
 s    1 1.00
 0.18504536357000E+00 0.10000000000000E+01
 s    1 1.00
 0.70288026270000E-01 0.10000000000000E+01
 p    4 1.00
 0.63274954801000E+02 0.12018332222616E-01
 0.14627049379000E+02 0.83005421790056E-01
 0.44501223456000E+01 0.31991743925964E+00
 0.15275799647000E+01 0.70715542916104E+00
 p    1 1.00
 0.52935117943000E+00 0.10000000000000E+01
 p    1 1.00
 0.17478421270000E+00 0.10000000000000E+01
 p    1 1.00
 0.51112745706000E-01 0.10000000000000E+01
 d    1 1.00
 0.23140000000000E+01 0.10000000000000E+01
 d    1 1.00
 0.64500000000000E+00 0.10000000000000E+01
 d    1 1.00
 0.14696477366000E+00 0.10000000000000E+01
 f    1 1.00
 0.14280000000000E+01 0.10000000000000E+01
 
   14 0
 s    6 1.00
 0.19730800647000E+05 0.58626402628763E-03
 0.29578958745000E+04 0.45428820586397E-02
 0.67322133595000E+03 0.23558413450084E-01
 0.19068249494000E+03 0.94709193292923E-01
 0.62295441898000E+02 0.29719784913376E+00
 0.22654161182000E+02 0.66916246895232E+00
 s    2 1.00
 0.89791477428000E+01 0.64596683630063E+00
 0.36863002370000E+01 0.38700574393705E+00
 s    1 1.00
 0.84660076805000E+00 0.10000000000000E+01
 s    1 1.00
 0.33647133771000E+00 0.10000000000000E+01
 s    1 1.00
 0.13647653675000E+00 0.10000000000000E+01
 s    1 1.00
 0.68441605847000E-01 0.10000000000000E+01
 p    4 1.00
 0.49200380510000E+02 0.11448825101764E-01
 0.11346790537000E+02 0.78422337970864E-01
 0.34273972411000E+01 0.30818094738830E+00
 0.11785525134000E+01 0.72027196368413E+00
 p    1 1.00
 0.41642204972000E+00 0.10000000000000E+01
 p    1 1.00
 0.14260826011000E+00 0.10000000000000E+01
 d    1 1.00
 0.16540000000000E+01 0.10000000000000E+01
 d    1 1.00
 0.46900000000000E+00 0.10000000000000E+01
 d    1 1.00
 0.12829642058000E+00 0.10000000000000E+01
 f    1 1.00
 0.10930000000000E+01 0.10000000000000E+01
 
   15 0
 s    3 1.00
 0.34061341000000E+02 0.25439307208879E-01
 0.51235746000000E+01 0.19008594890375E+00
 0.11646626000000E+01 0.85244113011042E+00
 s    1 1.00
 0.32723041000000E+00 0.10000000000000E+01
 s    1 1.00
 0.10307241000000E+00 0.10000000000000E+01
 p    1 1.00
 0.80000000000000E+00 0.10000000000000E+01
 p    1 1.00
 0.95774129632000E-01 0.10000000000000E+01
 
   16 0
 s    3 1.00
 0.34061341000000E+02 0.25439307208879E-01
 0.51235746000000E+01 0.19008594890375E+00
 0.11646626000000E+01 0.85244113011042E+00
 s    1 1.00
 0.32723041000000E+00 0.10000000000000E+01
 s    1 1.00
 0.10307241000000E+00 0.10000000000000E+01
 p    1 1.00
 0.80000000000000E+00 0.10000000000000E+01
 p    1 1.00
 0.95774129632000E-01 0.10000000000000E+01
 
[MO]
 Sym= X
 Ene= -0.948394
 Spin= Alpha
 Occup= -0.948394
         1   -1.800997E-04
         2   -4.188891E-04
         3    1.155158E-03
         4   -2.417597E-03
         5   -1.015706E-02
         6   -1.070265E-02
         7    1.865725E-03
         8    1.852314E-04
         9    1.265249E-02
        10   -2.058907E-03
        11    3.830077E-04
        12    1.099826E-02
        13   -3.350400E-02
        14    9.241698E-03
        15   -3.125365E-04
        16    1.421297E-05
        17   -2.454886E-05
        18    1.033589E-05
        19   -1.346590E-05
        20   -6.388189E-03
        21    3.513232E-03
        22   -6.142749E-04
        23    3.656426E-04
        24    2.486323E-04
        25   -6.759487E-04
        26   -1.431938E-02
        27    6.706352E-03
        28   -4.840465E-03
        29    4.533856E-03
        30    3.066082E-04
        31    1.064026E-03
        32    1.921807E-03
        33   -1.021369E-02
        34   -1.774234E-05
        35    6.363932E-06
        36   -5.885849E-06
        37    7.416301E-06
        38   -6.383720E-06
        39   -7.655456E-04
        40    1.638755E-05
        41   -2.154390E-06
        42    7.734423E-04
        43   -6.689995E-04
        44    3.030285E-05
        45    6.650039E-05
        46    1.141484E-04
        47   -2.652753E-03
        48   -4.746623E-02
        49    5.408674E-03
        50    1.590302E-04
        51    1.540355E-06
        52    1.886589E-01
        53   -5.645488E-04
        54    1.992252E-05
        55    1.962385E-01
        56   -1.572764E-02
        57   -1.330750E-03
        58    1.955270E-01
        59    5.128596E-05
        60   -4.905264E-05
        61   -2.233317E-06
        62    1.114806E-07
        63   -1.116004E-03
        64    1.276580E-06
        65    3.757873E-04
        66   -6.123490E-04
        67    2.365617E-04
        68    4.658765E-06
        69   -4.079309E-03
        70    2.076796E-06
        71    8.561773E-03
        72   -9.605453E-03
        73    1.043679E-03
        74   -2.167811E-04
        75    4.437334E-03
        76   -1.386638E-05
        77    6.066924E-06
        78    3.332032E-08
        79   -1.028305E-03
        80   -5.960389E-06
        81    4.595331E-08
        82    6.509620E-04
        83   -2.179243E-06
        84   -9.065721E-08
        85    7.286533E-04
        86    1.422061E-07
        87   -1.801982E-04
        88   -4.192231E-04
        89    1.163124E-03
        90   -2.492650E-03
        91   -7.751216E-03
        92   -1.063500E-02
        93    1.867535E-03
        94   -1.880070E-04
        95    1.271329E-02
        96   -2.043079E-03
        97   -3.706710E-04
        98    1.105723E-02
        99   -3.430532E-02
       100   -1.067230E-02
       101   -1.861465E-04
       102    1.405014E-05
       103   -2.456243E-05
       104    1.051229E-05
       105    1.380677E-05
       106   -6.387391E-03
       107   -3.513470E-03
       108   -6.099557E-04
       109    3.603109E-04
       110    2.496448E-04
       111    6.726822E-04
       112   -1.431527E-02
       113   -6.706111E-03
       114   -5.071813E-03
       115    4.791600E-03
       116    2.802132E-04
       117   -8.968249E-04
       118    1.930942E-03
       119    1.018057E-02
       120   -1.788587E-05
       121   -6.348839E-06
       122   -6.227578E-06
       123    7.701354E-06
       124    6.381178E-06
       125   -7.651623E-04
       126    1.629505E-05
       127    2.136684E-06
       128    7.735174E-04
       129    6.689478E-04
       130    1.184941E-04
       131    2.561821E-04
       132    5.237827E-04
       133   -9.850768E-03
       134    2.768344E-02
       135    1.203121E-02
       136   -1.576152E-03
       137    6.424704E-04
       138   -1.617401E-01
       139   -8.867240E-03
       140    5.837177E-03
       141   -1.644114E-01
       142   -2.376572E-02
       143   -6.861501E-03
       144   -9.763719E-02
       145    1.512814E-04
       146   -1.795615E-04
       147    2.828011E-05
       148   -4.161694E-06
       149   -5.915465E-04
       150    3.097632E-03
       151    5.991604E-04
       152   -7.202581E-04
       153    1.210977E-04
       154    1.609077E-03
       155   -3.619080E-03
       156    5.213068E-03
       157    8.009427E-03
       158   -6.349866E-03
       159   -1.659561E-03
       160   -8.130879E-03
       161    3.498790E-03
       162   -1.229280E-02
       163   -1.500559E-05
       164    9.209972E-06
       165    9.375250E-04
       166   -1.835547E-05
       167    1.573601E-05
       168   -2.878100E-04
       169    3.848759E-05
       170   -2.809248E-05
       171   -9.700118E-04
       172    3.365629E-04
       173   -1.040088E-03
       174   -2.372355E-03
       175    2.459159E-03
       176    2.026516E-02
       177   -1.472043E-02
       178    8.512294E-03
       179    8.836958E-03
       180    6.099793E-07
       181   -1.170661E-01
       182    5.628002E-04
       183   -1.147444E-05
       184   -1.195432E-01
       185   -2.459297E-02
       186    1.415585E-03
       187   -1.325758E-01
       188    4.732640E-04
       189   -2.735834E-04
       190   -1.996807E-04
       191    1.153654E-07
       192    1.013248E-02
       193    9.926739E-07
       194   -1.763964E-03
       195    3.858491E-03
       196   -2.094528E-03
       197    3.103513E-06
       198    2.508820E-02
       199   -5.314827E-07
       200   -5.354360E-03
       201    6.515785E-03
       202   -1.161425E-03
       203   -2.349345E-04
       204    1.948058E-02
       205   -6.771818E-06
       206    1.093648E-04
       207    1.634745E-08
       208    3.774638E-04
       209   -7.604184E-05
       210   -7.866309E-08
       211    1.018746E-03
       212   -7.068643E-05
       213    5.673068E-08
       214   -1.525167E-03
       215   -2.731068E-08
       216    1.192298E-04
       217    2.576210E-04
       218    5.281185E-04
       219   -9.931726E-03
       220    3.029655E-02
       221    1.207766E-02
       222   -1.577309E-03
       223   -6.358328E-04
       224   -1.617862E-01
       225   -8.874001E-03
       226   -5.849793E-03
       227   -1.644653E-01
       228   -2.281175E-02
       229    8.527182E-03
       230   -9.758695E-02
       231    1.510467E-04
       232   -1.801182E-04
       233    2.907141E-05
       234    4.256625E-06
       235   -5.901421E-04
       236   -3.097849E-03
       237    6.010803E-04
       238   -7.222761E-04
       239    1.211958E-04
       240   -1.611191E-03
       241   -3.615147E-03
       242   -5.212828E-03
       243    7.774965E-03
       244   -6.099199E-03
       245   -1.675765E-03
       246    8.339544E-03
       247    3.490022E-03
       248    1.233512E-02
       249   -1.495997E-05
       250   -9.250329E-06
       251    9.380702E-04
       252   -1.853475E-05
       253   -1.568287E-05
       254   -2.883844E-04
       255    3.860566E-05
       256    2.809349E-05
       257   -9.701688E-04
       258   -3.365336E-04
       259   -4.173400E-04
       260   -3.247486E-04
       261   -1.665560E-02
       262   -1.171068E-05
       263   -1.236189E-05
       264    5.433816E-04
       265   -5.027810E-03
       266   -2.954723E-04
       267   -6.463403E-03
       268   -4.196208E-04
       269   -3.189922E-04
       270   -1.645294E-02
       271   -1.066769E-05
       272    1.175007E-05
       273    5.462397E-04
       274   -5.141597E-03
       275    1.925302E-04
       276   -6.433235E-03
       277   -4.973352E-04
       278   -2.396116E-03
       279    3.249624E-02
       280   -8.738514E-06
       281    1.109381E-04
       282   -6.513090E-03
       283   -1.773414E-03
       284   -2.555365E-03
       285    1.777789E-03
       286   -5.017212E-04
       287   -2.401486E-03
       288    3.291153E-02
       289   -8.355385E-06
       290   -1.111529E-04
       291   -6.515355E-03
       292   -1.687384E-03
       293    2.686682E-03
       294    1.808825E-03
       295   -5.606681E-05
       296   -1.306920E-04
       297    1.289049E-04
       298    5.089497E-04
       299   -6.244851E-03
       300    8.046922E-04
       301    6.713754E-04
       302   -3.962986E-07
       303    2.842621E-02
       304    3.629281E-04
       305    1.611160E-07
       306    3.043438E-02
       307   -2.799090E-03
       308    4.300452E-05
       309    1.114393E-02
       310    2.916916E-05
       311   -1.763298E-05
       312   -1.153619E-05
       313    7.397478E-08
       314    4.091229E-03
       315    6.344870E-08
       316    3.143642E-05
       317    2.764811E-05
       318   -5.908453E-05
       319   -2.931719E-07
       320    1.246768E-02
       321    4.222738E-08
       322   -9.867415E-04
       323    2.691883E-03
       324   -1.705141E-03
       325    4.018477E-05
       326    2.941225E-03
       327    2.280104E-06
       328    6.672979E-06
       329    2.188708E-08
       330   -4.310651E-05
       331   -4.045497E-06
       332   -6.774283E-09
       333    6.729072E-04
       334   -4.907244E-06
       335   -2.259031E-08
       336   -6.150737E-04
       337    2.221960E-08
       338   -1.335449E-05
       339   -2.924734E-05
       340    2.710037E-06
       341    5.060362E-04
       342   -5.520537E-03
       343   -8.308667E-04
       344   -4.387109E-04
       345    1.068407E-04
       346   -7.005034E-02
       347   -4.896258E-04
       348    2.250341E-04
       349   -6.510116E-02
       350   -1.559714E-03
       351    4.449199E-04
       352   -5.488979E-02
       353   -1.714767E-04
       354    1.910091E-04
       355   -7.124556E-03
       356    3.758585E-06
       357   -5.281160E-06
       358    1.522575E-06
       359    2.169183E-06
       360    7.628927E-05
       361    3.275266E-04
       362   -1.242604E-05
       363   -1.172062E-05
       364    2.414667E-05
       365    1.407958E-05
       366   -2.855544E-04
       367    1.155323E-03
       368   -7.839935E-05
       369    5.424663E-05
       370    2.415272E-05
       371    8.862619E-05
       372   -7.025108E-06
       373    1.210739E-04
       374    1.031937E-06
       375    1.521065E-06
       376    3.850326E-05
       377   -1.911333E-06
       378   -6.916922E-08
       379    7.816449E-05
       380    5.268444E-07
       381   -1.971554E-06
       382   -1.298220E-04
       383    9.799151E-05
       384   -1.324726E-05
       385   -2.903108E-05
       386    2.981865E-06
       387    5.007340E-04
       388   -5.522117E-03
       389   -7.947811E-04
       390   -4.385152E-04
       391   -1.046408E-04
       392   -7.005038E-02
       393   -4.897658E-04
       394   -2.226050E-04
       395   -6.510113E-02
       396   -1.518542E-03
       397   -4.431848E-04
       398   -5.488746E-02
       399   -1.549808E-04
       400   -1.948674E-04
       401   -7.130625E-03
       402    3.702025E-06
       403   -5.246228E-06
       404    1.544202E-06
       405   -2.220925E-06
       406    7.623424E-05
       407   -3.275267E-04
       408   -1.206575E-05
       409   -1.167850E-05
       410    2.374425E-05
       411   -1.362089E-05
       412   -2.855218E-04
       413   -1.155335E-03
       414   -7.788436E-05
       415    5.514028E-05
       416    2.274408E-05
       417   -8.685928E-05
       418   -8.540103E-06
       419   -1.207655E-04
       420    1.029531E-06
       421   -1.510201E-06
       422    3.851284E-05
       423   -1.893297E-06
       424    6.405958E-08
       425    7.815465E-05
       426    5.120363E-07
       427    1.962087E-06
       428   -1.298250E-04
       429   -9.799860E-05
       430    4.416092E-03
       431    1.050524E-02
       432   -1.644699E-02
       433   -2.549785E-02
       434   -2.060776E-02
       435   -6.556121E-02
       436   -1.632014E-02
       437    8.762207E-06
       438    2.525880E-01
       439   -1.873881E-02
       440   -7.287249E-07
       441    2.497483E-01
       442   -1.738571E-02
       443   -1.174896E-04
       444    2.049990E-01
       445   -8.877310E-05
       446   -2.796295E-06
       447    9.156940E-05
       448    2.062836E-07
       449    8.233913E-04
       450    2.836797E-07
       451   -1.838908E-04
       452   -1.446460E-03
       453    1.630351E-03
       454   -4.048556E-06
       455    3.786385E-03
       456    9.671220E-07
       457   -1.672644E-03
       458   -2.872709E-03
       459    4.545353E-03
       460   -9.192738E-06
       461    2.266287E-03
       462    1.002984E-05
       463   -1.375827E-04
       464    2.635651E-08
       465   -9.965154E-04
       466   -7.696636E-05
       467   -2.515029E-08
       468    5.254756E-04
       469    2.615529E-04
       470   -1.021069E-08
       471    8.114900E-04
       472    1.603281E-08
       473    9.170046E-03
       474    1.721806E-02
       475    2.855349E-02
       476   -2.166779E-03
       477   -1.828577E-03
       478    1.284995E-02
       479    1.274275E-03
       480   -3.312557E-03
       481    1.494800E-02
       482    9.164449E-03
       483    1.714270E-02
       484    2.826753E-02
       485   -2.163119E-03
       486    1.821214E-03
       487    1.285374E-02
       488    1.301502E-03
       489    3.264823E-03
       490    1.496278E-02
 Sym= X
 Ene= 0.948394
 Spin= Alpha
 Occup= 0.948394
         1   -1.125523E-02
         2   -2.506061E-02
         3    9.320007E-03
         4    3.994383E-01
         5    5.420007E+00
         6   -7.023833E+00
         7   -4.969473E-03
         8   -1.528869E-02
         9    5.066883E-04
        10    9.265251E-02
        11    5.796387E-03
        12   -1.896688E-03
        13   -7.463115E-01
        14   -6.271039E-01
        15   -2.622894E-02
        16    1.369413E-03
        17    5.987481E-04
        18   -1.968161E-03
        19    4.037927E-04
        20    1.586123E-04
        21    3.284257E-05
        22    3.263206E-02
        23   -1.637405E-02
        24   -1.625800E-02
        25   -1.258131E-02
        26   -5.659424E-04
        27   -8.360801E-05
        28   -1.396944E-02
        29   -1.358249E-01
        30    1.497943E-01
        31    1.446386E+00
        32    7.192810E-03
        33   -1.977491E-02
        34    8.038988E-04
        35    1.046860E-04
        36   -2.457666E-05
        37   -6.265134E-04
        38    4.039389E-05
        39    1.602985E-05
        40   -4.520301E-04
        41   -1.808449E-04
        42    1.694320E-05
        43   -1.812544E-06
        44   -3.285585E-03
        45   -6.566074E-03
        46   -1.012606E-02
        47    2.220429E-01
        48    8.372956E+00
        49    5.261032E+00
        50   -5.395175E-03
        51    1.242400E-05
        52   -7.582127E-04
        53   -6.166909E-02
        54   -1.030841E-04
        55   -2.791918E-03
        56   -1.947212E+00
        57   -1.172547E-02
        58    7.347236E-02
        59    1.243784E-03
        60    1.728762E-03
        61   -2.972545E-03
        62   -7.498082E-07