[Molden Format]
[Title]
ADC(2) - opt by CAM-B3LYP gaussian                                              
[Atoms] AU
 c     1    6 -.12588789760523E+01 -.22833296301999E+01 -.24948636837890E-01
 c     2    6 -.25574931053929E+01 0.00000000000000E+00 -.23691968959520E-01
 c     3    6 -.12588770863262E+01 0.22833296301999E+01 -.24954306016290E-01
 c     4    6 0.13320886199507E+01 0.22850077070059E+01 -.26951746538750E-01
 c     5    6 0.26868238359857E+01 0.00000000000000E+00 -.26437741030600E-01
 c     6    6 0.13320867302245E+01 -.22850077070059E+01 -.26946077360350E-01
 h     7    1 -.22977937121289E+01 -.40382313624087E+01 -.22371050392630E-01
 h     8    1 -.22977918224027E+01 0.40382332521348E+01 -.22380499023300E-01
 h     9    1 0.23512179234159E+01 0.40571966538783E+01 -.29234535707270E-01
 h    10    1 0.23512179234159E+01 -.40571947641522E+01 -.29223197350470E-01
 n    11    7 -.52733186864479E+01 0.00000000000000E+00 -.17996334395000E-01
 o    12    8 -.63812046469225E+01 0.20269448165729E+01 -.15568036314240E-01
 o    13    8 -.63812027571964E+01 -.20269467062990E+01 -.15583154123310E-01
 n    14    7 0.52441127328484E+01 0.00000000000000E+00 -.70347417454330E-01
 h    15    1 0.62045074583774E+01 0.16172030580838E+01 0.18832018534119E+00
 h    16    1 0.62045055686513E+01 -.16172049478099E+01 0.18831451616279E+00
[GTO]
    1 0
 s    6 1.00
 0.13575349682000E+05 0.60645503603591E-03
 0.20352333680000E+04 0.46979088884982E-02
 0.46322562359000E+03 0.24332477647552E-01
 0.13120019598000E+03 0.97399968307759E-01
 0.42853015891000E+02 0.30195584253780E+00
 0.15584185766000E+02 0.66233609137875E+00
 s    2 1.00
 0.62067138508000E+01 0.65595308539952E+00
 0.25764896527000E+01 0.37585633285142E+00
 s    1 1.00
 0.57696339419000E+00 0.10000000000000E+01
 s    1 1.00
 0.22972831358000E+00 0.10000000000000E+01
 s    1 1.00
 0.95164440028000E-01 0.10000000000000E+01
 s    1 1.00
 0.48475401370000E-01 0.10000000000000E+01
 p    4 1.00
 0.34697232244000E+02 0.11327220003114E-01
 0.79582622826000E+01 0.76169659202087E-01
 0.23780826883000E+01 0.30192252202676E+00
 0.81433208183000E+00 0.72785027349547E+00
 p    1 1.00
 0.28887547253000E+00 0.10000000000000E+01
 p    1 1.00
 0.10056823671000E+00 0.10000000000000E+01
 d    1 1.00
 0.10970000000000E+01 0.10000000000000E+01
 d    1 1.00
 0.31800000000000E+00 0.10000000000000E+01
 d    1 1.00
 0.90985336424000E-01 0.10000000000000E+01
 f    1 1.00
 0.76100000000000E+00 0.10000000000000E+01
 
    2 0
 s    6 1.00
 0.13575349682000E+05 0.60645503603591E-03
 0.20352333680000E+04 0.46979088884982E-02
 0.46322562359000E+03 0.24332477647552E-01
 0.13120019598000E+03 0.97399968307759E-01
 0.42853015891000E+02 0.30195584253780E+00
 0.15584185766000E+02 0.66233609137875E+00
 s    2 1.00
 0.62067138508000E+01 0.65595308539952E+00
 0.25764896527000E+01 0.37585633285142E+00
 s    1 1.00
 0.57696339419000E+00 0.10000000000000E+01
 s    1 1.00
 0.22972831358000E+00 0.10000000000000E+01
 s    1 1.00
 0.95164440028000E-01 0.10000000000000E+01
 s    1 1.00
 0.48475401370000E-01 0.10000000000000E+01
 p    4 1.00
 0.34697232244000E+02 0.11327220003114E-01
 0.79582622826000E+01 0.76169659202087E-01
 0.23780826883000E+01 0.30192252202676E+00
 0.81433208183000E+00 0.72785027349547E+00
 p    1 1.00
 0.28887547253000E+00 0.10000000000000E+01
 p    1 1.00
 0.10056823671000E+00 0.10000000000000E+01
 d    1 1.00
 0.10970000000000E+01 0.10000000000000E+01
 d    1 1.00
 0.31800000000000E+00 0.10000000000000E+01
 d    1 1.00
 0.90985336424000E-01 0.10000000000000E+01
 f    1 1.00
 0.76100000000000E+00 0.10000000000000E+01
 
    3 0
 s    6 1.00
 0.13575349682000E+05 0.60645503603591E-03
 0.20352333680000E+04 0.46979088884982E-02
 0.46322562359000E+03 0.24332477647552E-01
 0.13120019598000E+03 0.97399968307759E-01
 0.42853015891000E+02 0.30195584253780E+00
 0.15584185766000E+02 0.66233609137875E+00
 s    2 1.00
 0.62067138508000E+01 0.65595308539952E+00
 0.25764896527000E+01 0.37585633285142E+00
 s    1 1.00
 0.57696339419000E+00 0.10000000000000E+01
 s    1 1.00
 0.22972831358000E+00 0.10000000000000E+01
 s    1 1.00
 0.95164440028000E-01 0.10000000000000E+01
 s    1 1.00
 0.48475401370000E-01 0.10000000000000E+01
 p    4 1.00
 0.34697232244000E+02 0.11327220003114E-01
 0.79582622826000E+01 0.76169659202087E-01
 0.23780826883000E+01 0.30192252202676E+00
 0.81433208183000E+00 0.72785027349547E+00
 p    1 1.00
 0.28887547253000E+00 0.10000000000000E+01
 p    1 1.00
 0.10056823671000E+00 0.10000000000000E+01
 d    1 1.00
 0.10970000000000E+01 0.10000000000000E+01
 d    1 1.00
 0.31800000000000E+00 0.10000000000000E+01
 d    1 1.00
 0.90985336424000E-01 0.10000000000000E+01
 f    1 1.00
 0.76100000000000E+00 0.10000000000000E+01
 
    4 0
 s    6 1.00
 0.13575349682000E+05 0.60645503603591E-03
 0.20352333680000E+04 0.46979088884982E-02
 0.46322562359000E+03 0.24332477647552E-01
 0.13120019598000E+03 0.97399968307759E-01
 0.42853015891000E+02 0.30195584253780E+00
 0.15584185766000E+02 0.66233609137875E+00
 s    2 1.00
 0.62067138508000E+01 0.65595308539952E+00
 0.25764896527000E+01 0.37585633285142E+00
 s    1 1.00
 0.57696339419000E+00 0.10000000000000E+01
 s    1 1.00
 0.22972831358000E+00 0.10000000000000E+01
 s    1 1.00
 0.95164440028000E-01 0.10000000000000E+01
 s    1 1.00
 0.48475401370000E-01 0.10000000000000E+01
 p    4 1.00
 0.34697232244000E+02 0.11327220003114E-01
 0.79582622826000E+01 0.76169659202087E-01
 0.23780826883000E+01 0.30192252202676E+00
 0.81433208183000E+00 0.72785027349547E+00
 p    1 1.00
 0.28887547253000E+00 0.10000000000000E+01
 p    1 1.00
 0.10056823671000E+00 0.10000000000000E+01
 d    1 1.00
 0.10970000000000E+01 0.10000000000000E+01
 d    1 1.00
 0.31800000000000E+00 0.10000000000000E+01
 d    1 1.00
 0.90985336424000E-01 0.10000000000000E+01
 f    1 1.00
 0.76100000000000E+00 0.10000000000000E+01
 
    5 0
 s    6 1.00
 0.13575349682000E+05 0.60645503603591E-03
 0.20352333680000E+04 0.46979088884982E-02
 0.46322562359000E+03 0.24332477647552E-01
 0.13120019598000E+03 0.97399968307759E-01
 0.42853015891000E+02 0.30195584253780E+00
 0.15584185766000E+02 0.66233609137875E+00
 s    2 1.00
 0.62067138508000E+01 0.65595308539952E+00
 0.25764896527000E+01 0.37585633285142E+00
 s    1 1.00
 0.57696339419000E+00 0.10000000000000E+01
 s    1 1.00
 0.22972831358000E+00 0.10000000000000E+01
 s    1 1.00
 0.95164440028000E-01 0.10000000000000E+01
 s    1 1.00
 0.48475401370000E-01 0.10000000000000E+01
 p    4 1.00
 0.34697232244000E+02 0.11327220003114E-01
 0.79582622826000E+01 0.76169659202087E-01
 0.23780826883000E+01 0.30192252202676E+00
 0.81433208183000E+00 0.72785027349547E+00
 p    1 1.00
 0.28887547253000E+00 0.10000000000000E+01
 p    1 1.00
 0.10056823671000E+00 0.10000000000000E+01
 d    1 1.00
 0.10970000000000E+01 0.10000000000000E+01
 d    1 1.00
 0.31800000000000E+00 0.10000000000000E+01
 d    1 1.00
 0.90985336424000E-01 0.10000000000000E+01
 f    1 1.00
 0.76100000000000E+00 0.10000000000000E+01
 
    6 0
 s    6 1.00
 0.13575349682000E+05 0.60645503603591E-03
 0.20352333680000E+04 0.46979088884982E-02
 0.46322562359000E+03 0.24332477647552E-01
 0.13120019598000E+03 0.97399968307759E-01
 0.42853015891000E+02 0.30195584253780E+00
 0.15584185766000E+02 0.66233609137875E+00
 s    2 1.00
 0.62067138508000E+01 0.65595308539952E+00
 0.25764896527000E+01 0.37585633285142E+00
 s    1 1.00
 0.57696339419000E+00 0.10000000000000E+01
 s    1 1.00
 0.22972831358000E+00 0.10000000000000E+01
 s    1 1.00
 0.95164440028000E-01 0.10000000000000E+01
 s    1 1.00
 0.48475401370000E-01 0.10000000000000E+01
 p    4 1.00
 0.34697232244000E+02 0.11327220003114E-01
 0.79582622826000E+01 0.76169659202087E-01
 0.23780826883000E+01 0.30192252202676E+00
 0.81433208183000E+00 0.72785027349547E+00
 p    1 1.00
 0.28887547253000E+00 0.10000000000000E+01
 p    1 1.00
 0.10056823671000E+00 0.10000000000000E+01
 d    1 1.00
 0.10970000000000E+01 0.10000000000000E+01
 d    1 1.00
 0.31800000000000E+00 0.10000000000000E+01
 d    1 1.00
 0.90985336424000E-01 0.10000000000000E+01
 f    1 1.00
 0.76100000000000E+00 0.10000000000000E+01
 
    7 0
 s    3 1.00
 0.34061341000000E+02 0.25439307208879E-01
 0.51235746000000E+01 0.19008594890375E+00
 0.11646626000000E+01 0.85244113011042E+00
 s    1 1.00
 0.32723041000000E+00 0.10000000000000E+01
 s    1 1.00
 0.10307241000000E+00 0.10000000000000E+01
 p    1 1.00
 0.80000000000000E+00 0.10000000000000E+01
 p    1 1.00
 0.95774129632000E-01 0.10000000000000E+01
 
    8 0
 s    3 1.00
 0.34061341000000E+02 0.25439307208879E-01
 0.51235746000000E+01 0.19008594890375E+00
 0.11646626000000E+01 0.85244113011042E+00
 s    1 1.00
 0.32723041000000E+00 0.10000000000000E+01
 s    1 1.00
 0.10307241000000E+00 0.10000000000000E+01
 p    1 1.00
 0.80000000000000E+00 0.10000000000000E+01
 p    1 1.00
 0.95774129632000E-01 0.10000000000000E+01
 
    9 0
 s    3 1.00
 0.34061341000000E+02 0.25439307208879E-01
 0.51235746000000E+01 0.19008594890375E+00
 0.11646626000000E+01 0.85244113011042E+00
 s    1 1.00
 0.32723041000000E+00 0.10000000000000E+01
 s    1 1.00
 0.10307241000000E+00 0.10000000000000E+01
 p    1 1.00
 0.80000000000000E+00 0.10000000000000E+01
 p    1 1.00
 0.95774129632000E-01 0.10000000000000E+01
 
   10 0
 s    3 1.00
 0.34061341000000E+02 0.25439307208879E-01
 0.51235746000000E+01 0.19008594890375E+00
 0.11646626000000E+01 0.85244113011042E+00
 s    1 1.00
 0.32723041000000E+00 0.10000000000000E+01
 s    1 1.00
 0.10307241000000E+00 0.10000000000000E+01
 p    1 1.00
 0.80000000000000E+00 0.10000000000000E+01
 p    1 1.00
 0.95774129632000E-01 0.10000000000000E+01
 
   11 0
 s    6 1.00
 0.19730800647000E+05 0.58626402628763E-03
 0.29578958745000E+04 0.45428820586397E-02
 0.67322133595000E+03 0.23558413450084E-01
 0.19068249494000E+03 0.94709193292923E-01
 0.62295441898000E+02 0.29719784913376E+00
 0.22654161182000E+02 0.66916246895232E+00
 s    2 1.00
 0.89791477428000E+01 0.64596683630063E+00
 0.36863002370000E+01 0.38700574393705E+00
 s    1 1.00
 0.84660076805000E+00 0.10000000000000E+01
 s    1 1.00
 0.33647133771000E+00 0.10000000000000E+01
 s    1 1.00
 0.13647653675000E+00 0.10000000000000E+01
 s    1 1.00
 0.68441605847000E-01 0.10000000000000E+01
 p    4 1.00
 0.49200380510000E+02 0.11448825101764E-01
 0.11346790537000E+02 0.78422337970864E-01
 0.34273972411000E+01 0.30818094738830E+00
 0.11785525134000E+01 0.72027196368413E+00
 p    1 1.00
 0.41642204972000E+00 0.10000000000000E+01
 p    1 1.00
 0.14260826011000E+00 0.10000000000000E+01
 d    1 1.00
 0.16540000000000E+01 0.10000000000000E+01
 d    1 1.00
 0.46900000000000E+00 0.10000000000000E+01
 d    1 1.00
 0.12829642058000E+00 0.10000000000000E+01
 f    1 1.00
 0.10930000000000E+01 0.10000000000000E+01
 
   12 0
 s    6 1.00
 0.27032382631000E+05 0.57227335211155E-03
 0.40523871392000E+04 0.44353233492995E-02
 0.92232722710000E+03 0.23020107706038E-01
 0.26124070989000E+03 0.92822490667928E-01
 0.85354641351000E+02 0.29378500009671E+00
 0.31035035245000E+02 0.67401604501641E+00
 s    2 1.00
 0.12260860728000E+02 0.63839937025506E+00
 0.49987076005000E+01 0.39534587125718E+00
 s    1 1.00
 0.11703108158000E+01 0.10000000000000E+01
 s    1 1.00
 0.46474740994000E+00 0.10000000000000E+01
 s    1 1.00
 0.18504536357000E+00 0.10000000000000E+01
 s    1 1.00
 0.70288026270000E-01 0.10000000000000E+01
 p    4 1.00
 0.63274954801000E+02 0.12018332222616E-01
 0.14627049379000E+02 0.83005421790056E-01
 0.44501223456000E+01 0.31991743925964E+00
 0.15275799647000E+01 0.70715542916104E+00
 p    1 1.00
 0.52935117943000E+00 0.10000000000000E+01
 p    1 1.00
 0.17478421270000E+00 0.10000000000000E+01
 p    1 1.00
 0.51112745706000E-01 0.10000000000000E+01
 d    1 1.00
 0.23140000000000E+01 0.10000000000000E+01
 d    1 1.00
 0.64500000000000E+00 0.10000000000000E+01
 d    1 1.00
 0.14696477366000E+00 0.10000000000000E+01
 f    1 1.00
 0.14280000000000E+01 0.10000000000000E+01
 
   13 0
 s    6 1.00
 0.27032382631000E+05 0.57227335211155E-03
 0.40523871392000E+04 0.44353233492995E-02
 0.92232722710000E+03 0.23020107706038E-01
 0.26124070989000E+03 0.92822490667928E-01
 0.85354641351000E+02 0.29378500009671E+00
 0.31035035245000E+02 0.67401604501641E+00
 s    2 1.00
 0.12260860728000E+02 0.63839937025506E+00
 0.49987076005000E+01 0.39534587125718E+00
 s    1 1.00
 0.11703108158000E+01 0.10000000000000E+01
 s    1 1.00
 0.46474740994000E+00 0.10000000000000E+01
 s    1 1.00
 0.18504536357000E+00 0.10000000000000E+01
 s    1 1.00
 0.70288026270000E-01 0.10000000000000E+01
 p    4 1.00
 0.63274954801000E+02 0.12018332222616E-01
 0.14627049379000E+02 0.83005421790056E-01
 0.44501223456000E+01 0.31991743925964E+00
 0.15275799647000E+01 0.70715542916104E+00
 p    1 1.00
 0.52935117943000E+00 0.10000000000000E+01
 p    1 1.00
 0.17478421270000E+00 0.10000000000000E+01
 p    1 1.00
 0.51112745706000E-01 0.10000000000000E+01
 d    1 1.00
 0.23140000000000E+01 0.10000000000000E+01
 d    1 1.00
 0.64500000000000E+00 0.10000000000000E+01
 d    1 1.00
 0.14696477366000E+00 0.10000000000000E+01
 f    1 1.00
 0.14280000000000E+01 0.10000000000000E+01
 
   14 0
 s    6 1.00
 0.19730800647000E+05 0.58626402628763E-03
 0.29578958745000E+04 0.45428820586397E-02
 0.67322133595000E+03 0.23558413450084E-01
 0.19068249494000E+03 0.94709193292923E-01
 0.62295441898000E+02 0.29719784913376E+00
 0.22654161182000E+02 0.66916246895232E+00
 s    2 1.00
 0.89791477428000E+01 0.64596683630063E+00
 0.36863002370000E+01 0.38700574393705E+00
 s    1 1.00
 0.84660076805000E+00 0.10000000000000E+01
 s    1 1.00
 0.33647133771000E+00 0.10000000000000E+01
 s    1 1.00
 0.13647653675000E+00 0.10000000000000E+01
 s    1 1.00
 0.68441605847000E-01 0.10000000000000E+01
 p    4 1.00
 0.49200380510000E+02 0.11448825101764E-01
 0.11346790537000E+02 0.78422337970864E-01
 0.34273972411000E+01 0.30818094738830E+00
 0.11785525134000E+01 0.72027196368413E+00
 p    1 1.00
 0.41642204972000E+00 0.10000000000000E+01
 p    1 1.00
 0.14260826011000E+00 0.10000000000000E+01
 d    1 1.00
 0.16540000000000E+01 0.10000000000000E+01
 d    1 1.00
 0.46900000000000E+00 0.10000000000000E+01
 d    1 1.00
 0.12829642058000E+00 0.10000000000000E+01
 f    1 1.00
 0.10930000000000E+01 0.10000000000000E+01
 
   15 0
 s    3 1.00
 0.34061341000000E+02 0.25439307208879E-01
 0.51235746000000E+01 0.19008594890375E+00
 0.11646626000000E+01 0.85244113011042E+00
 s    1 1.00
 0.32723041000000E+00 0.10000000000000E+01
 s    1 1.00
 0.10307241000000E+00 0.10000000000000E+01
 p    1 1.00
 0.80000000000000E+00 0.10000000000000E+01
 p    1 1.00
 0.95774129632000E-01 0.10000000000000E+01
 
   16 0
 s    3 1.00
 0.34061341000000E+02 0.25439307208879E-01
 0.51235746000000E+01 0.19008594890375E+00
 0.11646626000000E+01 0.85244113011042E+00
 s    1 1.00
 0.32723041000000E+00 0.10000000000000E+01
 s    1 1.00
 0.10307241000000E+00 0.10000000000000E+01
 p    1 1.00
 0.80000000000000E+00 0.10000000000000E+01
 p    1 1.00
 0.95774129632000E-01 0.10000000000000E+01
 
[MO]
 Sym= X
 Ene= -0.241393
 Spin= Alpha
 Occup= -0.241393
         1   -1.942018E-04
         2   -4.512143E-04
         3    1.222095E-03
         4   -2.455447E-03
         5   -9.865073E-03
         6   -1.110071E-02
         7    2.083117E-03
         8    2.002505E-04
         9    7.031860E-03
        10   -2.022445E-03
        11    4.106590E-04
        12    5.465091E-03
        13   -3.426399E-02
        14    9.246390E-03
        15   -2.456483E-03
        16    2.028979E-05
        17   -3.019270E-05
        18    9.902901E-06
        19   -1.601692E-05
        20   -6.324322E-03
        21    3.316237E-03
        22   -6.278259E-04
        23    3.737921E-04
        24    2.540338E-04
        25   -7.073033E-04
        26   -1.415756E-02
        27    6.372721E-03
        28   -4.902984E-03
        29    4.587419E-03
        30    3.155651E-04
        31    1.136721E-03
        32    2.206837E-03
        33   -1.041735E-02
        34   -1.786388E-05
        35    6.741255E-06
        36    4.034783E-05
        37    7.394296E-06
        38   -6.716606E-06
        39   -7.855022E-04
        40    1.657261E-05
        41   -2.327737E-06
        42    7.313699E-04
        43   -6.441292E-04
        44    3.335274E-05
        45    7.320145E-05
        46    1.187372E-04
        47   -2.822486E-03
        48   -4.782560E-02
        49    5.786742E-03
        50    7.871911E-05
        51    1.639934E-06
        52    1.790821E-01
        53   -6.666710E-04
        54    1.952353E-05
        55    1.865329E-01
        56   -1.601366E-02
        57   -1.365799E-03
        58    1.918230E-01
        59    5.933109E-05
        60   -5.706639E-05
        61   -2.264707E-06
        62    1.156554E-07
        63   -1.219821E-03
        64    1.284991E-06
        65    4.002257E-04
        66   -6.468599E-04
        67    2.466341E-04
        68    4.585490E-06
        69   -4.221124E-03
        70    2.039547E-06
        71    9.007260E-03
        72   -1.006487E-02
        73    1.057613E-03
        74   -2.200264E-04
        75    4.096860E-03
        76   -1.399791E-05
        77    5.673192E-06
        78    2.827329E-08
        79   -9.555646E-04
        80   -6.157299E-06
        81    4.927515E-08
        82    6.124632E-04
        83   -1.454087E-06
        84   -8.720775E-08
        85    6.695612E-04
        86    1.398029E-07
        87   -1.942684E-04
        88   -4.514765E-04
        89    1.229927E-03
        90   -2.531055E-03
        91   -7.384573E-03
        92   -1.103503E-02
        93    2.085173E-03
        94   -2.034351E-04
        95    7.092904E-03
        96   -2.006977E-03
        97   -3.992664E-04
        98    5.524324E-03
        99   -3.507898E-02
       100   -1.071159E-02
       101   -2.328396E-03
       102    2.012174E-05
       103   -3.020864E-05
       104    1.008690E-05
       105    1.637736E-05
       106   -6.323516E-03
       107   -3.316468E-03
       108   -6.234760E-04
       109    3.684517E-04
       110    2.550243E-04
       111    7.042373E-04
       112   -1.415348E-02
       113   -6.372570E-03
       114   -5.136090E-03
       115    4.847342E-03
       116    2.887484E-04
       117   -9.659645E-04
       118    2.216108E-03
       119    1.038245E-02
       120   -1.800817E-05
       121   -6.728406E-06
       122    4.000371E-05
       123    7.679149E-06
       124    6.711216E-06
       125   -7.851175E-04
       126    1.648135E-05
       127    2.315887E-06
       128    7.314469E-04
       129    6.440841E-04
       130    1.296623E-04
       131    2.810794E-04
       132    5.229147E-04
       133   -1.027135E-02
       134    2.748907E-02
       135    1.249544E-02
       136   -1.796926E-03
       137    7.138162E-04
       138   -1.626268E-01
       139   -9.330343E-03
       140    6.095960E-03
       141   -1.652866E-01
       142   -2.415850E-02
       143   -7.243334E-03
       144   -9.756913E-02
       145    1.648723E-04
       146   -1.951131E-04
       147    3.024087E-05
       148   -3.966196E-06
       149   -4.197900E-04
       150    3.053193E-03
       151    6.237070E-04
       152   -7.539327E-04
       153    1.302258E-04
       154    1.674121E-03
       155   -3.309916E-03
       156    5.110770E-03
       157    8.277140E-03
       158   -6.574131E-03
       159   -1.703010E-03
       160   -8.438234E-03
       161    3.631789E-03
       162   -1.278208E-02
       163   -1.566732E-05
       164    1.014547E-05
       165    9.461910E-04
       166   -1.958131E-05
       167    1.575284E-05
       168   -3.086022E-04
       169    4.060122E-05
       170   -2.936442E-05
       171   -9.608462E-04
       172    3.192037E-04
       173   -1.089135E-03
       174   -2.483684E-03
       175    2.595380E-03
       176    2.086592E-02
       177   -1.672587E-02
       178    8.516179E-03
       179    9.468175E-03
       180    3.772355E-07
       181   -1.128084E-01
       182    7.271123E-04
       183   -1.208293E-05
       184   -1.154167E-01
       185   -2.607412E-02
       186    1.436646E-03
       187   -1.329249E-01
       188    5.047885E-04
       189   -2.961307E-04
       190   -2.086578E-04
       191    1.286809E-07
       192    1.038343E-02
       193    9.934712E-07
       194   -1.832050E-03
       195    3.999394E-03
       196   -2.167343E-03
       197    3.217735E-06
       198    2.558736E-02
       199   -4.624202E-07
       200   -5.648185E-03
       201    6.816582E-03
       202   -1.168397E-03
       203   -2.394247E-04
       204    1.962198E-02
       205   -6.029381E-06
       206    1.149227E-04
       207    1.556790E-08
       208    3.383435E-04
       209   -7.930348E-05
       210   -8.177724E-08
       211    1.074056E-03
       212   -7.488153E-05
       213    6.089071E-08
       214   -1.527992E-03
       215   -2.972799E-08
       216    1.303875E-04
       217    2.824918E-04
       218    5.274345E-04
       219   -1.035372E-02
       220    3.016050E-02
       221    1.253976E-02
       222   -1.797913E-03
       223   -7.067991E-04
       224   -1.626730E-01
       225   -9.336968E-03
       226   -6.108836E-03
       227   -1.653406E-01
       228   -2.319842E-02
       229    8.936614E-03
       230   -9.751600E-02
       231    1.646386E-04
       232   -1.956696E-04
       233    3.103096E-05
       234    4.083602E-06
       235   -4.183671E-04
       236   -3.053414E-03
       237    6.256208E-04
       238   -7.560145E-04
       239    1.303938E-04
       240   -1.676272E-03
       241   -3.306032E-03
       242   -5.110485E-03
       243    8.039102E-03
       244   -6.319683E-03
       245   -1.719419E-03
       246    8.648201E-03
       247    3.623652E-03
       248    1.282548E-02
       249   -1.561658E-05
       250   -1.018669E-05
       251    9.467348E-04
       252   -1.976638E-05
       253   -1.569938E-05
       254   -3.091750E-04
       255    4.071822E-05
       256    2.936626E-05
       257   -9.610030E-04
       258   -3.191744E-04
       259   -4.750424E-04
       260   -4.040723E-04
       261   -1.735623E-02
       262   -1.233885E-05
       263   -1.964561E-05
       264    3.412523E-04
       265   -5.185967E-03
       266   -3.555298E-04
       267   -6.548511E-03
       268   -4.776016E-04
       269   -3.984923E-04
       270   -1.714560E-02
       271   -1.130062E-05
       272    1.904876E-05
       273    3.441312E-04
       274   -5.299984E-03
       275    2.518134E-04
       276   -6.516796E-03
       277   -5.551085E-04
       278   -2.545325E-03
       279    3.378054E-02
       280   -1.030352E-05
       281    1.214582E-04
       282   -6.523391E-03
       283   -1.970146E-03
       284   -2.634689E-03
       285    2.202662E-03
       286   -5.596484E-04
       287   -2.550713E-03
       288    3.420024E-02
       289   -9.883100E-06
       290   -1.216698E-04
       291   -6.525652E-03
       292   -1.883262E-03
       293    2.767621E-03
       294    2.234115E-03
       295   -6.386139E-05
       296   -1.491289E-04
       297    1.533586E-04
       298    5.729095E-04
       299   -6.580082E-03
       300    5.645654E-04
       301    7.783064E-04
       302   -4.850197E-07
       303    2.908747E-02
       304    4.501119E-04
       305   -6.314701E-08
       306    3.105724E-02
       307   -2.919354E-03
       308    4.499731E-05
       309    1.077465E-02
       310    3.195068E-05
       311   -2.180984E-05
       312   -1.014085E-05
       313    9.648946E-08
       314    3.900753E-03
       315    8.571353E-08
       316    3.745794E-05
       317    1.942896E-05
       318   -5.688690E-05
       319   -2.048172E-07
       320    1.192040E-02
       321    1.151059E-07
       322   -9.963908E-04
       323    2.773286E-03
       324   -1.776895E-03
       325    4.130097E-05
       326    2.683669E-03
       327    2.069131E-06
       328    6.783911E-06
       329    2.651978E-08
       330   -4.810604E-05
       331   -3.969821E-06
       332   -1.464627E-08
       333    6.454486E-04
       334   -5.131751E-06
       335   -2.093376E-08
       336   -5.809075E-04
       337    1.840512E-08
       338   -1.519304E-05
       339   -3.361452E-05
       340    8.230973E-06
       341    5.372269E-04
       342   -5.718704E-03
       343   -8.445051E-04
       344   -5.115497E-04
       345    1.183050E-04
       346   -6.654346E-02
       347   -5.582559E-04
       348    2.377723E-04
       349   -6.187027E-02
       350   -1.637127E-03
       351    4.720113E-04
       352   -5.255287E-02
       353   -1.861772E-04
       354    1.886671E-04
       355   -6.915225E-03
       356    4.034661E-06
       357   -5.971061E-06
       358    1.936400E-06
       359    2.688648E-06
       360    8.592869E-05
       361    2.914695E-04
       362   -1.271150E-05
       363   -1.328416E-05
       364    2.599566E-05
       365    1.511952E-05
       366   -2.373767E-04
       367    1.043755E-03
       368   -7.947649E-05
       369    5.255274E-05
       370    2.692375E-05
       371    8.798740E-05
       372    6.139854E-05
       373    1.030933E-04
       374    1.131500E-06
       375    1.653779E-06
       376    3.293583E-05
       377   -2.140538E-06
       378   -8.452871E-08
       379    7.476982E-05
       380    6.224715E-07
       381   -2.134249E-06
       382   -1.189579E-04
       383    8.854981E-05
       384   -1.509021E-05
       385   -3.340779E-05
       386    8.500793E-06
       387    5.320164E-04
       388   -5.721086E-03
       389   -8.094305E-04
       390   -5.124983E-04
       391   -1.150972E-04
       392   -6.654477E-02
       393   -5.594867E-04
       394   -2.345394E-04
       395   -6.187135E-02
       396   -1.595905E-03
       397   -4.698324E-04
       398   -5.255189E-02
       399   -1.700143E-04
       400   -1.924257E-04
       401   -6.921495E-03
       402    3.966209E-06
       403   -5.921433E-06
       404    1.955224E-06
       405   -2.739122E-06
       406    8.586828E-05
       407   -2.914804E-04
       408   -1.236275E-05
       409   -1.323806E-05
       410    2.560081E-05
       411   -1.467802E-05
       412   -2.373718E-04
       413   -1.043798E-03
       414   -7.905675E-05
       415    5.353997E-05
       416    2.551679E-05
       417   -8.601240E-05
       418    5.985115E-05
       419   -1.029009E-04
       420    1.127763E-06
       421   -1.640128E-06
       422    3.294726E-05
       423   -2.122036E-06
       424    7.590747E-08
       425    7.476030E-05
       426    6.089836E-07
       427    2.124555E-06
       428   -1.189637E-04
       429   -8.856016E-05
       430    4.581446E-03
       431    1.089750E-02
       432   -1.705518E-02
       433   -2.646732E-02
       434   -2.075259E-02
       435   -6.662716E-02
       436   -1.717135E-02
       437    9.237906E-06
       438    2.621599E-01
       439   -1.967860E-02
       440   -5.775650E-07
       441    2.590396E-01
       442   -1.858229E-02
       443   -1.214012E-04
       444    2.112646E-01
       445   -9.013677E-05
       446   -1.083206E-05
       447    1.009688E-04
       448    2.221325E-07
       449    7.383999E-04
       450    2.961709E-07
       451   -1.751616E-04
       452   -1.530023E-03
       453    1.705185E-03
       454   -4.205901E-06
       455    3.603612E-03
       456    9.907894E-07
       457   -1.609065E-03
       458   -3.100790E-03
       459    4.709855E-03
       460   -9.628915E-06
       461    2.241261E-03
       462    1.016658E-05
       463   -1.412814E-04
       464    2.779352E-08
       465   -1.048925E-03
       466   -8.130334E-05
       467   -2.566049E-08
       468    5.713528E-04
       469    2.708522E-04
       470   -1.162843E-08
       471    8.359274E-04
       472    1.668993E-08
       473    9.369702E-03
       474    1.771568E-02
       475    2.948156E-02
       476   -2.259242E-03
       477   -1.891237E-03
       478    1.328778E-02
       479    1.147672E-03
       480   -3.394225E-03
       481    1.511152E-02
       482    9.363735E-03
       483    1.763721E-02
       484    2.918585E-02
       485   -2.255409E-03
       486    1.883585E-03
       487    1.329167E-02
       488    1.175791E-03
       489    3.344559E-03
       490    1.512685E-02
 Sym= X
 Ene= -0.703120
 Spin= Alpha
 Occup= -0.703120
         1    1.872827E-05
         2    4.266608E-05
         3   -1.078598E-04
         4    1.678066E-04
         5    9.045012E-03
         6    3.596562E-04
         7    1.098758E-04
         8    1.209122E-04
         9    1.648198E-01
        10    5.206660E-04
        11    3.999707E-06
        12    1.652439E-01
        13   -3.629970E-03
        14    5.817893E-03
        15    9.273915E-02
        16    6.690731E-06
        17   -1.758752E-06
        18   -4.931979E-06
        19   -5.297625E-07
        20    4.437639E-03
        21    4.579642E-04
        22    9.388433E-05
        23   -5.708667E-05
        24   -3.679766E-05
        25   -1.289005E-05
        26    8.984651E-03
        27   -4.996983E-04
        28   -8.642214E-04
        29    1.001576E-03
        30   -1.373548E-04
        31   -4.471137E-04
        32    3.737925E-03
        33   -7.365329E-04
        34    3.708407E-06
        35    7.071155E-07
        36   -9.906587E-04
        37   -7.802054E-07
        38   -1.798855E-07
        39    1.205849E-03
        40   -4.195145E-06
        41   -7.688094E-07
        42    1.232589E-04
        43    2.529188E-05
        44    1.143994E-07
        45    2.471416E-07
        46   -1.793084E-06
        47    2.750194E-05
        48   -1.873471E-03
        49   -8.139411E-05
        50    4.621332E-06
        51   -7.763753E-05
        52    1.875869E-05
        53    5.613744E-06
        54   -1.930378E-04
        55    1.297943E-05
        56   -9.112081E-04
        57    9.036543E-03
        58   -3.294915E-05
        59   -1.089902E-07
        60    2.029749E-07
        61   -9.398469E-08
        62   -7.701285E-06