[Molden Format]
[Title]
ADC(2) - opt by CAM-B3LYP gaussian                                              
[Atoms] AU
 c     1    6 -.12588789760523E+01 -.22833296301999E+01 -.24948636837890E-01
 c     2    6 -.25574931053929E+01 0.00000000000000E+00 -.23691968959520E-01
 c     3    6 -.12588770863262E+01 0.22833296301999E+01 -.24954306016290E-01
 c     4    6 0.13320886199507E+01 0.22850077070059E+01 -.26951746538750E-01
 c     5    6 0.26868238359857E+01 0.00000000000000E+00 -.26437741030600E-01
 c     6    6 0.13320867302245E+01 -.22850077070059E+01 -.26946077360350E-01
 h     7    1 -.22977937121289E+01 -.40382313624087E+01 -.22371050392630E-01
 h     8    1 -.22977918224027E+01 0.40382332521348E+01 -.22380499023300E-01
 h     9    1 0.23512179234159E+01 0.40571966538783E+01 -.29234535707270E-01
 h    10    1 0.23512179234159E+01 -.40571947641522E+01 -.29223197350470E-01
 n    11    7 -.52733186864479E+01 0.00000000000000E+00 -.17996334395000E-01
 o    12    8 -.63812046469225E+01 0.20269448165729E+01 -.15568036314240E-01
 o    13    8 -.63812027571964E+01 -.20269467062990E+01 -.15583154123310E-01
 n    14    7 0.52441127328484E+01 0.00000000000000E+00 -.70347417454330E-01
 h    15    1 0.62045074583774E+01 0.16172030580838E+01 0.18832018534119E+00
 h    16    1 0.62045055686513E+01 -.16172049478099E+01 0.18831451616279E+00
[GTO]
    1 0
 s    6 1.00
 0.13575349682000E+05 0.60645503603591E-03
 0.20352333680000E+04 0.46979088884982E-02
 0.46322562359000E+03 0.24332477647552E-01
 0.13120019598000E+03 0.97399968307759E-01
 0.42853015891000E+02 0.30195584253780E+00
 0.15584185766000E+02 0.66233609137875E+00
 s    2 1.00
 0.62067138508000E+01 0.65595308539952E+00
 0.25764896527000E+01 0.37585633285142E+00
 s    1 1.00
 0.57696339419000E+00 0.10000000000000E+01
 s    1 1.00
 0.22972831358000E+00 0.10000000000000E+01
 s    1 1.00
 0.95164440028000E-01 0.10000000000000E+01
 s    1 1.00
 0.48475401370000E-01 0.10000000000000E+01
 p    4 1.00
 0.34697232244000E+02 0.11327220003114E-01
 0.79582622826000E+01 0.76169659202087E-01
 0.23780826883000E+01 0.30192252202676E+00
 0.81433208183000E+00 0.72785027349547E+00
 p    1 1.00
 0.28887547253000E+00 0.10000000000000E+01
 p    1 1.00
 0.10056823671000E+00 0.10000000000000E+01
 d    1 1.00
 0.10970000000000E+01 0.10000000000000E+01
 d    1 1.00
 0.31800000000000E+00 0.10000000000000E+01
 d    1 1.00
 0.90985336424000E-01 0.10000000000000E+01
 f    1 1.00
 0.76100000000000E+00 0.10000000000000E+01
 
    2 0
 s    6 1.00
 0.13575349682000E+05 0.60645503603591E-03
 0.20352333680000E+04 0.46979088884982E-02
 0.46322562359000E+03 0.24332477647552E-01
 0.13120019598000E+03 0.97399968307759E-01
 0.42853015891000E+02 0.30195584253780E+00
 0.15584185766000E+02 0.66233609137875E+00
 s    2 1.00
 0.62067138508000E+01 0.65595308539952E+00
 0.25764896527000E+01 0.37585633285142E+00
 s    1 1.00
 0.57696339419000E+00 0.10000000000000E+01
 s    1 1.00
 0.22972831358000E+00 0.10000000000000E+01
 s    1 1.00
 0.95164440028000E-01 0.10000000000000E+01
 s    1 1.00
 0.48475401370000E-01 0.10000000000000E+01
 p    4 1.00
 0.34697232244000E+02 0.11327220003114E-01
 0.79582622826000E+01 0.76169659202087E-01
 0.23780826883000E+01 0.30192252202676E+00
 0.81433208183000E+00 0.72785027349547E+00
 p    1 1.00
 0.28887547253000E+00 0.10000000000000E+01
 p    1 1.00
 0.10056823671000E+00 0.10000000000000E+01
 d    1 1.00
 0.10970000000000E+01 0.10000000000000E+01
 d    1 1.00
 0.31800000000000E+00 0.10000000000000E+01
 d    1 1.00
 0.90985336424000E-01 0.10000000000000E+01
 f    1 1.00
 0.76100000000000E+00 0.10000000000000E+01
 
    3 0
 s    6 1.00
 0.13575349682000E+05 0.60645503603591E-03
 0.20352333680000E+04 0.46979088884982E-02
 0.46322562359000E+03 0.24332477647552E-01
 0.13120019598000E+03 0.97399968307759E-01
 0.42853015891000E+02 0.30195584253780E+00
 0.15584185766000E+02 0.66233609137875E+00
 s    2 1.00
 0.62067138508000E+01 0.65595308539952E+00
 0.25764896527000E+01 0.37585633285142E+00
 s    1 1.00
 0.57696339419000E+00 0.10000000000000E+01
 s    1 1.00
 0.22972831358000E+00 0.10000000000000E+01
 s    1 1.00
 0.95164440028000E-01 0.10000000000000E+01
 s    1 1.00
 0.48475401370000E-01 0.10000000000000E+01
 p    4 1.00
 0.34697232244000E+02 0.11327220003114E-01
 0.79582622826000E+01 0.76169659202087E-01
 0.23780826883000E+01 0.30192252202676E+00
 0.81433208183000E+00 0.72785027349547E+00
 p    1 1.00
 0.28887547253000E+00 0.10000000000000E+01
 p    1 1.00
 0.10056823671000E+00 0.10000000000000E+01
 d    1 1.00
 0.10970000000000E+01 0.10000000000000E+01
 d    1 1.00
 0.31800000000000E+00 0.10000000000000E+01
 d    1 1.00
 0.90985336424000E-01 0.10000000000000E+01
 f    1 1.00
 0.76100000000000E+00 0.10000000000000E+01
 
    4 0
 s    6 1.00
 0.13575349682000E+05 0.60645503603591E-03
 0.20352333680000E+04 0.46979088884982E-02
 0.46322562359000E+03 0.24332477647552E-01
 0.13120019598000E+03 0.97399968307759E-01
 0.42853015891000E+02 0.30195584253780E+00
 0.15584185766000E+02 0.66233609137875E+00
 s    2 1.00
 0.62067138508000E+01 0.65595308539952E+00
 0.25764896527000E+01 0.37585633285142E+00
 s    1 1.00
 0.57696339419000E+00 0.10000000000000E+01
 s    1 1.00
 0.22972831358000E+00 0.10000000000000E+01
 s    1 1.00
 0.95164440028000E-01 0.10000000000000E+01
 s    1 1.00
 0.48475401370000E-01 0.10000000000000E+01
 p    4 1.00
 0.34697232244000E+02 0.11327220003114E-01
 0.79582622826000E+01 0.76169659202087E-01
 0.23780826883000E+01 0.30192252202676E+00
 0.81433208183000E+00 0.72785027349547E+00
 p    1 1.00
 0.28887547253000E+00 0.10000000000000E+01
 p    1 1.00
 0.10056823671000E+00 0.10000000000000E+01
 d    1 1.00
 0.10970000000000E+01 0.10000000000000E+01
 d    1 1.00
 0.31800000000000E+00 0.10000000000000E+01
 d    1 1.00
 0.90985336424000E-01 0.10000000000000E+01
 f    1 1.00
 0.76100000000000E+00 0.10000000000000E+01
 
    5 0
 s    6 1.00
 0.13575349682000E+05 0.60645503603591E-03
 0.20352333680000E+04 0.46979088884982E-02
 0.46322562359000E+03 0.24332477647552E-01
 0.13120019598000E+03 0.97399968307759E-01
 0.42853015891000E+02 0.30195584253780E+00
 0.15584185766000E+02 0.66233609137875E+00
 s    2 1.00
 0.62067138508000E+01 0.65595308539952E+00
 0.25764896527000E+01 0.37585633285142E+00
 s    1 1.00
 0.57696339419000E+00 0.10000000000000E+01
 s    1 1.00
 0.22972831358000E+00 0.10000000000000E+01
 s    1 1.00
 0.95164440028000E-01 0.10000000000000E+01
 s    1 1.00
 0.48475401370000E-01 0.10000000000000E+01
 p    4 1.00
 0.34697232244000E+02 0.11327220003114E-01
 0.79582622826000E+01 0.76169659202087E-01
 0.23780826883000E+01 0.30192252202676E+00
 0.81433208183000E+00 0.72785027349547E+00
 p    1 1.00
 0.28887547253000E+00 0.10000000000000E+01
 p    1 1.00
 0.10056823671000E+00 0.10000000000000E+01
 d    1 1.00
 0.10970000000000E+01 0.10000000000000E+01
 d    1 1.00
 0.31800000000000E+00 0.10000000000000E+01
 d    1 1.00
 0.90985336424000E-01 0.10000000000000E+01
 f    1 1.00
 0.76100000000000E+00 0.10000000000000E+01
 
    6 0
 s    6 1.00
 0.13575349682000E+05 0.60645503603591E-03
 0.20352333680000E+04 0.46979088884982E-02
 0.46322562359000E+03 0.24332477647552E-01
 0.13120019598000E+03 0.97399968307759E-01
 0.42853015891000E+02 0.30195584253780E+00
 0.15584185766000E+02 0.66233609137875E+00
 s    2 1.00
 0.62067138508000E+01 0.65595308539952E+00
 0.25764896527000E+01 0.37585633285142E+00
 s    1 1.00
 0.57696339419000E+00 0.10000000000000E+01
 s    1 1.00
 0.22972831358000E+00 0.10000000000000E+01
 s    1 1.00
 0.95164440028000E-01 0.10000000000000E+01
 s    1 1.00
 0.48475401370000E-01 0.10000000000000E+01
 p    4 1.00
 0.34697232244000E+02 0.11327220003114E-01
 0.79582622826000E+01 0.76169659202087E-01
 0.23780826883000E+01 0.30192252202676E+00
 0.81433208183000E+00 0.72785027349547E+00
 p    1 1.00
 0.28887547253000E+00 0.10000000000000E+01
 p    1 1.00
 0.10056823671000E+00 0.10000000000000E+01
 d    1 1.00
 0.10970000000000E+01 0.10000000000000E+01
 d    1 1.00
 0.31800000000000E+00 0.10000000000000E+01
 d    1 1.00
 0.90985336424000E-01 0.10000000000000E+01
 f    1 1.00
 0.76100000000000E+00 0.10000000000000E+01
 
    7 0
 s    3 1.00
 0.34061341000000E+02 0.25439307208879E-01
 0.51235746000000E+01 0.19008594890375E+00
 0.11646626000000E+01 0.85244113011042E+00
 s    1 1.00
 0.32723041000000E+00 0.10000000000000E+01
 s    1 1.00
 0.10307241000000E+00 0.10000000000000E+01
 p    1 1.00
 0.80000000000000E+00 0.10000000000000E+01
 p    1 1.00
 0.95774129632000E-01 0.10000000000000E+01
 
    8 0
 s    3 1.00
 0.34061341000000E+02 0.25439307208879E-01
 0.51235746000000E+01 0.19008594890375E+00
 0.11646626000000E+01 0.85244113011042E+00
 s    1 1.00
 0.32723041000000E+00 0.10000000000000E+01
 s    1 1.00
 0.10307241000000E+00 0.10000000000000E+01
 p    1 1.00
 0.80000000000000E+00 0.10000000000000E+01
 p    1 1.00
 0.95774129632000E-01 0.10000000000000E+01
 
    9 0
 s    3 1.00
 0.34061341000000E+02 0.25439307208879E-01
 0.51235746000000E+01 0.19008594890375E+00
 0.11646626000000E+01 0.85244113011042E+00
 s    1 1.00
 0.32723041000000E+00 0.10000000000000E+01
 s    1 1.00
 0.10307241000000E+00 0.10000000000000E+01
 p    1 1.00
 0.80000000000000E+00 0.10000000000000E+01
 p    1 1.00
 0.95774129632000E-01 0.10000000000000E+01
 
   10 0
 s    3 1.00
 0.34061341000000E+02 0.25439307208879E-01
 0.51235746000000E+01 0.19008594890375E+00
 0.11646626000000E+01 0.85244113011042E+00
 s    1 1.00
 0.32723041000000E+00 0.10000000000000E+01
 s    1 1.00
 0.10307241000000E+00 0.10000000000000E+01
 p    1 1.00
 0.80000000000000E+00 0.10000000000000E+01
 p    1 1.00
 0.95774129632000E-01 0.10000000000000E+01
 
   11 0
 s    6 1.00
 0.19730800647000E+05 0.58626402628763E-03
 0.29578958745000E+04 0.45428820586397E-02
 0.67322133595000E+03 0.23558413450084E-01
 0.19068249494000E+03 0.94709193292923E-01
 0.62295441898000E+02 0.29719784913376E+00
 0.22654161182000E+02 0.66916246895232E+00
 s    2 1.00
 0.89791477428000E+01 0.64596683630063E+00
 0.36863002370000E+01 0.38700574393705E+00
 s    1 1.00
 0.84660076805000E+00 0.10000000000000E+01
 s    1 1.00
 0.33647133771000E+00 0.10000000000000E+01
 s    1 1.00
 0.13647653675000E+00 0.10000000000000E+01
 s    1 1.00
 0.68441605847000E-01 0.10000000000000E+01
 p    4 1.00
 0.49200380510000E+02 0.11448825101764E-01
 0.11346790537000E+02 0.78422337970864E-01
 0.34273972411000E+01 0.30818094738830E+00
 0.11785525134000E+01 0.72027196368413E+00
 p    1 1.00
 0.41642204972000E+00 0.10000000000000E+01
 p    1 1.00
 0.14260826011000E+00 0.10000000000000E+01
 d    1 1.00
 0.16540000000000E+01 0.10000000000000E+01
 d    1 1.00
 0.46900000000000E+00 0.10000000000000E+01
 d    1 1.00
 0.12829642058000E+00 0.10000000000000E+01
 f    1 1.00
 0.10930000000000E+01 0.10000000000000E+01
 
   12 0
 s    6 1.00
 0.27032382631000E+05 0.57227335211155E-03
 0.40523871392000E+04 0.44353233492995E-02
 0.92232722710000E+03 0.23020107706038E-01
 0.26124070989000E+03 0.92822490667928E-01
 0.85354641351000E+02 0.29378500009671E+00
 0.31035035245000E+02 0.67401604501641E+00
 s    2 1.00
 0.12260860728000E+02 0.63839937025506E+00
 0.49987076005000E+01 0.39534587125718E+00
 s    1 1.00
 0.11703108158000E+01 0.10000000000000E+01
 s    1 1.00
 0.46474740994000E+00 0.10000000000000E+01
 s    1 1.00
 0.18504536357000E+00 0.10000000000000E+01
 s    1 1.00
 0.70288026270000E-01 0.10000000000000E+01
 p    4 1.00
 0.63274954801000E+02 0.12018332222616E-01
 0.14627049379000E+02 0.83005421790056E-01
 0.44501223456000E+01 0.31991743925964E+00
 0.15275799647000E+01 0.70715542916104E+00
 p    1 1.00
 0.52935117943000E+00 0.10000000000000E+01
 p    1 1.00
 0.17478421270000E+00 0.10000000000000E+01
 p    1 1.00
 0.51112745706000E-01 0.10000000000000E+01
 d    1 1.00
 0.23140000000000E+01 0.10000000000000E+01
 d    1 1.00
 0.64500000000000E+00 0.10000000000000E+01
 d    1 1.00
 0.14696477366000E+00 0.10000000000000E+01
 f    1 1.00
 0.14280000000000E+01 0.10000000000000E+01
 
   13 0
 s    6 1.00
 0.27032382631000E+05 0.57227335211155E-03
 0.40523871392000E+04 0.44353233492995E-02
 0.92232722710000E+03 0.23020107706038E-01
 0.26124070989000E+03 0.92822490667928E-01
 0.85354641351000E+02 0.29378500009671E+00
 0.31035035245000E+02 0.67401604501641E+00
 s    2 1.00
 0.12260860728000E+02 0.63839937025506E+00
 0.49987076005000E+01 0.39534587125718E+00
 s    1 1.00
 0.11703108158000E+01 0.10000000000000E+01
 s    1 1.00
 0.46474740994000E+00 0.10000000000000E+01
 s    1 1.00
 0.18504536357000E+00 0.10000000000000E+01
 s    1 1.00
 0.70288026270000E-01 0.10000000000000E+01
 p    4 1.00
 0.63274954801000E+02 0.12018332222616E-01
 0.14627049379000E+02 0.83005421790056E-01
 0.44501223456000E+01 0.31991743925964E+00
 0.15275799647000E+01 0.70715542916104E+00
 p    1 1.00
 0.52935117943000E+00 0.10000000000000E+01
 p    1 1.00
 0.17478421270000E+00 0.10000000000000E+01
 p    1 1.00
 0.51112745706000E-01 0.10000000000000E+01
 d    1 1.00
 0.23140000000000E+01 0.10000000000000E+01
 d    1 1.00
 0.64500000000000E+00 0.10000000000000E+01
 d    1 1.00
 0.14696477366000E+00 0.10000000000000E+01
 f    1 1.00
 0.14280000000000E+01 0.10000000000000E+01
 
   14 0
 s    6 1.00
 0.19730800647000E+05 0.58626402628763E-03
 0.29578958745000E+04 0.45428820586397E-02
 0.67322133595000E+03 0.23558413450084E-01
 0.19068249494000E+03 0.94709193292923E-01
 0.62295441898000E+02 0.29719784913376E+00
 0.22654161182000E+02 0.66916246895232E+00
 s    2 1.00
 0.89791477428000E+01 0.64596683630063E+00
 0.36863002370000E+01 0.38700574393705E+00
 s    1 1.00
 0.84660076805000E+00 0.10000000000000E+01
 s    1 1.00
 0.33647133771000E+00 0.10000000000000E+01
 s    1 1.00
 0.13647653675000E+00 0.10000000000000E+01
 s    1 1.00
 0.68441605847000E-01 0.10000000000000E+01
 p    4 1.00
 0.49200380510000E+02 0.11448825101764E-01
 0.11346790537000E+02 0.78422337970864E-01
 0.34273972411000E+01 0.30818094738830E+00
 0.11785525134000E+01 0.72027196368413E+00
 p    1 1.00
 0.41642204972000E+00 0.10000000000000E+01
 p    1 1.00
 0.14260826011000E+00 0.10000000000000E+01
 d    1 1.00
 0.16540000000000E+01 0.10000000000000E+01
 d    1 1.00
 0.46900000000000E+00 0.10000000000000E+01
 d    1 1.00
 0.12829642058000E+00 0.10000000000000E+01
 f    1 1.00
 0.10930000000000E+01 0.10000000000000E+01
 
   15 0
 s    3 1.00
 0.34061341000000E+02 0.25439307208879E-01
 0.51235746000000E+01 0.19008594890375E+00
 0.11646626000000E+01 0.85244113011042E+00
 s    1 1.00
 0.32723041000000E+00 0.10000000000000E+01
 s    1 1.00
 0.10307241000000E+00 0.10000000000000E+01
 p    1 1.00
 0.80000000000000E+00 0.10000000000000E+01
 p    1 1.00
 0.95774129632000E-01 0.10000000000000E+01
 
   16 0
 s    3 1.00
 0.34061341000000E+02 0.25439307208879E-01
 0.51235746000000E+01 0.19008594890375E+00
 0.11646626000000E+01 0.85244113011042E+00
 s    1 1.00
 0.32723041000000E+00 0.10000000000000E+01
 s    1 1.00
 0.10307241000000E+00 0.10000000000000E+01
 p    1 1.00
 0.80000000000000E+00 0.10000000000000E+01
 p    1 1.00
 0.95774129632000E-01 0.10000000000000E+01
 
[MO]
 Sym= X
 Ene= -0.079801
 Spin= Alpha
 Occup= -0.079801
         1    1.147429E-04
         2    2.694147E-04
         3   -8.678548E-04
         4    2.369961E-03
         5    1.071996E-02
         6    9.254009E-03
         7   -4.992219E-04
         8    5.441271E-05
         9   -2.626657E-02
        10    2.644114E-03
        11   -1.135351E-04
        12   -2.445274E-02
        13    3.010894E-02
        14   -8.874285E-03
        15   -5.328108E-03
        16    2.308400E-05
        17   -1.001989E-05
        18   -1.306411E-05
        19   -1.288800E-06
        20    6.565307E-03
        21   -3.991412E-03
        22    5.824065E-04
        23   -3.475667E-04
        24   -2.348398E-04
        25    5.528920E-04
        26    1.474187E-02
        27   -7.512764E-03
        28    4.548433E-03
        29   -4.303993E-03
        30   -2.444393E-04
        31   -7.914762E-04
        32   -1.059480E-03
        33    9.221605E-03
        34    1.907237E-05
        35   -3.478738E-06
        36    1.160099E-04
        37   -7.587772E-06
        38    3.905873E-06
        39    7.199953E-04
        40   -1.800050E-05
        41    7.613434E-07
        42   -8.756389E-04
        43    7.328744E-04
        44    2.037774E-05
        45    4.697716E-05
        46   -2.185433E-04
        47    1.776705E-03
        48    4.509139E-02
        49   -4.136218E-03
        50   -3.742704E-04
        51   -1.314005E-06
        52   -2.120640E-01
        53    2.629375E-04
        54   -2.109598E-05
        55   -2.200092E-01
        56    1.455316E-02
        57    1.227891E-03
        58   -2.026125E-01
        59   -5.996481E-06
        60    3.411558E-06
        61    2.584923E-06
        62   -9.840053E-08
        63    8.650697E-04
        64   -1.243837E-06
        65   -2.650216E-04
        66    4.556785E-04
        67   -1.906569E-04
        68   -4.889604E-06
        69    3.729215E-03
        70   -2.119147E-06
        71   -6.797360E-03
        72    7.778501E-03
        73   -9.811407E-04
        74    2.061710E-04
        75   -5.283901E-03
        76    1.277171E-05
        77   -6.385527E-06
        78   -4.820253E-08
        79    1.205219E-03
        80    4.409362E-06
        81   -3.499994E-08
        82   -7.448794E-04
        83    4.157722E-06
        84    9.967042E-08
        85   -8.720915E-04
        86   -1.450436E-07
        87    1.149090E-04
        88    2.698983E-04
        89   -8.758280E-04
        90    2.441348E-03
        91    8.512798E-03
        92    9.181241E-03
        93   -5.000024E-04
        94   -5.279790E-05
        95   -2.632606E-02
        96    2.625910E-03
        97    9.853098E-05
        98   -2.451035E-02
        99    3.086109E-02
       100    1.020397E-02
       101   -5.451501E-03
       102    2.323456E-05
       103   -1.001965E-05
       104   -1.321491E-05
       105    1.006506E-06
       106    6.564553E-03
       107    3.991662E-03
       108    5.778131E-04
       109   -3.420487E-04
       110   -2.357644E-04
       111   -5.490899E-04
       112    1.473770E-02
       113    7.512334E-03
       114    4.771821E-03
       115   -4.552595E-03
       116   -2.192263E-04
       117    6.365991E-04
       118   -1.069791E-03
       119   -9.193229E-03
       120    1.920277E-05
       121    3.457911E-06
       122    1.163426E-04
       123   -7.866530E-06
       124   -3.910763E-06
       125    7.196197E-04
       126   -1.789669E-05
       127   -7.285105E-07
       128   -8.757096E-04
       129   -7.328071E-04
       130   -7.601094E-05
       131   -1.615155E-04
       132   -5.156341E-04
       133    8.177217E-03
       134   -2.815382E-02
       135   -1.050385E-02
       136    2.333122E-04
       137   -2.765073E-04
       138    1.609194E-01
       139    6.766518E-03
       140   -4.787861E-03
       141    1.634933E-01
       142    2.128358E-02
       143    5.916078E-03
       144    9.860395E-02
       145   -7.918459E-05
       146    9.979517E-05
       147   -2.061057E-05
       148    1.168364E-05
       149    1.069152E-03
       150   -3.291382E-03
       151   -4.849961E-04
       152    5.662451E-04
       153   -8.124897E-05
       154   -1.353065E-03
       155    4.448561E-03
       156   -5.626215E-03
       157   -7.000515E-03
       158    5.525603E-03
       159    1.474912E-03
       160    7.008547E-03
       161   -2.974131E-03
       162    1.040260E-02
       163    1.190089E-05
       164   -3.977326E-06
       165   -9.357724E-04
       166    1.267724E-05
       167   -1.760929E-05
       168    2.487174E-04
       169   -2.864395E-05
       170    2.294544E-05
       171    1.006753E-03
       172   -3.933823E-04
       173    8.887499E-04
       174    2.028449E-03
       175   -2.080479E-03
       176   -1.800660E-02
       177    9.738411E-03
       178   -7.869202E-03
       179   -5.879204E-03
       180   -1.486018E-06
       181    1.334664E-01
       182    5.404427E-04
       183    9.217406E-06
       184    1.353321E-01
       185    1.922370E-02
       186   -1.352498E-03
       187    1.297702E-01
       188   -3.192234E-04
       189    1.557433E-04
       190    1.634801E-04
       191   -6.466645E-08
       192   -9.241719E-03
       193   -9.720590E-07
       194    1.563648E-03
       195   -3.374672E-03
       196    1.811024E-03
       197   -2.704827E-06
       198   -2.333989E-02
       199    7.675657E-07
       200    4.063857E-03
       201   -5.138678E-03
       202    1.074822E-03
       203    2.196072E-04
       204   -1.890790E-02
       205    9.614040E-06
       206   -8.551075E-05
       207   -2.104034E-08
       208   -5.418488E-04
       209    6.306822E-05
       210    6.884403E-08
       211   -7.974954E-04
       212    5.165649E-05
       213   -4.061546E-08
       214    1.524462E-03
       215    1.883586E-08
       216   -7.681224E-05
       217   -1.631115E-04
       218   -5.190319E-04
       219    8.252477E-03
       220   -3.061078E-02
       221   -1.055692E-02
       222    2.353548E-04
       223    2.711207E-04
       224    1.609643E-01
       225    6.775552E-03
       226    4.799579E-03
       227    1.635462E-01
       228    2.035640E-02
       229   -7.500225E-03
       230    9.855968E-02
       231   -7.895503E-05
       232    1.003643E-04
       233   -2.140923E-05
       234   -1.170701E-05
       235    1.067809E-03
       236    3.291595E-03
       237   -4.873543E-04
       238    5.682668E-04
       239   -8.091252E-05
       240    1.354992E-03
       241    4.444540E-03
       242    5.626051E-03
       243   -6.779549E-03
       244    5.288695E-03
       245    1.490853E-03
       246   -7.211637E-03
       247   -2.961818E-03
       248   -1.044211E-02
       249    1.188437E-05
       250    4.012838E-06
       251   -9.363170E-04
       252    1.282896E-05
       253    1.755749E-05
       254    2.492914E-04
       255   -2.877351E-05
       256   -2.294128E-05
       257    1.006910E-03
       258    3.933516E-04
       259   -6.665933E-07
       260   -2.710506E-04
       261    1.398994E-02
       262    3.296185E-06
       263   -4.547186E-05
       264   -1.041222E-03
       265    4.454991E-03
       266    6.432631E-05
       267    5.965687E-03
       268    7.582934E-07
       269   -2.775220E-04
       270    1.381068E-02
       271    2.230274E-06
       272    4.613932E-05
       273   -1.044004E-03
       274    4.565944E-03
       275    3.495705E-05
       276    5.939130E-03
       277    1.855487E-04
       278    1.701021E-03
       279   -2.803202E-02
       280   -1.942540E-06
       281   -5.461188E-05
       282    6.540371E-03
       283    1.139049E-03
       284    2.293915E-03
       285   -2.634415E-04
       286    1.895503E-04
       287    1.706412E-03
       288   -2.843434E-02
       289   -2.181450E-06
       290    5.485208E-05
       291    6.542602E-03
       292    1.057269E-03
       293   -2.419456E-03
       294   -2.942567E-04
       295    8.663649E-06
       296    1.810202E-05
       297    3.270079E-05
       298   -1.546334E-04
       299    4.934329E-03
       300   -1.732585E-03
       301   -1.780893E-04
       302    1.421648E-07
       303   -2.696322E-02
       304    5.899343E-05
       305   -7.681963E-07
       306   -2.902433E-02
       307    2.386256E-03
       308   -3.815397E-05
       309   -1.234344E-02
       310   -3.018340E-05
       311    1.471215E-05
       312    1.547124E-05
       313   -8.080771E-09
       314   -4.552080E-03
       315    1.979933E-09
       316   -3.636136E-05
       317   -2.738472E-05
       318    6.374608E-05
       319    5.288413E-07
       320   -1.379372E-02
       321    1.685770E-07
       322    9.406123E-04
       323   -2.375587E-03
       324    1.434975E-03
       325   -3.690169E-05
       326   -3.630450E-03
       327   -2.671894E-06
       328   -5.489180E-06
       329   -7.672040E-09
       330    3.256530E-05
       331    3.920704E-06
       332   -1.664178E-08
       333   -7.403214E-04
       334    3.443804E-06
       335    2.693490E-08
       336    6.966304E-04
       337   -3.326921E-08
       338   -7.831962E-07
       339   -5.018093E-06
       340    4.524328E-05
       341   -3.555094E-04
       342    4.815962E-03
       343    8.251393E-04
       344    5.071205E-04
       345    8.761874E-05
       346    7.840459E-02
       347    5.345640E-04
       348   -4.194702E-05
       349    7.279435E-02
       350    1.463064E-03
       351   -2.664793E-04
       352    6.050001E-02
       353    1.393600E-04
       354   -1.936972E-04
       355    7.621321E-03
       356   -3.081106E-07
       357    3.230837E-07
       358   -1.497313E-08
       359   -3.345302E-06
       360   -5.389261E-05
       361   -4.126937E-04
       362    1.758807E-05
       363   -7.754898E-07
       364   -1.681258E-05
       365   -1.897506E-05
       366    3.979815E-04
       367   -1.421142E-03
       368    7.407052E-05
       369   -5.892723E-05
       370   -1.514329E-05
       371   -9.097805E-05
       372    1.941111E-04
       373   -1.621438E-04
       374   -8.676201E-07
       375    3.096907E-07
       376   -5.154170E-05
       377    1.525990E-06
       378   -1.752119E-06
       379   -8.635762E-05
       380   -3.619552E-07
       381    1.336625E-06
       382    1.555081E-04
       383   -1.202709E-04
       384   -9.001388E-07
       385   -5.254634E-06
       386    4.495324E-05
       387   -3.499591E-04
       388    4.814678E-03
       389    7.864602E-04
       390    5.035620E-04
       391   -8.684652E-05
       392    7.840096E-02
       393    5.315132E-04
       394    4.192213E-05
       395    7.279105E-02
       396    1.421950E-03
       397    2.659139E-04
       398    6.049427E-02
       399    1.219797E-04
       400    1.978268E-04
       401    7.626950E-03
       402   -2.859573E-07
       403    3.306554E-07
       404   -4.469810E-08
       405    3.400384E-06
       406   -5.385385E-05
       407    4.126623E-04
       408    1.719265E-05
       409   -7.969548E-07
       410   -1.639570E-05
       411    1.846871E-05
       412    3.978683E-04
       413    1.421064E-03
       414    7.329152E-05
       415   -5.954264E-05
       416   -1.374888E-05
       417    8.974110E-05
       418    1.955855E-04
       419    1.615407E-04
       420   -8.689294E-07
       421   -3.119410E-07
       422   -5.154592E-05
       423    1.509900E-06
       424    1.746529E-06
       425   -8.634680E-05
       426   -3.441085E-07
       427   -1.328016E-06
       428    1.555029E-04
       429    1.202684E-04
       430   -3.813064E-03
       431   -9.074701E-03
       432    1.422185E-02
       433    2.195689E-02
       434    1.978153E-02
       435    6.077256E-02
       436    1.252360E-02
       437   -6.770547E-06
       438   -2.162465E-01
       439    1.470206E-02
       440    1.428142E-06
       441   -2.144664E-01
       442    1.293202E-02
       443    1.037994E-04
       444   -1.808778E-01
       445    9.537025E-05
       446   -3.818735E-05
       447   -5.718290E-05
       448   -1.414133E-07
       449   -1.141875E-03
       450   -2.349369E-07
       451    2.255011E-04
       452    1.122232E-03
       453   -1.347733E-03
       454    3.440212E-06
       455   -4.469099E-03
       456   -8.695742E-07
       457    1.815101E-03
       458    2.069823E-03
       459   -3.884924E-03
       460    7.095282E-06
       461   -2.395779E-03
       462   -9.521230E-06
       463    1.216355E-04
       464   -2.032904E-08
       465    7.983595E-04
       466    6.056608E-05
       467    2.315777E-08
       468   -3.529267E-04
       469   -2.237573E-04
       470    4.116500E-09
       471   -7.181849E-04
       472   -1.357465E-08
       473   -8.522690E-03
       474   -1.550799E-02
       475   -2.497729E-02
       476    1.815553E-03
       477    1.612892E-03
       478   -1.118021E-02
       479   -1.659578E-03
       480    2.936313E-03
       481   -1.423944E-02
       482   -8.518650E-03
       483   -1.544463E-02
       484   -2.472930E-02
       485    1.812555E-03
       486   -1.606662E-03
       487   -1.118361E-02
       488   -1.683602E-03
       489   -2.896295E-03
       490   -1.425229E-02
 Sym= X
 Ene= -0.878989
 Spin= Alpha
 Occup= -0.878989
         1   -2.719250E-04
         2   -6.256715E-04
         3    1.430901E-03
         4   -1.558536E-03
         5    6.068252E-03
         6   -1.017603E-02
         7    2.683973E-03
         8   -3.476003E-04
         9   -1.395809E-01
        10   -1.311544E-03
        11    9.997442E-06
        12   -1.374778E-01
        13   -1.944521E-02
        14    4.624911E-04
        15   -5.249948E-02
        16    7.151680E-05
        17   -6.874351E-05
        18   -2.773290E-06
        19   -3.475745E-05
        20    3.698781E-04
        21   -4.331624E-03
        22   -4.570090E-04
        23    2.782343E-04
        24    1.787746E-04
        25   -7.378030E-04
        26    1.373883E-03
        27   -7.211747E-03
        28   -1.929923E-03
        29    1.799626E-03
        30    1.302974E-04
        31    1.667047E-03
        32    6.900046E-03
        33   -5.127120E-03
        34   -1.236109E-05
        35    3.305016E-06
        36    1.172920E-03
        37    1.231335E-06
        38   -3.307950E-06
        39   -6.529866E-04
        40    1.535281E-05
        41   -1.126195E-06
        42   -9.206513E-04
        43    4.928648E-04
        44   -7.945503E-05
        45   -1.825369E-04
        46    5.685832E-04
        47   -3.026380E-03
        48   -1.205130E-02
        49    9.189623E-03
        50   -1.920888E-03
        51    2.848424E-06
        52   -2.067494E-01
        53   -2.477192E-03
        54   -5.684293E-06
        55   -2.084234E-01
        56   -8.269678E-03
        57   -1.058842E-03
        58   -6.509529E-02
        59    1.158605E-04
        60   -1.130636E-04
        61   -2.796838E-06
        62    1.144922E-07