[Molden Format]
[Title]
ADC(2) - opt by CAM-B3LYP gaussian                                              
[Atoms] AU
 c     1    6 -.12588789760523E+01 -.22833296301999E+01 -.24948636837890E-01
 c     2    6 -.25574931053929E+01 0.00000000000000E+00 -.23691968959520E-01
 c     3    6 -.12588770863262E+01 0.22833296301999E+01 -.24954306016290E-01
 c     4    6 0.13320886199507E+01 0.22850077070059E+01 -.26951746538750E-01
 c     5    6 0.26868238359857E+01 0.00000000000000E+00 -.26437741030600E-01
 c     6    6 0.13320867302245E+01 -.22850077070059E+01 -.26946077360350E-01
 h     7    1 -.22977937121289E+01 -.40382313624087E+01 -.22371050392630E-01
 h     8    1 -.22977918224027E+01 0.40382332521348E+01 -.22380499023300E-01
 h     9    1 0.23512179234159E+01 0.40571966538783E+01 -.29234535707270E-01
 h    10    1 0.23512179234159E+01 -.40571947641522E+01 -.29223197350470E-01
 n    11    7 -.52733186864479E+01 0.00000000000000E+00 -.17996334395000E-01
 o    12    8 -.63812046469225E+01 0.20269448165729E+01 -.15568036314240E-01
 o    13    8 -.63812027571964E+01 -.20269467062990E+01 -.15583154123310E-01
 n    14    7 0.52441127328484E+01 0.00000000000000E+00 -.70347417454330E-01
 h    15    1 0.62045074583774E+01 0.16172030580838E+01 0.18832018534119E+00
 h    16    1 0.62045055686513E+01 -.16172049478099E+01 0.18831451616279E+00
[GTO]
    1 0
 s    6 1.00
 0.13575349682000E+05 0.60645503603591E-03
 0.20352333680000E+04 0.46979088884982E-02
 0.46322562359000E+03 0.24332477647552E-01
 0.13120019598000E+03 0.97399968307759E-01
 0.42853015891000E+02 0.30195584253780E+00
 0.15584185766000E+02 0.66233609137875E+00
 s    2 1.00
 0.62067138508000E+01 0.65595308539952E+00
 0.25764896527000E+01 0.37585633285142E+00
 s    1 1.00
 0.57696339419000E+00 0.10000000000000E+01
 s    1 1.00
 0.22972831358000E+00 0.10000000000000E+01
 s    1 1.00
 0.95164440028000E-01 0.10000000000000E+01
 s    1 1.00
 0.48475401370000E-01 0.10000000000000E+01
 p    4 1.00
 0.34697232244000E+02 0.11327220003114E-01
 0.79582622826000E+01 0.76169659202087E-01
 0.23780826883000E+01 0.30192252202676E+00
 0.81433208183000E+00 0.72785027349547E+00
 p    1 1.00
 0.28887547253000E+00 0.10000000000000E+01
 p    1 1.00
 0.10056823671000E+00 0.10000000000000E+01
 d    1 1.00
 0.10970000000000E+01 0.10000000000000E+01
 d    1 1.00
 0.31800000000000E+00 0.10000000000000E+01
 d    1 1.00
 0.90985336424000E-01 0.10000000000000E+01
 f    1 1.00
 0.76100000000000E+00 0.10000000000000E+01
 
    2 0
 s    6 1.00
 0.13575349682000E+05 0.60645503603591E-03
 0.20352333680000E+04 0.46979088884982E-02
 0.46322562359000E+03 0.24332477647552E-01
 0.13120019598000E+03 0.97399968307759E-01
 0.42853015891000E+02 0.30195584253780E+00
 0.15584185766000E+02 0.66233609137875E+00
 s    2 1.00
 0.62067138508000E+01 0.65595308539952E+00
 0.25764896527000E+01 0.37585633285142E+00
 s    1 1.00
 0.57696339419000E+00 0.10000000000000E+01
 s    1 1.00
 0.22972831358000E+00 0.10000000000000E+01
 s    1 1.00
 0.95164440028000E-01 0.10000000000000E+01
 s    1 1.00
 0.48475401370000E-01 0.10000000000000E+01
 p    4 1.00
 0.34697232244000E+02 0.11327220003114E-01
 0.79582622826000E+01 0.76169659202087E-01
 0.23780826883000E+01 0.30192252202676E+00
 0.81433208183000E+00 0.72785027349547E+00
 p    1 1.00
 0.28887547253000E+00 0.10000000000000E+01
 p    1 1.00
 0.10056823671000E+00 0.10000000000000E+01
 d    1 1.00
 0.10970000000000E+01 0.10000000000000E+01
 d    1 1.00
 0.31800000000000E+00 0.10000000000000E+01
 d    1 1.00
 0.90985336424000E-01 0.10000000000000E+01
 f    1 1.00
 0.76100000000000E+00 0.10000000000000E+01
 
    3 0
 s    6 1.00
 0.13575349682000E+05 0.60645503603591E-03
 0.20352333680000E+04 0.46979088884982E-02
 0.46322562359000E+03 0.24332477647552E-01
 0.13120019598000E+03 0.97399968307759E-01
 0.42853015891000E+02 0.30195584253780E+00
 0.15584185766000E+02 0.66233609137875E+00
 s    2 1.00
 0.62067138508000E+01 0.65595308539952E+00
 0.25764896527000E+01 0.37585633285142E+00
 s    1 1.00
 0.57696339419000E+00 0.10000000000000E+01
 s    1 1.00
 0.22972831358000E+00 0.10000000000000E+01
 s    1 1.00
 0.95164440028000E-01 0.10000000000000E+01
 s    1 1.00
 0.48475401370000E-01 0.10000000000000E+01
 p    4 1.00
 0.34697232244000E+02 0.11327220003114E-01
 0.79582622826000E+01 0.76169659202087E-01
 0.23780826883000E+01 0.30192252202676E+00
 0.81433208183000E+00 0.72785027349547E+00
 p    1 1.00
 0.28887547253000E+00 0.10000000000000E+01
 p    1 1.00
 0.10056823671000E+00 0.10000000000000E+01
 d    1 1.00
 0.10970000000000E+01 0.10000000000000E+01
 d    1 1.00
 0.31800000000000E+00 0.10000000000000E+01
 d    1 1.00
 0.90985336424000E-01 0.10000000000000E+01
 f    1 1.00
 0.76100000000000E+00 0.10000000000000E+01
 
    4 0
 s    6 1.00
 0.13575349682000E+05 0.60645503603591E-03
 0.20352333680000E+04 0.46979088884982E-02
 0.46322562359000E+03 0.24332477647552E-01
 0.13120019598000E+03 0.97399968307759E-01
 0.42853015891000E+02 0.30195584253780E+00
 0.15584185766000E+02 0.66233609137875E+00
 s    2 1.00
 0.62067138508000E+01 0.65595308539952E+00
 0.25764896527000E+01 0.37585633285142E+00
 s    1 1.00
 0.57696339419000E+00 0.10000000000000E+01
 s    1 1.00
 0.22972831358000E+00 0.10000000000000E+01
 s    1 1.00
 0.95164440028000E-01 0.10000000000000E+01
 s    1 1.00
 0.48475401370000E-01 0.10000000000000E+01
 p    4 1.00
 0.34697232244000E+02 0.11327220003114E-01
 0.79582622826000E+01 0.76169659202087E-01
 0.23780826883000E+01 0.30192252202676E+00
 0.81433208183000E+00 0.72785027349547E+00
 p    1 1.00
 0.28887547253000E+00 0.10000000000000E+01
 p    1 1.00
 0.10056823671000E+00 0.10000000000000E+01
 d    1 1.00
 0.10970000000000E+01 0.10000000000000E+01
 d    1 1.00
 0.31800000000000E+00 0.10000000000000E+01
 d    1 1.00
 0.90985336424000E-01 0.10000000000000E+01
 f    1 1.00
 0.76100000000000E+00 0.10000000000000E+01
 
    5 0
 s    6 1.00
 0.13575349682000E+05 0.60645503603591E-03
 0.20352333680000E+04 0.46979088884982E-02
 0.46322562359000E+03 0.24332477647552E-01
 0.13120019598000E+03 0.97399968307759E-01
 0.42853015891000E+02 0.30195584253780E+00
 0.15584185766000E+02 0.66233609137875E+00
 s    2 1.00
 0.62067138508000E+01 0.65595308539952E+00
 0.25764896527000E+01 0.37585633285142E+00
 s    1 1.00
 0.57696339419000E+00 0.10000000000000E+01
 s    1 1.00
 0.22972831358000E+00 0.10000000000000E+01
 s    1 1.00
 0.95164440028000E-01 0.10000000000000E+01
 s    1 1.00
 0.48475401370000E-01 0.10000000000000E+01
 p    4 1.00
 0.34697232244000E+02 0.11327220003114E-01
 0.79582622826000E+01 0.76169659202087E-01
 0.23780826883000E+01 0.30192252202676E+00
 0.81433208183000E+00 0.72785027349547E+00
 p    1 1.00
 0.28887547253000E+00 0.10000000000000E+01
 p    1 1.00
 0.10056823671000E+00 0.10000000000000E+01
 d    1 1.00
 0.10970000000000E+01 0.10000000000000E+01
 d    1 1.00
 0.31800000000000E+00 0.10000000000000E+01
 d    1 1.00
 0.90985336424000E-01 0.10000000000000E+01
 f    1 1.00
 0.76100000000000E+00 0.10000000000000E+01
 
    6 0
 s    6 1.00
 0.13575349682000E+05 0.60645503603591E-03
 0.20352333680000E+04 0.46979088884982E-02
 0.46322562359000E+03 0.24332477647552E-01
 0.13120019598000E+03 0.97399968307759E-01
 0.42853015891000E+02 0.30195584253780E+00
 0.15584185766000E+02 0.66233609137875E+00
 s    2 1.00
 0.62067138508000E+01 0.65595308539952E+00
 0.25764896527000E+01 0.37585633285142E+00
 s    1 1.00
 0.57696339419000E+00 0.10000000000000E+01
 s    1 1.00
 0.22972831358000E+00 0.10000000000000E+01
 s    1 1.00
 0.95164440028000E-01 0.10000000000000E+01
 s    1 1.00
 0.48475401370000E-01 0.10000000000000E+01
 p    4 1.00
 0.34697232244000E+02 0.11327220003114E-01
 0.79582622826000E+01 0.76169659202087E-01
 0.23780826883000E+01 0.30192252202676E+00
 0.81433208183000E+00 0.72785027349547E+00
 p    1 1.00
 0.28887547253000E+00 0.10000000000000E+01
 p    1 1.00
 0.10056823671000E+00 0.10000000000000E+01
 d    1 1.00
 0.10970000000000E+01 0.10000000000000E+01
 d    1 1.00
 0.31800000000000E+00 0.10000000000000E+01
 d    1 1.00
 0.90985336424000E-01 0.10000000000000E+01
 f    1 1.00
 0.76100000000000E+00 0.10000000000000E+01
 
    7 0
 s    3 1.00
 0.34061341000000E+02 0.25439307208879E-01
 0.51235746000000E+01 0.19008594890375E+00
 0.11646626000000E+01 0.85244113011042E+00
 s    1 1.00
 0.32723041000000E+00 0.10000000000000E+01
 s    1 1.00
 0.10307241000000E+00 0.10000000000000E+01
 p    1 1.00
 0.80000000000000E+00 0.10000000000000E+01
 p    1 1.00
 0.95774129632000E-01 0.10000000000000E+01
 
    8 0
 s    3 1.00
 0.34061341000000E+02 0.25439307208879E-01
 0.51235746000000E+01 0.19008594890375E+00
 0.11646626000000E+01 0.85244113011042E+00
 s    1 1.00
 0.32723041000000E+00 0.10000000000000E+01
 s    1 1.00
 0.10307241000000E+00 0.10000000000000E+01
 p    1 1.00
 0.80000000000000E+00 0.10000000000000E+01
 p    1 1.00
 0.95774129632000E-01 0.10000000000000E+01
 
    9 0
 s    3 1.00
 0.34061341000000E+02 0.25439307208879E-01
 0.51235746000000E+01 0.19008594890375E+00
 0.11646626000000E+01 0.85244113011042E+00
 s    1 1.00
 0.32723041000000E+00 0.10000000000000E+01
 s    1 1.00
 0.10307241000000E+00 0.10000000000000E+01
 p    1 1.00
 0.80000000000000E+00 0.10000000000000E+01
 p    1 1.00
 0.95774129632000E-01 0.10000000000000E+01
 
   10 0
 s    3 1.00
 0.34061341000000E+02 0.25439307208879E-01
 0.51235746000000E+01 0.19008594890375E+00
 0.11646626000000E+01 0.85244113011042E+00
 s    1 1.00
 0.32723041000000E+00 0.10000000000000E+01
 s    1 1.00
 0.10307241000000E+00 0.10000000000000E+01
 p    1 1.00
 0.80000000000000E+00 0.10000000000000E+01
 p    1 1.00
 0.95774129632000E-01 0.10000000000000E+01
 
   11 0
 s    6 1.00
 0.19730800647000E+05 0.58626402628763E-03
 0.29578958745000E+04 0.45428820586397E-02
 0.67322133595000E+03 0.23558413450084E-01
 0.19068249494000E+03 0.94709193292923E-01
 0.62295441898000E+02 0.29719784913376E+00
 0.22654161182000E+02 0.66916246895232E+00
 s    2 1.00
 0.89791477428000E+01 0.64596683630063E+00
 0.36863002370000E+01 0.38700574393705E+00
 s    1 1.00
 0.84660076805000E+00 0.10000000000000E+01
 s    1 1.00
 0.33647133771000E+00 0.10000000000000E+01
 s    1 1.00
 0.13647653675000E+00 0.10000000000000E+01
 s    1 1.00
 0.68441605847000E-01 0.10000000000000E+01
 p    4 1.00
 0.49200380510000E+02 0.11448825101764E-01
 0.11346790537000E+02 0.78422337970864E-01
 0.34273972411000E+01 0.30818094738830E+00
 0.11785525134000E+01 0.72027196368413E+00
 p    1 1.00
 0.41642204972000E+00 0.10000000000000E+01
 p    1 1.00
 0.14260826011000E+00 0.10000000000000E+01
 d    1 1.00
 0.16540000000000E+01 0.10000000000000E+01
 d    1 1.00
 0.46900000000000E+00 0.10000000000000E+01
 d    1 1.00
 0.12829642058000E+00 0.10000000000000E+01
 f    1 1.00
 0.10930000000000E+01 0.10000000000000E+01
 
   12 0
 s    6 1.00
 0.27032382631000E+05 0.57227335211155E-03
 0.40523871392000E+04 0.44353233492995E-02
 0.92232722710000E+03 0.23020107706038E-01
 0.26124070989000E+03 0.92822490667928E-01
 0.85354641351000E+02 0.29378500009671E+00
 0.31035035245000E+02 0.67401604501641E+00
 s    2 1.00
 0.12260860728000E+02 0.63839937025506E+00
 0.49987076005000E+01 0.39534587125718E+00
 s    1 1.00
 0.11703108158000E+01 0.10000000000000E+01
 s    1 1.00
 0.46474740994000E+00 0.10000000000000E+01
 s    1 1.00
 0.18504536357000E+00 0.10000000000000E+01
 s    1 1.00
 0.70288026270000E-01 0.10000000000000E+01
 p    4 1.00
 0.63274954801000E+02 0.12018332222616E-01
 0.14627049379000E+02 0.83005421790056E-01
 0.44501223456000E+01 0.31991743925964E+00
 0.15275799647000E+01 0.70715542916104E+00
 p    1 1.00
 0.52935117943000E+00 0.10000000000000E+01
 p    1 1.00
 0.17478421270000E+00 0.10000000000000E+01
 p    1 1.00
 0.51112745706000E-01 0.10000000000000E+01
 d    1 1.00
 0.23140000000000E+01 0.10000000000000E+01
 d    1 1.00
 0.64500000000000E+00 0.10000000000000E+01
 d    1 1.00
 0.14696477366000E+00 0.10000000000000E+01
 f    1 1.00
 0.14280000000000E+01 0.10000000000000E+01
 
   13 0
 s    6 1.00
 0.27032382631000E+05 0.57227335211155E-03
 0.40523871392000E+04 0.44353233492995E-02
 0.92232722710000E+03 0.23020107706038E-01
 0.26124070989000E+03 0.92822490667928E-01
 0.85354641351000E+02 0.29378500009671E+00
 0.31035035245000E+02 0.67401604501641E+00
 s    2 1.00
 0.12260860728000E+02 0.63839937025506E+00
 0.49987076005000E+01 0.39534587125718E+00
 s    1 1.00
 0.11703108158000E+01 0.10000000000000E+01
 s    1 1.00
 0.46474740994000E+00 0.10000000000000E+01
 s    1 1.00
 0.18504536357000E+00 0.10000000000000E+01
 s    1 1.00
 0.70288026270000E-01 0.10000000000000E+01
 p    4 1.00
 0.63274954801000E+02 0.12018332222616E-01
 0.14627049379000E+02 0.83005421790056E-01
 0.44501223456000E+01 0.31991743925964E+00
 0.15275799647000E+01 0.70715542916104E+00
 p    1 1.00
 0.52935117943000E+00 0.10000000000000E+01
 p    1 1.00
 0.17478421270000E+00 0.10000000000000E+01
 p    1 1.00
 0.51112745706000E-01 0.10000000000000E+01
 d    1 1.00
 0.23140000000000E+01 0.10000000000000E+01
 d    1 1.00
 0.64500000000000E+00 0.10000000000000E+01
 d    1 1.00
 0.14696477366000E+00 0.10000000000000E+01
 f    1 1.00
 0.14280000000000E+01 0.10000000000000E+01
 
   14 0
 s    6 1.00
 0.19730800647000E+05 0.58626402628763E-03
 0.29578958745000E+04 0.45428820586397E-02
 0.67322133595000E+03 0.23558413450084E-01
 0.19068249494000E+03 0.94709193292923E-01
 0.62295441898000E+02 0.29719784913376E+00
 0.22654161182000E+02 0.66916246895232E+00
 s    2 1.00
 0.89791477428000E+01 0.64596683630063E+00
 0.36863002370000E+01 0.38700574393705E+00
 s    1 1.00
 0.84660076805000E+00 0.10000000000000E+01
 s    1 1.00
 0.33647133771000E+00 0.10000000000000E+01
 s    1 1.00
 0.13647653675000E+00 0.10000000000000E+01
 s    1 1.00
 0.68441605847000E-01 0.10000000000000E+01
 p    4 1.00
 0.49200380510000E+02 0.11448825101764E-01
 0.11346790537000E+02 0.78422337970864E-01
 0.34273972411000E+01 0.30818094738830E+00
 0.11785525134000E+01 0.72027196368413E+00
 p    1 1.00
 0.41642204972000E+00 0.10000000000000E+01
 p    1 1.00
 0.14260826011000E+00 0.10000000000000E+01
 d    1 1.00
 0.16540000000000E+01 0.10000000000000E+01
 d    1 1.00
 0.46900000000000E+00 0.10000000000000E+01
 d    1 1.00
 0.12829642058000E+00 0.10000000000000E+01
 f    1 1.00
 0.10930000000000E+01 0.10000000000000E+01
 
   15 0
 s    3 1.00
 0.34061341000000E+02 0.25439307208879E-01
 0.51235746000000E+01 0.19008594890375E+00
 0.11646626000000E+01 0.85244113011042E+00
 s    1 1.00
 0.32723041000000E+00 0.10000000000000E+01
 s    1 1.00
 0.10307241000000E+00 0.10000000000000E+01
 p    1 1.00
 0.80000000000000E+00 0.10000000000000E+01
 p    1 1.00
 0.95774129632000E-01 0.10000000000000E+01
 
   16 0
 s    3 1.00
 0.34061341000000E+02 0.25439307208879E-01
 0.51235746000000E+01 0.19008594890375E+00
 0.11646626000000E+01 0.85244113011042E+00
 s    1 1.00
 0.32723041000000E+00 0.10000000000000E+01
 s    1 1.00
 0.10307241000000E+00 0.10000000000000E+01
 p    1 1.00
 0.80000000000000E+00 0.10000000000000E+01
 p    1 1.00
 0.95774129632000E-01 0.10000000000000E+01
 
[MO]
 Sym= X
 Ene= -0.947957
 Spin= Alpha
 Occup= -0.947957
         1   -5.272160E-03
         2   -1.209061E-02
         3    2.496873E-02
         4   -7.607261E-03
         5    2.208045E-01
         6    3.265317E-02
         7   -5.289340E-02
         8   -1.016653E-02
         9    6.607632E-05
        10   -5.907132E-02
        11   -9.948593E-03
        12    6.125392E-05
        13   -8.890823E-02
        14    9.965462E-02
        15    4.681586E-05
        16   -1.715776E-03
        17    1.941670E-03
        18   -2.258944E-04
        19   -9.197789E-05
        20    5.258339E-07
        21   -1.437212E-06
        22   -9.852130E-03
        23    6.928203E-03
        24    2.923926E-03
        25    1.160125E-03
        26    1.309008E-05
        27   -1.642210E-06
        28   -2.014134E-03
        29    5.983301E-03
        30   -3.969167E-03
        31   -1.736334E-02
        32    8.890987E-05
        33   -4.272537E-05
        34   -7.616150E-05
        35    1.249852E-04
        36   -2.574072E-07
        37   -6.811386E-05
        38   -2.177219E-04
        39   -2.416237E-12
        40    1.702952E-04
        41    5.003665E-05
        42    3.453504E-07
        43    5.651310E-07
        44    3.241028E-07
        45    7.352962E-07
        46   -9.159235E-07
        47   -4.660626E-06
        48   -4.094165E-05
        49    5.078520E-06
        50    5.334396E-06
        51   -3.159704E-02
        52    1.034889E-05
        53    2.448169E-06
        54   -4.001359E-02
        55    1.068603E-05
        56   -1.885990E-05
        57    2.383787E-01
        58    1.874352E-05
        59   -2.475976E-07
        60    2.136305E-07
        61    3.396708E-08
        62   -1.619298E-03
        63    6.616602E-08
        64    2.190964E-06
        65    2.033784E-07
        66   -2.528964E-07
        67    4.951802E-08
        68    3.386959E-03
        69   -2.089099E-07
        70   -5.082563E-06
        71   -3.809565E-06
        72    2.980379E-06
        73    8.291858E-07
        74    4.341076E-02
        75    1.485202E-07
        76   -1.914326E-04
        77    4.066144E-08
        78   -6.118669E-04
        79   -1.048993E-07
        80   -3.564408E-08
        81    5.889250E-04
        82    7.915304E-08
        83   -1.890897E-08
        84    2.319805E-04
        85    6.158418E-08
        86   -4.184324E-07
        87    5.272193E-03
        88    1.209068E-02
        89   -2.496903E-02
        90    7.606276E-03
        91   -2.207708E-01
        92   -3.266107E-02
        93    5.288978E-02
        94   -1.016957E-02
        95   -5.398246E-05
        96    5.906647E-02
        97   -9.952925E-03
        98   -5.012465E-05
        99    8.890924E-02
       100    9.961596E-02
       101   -3.301800E-05
       102    1.715575E-03
       103   -1.941463E-03
       104    2.258876E-04
       105   -9.195389E-05
       106   -6.686859E-07
       107   -1.850380E-06
       108    9.851694E-03
       109   -6.927744E-03
       110   -2.923951E-03
       111    1.160748E-03
       112   -1.349809E-05
       113   -2.175833E-06
       114    2.009890E-03
       115   -5.976620E-03
       116    3.966730E-03
       117   -1.736692E-02
       118   -8.076489E-05
       119   -3.918389E-05
       120    7.616658E-05
       121    1.249463E-04
       122    1.769310E-07
       123    6.810674E-05
       124   -2.176890E-04
       125    1.908416E-08
       126   -1.702949E-04
       127    5.005586E-05
       128   -2.564620E-07
       129    6.208557E-07
       130   -3.234982E-03
       131   -7.344497E-03
       132    1.411211E-02
       133   -1.187992E-02
       134    6.752030E-02
       135    1.047628E-02
       136   -3.790724E-02
       137   -2.927530E-03
       138    3.867955E-05
       139   -5.838374E-03
       140   -8.631758E-03
       141    5.116163E-05
       142    4.359546E-02
       143   -3.016218E-02
       144   -1.346774E-04
       145    1.077526E-03
       146   -9.447400E-04
       147   -1.327860E-04
       148    2.336964E-04
       149   -9.180459E-07
       150    3.086334E-07
       151   -4.441624E-03
       152    2.785266E-03
       153    1.656359E-03
       154    1.072504E-04
       155    1.649941E-05
       156   -1.221185E-05
       157   -1.333191E-02
       158    1.414870E-02
       159   -8.167953E-04
       160   -3.653018E-03
       161   -1.055006E-04
       162    5.101285E-05
       163   -3.793932E-05
       164   -1.364672E-05
       165   -8.783238E-07
       166   -1.489260E-05
       167   -6.056404E-06
       168    5.734161E-07
       169    6.579354E-05
       170    2.436540E-05
       171    6.049789E-07
       172   -8.997342E-07
       173    8.241449E-08
       174    1.795527E-07
       175   -1.751935E-07
       176   -3.569796E-08
       177    5.046990E-05
       178   -5.557274E-06
       179   -1.020627E-06
       180   -1.717245E-02
       181   -5.457906E-06
       182    1.074890E-06
       183   -2.178579E-02
       184   -5.148600E-06
       185   -2.124907E-05
       186   -7.726133E-02
       187    5.375411E-06
       188   -8.676482E-08
       189    9.229140E-08
       190   -5.526577E-09
       191   -4.223775E-05
       192   -3.805914E-07
       193    7.249464E-06
       194    5.258287E-07
       195   -6.764399E-07
       196    1.506112E-07
       197    3.133061E-03
       198   -5.996424E-07
       199   -2.544793E-05
       200    5.035034E-06
       201   -3.752135E-06
       202   -1.282899E-06
       203    1.390879E-02
       204   -1.187179E-06
       205    1.849764E-04
       206   -2.968789E-09
       207   -2.554099E-04
       208    5.889349E-08
       209    6.277516E-09
       210    2.562153E-04
       211   -8.266886E-08
       212   -2.294467E-09
       213    8.645310E-05
       214    3.654948E-09
       215    1.244212E-07
       216    3.235135E-03
       217    7.344842E-03
       218   -1.411325E-02
       219    1.188628E-02
       220   -6.756760E-02
       221   -1.046952E-02
       222    3.791141E-02
       223   -2.928144E-03
       224   -3.656451E-05
       225    5.842171E-03
       226   -8.630591E-03
       227   -4.757441E-05
       228   -4.359401E-02
       229   -3.019647E-02
       230    1.121111E-04
       231   -1.077656E-03
       232    9.448998E-04
       233    1.327567E-04
       234    2.335818E-04
       235    5.009691E-07
       236    1.940739E-07
       237    4.441922E-03
       238   -2.785410E-03
       239   -1.656512E-03
       240    1.074696E-04
       241   -1.719329E-05
       242   -1.230340E-05
       243    1.333773E-02
       244   -1.415759E-02
       245    8.198535E-04
       246   -3.647228E-03
       247    1.097383E-04
       248    4.928242E-05
       249    3.795131E-05
       250   -1.367101E-05
       251    8.689418E-07
       252    1.490925E-05
       253   -6.019006E-06
       254   -5.456799E-07
       255   -6.582628E-05
       256    2.436058E-05
       257   -6.201278E-07
       258   -9.448091E-07
       259    1.993504E-02
       260    2.784758E-02
       261    3.631831E-02
       262    1.984531E-03
       263    3.253550E-03
       264   -4.714228E-06
       265    3.583133E-03
       266    1.352541E-03
       267   -1.538848E-05
       268   -1.993492E-02
       269   -2.784671E-02
       270   -3.632146E-02
       271   -1.984646E-03
       272    3.253446E-03
       273    5.348021E-06
       274   -3.583897E-03
       275    1.350505E-03
       276    1.347425E-05
       277   -7.071764E-03
       278   -1.129877E-02
       279   -2.170379E-02
       280   -1.556497E-04
       281    1.062603E-03
       282   -6.112171E-07
       283    3.398412E-03
       284   -5.101477E-04
       285    2.561649E-06
       286    7.073360E-03
       287    1.130166E-02
       288    2.172175E-02
       289    1.556530E-04
       290    1.062763E-03
       291    4.481741E-07
       292   -3.399581E-03
       293   -5.122712E-04
       294   -6.160947E-06
       295    1.297222E-07
       296    3.058636E-07
       297   -3.739892E-07
       298   -8.851893E-07
       299   -3.754417E-06
       300    6.193245E-07
       301   -4.756350E-06
       302   -4.495707E-02
       303    2.509287E-06
       304   -4.723157E-06
       305   -3.398067E-02
       306    3.513755E-06
       307   -4.602198E-06
       308    4.430089E-03
       309    7.043180E-06
       310   -4.014351E-07
       311    4.645193E-07
       312   -6.308422E-08
       313    9.542712E-03
       314    3.049238E-07
       315   -2.166838E-05
       316   -1.252623E-06
       317    1.225245E-06
       318    2.737838E-08
       319    2.580775E-02
       320    1.811719E-07
       321   -5.940903E-05
       322    4.238999E-07
       323   -4.235964E-07
       324   -3.034783E-10
       325   -8.180045E-03
       326   -4.423011E-06
       327    3.215131E-05
       328    3.831677E-09
       329    2.168888E-03
       330   -2.186859E-08
       331   -1.844246E-08
       332   -3.102455E-03
       333    2.388925E-08
       334    1.330172E-08
       335    1.925860E-04
       336    5.450535E-09
       337    8.429659E-06
       338    3.387407E-04
       339    9.310548E-04
       340   -9.702549E-04
       341    7.388941E-03
       342   -6.142613E-03
       343    1.731820E-02
       344    2.536052E-01
       345    2.326297E-01
       346   -5.791626E-04
       347    2.306194E-01
       348    2.038615E-01
       349   -5.256374E-04
       350    1.762698E-01
       351    1.477916E-01
       352   -4.188761E-04
       353    2.932404E-02
       354    1.505851E-02
       355   -6.803659E-05
       356    2.067955E-03
       357   -2.785589E-03
       358    7.176344E-04
       359    2.074075E-04
       360   -3.458642E-06
       361   -2.840212E-07
       362    6.279436E-03
       363   -7.237295E-03
       364    9.578600E-04
       365   -7.808304E-04
       366   -1.332206E-05
       367    2.991395E-06
       368    6.884117E-03
       369   -6.343636E-03
       370   -5.404811E-04
       371   -1.401335E-03
       372   -1.646336E-05
       373    7.182508E-06
       374    2.745803E-04
       375    7.830885E-04
       376   -6.020800E-07
       377   -5.055065E-04
       378   -8.547700E-04
       379   -2.485777E-07
       380    1.371183E-04
       381   -1.958535E-04
       382    1.056353E-06
       383    1.691033E-06
       384   -3.387831E-04
       385   -9.311666E-04
       386    9.704021E-04
       387   -7.389535E-03
       388    6.143482E-03
       389   -1.731885E-02
       390   -2.535855E-01
       391    2.326266E-01
       392    5.742614E-04
       393   -2.306021E-01
       394    2.038584E-01
       395    5.216639E-04
       396   -1.762561E-01
       397    1.477877E-01
       398    4.013994E-04
       399   -2.932265E-02
       400    1.505767E-02
       401    6.747363E-05
       402   -2.067915E-03
       403    2.785613E-03
       404   -7.176981E-04
       405    2.075838E-04
       406    3.576175E-06
       407   -2.499388E-07
       408   -6.279220E-03
       409    7.237267E-03
       410   -9.580476E-04
       411   -7.804580E-04
       412    1.397396E-05
       413    2.313107E-06
       414   -6.883833E-03
       415    6.343361E-03
       416    5.404721E-04
       417   -1.401134E-03
       418    2.262796E-05
       419    2.009497E-06
       420   -2.745993E-04
       421    7.830642E-04
       422    6.791948E-07
       423    5.055494E-04
       424   -8.547154E-04
       425    1.779695E-07
       426   -1.371358E-04
       427   -1.958754E-04
       428   -1.089205E-06
       429    1.763559E-06
       430   -1.606870E-07
       431   -3.800788E-07
       432    6.378324E-07
       433    1.056870E-07
       434    1.215653E-06
       435    4.168006E-06
       436    1.379793E-06
       437    1.055291E-02
       438   -1.422501E-05
       439    2.019887E-06
       440    8.388292E-03
       441   -1.379535E-05
       442    5.232903E-06
       443    5.781420E-03
       444   -9.826477E-06
       445    3.561232E-09
       446    6.760941E-09
       447   -1.032217E-08
       448    4.854741E-04
       449    1.084789E-07
       450    9.226410E-05
       451   -2.166025E-07
       452    3.246407E-07
       453   -1.080381E-07
       454    1.485954E-03
       455    2.713938E-07
       456    1.436508E-04
       457   -1.016818E-06
       458    1.468969E-06
       459   -4.521500E-07
       460   -8.713797E-04
       461    4.819262E-07
       462    1.981911E-06
       463    7.423091E-09
       464    8.237804E-05
       465    7.537520E-08
       466    6.391190E-09
       467   -8.239866E-05
       468   -6.527380E-08
       469   -1.635031E-08
       470   -2.812309E-05
       471   -3.585264E-08
       472    1.951341E-05
       473    5.306610E-03
       474    7.549115E-03
       475    4.970757E-03
       476   -4.272077E-04
       477   -5.137027E-04
       478   -1.212206E-04
       479   -7.488803E-04
       480   -2.235175E-04
       481   -1.403955E-04
       482   -5.307212E-03
       483   -7.552087E-03
       484   -4.984359E-03
       485    4.275948E-04
       486   -5.139690E-04
       487    1.196060E-04
       488    7.520875E-04
       489   -2.241920E-04
       490    1.390540E-04
 Sym= X
 Ene= 0.947957
 Spin= Alpha
 Occup= 0.947957
         1    7.675390E-06
         2    1.548242E-05
         3    7.582558E-04
         4   -9.927942E-03
         5    3.128399E-01
         6   -2.417907E-02
         7    6.564564E-04
         8    1.448085E-04
         9    1.066844E-01
        10   -1.057170E-02
        11    2.571915E-03
        12    1.188189E-01
        13   -7.254094E-02
        14   -1.475296E-01
        15   -2.977843E-02
        16   -7.530618E-05
        17    3.620624E-05
        18    3.909994E-05
        19    1.238886E-05
        20    2.243428E-04
        21    4.104355E-04
        22   -1.384641E-03
        23    1.290922E-03
        24    9.371947E-05
        25   -1.540533E-03
        26   -1.288163E-03
        27   -2.853955E-03
        28    4.772794E-02
        29   -6.037206E-02
        30    1.264412E-02
        31   -1.066416E-03
        32   -8.770082E-02
        33   -3.364309E-02
        34   -3.422282E-05
        35    1.516803E-05
        36   -1.520565E-04
        37    7.007177E-07
        38   -2.157330E-06
        39   -9.499583E-05
        40    4.521402E-05
        41   -1.819272E-05
        42    2.990010E-04
        43    2.203806E-04
        44   -3.800346E-05
        45   -1.082144E-04
        46    1.623601E-03
        47   -2.384391E-02
        48    3.197460E-01
        49    1.546274E-01
        50    2.174007E-04
        51    1.012281E-06
        52   -2.674314E-02
        53   -5.802717E-03
        54   -2.194820E-05
        55   -2.628194E-02
        56    1.926009E-01
        57   -3.111795E-04
        58   -5.392495E-02
        59    9.323667E-07
        60   -4.672945E-05
        61    4.579708E-05
        62   -1.018898E-07