[Molden Format]
[Title]
ADC(2) - opt by CAM-B3LYP gaussian                                              
[Atoms] AU
 c     1    6 -.12588789760523E+01 -.22833296301999E+01 -.24948636837890E-01
 c     2    6 -.25574931053929E+01 0.00000000000000E+00 -.23691968959520E-01
 c     3    6 -.12588770863262E+01 0.22833296301999E+01 -.24954306016290E-01
 c     4    6 0.13320886199507E+01 0.22850077070059E+01 -.26951746538750E-01
 c     5    6 0.26868238359857E+01 0.00000000000000E+00 -.26437741030600E-01
 c     6    6 0.13320867302245E+01 -.22850077070059E+01 -.26946077360350E-01
 h     7    1 -.22977937121289E+01 -.40382313624087E+01 -.22371050392630E-01
 h     8    1 -.22977918224027E+01 0.40382332521348E+01 -.22380499023300E-01
 h     9    1 0.23512179234159E+01 0.40571966538783E+01 -.29234535707270E-01
 h    10    1 0.23512179234159E+01 -.40571947641522E+01 -.29223197350470E-01
 n    11    7 -.52733186864479E+01 0.00000000000000E+00 -.17996334395000E-01
 o    12    8 -.63812046469225E+01 0.20269448165729E+01 -.15568036314240E-01
 o    13    8 -.63812027571964E+01 -.20269467062990E+01 -.15583154123310E-01
 n    14    7 0.52441127328484E+01 0.00000000000000E+00 -.70347417454330E-01
 h    15    1 0.62045074583774E+01 0.16172030580838E+01 0.18832018534119E+00
 h    16    1 0.62045055686513E+01 -.16172049478099E+01 0.18831451616279E+00
[GTO]
    1 0
 s    6 1.00
 0.13575349682000E+05 0.60645503603591E-03
 0.20352333680000E+04 0.46979088884982E-02
 0.46322562359000E+03 0.24332477647552E-01
 0.13120019598000E+03 0.97399968307759E-01
 0.42853015891000E+02 0.30195584253780E+00
 0.15584185766000E+02 0.66233609137875E+00
 s    2 1.00
 0.62067138508000E+01 0.65595308539952E+00
 0.25764896527000E+01 0.37585633285142E+00
 s    1 1.00
 0.57696339419000E+00 0.10000000000000E+01
 s    1 1.00
 0.22972831358000E+00 0.10000000000000E+01
 s    1 1.00
 0.95164440028000E-01 0.10000000000000E+01
 s    1 1.00
 0.48475401370000E-01 0.10000000000000E+01
 p    4 1.00
 0.34697232244000E+02 0.11327220003114E-01
 0.79582622826000E+01 0.76169659202087E-01
 0.23780826883000E+01 0.30192252202676E+00
 0.81433208183000E+00 0.72785027349547E+00
 p    1 1.00
 0.28887547253000E+00 0.10000000000000E+01
 p    1 1.00
 0.10056823671000E+00 0.10000000000000E+01
 d    1 1.00
 0.10970000000000E+01 0.10000000000000E+01
 d    1 1.00
 0.31800000000000E+00 0.10000000000000E+01
 d    1 1.00
 0.90985336424000E-01 0.10000000000000E+01
 f    1 1.00
 0.76100000000000E+00 0.10000000000000E+01
 
    2 0
 s    6 1.00
 0.13575349682000E+05 0.60645503603591E-03
 0.20352333680000E+04 0.46979088884982E-02
 0.46322562359000E+03 0.24332477647552E-01
 0.13120019598000E+03 0.97399968307759E-01
 0.42853015891000E+02 0.30195584253780E+00
 0.15584185766000E+02 0.66233609137875E+00
 s    2 1.00
 0.62067138508000E+01 0.65595308539952E+00
 0.25764896527000E+01 0.37585633285142E+00
 s    1 1.00
 0.57696339419000E+00 0.10000000000000E+01
 s    1 1.00
 0.22972831358000E+00 0.10000000000000E+01
 s    1 1.00
 0.95164440028000E-01 0.10000000000000E+01
 s    1 1.00
 0.48475401370000E-01 0.10000000000000E+01
 p    4 1.00
 0.34697232244000E+02 0.11327220003114E-01
 0.79582622826000E+01 0.76169659202087E-01
 0.23780826883000E+01 0.30192252202676E+00
 0.81433208183000E+00 0.72785027349547E+00
 p    1 1.00
 0.28887547253000E+00 0.10000000000000E+01
 p    1 1.00
 0.10056823671000E+00 0.10000000000000E+01
 d    1 1.00
 0.10970000000000E+01 0.10000000000000E+01
 d    1 1.00
 0.31800000000000E+00 0.10000000000000E+01
 d    1 1.00
 0.90985336424000E-01 0.10000000000000E+01
 f    1 1.00
 0.76100000000000E+00 0.10000000000000E+01
 
    3 0
 s    6 1.00
 0.13575349682000E+05 0.60645503603591E-03
 0.20352333680000E+04 0.46979088884982E-02
 0.46322562359000E+03 0.24332477647552E-01
 0.13120019598000E+03 0.97399968307759E-01
 0.42853015891000E+02 0.30195584253780E+00
 0.15584185766000E+02 0.66233609137875E+00
 s    2 1.00
 0.62067138508000E+01 0.65595308539952E+00
 0.25764896527000E+01 0.37585633285142E+00
 s    1 1.00
 0.57696339419000E+00 0.10000000000000E+01
 s    1 1.00
 0.22972831358000E+00 0.10000000000000E+01
 s    1 1.00
 0.95164440028000E-01 0.10000000000000E+01
 s    1 1.00
 0.48475401370000E-01 0.10000000000000E+01
 p    4 1.00
 0.34697232244000E+02 0.11327220003114E-01
 0.79582622826000E+01 0.76169659202087E-01
 0.23780826883000E+01 0.30192252202676E+00
 0.81433208183000E+00 0.72785027349547E+00
 p    1 1.00
 0.28887547253000E+00 0.10000000000000E+01
 p    1 1.00
 0.10056823671000E+00 0.10000000000000E+01
 d    1 1.00
 0.10970000000000E+01 0.10000000000000E+01
 d    1 1.00
 0.31800000000000E+00 0.10000000000000E+01
 d    1 1.00
 0.90985336424000E-01 0.10000000000000E+01
 f    1 1.00
 0.76100000000000E+00 0.10000000000000E+01
 
    4 0
 s    6 1.00
 0.13575349682000E+05 0.60645503603591E-03
 0.20352333680000E+04 0.46979088884982E-02
 0.46322562359000E+03 0.24332477647552E-01
 0.13120019598000E+03 0.97399968307759E-01
 0.42853015891000E+02 0.30195584253780E+00
 0.15584185766000E+02 0.66233609137875E+00
 s    2 1.00
 0.62067138508000E+01 0.65595308539952E+00
 0.25764896527000E+01 0.37585633285142E+00
 s    1 1.00
 0.57696339419000E+00 0.10000000000000E+01
 s    1 1.00
 0.22972831358000E+00 0.10000000000000E+01
 s    1 1.00
 0.95164440028000E-01 0.10000000000000E+01
 s    1 1.00
 0.48475401370000E-01 0.10000000000000E+01
 p    4 1.00
 0.34697232244000E+02 0.11327220003114E-01
 0.79582622826000E+01 0.76169659202087E-01
 0.23780826883000E+01 0.30192252202676E+00
 0.81433208183000E+00 0.72785027349547E+00
 p    1 1.00
 0.28887547253000E+00 0.10000000000000E+01
 p    1 1.00
 0.10056823671000E+00 0.10000000000000E+01
 d    1 1.00
 0.10970000000000E+01 0.10000000000000E+01
 d    1 1.00
 0.31800000000000E+00 0.10000000000000E+01
 d    1 1.00
 0.90985336424000E-01 0.10000000000000E+01
 f    1 1.00
 0.76100000000000E+00 0.10000000000000E+01
 
    5 0
 s    6 1.00
 0.13575349682000E+05 0.60645503603591E-03
 0.20352333680000E+04 0.46979088884982E-02
 0.46322562359000E+03 0.24332477647552E-01
 0.13120019598000E+03 0.97399968307759E-01
 0.42853015891000E+02 0.30195584253780E+00
 0.15584185766000E+02 0.66233609137875E+00
 s    2 1.00
 0.62067138508000E+01 0.65595308539952E+00
 0.25764896527000E+01 0.37585633285142E+00
 s    1 1.00
 0.57696339419000E+00 0.10000000000000E+01
 s    1 1.00
 0.22972831358000E+00 0.10000000000000E+01
 s    1 1.00
 0.95164440028000E-01 0.10000000000000E+01
 s    1 1.00
 0.48475401370000E-01 0.10000000000000E+01
 p    4 1.00
 0.34697232244000E+02 0.11327220003114E-01
 0.79582622826000E+01 0.76169659202087E-01
 0.23780826883000E+01 0.30192252202676E+00
 0.81433208183000E+00 0.72785027349547E+00
 p    1 1.00
 0.28887547253000E+00 0.10000000000000E+01
 p    1 1.00
 0.10056823671000E+00 0.10000000000000E+01
 d    1 1.00
 0.10970000000000E+01 0.10000000000000E+01
 d    1 1.00
 0.31800000000000E+00 0.10000000000000E+01
 d    1 1.00
 0.90985336424000E-01 0.10000000000000E+01
 f    1 1.00
 0.76100000000000E+00 0.10000000000000E+01
 
    6 0
 s    6 1.00
 0.13575349682000E+05 0.60645503603591E-03
 0.20352333680000E+04 0.46979088884982E-02
 0.46322562359000E+03 0.24332477647552E-01
 0.13120019598000E+03 0.97399968307759E-01
 0.42853015891000E+02 0.30195584253780E+00
 0.15584185766000E+02 0.66233609137875E+00
 s    2 1.00
 0.62067138508000E+01 0.65595308539952E+00
 0.25764896527000E+01 0.37585633285142E+00
 s    1 1.00
 0.57696339419000E+00 0.10000000000000E+01
 s    1 1.00
 0.22972831358000E+00 0.10000000000000E+01
 s    1 1.00
 0.95164440028000E-01 0.10000000000000E+01
 s    1 1.00
 0.48475401370000E-01 0.10000000000000E+01
 p    4 1.00
 0.34697232244000E+02 0.11327220003114E-01
 0.79582622826000E+01 0.76169659202087E-01
 0.23780826883000E+01 0.30192252202676E+00
 0.81433208183000E+00 0.72785027349547E+00
 p    1 1.00
 0.28887547253000E+00 0.10000000000000E+01
 p    1 1.00
 0.10056823671000E+00 0.10000000000000E+01
 d    1 1.00
 0.10970000000000E+01 0.10000000000000E+01
 d    1 1.00
 0.31800000000000E+00 0.10000000000000E+01
 d    1 1.00
 0.90985336424000E-01 0.10000000000000E+01
 f    1 1.00
 0.76100000000000E+00 0.10000000000000E+01
 
    7 0
 s    3 1.00
 0.34061341000000E+02 0.25439307208879E-01
 0.51235746000000E+01 0.19008594890375E+00
 0.11646626000000E+01 0.85244113011042E+00
 s    1 1.00
 0.32723041000000E+00 0.10000000000000E+01
 s    1 1.00
 0.10307241000000E+00 0.10000000000000E+01
 p    1 1.00
 0.80000000000000E+00 0.10000000000000E+01
 p    1 1.00
 0.95774129632000E-01 0.10000000000000E+01
 
    8 0
 s    3 1.00
 0.34061341000000E+02 0.25439307208879E-01
 0.51235746000000E+01 0.19008594890375E+00
 0.11646626000000E+01 0.85244113011042E+00
 s    1 1.00
 0.32723041000000E+00 0.10000000000000E+01
 s    1 1.00
 0.10307241000000E+00 0.10000000000000E+01
 p    1 1.00
 0.80000000000000E+00 0.10000000000000E+01
 p    1 1.00
 0.95774129632000E-01 0.10000000000000E+01
 
    9 0
 s    3 1.00
 0.34061341000000E+02 0.25439307208879E-01
 0.51235746000000E+01 0.19008594890375E+00
 0.11646626000000E+01 0.85244113011042E+00
 s    1 1.00
 0.32723041000000E+00 0.10000000000000E+01
 s    1 1.00
 0.10307241000000E+00 0.10000000000000E+01
 p    1 1.00
 0.80000000000000E+00 0.10000000000000E+01
 p    1 1.00
 0.95774129632000E-01 0.10000000000000E+01
 
   10 0
 s    3 1.00
 0.34061341000000E+02 0.25439307208879E-01
 0.51235746000000E+01 0.19008594890375E+00
 0.11646626000000E+01 0.85244113011042E+00
 s    1 1.00
 0.32723041000000E+00 0.10000000000000E+01
 s    1 1.00
 0.10307241000000E+00 0.10000000000000E+01
 p    1 1.00
 0.80000000000000E+00 0.10000000000000E+01
 p    1 1.00
 0.95774129632000E-01 0.10000000000000E+01
 
   11 0
 s    6 1.00
 0.19730800647000E+05 0.58626402628763E-03
 0.29578958745000E+04 0.45428820586397E-02
 0.67322133595000E+03 0.23558413450084E-01
 0.19068249494000E+03 0.94709193292923E-01
 0.62295441898000E+02 0.29719784913376E+00
 0.22654161182000E+02 0.66916246895232E+00
 s    2 1.00
 0.89791477428000E+01 0.64596683630063E+00
 0.36863002370000E+01 0.38700574393705E+00
 s    1 1.00
 0.84660076805000E+00 0.10000000000000E+01
 s    1 1.00
 0.33647133771000E+00 0.10000000000000E+01
 s    1 1.00
 0.13647653675000E+00 0.10000000000000E+01
 s    1 1.00
 0.68441605847000E-01 0.10000000000000E+01
 p    4 1.00
 0.49200380510000E+02 0.11448825101764E-01
 0.11346790537000E+02 0.78422337970864E-01
 0.34273972411000E+01 0.30818094738830E+00
 0.11785525134000E+01 0.72027196368413E+00
 p    1 1.00
 0.41642204972000E+00 0.10000000000000E+01
 p    1 1.00
 0.14260826011000E+00 0.10000000000000E+01
 d    1 1.00
 0.16540000000000E+01 0.10000000000000E+01
 d    1 1.00
 0.46900000000000E+00 0.10000000000000E+01
 d    1 1.00
 0.12829642058000E+00 0.10000000000000E+01
 f    1 1.00
 0.10930000000000E+01 0.10000000000000E+01
 
   12 0
 s    6 1.00
 0.27032382631000E+05 0.57227335211155E-03
 0.40523871392000E+04 0.44353233492995E-02
 0.92232722710000E+03 0.23020107706038E-01
 0.26124070989000E+03 0.92822490667928E-01
 0.85354641351000E+02 0.29378500009671E+00
 0.31035035245000E+02 0.67401604501641E+00
 s    2 1.00
 0.12260860728000E+02 0.63839937025506E+00
 0.49987076005000E+01 0.39534587125718E+00
 s    1 1.00
 0.11703108158000E+01 0.10000000000000E+01
 s    1 1.00
 0.46474740994000E+00 0.10000000000000E+01
 s    1 1.00
 0.18504536357000E+00 0.10000000000000E+01
 s    1 1.00
 0.70288026270000E-01 0.10000000000000E+01
 p    4 1.00
 0.63274954801000E+02 0.12018332222616E-01
 0.14627049379000E+02 0.83005421790056E-01
 0.44501223456000E+01 0.31991743925964E+00
 0.15275799647000E+01 0.70715542916104E+00
 p    1 1.00
 0.52935117943000E+00 0.10000000000000E+01
 p    1 1.00
 0.17478421270000E+00 0.10000000000000E+01
 p    1 1.00
 0.51112745706000E-01 0.10000000000000E+01
 d    1 1.00
 0.23140000000000E+01 0.10000000000000E+01
 d    1 1.00
 0.64500000000000E+00 0.10000000000000E+01
 d    1 1.00
 0.14696477366000E+00 0.10000000000000E+01
 f    1 1.00
 0.14280000000000E+01 0.10000000000000E+01
 
   13 0
 s    6 1.00
 0.27032382631000E+05 0.57227335211155E-03
 0.40523871392000E+04 0.44353233492995E-02
 0.92232722710000E+03 0.23020107706038E-01
 0.26124070989000E+03 0.92822490667928E-01
 0.85354641351000E+02 0.29378500009671E+00
 0.31035035245000E+02 0.67401604501641E+00
 s    2 1.00
 0.12260860728000E+02 0.63839937025506E+00
 0.49987076005000E+01 0.39534587125718E+00
 s    1 1.00
 0.11703108158000E+01 0.10000000000000E+01
 s    1 1.00
 0.46474740994000E+00 0.10000000000000E+01
 s    1 1.00
 0.18504536357000E+00 0.10000000000000E+01
 s    1 1.00
 0.70288026270000E-01 0.10000000000000E+01
 p    4 1.00
 0.63274954801000E+02 0.12018332222616E-01
 0.14627049379000E+02 0.83005421790056E-01
 0.44501223456000E+01 0.31991743925964E+00
 0.15275799647000E+01 0.70715542916104E+00
 p    1 1.00
 0.52935117943000E+00 0.10000000000000E+01
 p    1 1.00
 0.17478421270000E+00 0.10000000000000E+01
 p    1 1.00
 0.51112745706000E-01 0.10000000000000E+01
 d    1 1.00
 0.23140000000000E+01 0.10000000000000E+01
 d    1 1.00
 0.64500000000000E+00 0.10000000000000E+01
 d    1 1.00
 0.14696477366000E+00 0.10000000000000E+01
 f    1 1.00
 0.14280000000000E+01 0.10000000000000E+01
 
   14 0
 s    6 1.00
 0.19730800647000E+05 0.58626402628763E-03
 0.29578958745000E+04 0.45428820586397E-02
 0.67322133595000E+03 0.23558413450084E-01
 0.19068249494000E+03 0.94709193292923E-01
 0.62295441898000E+02 0.29719784913376E+00
 0.22654161182000E+02 0.66916246895232E+00
 s    2 1.00
 0.89791477428000E+01 0.64596683630063E+00
 0.36863002370000E+01 0.38700574393705E+00
 s    1 1.00
 0.84660076805000E+00 0.10000000000000E+01
 s    1 1.00
 0.33647133771000E+00 0.10000000000000E+01
 s    1 1.00
 0.13647653675000E+00 0.10000000000000E+01
 s    1 1.00
 0.68441605847000E-01 0.10000000000000E+01
 p    4 1.00
 0.49200380510000E+02 0.11448825101764E-01
 0.11346790537000E+02 0.78422337970864E-01
 0.34273972411000E+01 0.30818094738830E+00
 0.11785525134000E+01 0.72027196368413E+00
 p    1 1.00
 0.41642204972000E+00 0.10000000000000E+01
 p    1 1.00
 0.14260826011000E+00 0.10000000000000E+01
 d    1 1.00
 0.16540000000000E+01 0.10000000000000E+01
 d    1 1.00
 0.46900000000000E+00 0.10000000000000E+01
 d    1 1.00
 0.12829642058000E+00 0.10000000000000E+01
 f    1 1.00
 0.10930000000000E+01 0.10000000000000E+01
 
   15 0
 s    3 1.00
 0.34061341000000E+02 0.25439307208879E-01
 0.51235746000000E+01 0.19008594890375E+00
 0.11646626000000E+01 0.85244113011042E+00
 s    1 1.00
 0.32723041000000E+00 0.10000000000000E+01
 s    1 1.00
 0.10307241000000E+00 0.10000000000000E+01
 p    1 1.00
 0.80000000000000E+00 0.10000000000000E+01
 p    1 1.00
 0.95774129632000E-01 0.10000000000000E+01
 
   16 0
 s    3 1.00
 0.34061341000000E+02 0.25439307208879E-01
 0.51235746000000E+01 0.19008594890375E+00
 0.11646626000000E+01 0.85244113011042E+00
 s    1 1.00
 0.32723041000000E+00 0.10000000000000E+01
 s    1 1.00
 0.10307241000000E+00 0.10000000000000E+01
 p    1 1.00
 0.80000000000000E+00 0.10000000000000E+01
 p    1 1.00
 0.95774129632000E-01 0.10000000000000E+01
 
[MO]
 Sym= X
 Ene= -0.050142
 Spin= Alpha
 Occup= -0.050142
         1   -2.714905E-04
         2   -6.281452E-04
         3    1.577492E-03
         4   -2.589062E-03
         5   -7.734804E-03
         6   -1.306780E-02
         7    3.309323E-03
         8    2.828156E-04
         9   -2.699551E-02
        10   -1.726248E-03
        11    5.610651E-04
        12   -2.797717E-02
        13   -3.752082E-02
        14    8.921646E-03
        15   -1.523982E-02
        16    5.601434E-05
        17   -6.293862E-05
        18    6.924281E-06
        19   -3.072765E-05
        20   -5.699325E-03
        21    2.006456E-03
        22   -6.852529E-04
        23    4.084729E-04
        24    2.767800E-04
        25   -8.686294E-04
        26   -1.264524E-02
        27    4.125604E-03
        28   -5.091346E-03
        29    4.734029E-03
        30    3.573176E-04
        31    1.529957E-03
        32    3.834567E-03
        33   -1.124296E-02
        34   -1.791202E-05
        35    8.750251E-06
        36    3.164994E-04
        37    6.979886E-06
        38   -8.459636E-06
        39   -8.753845E-04
        40    1.705161E-05
        41   -3.280057E-06
        42    4.507561E-04
        43   -4.701659E-04
        44    5.039817E-05
        45    1.106557E-04
        46    1.417665E-04
        47   -3.734214E-03
        48   -4.815861E-02
        49    7.836636E-03
        50   -4.066549E-04
        51    2.175439E-06
        52    1.147254E-01
        53   -1.254597E-03
        54    1.638188E-05
        55    1.211185E-01
        56   -1.712030E-02
        57   -1.524186E-03
        58    1.622541E-01
        59    1.053876E-04
        60   -1.030208E-04
        61   -2.366798E-06
        62    1.363157E-07
        63   -1.796815E-03
        64    1.286459E-06
        65    5.317328E-04
        66   -8.294506E-04
        67    2.977178E-04
        68    3.970359E-06
        69   -4.911788E-03
        70    1.737968E-06
        71    1.133917E-02
        72   -1.244010E-02
        73    1.100933E-03
        74   -2.311198E-04
        75    1.895507E-03
        76   -1.425363E-05
        77    3.091789E-06
        78   -3.119675E-09
        79   -4.821955E-04
        80   -7.104967E-06
        81    6.734621E-08
        82    3.578514E-04
        83    2.956897E-06
        84   -6.316073E-08
        85    2.890817E-04
        86    1.200327E-07
        87   -2.713627E-04
        88   -6.279666E-04
        89    1.584218E-03
        90   -2.665120E-03
        91   -4.900552E-03
        92   -1.301652E-02
        93    3.312774E-03
        94   -2.883355E-04
        95   -2.693534E-02
        96   -1.713534E-03
        97   -5.557782E-04
        98   -2.791865E-02
        99   -3.838682E-02
       100   -1.053878E-02
       101   -1.510644E-02
       102    5.582128E-05
       103   -6.296821E-05
       104    7.146925E-06
       105    3.119193E-05
       106   -5.698502E-03
       107   -2.006634E-03
       108   -6.808848E-04
       109    4.032836E-04
       110    2.776012E-04
       111    8.668852E-04
       112   -1.264149E-02
       113   -4.125999E-03
       114   -5.326114E-03
       115    4.997123E-03
       116    3.289916E-04
       117   -1.344365E-03
       118    3.844301E-03
       119    1.119874E-02
       120   -1.805541E-05
       121   -8.751366E-06
       122    3.161541E-04
       123    7.252673E-06
       124    8.437352E-06
       125   -8.750062E-04
       126    1.697120E-05
       127    3.303837E-06
       128    4.508410E-04
       129    4.701617E-04
       130    1.917921E-04
       131    4.198906E-04
       132    4.977415E-04
       133   -1.240545E-02
       134    2.527237E-02
       135    1.480679E-02
       136   -3.054363E-03
       137    1.115092E-03
       138   -1.617448E-01
       139   -1.175573E-02
       140    7.417605E-03
       141   -1.642347E-01
       142   -2.559549E-02
       143   -9.260251E-03
       144   -9.343619E-02
       145    2.402096E-04
       146   -2.810731E-04
       147    4.086344E-05
       148   -2.640595E-06
       149    6.278481E-04
       150    2.669745E-03
       151    7.473338E-04
       152   -9.274142E-04
       153    1.800805E-04
       154    2.000893E-03
       155   -1.326658E-03
       156    4.301266E-03
       157    9.569161E-03
       158   -7.670191E-03
       159   -1.898970E-03
       160   -9.962208E-03
       161    4.291994E-03
       162   -1.523291E-02
       163   -1.904378E-05
       164    1.537708E-05
       165    9.621256E-04
       166   -2.619663E-05
       167    1.525267E-05
       168   -4.217068E-04
       169    5.174654E-05
       170   -3.588319E-05
       171   -8.691201E-04
       172    2.027559E-04
       173   -1.342154E-03
       174   -3.057555E-03
       175    3.314499E-03
       176    2.367782E-02
       177   -2.813266E-02
       178    8.214459E-03
       179    1.289804E-02
       180   -1.035084E-06
       181   -8.292939E-02
       182    1.686261E-03
       183   -1.527647E-05
       184   -8.622588E-02
       185   -3.397509E-02
       186    1.508308E-03
       187   -1.299482E-01
       188    6.748653E-04
       189   -4.202529E-04
       190   -2.546124E-04
       191    2.037458E-07
       192    1.149438E-02
       193    9.603399E-07
       194   -2.171069E-03
       195    4.693036E-03
       196   -2.521967E-03
       197    3.780963E-06
       198    2.760879E-02
       199   -2.996265E-08
       200   -7.197384E-03
       201    8.363064E-03
       202   -1.165680E-03
       203   -2.572554E-04
       204    1.972228E-02
       205   -1.339971E-06
       206    1.439185E-04
       207    1.029150E-08
       208    9.046217E-05
       209   -9.586673E-05
       210   -9.736025E-08
       211    1.365269E-03
       212   -9.722023E-05
       213    8.355276E-08
       214   -1.486636E-03
       215   -4.311226E-08
       216    1.924265E-04
       217    4.210894E-04
       218    5.031942E-04
       219   -1.249314E-02
       220    2.819216E-02
       221    1.483660E-02
       222   -3.054292E-03
       223   -1.106063E-03
       224   -1.617902E-01
       225   -1.176129E-02
       226   -7.431545E-03
       227   -1.642871E-01
       228   -2.463540E-02
       229    1.105467E-02
       230   -9.336773E-02
       231    2.399907E-04
       232   -2.816068E-04
       233    4.161607E-05
       234    2.888514E-06
       235    6.293271E-04
       236   -2.669975E-03
       237    7.491378E-04
       238   -9.298000E-04
       239    1.806623E-04
       240   -2.003187E-03
       241   -1.323217E-03
       242   -4.300720E-03
       243    9.318735E-03
       244   -7.402747E-03
       245   -1.915987E-03
       246    1.017198E-02
       247    4.287960E-03
       248    1.528118E-02
       249   -1.896424E-05
       250   -1.542187E-05
       251    9.626407E-04
       252   -2.640941E-05
       253   -1.519934E-05
       254   -4.222481E-04
       255    5.185261E-05
       256    3.588995E-05
       257   -8.692699E-04
       258   -2.027277E-04
       259   -8.034866E-04
       260   -8.650883E-04
       261   -2.090188E-02
       262   -1.564086E-05
       263   -6.264369E-05
       264   -8.858144E-04
       265   -5.937951E-03
       266   -7.026805E-04
       267   -6.809742E-03
       268   -8.076194E-04
       269   -8.607805E-04
       270   -2.065150E-02
       271   -1.467085E-05
       272    6.215947E-05
       273   -8.829212E-04
       274   -6.049001E-03
       275    5.982725E-04
       276   -6.769939E-03
       277   -8.809218E-04
       278   -3.344361E-03
       279    4.020496E-02
       280   -1.931007E-05
       281    1.800085E-04
       282   -6.336266E-03
       283   -3.076565E-03
       284   -3.010565E-03
       285    4.670490E-03
       286   -8.862129E-04
       287   -3.349654E-03
       288    4.063516E-02
       289   -1.868173E-05
       290   -1.801926E-04
       291   -6.338422E-03
       292   -2.987872E-03
       293    3.148123E-03
       294    4.703241E-03
       295   -1.082401E-04
       296   -2.541737E-04
       297    2.943802E-04
       298    9.352010E-04
       299   -8.342408E-03
       300   -8.992485E-04
       301    1.390854E-03
       302   -9.993890E-07
       303    3.194892E-02
       304    9.565802E-04
       305   -1.407719E-06
       306    3.361291E-02
       307   -3.530267E-03
       308    5.524900E-05
       309    8.145401E-03
       310    4.743767E-05
       311   -4.606467E-05
       312   -1.372999E-06
       313    2.280356E-07
       314    2.607812E-03
       315    2.161703E-07
       316    7.219499E-05
       317   -3.067896E-05
       318   -4.151603E-05
       319    3.336816E-07
       320    8.178285E-03
       321    5.484398E-07
       322   -1.016315E-03
       323    3.156358E-03
       324   -2.140043E-03
       325    4.642873E-05
       326    1.034287E-03
       327    7.229983E-07
       328    7.191263E-06
       329    5.333278E-08
       330   -7.629835E-05
       331   -3.363769E-06
       332   -6.136842E-08
       333    4.558885E-04
       334   -6.284323E-06
       335   -1.018501E-08
       336   -3.535236E-04
       337   -5.208131E-09
       338   -2.565590E-05
       339   -5.856192E-05
       340    4.107699E-05
       341    7.040613E-04
       342   -6.690669E-03
       343   -8.941870E-04
       344   -9.295132E-04
       345    1.826466E-04
       346   -4.294030E-02
       347   -9.491581E-04
       348    3.052056E-04
       349   -4.010312E-02
       350   -2.039601E-03
       351    6.167131E-04
       352   -3.651084E-02
       353   -2.673655E-04
       354    1.673985E-04
       355   -5.393981E-03
       356    5.538845E-06
       357   -9.886878E-06
       358    4.348033E-06
       359    5.706066E-06
       360    1.405457E-04
       361    6.377638E-05
       362   -1.394084E-05
       363   -2.216810E-05
       364    3.610893E-05
       365    2.078854E-05
       366    6.105196E-05
       367    3.338042E-04
       368   -8.291256E-05
       369    4.037290E-05
       370    4.253966E-05
       371    8.079226E-05
       372    4.700254E-04
       373   -8.837948E-06
       374    1.686314E-06
       375    2.387767E-06
       376   -1.760803E-06
       377   -3.435502E-06
       378   -1.735554E-07
       379    5.152663E-05
       380    1.173074E-06
       381   -3.029970E-06
       382   -4.916427E-05
       383    2.846059E-05
       384   -2.558348E-05
       385   -5.842027E-05
       386    4.132445E-05
       387    6.995999E-04
       388   -6.697772E-03
       389   -8.665231E-04
       390   -9.372981E-04
       391   -1.735078E-04
       392   -4.294919E-02
       393   -9.568934E-04
       394   -2.972682E-04
       395   -4.011084E-02
       396   -1.999653E-03
       397   -6.119511E-04
       398   -3.651794E-02
       399   -2.538205E-04
       400   -1.704155E-04
       401   -5.401218E-03
       402    5.401577E-06
       403   -9.750875E-06
       404    4.349298E-06
       405   -5.746999E-06
       406    1.404553E-04
       407   -6.385095E-05
       408   -1.367471E-05
       409   -2.209990E-05
       410    3.577461E-05
       411   -2.046722E-05
       412    6.089014E-05
       413   -3.340393E-04
       414   -8.308092E-05
       415    4.188449E-05
       416    4.119643E-05
       417   -7.764274E-05
       418    4.683425E-04
       419    8.326169E-06
       420    1.674723E-06
       421   -2.357903E-06
       422   -1.738649E-06
       423   -3.414907E-06
       424    1.441717E-07
       425    5.151940E-05
       426    1.168030E-06
       427    3.019287E-06
       428   -4.918676E-05
       429   -2.849012E-05
       430    5.399739E-03
       431    1.283755E-02
       432   -2.005718E-02
       433   -3.128003E-02
       434   -2.083032E-02
       435   -7.048637E-02
       436   -2.162855E-02
       437    1.174247E-05
       438    3.096446E-01
       439   -2.457210E-02
       440    3.523862E-07
       441    3.049580E-01
       442   -2.506002E-02
       443   -1.402613E-04
       444    2.408334E-01
       445   -9.488683E-05
       446   -5.868351E-05
       447    1.535703E-04
       448    3.088465E-07
       449    1.997354E-04
       450    3.598912E-07
       451   -1.160456E-04
       452   -1.973526E-03
       453    2.089572E-03
       454   -4.990417E-06
       455    2.368281E-03
       456    1.095124E-06
       457   -1.165771E-03
       458   -4.352352E-03
       459    5.518123E-03
       460   -1.188118E-05
       461    2.005399E-03
       462    1.059980E-05
       463   -1.581042E-04
       464    3.536369E-08
       465   -1.323672E-03
       466   -1.042491E-04
       467   -2.774543E-08
       468    8.250949E-04
       469    3.163682E-04
       470   -1.969993E-08
       471    9.507977E-04
       472    1.999973E-08
       473    1.021125E-02
       474    2.002834E-02
       475    3.393045E-02
       476   -2.728365E-03
       477   -2.195404E-03
       478    1.541031E-02
       479    3.434580E-04
       480   -3.755183E-03
       481    1.551685E-02
       482    1.020329E-02
       483    1.993415E-02
       484    3.358751E-02
       485   -2.723641E-03
       486    2.186305E-03
       487    1.541466E-02
       488    3.758552E-04
       489    3.695814E-03
       490    1.553495E-02
 Sym= X
 Ene= -0.894476
 Spin= Alpha
 Occup= -0.894476
         1   -1.020092E-05
         2   -2.328088E-05
         3    5.298747E-05
         4   -3.488046E-05
         5   -2.273920E-03
         6   -2.860821E-04
         7   -7.257758E-05
         8   -9.242516E-05
         9   -7.151483E-02
        10   -1.512348E-04
        11   -6.396227E-05
        12   -7.167875E-02
        13    5.179675E-04
        14   -1.456850E-03
        15   -5.069610E-02
        16   -3.186455E-06
        17    1.732612E-06
        18    1.453843E-06
        19    2.294888E-06
        20   -1.649761E-03
        21   -2.484948E-04
        22   -2.026659E-05
        23    1.223942E-05
        24    8.027166E-06
        25    1.105471E-05
        26   -1.989978E-03
        27   -1.909252E-04
        28   -5.186533E-05
        29    4.535553E-05
        30    6.509800E-06
        31    6.006619E-05
        32    2.167010E-03
        33   -3.122735E-03
        34   -1.683379E-06
        35   -2.973647E-07
        36    5.082367E-04
        37    2.840132E-07
        38   -5.981212E-08
        39   -5.946525E-04
        40    1.974476E-06
        41    4.587687E-07
        42   -8.721856E-05
        43    5.607678E-05
        44    6.117271E-07
        45    1.397461E-06
        46   -2.864647E-06
        47   -1.385333E-05
        48    8.238935E-04
        49    9.113753E-05
        50    6.902717E-06
        51    5.752444E-05
        52    3.465554E-06
        53    2.980006E-06
        54    4.116994E-05
        55    6.939616E-06
        56    3.285041E-04
        57   -1.930058E-03
        58    3.426691E-05
        59   -3.036754E-07
        60    1.930293E-07
        61    1.106461E-07
        62    5.962608E-06