[Molden Format]
[Title]
ADC(2) - opt by CAM-B3LYP gaussian                                              
[Atoms] AU
 c     1    6 -.12588789760523E+01 -.22833296301999E+01 -.24948636837890E-01
 c     2    6 -.25574931053929E+01 0.00000000000000E+00 -.23691968959520E-01
 c     3    6 -.12588770863262E+01 0.22833296301999E+01 -.24954306016290E-01
 c     4    6 0.13320886199507E+01 0.22850077070059E+01 -.26951746538750E-01
 c     5    6 0.26868238359857E+01 0.00000000000000E+00 -.26437741030600E-01
 c     6    6 0.13320867302245E+01 -.22850077070059E+01 -.26946077360350E-01
 h     7    1 -.22977937121289E+01 -.40382313624087E+01 -.22371050392630E-01
 h     8    1 -.22977918224027E+01 0.40382332521348E+01 -.22380499023300E-01
 h     9    1 0.23512179234159E+01 0.40571966538783E+01 -.29234535707270E-01
 h    10    1 0.23512179234159E+01 -.40571947641522E+01 -.29223197350470E-01
 n    11    7 -.52733186864479E+01 0.00000000000000E+00 -.17996334395000E-01
 o    12    8 -.63812046469225E+01 0.20269448165729E+01 -.15568036314240E-01
 o    13    8 -.63812027571964E+01 -.20269467062990E+01 -.15583154123310E-01
 n    14    7 0.52441127328484E+01 0.00000000000000E+00 -.70347417454330E-01
 h    15    1 0.62045074583774E+01 0.16172030580838E+01 0.18832018534119E+00
 h    16    1 0.62045055686513E+01 -.16172049478099E+01 0.18831451616279E+00
[GTO]
    1 0
 s    6 1.00
 0.13575349682000E+05 0.60645503603591E-03
 0.20352333680000E+04 0.46979088884982E-02
 0.46322562359000E+03 0.24332477647552E-01
 0.13120019598000E+03 0.97399968307759E-01
 0.42853015891000E+02 0.30195584253780E+00
 0.15584185766000E+02 0.66233609137875E+00
 s    2 1.00
 0.62067138508000E+01 0.65595308539952E+00
 0.25764896527000E+01 0.37585633285142E+00
 s    1 1.00
 0.57696339419000E+00 0.10000000000000E+01
 s    1 1.00
 0.22972831358000E+00 0.10000000000000E+01
 s    1 1.00
 0.95164440028000E-01 0.10000000000000E+01
 s    1 1.00
 0.48475401370000E-01 0.10000000000000E+01
 p    4 1.00
 0.34697232244000E+02 0.11327220003114E-01
 0.79582622826000E+01 0.76169659202087E-01
 0.23780826883000E+01 0.30192252202676E+00
 0.81433208183000E+00 0.72785027349547E+00
 p    1 1.00
 0.28887547253000E+00 0.10000000000000E+01
 p    1 1.00
 0.10056823671000E+00 0.10000000000000E+01
 d    1 1.00
 0.10970000000000E+01 0.10000000000000E+01
 d    1 1.00
 0.31800000000000E+00 0.10000000000000E+01
 d    1 1.00
 0.90985336424000E-01 0.10000000000000E+01
 f    1 1.00
 0.76100000000000E+00 0.10000000000000E+01
 
    2 0
 s    6 1.00
 0.13575349682000E+05 0.60645503603591E-03
 0.20352333680000E+04 0.46979088884982E-02
 0.46322562359000E+03 0.24332477647552E-01
 0.13120019598000E+03 0.97399968307759E-01
 0.42853015891000E+02 0.30195584253780E+00
 0.15584185766000E+02 0.66233609137875E+00
 s    2 1.00
 0.62067138508000E+01 0.65595308539952E+00
 0.25764896527000E+01 0.37585633285142E+00
 s    1 1.00
 0.57696339419000E+00 0.10000000000000E+01
 s    1 1.00
 0.22972831358000E+00 0.10000000000000E+01
 s    1 1.00
 0.95164440028000E-01 0.10000000000000E+01
 s    1 1.00
 0.48475401370000E-01 0.10000000000000E+01
 p    4 1.00
 0.34697232244000E+02 0.11327220003114E-01
 0.79582622826000E+01 0.76169659202087E-01
 0.23780826883000E+01 0.30192252202676E+00
 0.81433208183000E+00 0.72785027349547E+00
 p    1 1.00
 0.28887547253000E+00 0.10000000000000E+01
 p    1 1.00
 0.10056823671000E+00 0.10000000000000E+01
 d    1 1.00
 0.10970000000000E+01 0.10000000000000E+01
 d    1 1.00
 0.31800000000000E+00 0.10000000000000E+01
 d    1 1.00
 0.90985336424000E-01 0.10000000000000E+01
 f    1 1.00
 0.76100000000000E+00 0.10000000000000E+01
 
    3 0
 s    6 1.00
 0.13575349682000E+05 0.60645503603591E-03
 0.20352333680000E+04 0.46979088884982E-02
 0.46322562359000E+03 0.24332477647552E-01
 0.13120019598000E+03 0.97399968307759E-01
 0.42853015891000E+02 0.30195584253780E+00
 0.15584185766000E+02 0.66233609137875E+00
 s    2 1.00
 0.62067138508000E+01 0.65595308539952E+00
 0.25764896527000E+01 0.37585633285142E+00
 s    1 1.00
 0.57696339419000E+00 0.10000000000000E+01
 s    1 1.00
 0.22972831358000E+00 0.10000000000000E+01
 s    1 1.00
 0.95164440028000E-01 0.10000000000000E+01
 s    1 1.00
 0.48475401370000E-01 0.10000000000000E+01
 p    4 1.00
 0.34697232244000E+02 0.11327220003114E-01
 0.79582622826000E+01 0.76169659202087E-01
 0.23780826883000E+01 0.30192252202676E+00
 0.81433208183000E+00 0.72785027349547E+00
 p    1 1.00
 0.28887547253000E+00 0.10000000000000E+01
 p    1 1.00
 0.10056823671000E+00 0.10000000000000E+01
 d    1 1.00
 0.10970000000000E+01 0.10000000000000E+01
 d    1 1.00
 0.31800000000000E+00 0.10000000000000E+01
 d    1 1.00
 0.90985336424000E-01 0.10000000000000E+01
 f    1 1.00
 0.76100000000000E+00 0.10000000000000E+01
 
    4 0
 s    6 1.00
 0.13575349682000E+05 0.60645503603591E-03
 0.20352333680000E+04 0.46979088884982E-02
 0.46322562359000E+03 0.24332477647552E-01
 0.13120019598000E+03 0.97399968307759E-01
 0.42853015891000E+02 0.30195584253780E+00
 0.15584185766000E+02 0.66233609137875E+00
 s    2 1.00
 0.62067138508000E+01 0.65595308539952E+00
 0.25764896527000E+01 0.37585633285142E+00
 s    1 1.00
 0.57696339419000E+00 0.10000000000000E+01
 s    1 1.00
 0.22972831358000E+00 0.10000000000000E+01
 s    1 1.00
 0.95164440028000E-01 0.10000000000000E+01
 s    1 1.00
 0.48475401370000E-01 0.10000000000000E+01
 p    4 1.00
 0.34697232244000E+02 0.11327220003114E-01
 0.79582622826000E+01 0.76169659202087E-01
 0.23780826883000E+01 0.30192252202676E+00
 0.81433208183000E+00 0.72785027349547E+00
 p    1 1.00
 0.28887547253000E+00 0.10000000000000E+01
 p    1 1.00
 0.10056823671000E+00 0.10000000000000E+01
 d    1 1.00
 0.10970000000000E+01 0.10000000000000E+01
 d    1 1.00
 0.31800000000000E+00 0.10000000000000E+01
 d    1 1.00
 0.90985336424000E-01 0.10000000000000E+01
 f    1 1.00
 0.76100000000000E+00 0.10000000000000E+01
 
    5 0
 s    6 1.00
 0.13575349682000E+05 0.60645503603591E-03
 0.20352333680000E+04 0.46979088884982E-02
 0.46322562359000E+03 0.24332477647552E-01
 0.13120019598000E+03 0.97399968307759E-01
 0.42853015891000E+02 0.30195584253780E+00
 0.15584185766000E+02 0.66233609137875E+00
 s    2 1.00
 0.62067138508000E+01 0.65595308539952E+00
 0.25764896527000E+01 0.37585633285142E+00
 s    1 1.00
 0.57696339419000E+00 0.10000000000000E+01
 s    1 1.00
 0.22972831358000E+00 0.10000000000000E+01
 s    1 1.00
 0.95164440028000E-01 0.10000000000000E+01
 s    1 1.00
 0.48475401370000E-01 0.10000000000000E+01
 p    4 1.00
 0.34697232244000E+02 0.11327220003114E-01
 0.79582622826000E+01 0.76169659202087E-01
 0.23780826883000E+01 0.30192252202676E+00
 0.81433208183000E+00 0.72785027349547E+00
 p    1 1.00
 0.28887547253000E+00 0.10000000000000E+01
 p    1 1.00
 0.10056823671000E+00 0.10000000000000E+01
 d    1 1.00
 0.10970000000000E+01 0.10000000000000E+01
 d    1 1.00
 0.31800000000000E+00 0.10000000000000E+01
 d    1 1.00
 0.90985336424000E-01 0.10000000000000E+01
 f    1 1.00
 0.76100000000000E+00 0.10000000000000E+01
 
    6 0
 s    6 1.00
 0.13575349682000E+05 0.60645503603591E-03
 0.20352333680000E+04 0.46979088884982E-02
 0.46322562359000E+03 0.24332477647552E-01
 0.13120019598000E+03 0.97399968307759E-01
 0.42853015891000E+02 0.30195584253780E+00
 0.15584185766000E+02 0.66233609137875E+00
 s    2 1.00
 0.62067138508000E+01 0.65595308539952E+00
 0.25764896527000E+01 0.37585633285142E+00
 s    1 1.00
 0.57696339419000E+00 0.10000000000000E+01
 s    1 1.00
 0.22972831358000E+00 0.10000000000000E+01
 s    1 1.00
 0.95164440028000E-01 0.10000000000000E+01
 s    1 1.00
 0.48475401370000E-01 0.10000000000000E+01
 p    4 1.00
 0.34697232244000E+02 0.11327220003114E-01
 0.79582622826000E+01 0.76169659202087E-01
 0.23780826883000E+01 0.30192252202676E+00
 0.81433208183000E+00 0.72785027349547E+00
 p    1 1.00
 0.28887547253000E+00 0.10000000000000E+01
 p    1 1.00
 0.10056823671000E+00 0.10000000000000E+01
 d    1 1.00
 0.10970000000000E+01 0.10000000000000E+01
 d    1 1.00
 0.31800000000000E+00 0.10000000000000E+01
 d    1 1.00
 0.90985336424000E-01 0.10000000000000E+01
 f    1 1.00
 0.76100000000000E+00 0.10000000000000E+01
 
    7 0
 s    3 1.00
 0.34061341000000E+02 0.25439307208879E-01
 0.51235746000000E+01 0.19008594890375E+00
 0.11646626000000E+01 0.85244113011042E+00
 s    1 1.00
 0.32723041000000E+00 0.10000000000000E+01
 s    1 1.00
 0.10307241000000E+00 0.10000000000000E+01
 p    1 1.00
 0.80000000000000E+00 0.10000000000000E+01
 p    1 1.00
 0.95774129632000E-01 0.10000000000000E+01
 
    8 0
 s    3 1.00
 0.34061341000000E+02 0.25439307208879E-01
 0.51235746000000E+01 0.19008594890375E+00
 0.11646626000000E+01 0.85244113011042E+00
 s    1 1.00
 0.32723041000000E+00 0.10000000000000E+01
 s    1 1.00
 0.10307241000000E+00 0.10000000000000E+01
 p    1 1.00
 0.80000000000000E+00 0.10000000000000E+01
 p    1 1.00
 0.95774129632000E-01 0.10000000000000E+01
 
    9 0
 s    3 1.00
 0.34061341000000E+02 0.25439307208879E-01
 0.51235746000000E+01 0.19008594890375E+00
 0.11646626000000E+01 0.85244113011042E+00
 s    1 1.00
 0.32723041000000E+00 0.10000000000000E+01
 s    1 1.00
 0.10307241000000E+00 0.10000000000000E+01
 p    1 1.00
 0.80000000000000E+00 0.10000000000000E+01
 p    1 1.00
 0.95774129632000E-01 0.10000000000000E+01
 
   10 0
 s    3 1.00
 0.34061341000000E+02 0.25439307208879E-01
 0.51235746000000E+01 0.19008594890375E+00
 0.11646626000000E+01 0.85244113011042E+00
 s    1 1.00
 0.32723041000000E+00 0.10000000000000E+01
 s    1 1.00
 0.10307241000000E+00 0.10000000000000E+01
 p    1 1.00
 0.80000000000000E+00 0.10000000000000E+01
 p    1 1.00
 0.95774129632000E-01 0.10000000000000E+01
 
   11 0
 s    6 1.00
 0.19730800647000E+05 0.58626402628763E-03
 0.29578958745000E+04 0.45428820586397E-02
 0.67322133595000E+03 0.23558413450084E-01
 0.19068249494000E+03 0.94709193292923E-01
 0.62295441898000E+02 0.29719784913376E+00
 0.22654161182000E+02 0.66916246895232E+00
 s    2 1.00
 0.89791477428000E+01 0.64596683630063E+00
 0.36863002370000E+01 0.38700574393705E+00
 s    1 1.00
 0.84660076805000E+00 0.10000000000000E+01
 s    1 1.00
 0.33647133771000E+00 0.10000000000000E+01
 s    1 1.00
 0.13647653675000E+00 0.10000000000000E+01
 s    1 1.00
 0.68441605847000E-01 0.10000000000000E+01
 p    4 1.00
 0.49200380510000E+02 0.11448825101764E-01
 0.11346790537000E+02 0.78422337970864E-01
 0.34273972411000E+01 0.30818094738830E+00
 0.11785525134000E+01 0.72027196368413E+00
 p    1 1.00
 0.41642204972000E+00 0.10000000000000E+01
 p    1 1.00
 0.14260826011000E+00 0.10000000000000E+01
 d    1 1.00
 0.16540000000000E+01 0.10000000000000E+01
 d    1 1.00
 0.46900000000000E+00 0.10000000000000E+01
 d    1 1.00
 0.12829642058000E+00 0.10000000000000E+01
 f    1 1.00
 0.10930000000000E+01 0.10000000000000E+01
 
   12 0
 s    6 1.00
 0.27032382631000E+05 0.57227335211155E-03
 0.40523871392000E+04 0.44353233492995E-02
 0.92232722710000E+03 0.23020107706038E-01
 0.26124070989000E+03 0.92822490667928E-01
 0.85354641351000E+02 0.29378500009671E+00
 0.31035035245000E+02 0.67401604501641E+00
 s    2 1.00
 0.12260860728000E+02 0.63839937025506E+00
 0.49987076005000E+01 0.39534587125718E+00
 s    1 1.00
 0.11703108158000E+01 0.10000000000000E+01
 s    1 1.00
 0.46474740994000E+00 0.10000000000000E+01
 s    1 1.00
 0.18504536357000E+00 0.10000000000000E+01
 s    1 1.00
 0.70288026270000E-01 0.10000000000000E+01
 p    4 1.00
 0.63274954801000E+02 0.12018332222616E-01
 0.14627049379000E+02 0.83005421790056E-01
 0.44501223456000E+01 0.31991743925964E+00
 0.15275799647000E+01 0.70715542916104E+00
 p    1 1.00
 0.52935117943000E+00 0.10000000000000E+01
 p    1 1.00
 0.17478421270000E+00 0.10000000000000E+01
 p    1 1.00
 0.51112745706000E-01 0.10000000000000E+01
 d    1 1.00
 0.23140000000000E+01 0.10000000000000E+01
 d    1 1.00
 0.64500000000000E+00 0.10000000000000E+01
 d    1 1.00
 0.14696477366000E+00 0.10000000000000E+01
 f    1 1.00
 0.14280000000000E+01 0.10000000000000E+01
 
   13 0
 s    6 1.00
 0.27032382631000E+05 0.57227335211155E-03
 0.40523871392000E+04 0.44353233492995E-02
 0.92232722710000E+03 0.23020107706038E-01
 0.26124070989000E+03 0.92822490667928E-01
 0.85354641351000E+02 0.29378500009671E+00
 0.31035035245000E+02 0.67401604501641E+00
 s    2 1.00
 0.12260860728000E+02 0.63839937025506E+00
 0.49987076005000E+01 0.39534587125718E+00
 s    1 1.00
 0.11703108158000E+01 0.10000000000000E+01
 s    1 1.00
 0.46474740994000E+00 0.10000000000000E+01
 s    1 1.00
 0.18504536357000E+00 0.10000000000000E+01
 s    1 1.00
 0.70288026270000E-01 0.10000000000000E+01
 p    4 1.00
 0.63274954801000E+02 0.12018332222616E-01
 0.14627049379000E+02 0.83005421790056E-01
 0.44501223456000E+01 0.31991743925964E+00
 0.15275799647000E+01 0.70715542916104E+00
 p    1 1.00
 0.52935117943000E+00 0.10000000000000E+01
 p    1 1.00
 0.17478421270000E+00 0.10000000000000E+01
 p    1 1.00
 0.51112745706000E-01 0.10000000000000E+01
 d    1 1.00
 0.23140000000000E+01 0.10000000000000E+01
 d    1 1.00
 0.64500000000000E+00 0.10000000000000E+01
 d    1 1.00
 0.14696477366000E+00 0.10000000000000E+01
 f    1 1.00
 0.14280000000000E+01 0.10000000000000E+01
 
   14 0
 s    6 1.00
 0.19730800647000E+05 0.58626402628763E-03
 0.29578958745000E+04 0.45428820586397E-02
 0.67322133595000E+03 0.23558413450084E-01
 0.19068249494000E+03 0.94709193292923E-01
 0.62295441898000E+02 0.29719784913376E+00
 0.22654161182000E+02 0.66916246895232E+00
 s    2 1.00
 0.89791477428000E+01 0.64596683630063E+00
 0.36863002370000E+01 0.38700574393705E+00
 s    1 1.00
 0.84660076805000E+00 0.10000000000000E+01
 s    1 1.00
 0.33647133771000E+00 0.10000000000000E+01
 s    1 1.00
 0.13647653675000E+00 0.10000000000000E+01
 s    1 1.00
 0.68441605847000E-01 0.10000000000000E+01
 p    4 1.00
 0.49200380510000E+02 0.11448825101764E-01
 0.11346790537000E+02 0.78422337970864E-01
 0.34273972411000E+01 0.30818094738830E+00
 0.11785525134000E+01 0.72027196368413E+00
 p    1 1.00
 0.41642204972000E+00 0.10000000000000E+01
 p    1 1.00
 0.14260826011000E+00 0.10000000000000E+01
 d    1 1.00
 0.16540000000000E+01 0.10000000000000E+01
 d    1 1.00
 0.46900000000000E+00 0.10000000000000E+01
 d    1 1.00
 0.12829642058000E+00 0.10000000000000E+01
 f    1 1.00
 0.10930000000000E+01 0.10000000000000E+01
 
   15 0
 s    3 1.00
 0.34061341000000E+02 0.25439307208879E-01
 0.51235746000000E+01 0.19008594890375E+00
 0.11646626000000E+01 0.85244113011042E+00
 s    1 1.00
 0.32723041000000E+00 0.10000000000000E+01
 s    1 1.00
 0.10307241000000E+00 0.10000000000000E+01
 p    1 1.00
 0.80000000000000E+00 0.10000000000000E+01
 p    1 1.00
 0.95774129632000E-01 0.10000000000000E+01
 
   16 0
 s    3 1.00
 0.34061341000000E+02 0.25439307208879E-01
 0.51235746000000E+01 0.19008594890375E+00
 0.11646626000000E+01 0.85244113011042E+00
 s    1 1.00
 0.32723041000000E+00 0.10000000000000E+01
 s    1 1.00
 0.10307241000000E+00 0.10000000000000E+01
 p    1 1.00
 0.80000000000000E+00 0.10000000000000E+01
 p    1 1.00
 0.95774129632000E-01 0.10000000000000E+01
 
[MO]
 Sym= X
 Ene= -0.943918
 Spin= Alpha
 Occup= -0.943918
         1   -1.522282E-04
         2   -3.549714E-04
         3    1.021365E-03
         4   -2.333142E-03
         5   -1.066487E-02
         6   -9.887919E-03
         7    1.440612E-03
         8    1.555805E-04
         9    2.333996E-02
        10   -2.118379E-03
        11    3.282088E-04
        12    2.152670E-02
        13   -3.188326E-02
        14    9.186626E-03
        15    3.789749E-03
        16    2.518935E-06
        17   -1.363144E-05
        18    1.111251E-05
        19   -8.519406E-06
        20   -6.478484E-03
        21    3.872501E-03
        22   -5.852920E-04
        23    3.482312E-04
        24    2.370608E-04
        25   -6.126054E-04
        26   -1.455747E-02
        27    7.311038E-03
        28   -4.696741E-03
        29    4.408794E-03
        30    2.879470E-04
        31    9.196760E-04
        32    1.367045E-03
        33   -9.773208E-03
        34   -1.742138E-05
        35    5.610482E-06
        36   -9.428767E-05
        37    7.421401E-06
        38   -5.715169E-06
        39   -7.235562E-04
        40    1.595183E-05
        41   -1.812083E-06
        42    8.500564E-04
        43   -7.132320E-04
        44    2.431816E-05
        45    5.335157E-05
        46    1.048021E-04
        47   -2.314873E-03
        48   -4.654211E-02
        49    4.658567E-03
        50    3.118480E-04
        51    1.342206E-06
        52    2.060356E-01
        53   -3.664037E-04
        54    2.058630E-05
        55    2.138236E-01
        56   -1.510213E-02
        57   -1.257072E-03
        58    2.016363E-01
        59    3.564222E-05
        60   -3.348009E-05
        61   -2.162139E-06
        62    1.029395E-07
        63   -9.118664E-04
        64    1.254126E-06
        65    3.271696E-04
        66   -5.432859E-04
        67    2.161163E-04
        68    4.775679E-06
        69   -3.787711E-03
        70    2.137685E-06
        71    7.666985E-03
        72   -8.678808E-03
        73    1.011823E-03
        74   -2.094927E-04
        75    5.066427E-03
        76   -1.354564E-05
        77    6.789755E-06
        78    4.280758E-08
        79   -1.162305E-03
        80   -5.554031E-06
        81    3.937041E-08
        82    7.213520E-04
        83   -3.555381E-06
        84   -9.680281E-08
        85    8.380444E-04
        86    1.460933E-07
        87   -1.523873E-04
        88   -3.554409E-04
        89    1.029549E-03
        90   -2.406759E-03
        91   -8.413833E-03
        92   -9.816817E-03
        93    1.441944E-03
        94   -1.575598E-04
        95    2.339999E-02
        96   -2.101940E-03
        97   -3.141276E-04
        98    2.158488E-02
        99   -3.265444E-02
       100   -1.054390E-02
       101    3.912264E-03
       102    2.366924E-06
       103   -1.364041E-05
       104    1.127349E-05
       105    8.821121E-06
       106   -6.477706E-03
       107   -3.872751E-03
       108   -5.810531E-04
       109    3.429429E-04
       110    2.381101E-04
       111    6.089715E-04
       112   -1.455332E-02
       113   -7.310626E-03
       114   -4.923573E-03
       115    4.661083E-03
       116    2.624903E-04
       117   -7.601083E-04
       118    1.375874E-03
       119    9.743640E-03
       120   -1.756272E-05
       121   -5.591174E-06
       122   -9.462312E-05
       123    7.705412E-06
       124    5.718084E-06
       125   -7.231774E-04
       126    1.585745E-05
       127    1.783263E-06
       128    8.501277E-04
       129    7.131681E-04
       130    9.654168E-05
       131    2.072832E-04
       132    5.228305E-04
       133   -8.997181E-03
       134    2.791714E-02
       135    1.108326E-02
       136   -1.146017E-03
       137    5.028026E-04
       138   -1.592375E-01
       139   -7.937235E-03
       140    5.313086E-03
       141   -1.619172E-01
       142   -2.289592E-02
       143   -6.096945E-03
       144   -9.728037E-02
       145    1.245315E-04
       146   -1.489202E-04
       147    2.438870E-05
       148   -4.514865E-06
       149   -9.171148E-04
       150    3.167179E-03
       151    5.492216E-04
       152   -6.522561E-04
       153    1.030345E-04
       154    1.476641E-03
       155   -4.192367E-03
       156    5.382732E-03
       157    7.457423E-03
       158   -5.889244E-03
       159   -1.568179E-03
       160   -7.502445E-03
       161    3.226951E-03
       162   -1.129565E-02
       163   -1.366507E-05
       164    7.374704E-06
       165    9.162733E-04
       166   -1.591925E-05
       167    1.562532E-05
       168   -2.466051E-04
       169    3.425287E-05
       170   -2.551952E-05
       171   -9.827046E-04
       172    3.680872E-04
       173   -9.410874E-04
       174   -2.147583E-03
       175    2.186341E-03
       176    1.901500E-02
       177   -1.081119E-02
       178    8.462404E-03
       179    7.585551E-03
       180    1.052106E-06
       181   -1.246260E-01
       182    2.457132E-04
       183   -1.025335E-05
       184   -1.268399E-01
       185   -2.163730E-02
       186    1.368241E-03
       187   -1.312467E-01
       188    4.106066E-04
       189   -2.290925E-04
       190   -1.815141E-04
       191    8.932133E-08
       192    9.601947E-03
       193    9.861976E-07
       194   -1.624935E-03
       195    3.569742E-03
       196   -1.944806E-03
       197    2.869561E-06
       198    2.400832E-02
       199   -6.609276E-07
       200   -4.765655E-03
       201    5.907950E-03
       202   -1.142295E-03
       203   -2.251743E-04
       204    1.911297E-02
       205   -8.158101E-06
       206    9.818866E-05
       207    1.775696E-08
       208    4.504066E-04
       209   -6.942403E-05
       210   -7.231430E-08
       211    9.078728E-04
       212   -6.230988E-05
       213    4.849084E-08
       214   -1.512157E-03
       215   -2.255088E-08
       216    9.729384E-05
       217    2.087658E-04
       218    5.267926E-04
       219   -9.075038E-03
       220    3.040565E-02
       221    1.113356E-02
       222   -1.147492E-03
       223   -4.969241E-04
       224   -1.592830E-01
       225   -7.944220E-03
       226   -5.325144E-03
       227   -1.619707E-01
       228   -2.195838E-02
       229    7.701528E-03
       230   -9.723591E-02
       231    1.242962E-04
       232   -1.494746E-04
       233    2.517838E-05
       234    4.566334E-06
       235   -9.157526E-04
       236   -3.167389E-03
       237    5.511436E-04
       238   -6.541419E-04
       239    1.029983E-04
       240   -1.478673E-03
       241   -4.188360E-03
       242   -5.382579E-03
       243    7.230968E-03
       244   -5.647058E-03
       245   -1.583910E-03
       246    7.707580E-03
       247    3.217019E-03
       248    1.133568E-02
       249   -1.362947E-05
       250   -7.413219E-06
       251    9.168184E-04
       252   -1.608656E-05
       253   -1.557306E-05
       254   -2.471797E-04
       255    3.437241E-05
       256    2.551893E-05
       257   -9.828612E-04
       258   -3.680581E-04
       259   -3.048908E-04
       260   -1.714062E-04
       261   -1.523244E-02
       262   -1.045076E-05
       263    1.631350E-06
       264    9.272840E-04
       265   -4.700226E-03
       266   -1.791266E-04
       267   -6.268378E-03
       268   -3.066280E-04
       269   -1.653413E-04
       270   -1.504601E-02
       271   -9.403870E-06
       272   -2.268724E-06
       273    9.300883E-04
       274   -4.813004E-03
       275    7.817879E-05
       276   -6.241321E-03
       277   -3.843516E-04
       278   -2.098772E-03
       279    2.987769E-02
       280   -5.701543E-06
       281    9.026304E-05
       282   -6.460902E-03
       283   -1.388281E-03
       284   -2.390896E-03
       285    9.562657E-04
       286   -3.884213E-04
       287   -2.104080E-03
       288    3.028245E-02
       289   -5.391647E-06
       290   -9.048297E-05
       291   -6.463161E-03
       292   -1.304312E-03
       293    2.518469E-03
       294    9.863513E-04
       295   -4.087846E-05
       296   -9.477582E-05
       297    8.148940E-05
       298    3.840753E-04
       299   -5.572507E-03
       300    1.259969E-03
       301    4.634998E-04
       302   -2.246250E-07
       303    2.701963E-02
       304    1.943614E-04
       305    5.892605E-07
       306    2.909121E-02
       307   -2.555097E-03
       308    3.897842E-05
       309    1.179467E-02
       310    2.370346E-05
       311   -9.555952E-06
       312   -1.414751E-05
       313    3.054196E-08
       314    4.435147E-03
       315    2.054628E-08
       316    1.976227E-05
       317    4.323096E-05
       318   -6.299323E-05
       319   -4.607055E-07
       320    1.345228E-02
       321   -9.737801E-08
       322   -9.633636E-04
       323    2.522757E-03
       324   -1.559393E-03
       325    3.784938E-05
       326    3.419182E-03
       327    2.672258E-06
       328    6.427514E-06
       329    1.291693E-08
       330   -3.332890E-05
       331   -4.170063E-06
       332    8.316252E-09
       333    7.220709E-04
       334   -4.453352E-06
       335   -2.564614E-08
       336   -6.773555E-04
       337    2.940472E-08
       338   -9.771299E-06
       339   -2.074835E-05
       340   -7.863376E-06
       341    4.438535E-04
       342   -5.113966E-03
       343   -8.006362E-04
       344   -2.972038E-04
       345    8.438019E-05
       346   -7.640855E-02
       347   -3.559148E-04
       348    1.995473E-04
       349   -7.095618E-02
       350   -1.403867E-03
       351    3.908829E-04
       352   -5.908582E-02
       353   -1.425039E-04
       354    1.945361E-04
       355   -7.489407E-03
       356    3.211787E-06
       357   -3.935244E-06
       358    7.234563E-07
       359    1.164783E-06
       360    5.747143E-05
       361    3.948592E-04
       362   -1.181807E-05
       363   -8.671595E-06
       364    2.048967E-05
       365    1.202027E-05
       366   -3.762797E-04
       367    1.362958E-03
       368   -7.594804E-05
       369    5.721596E-05
       370    1.873208E-05
       371    8.940594E-05
       372   -1.378640E-04
       373    1.548616E-04
       374    8.363549E-07
       375    1.259638E-06
       376    4.896006E-05
       377   -1.463398E-06
       378   -3.944611E-08
       379    8.426760E-05
       380    3.413106E-07
       381   -1.650535E-06
       382   -1.499544E-04
       383    1.155619E-04
       384   -9.656163E-06
       385   -2.051496E-05
       386   -7.589064E-06
       387    4.384025E-04
       388   -5.114007E-03
       389   -7.627970E-04
       390   -2.948206E-04
       391   -8.411896E-05
       392   -7.640616E-02
       393   -3.539677E-04
       394   -1.986678E-04
       395   -7.095402E-02
       396   -1.362995E-03
       397   -3.900056E-04
       398   -5.908095E-02
       399   -1.254531E-04
       400   -1.985656E-04
       401   -7.495061E-03
       402    3.178256E-06
       403   -3.928595E-06
       404    7.503390E-07
       405   -1.218692E-06
       406    5.742698E-05
       407   -3.948390E-04
       408   -1.143750E-05
       409   -8.637282E-06
       410    2.007478E-05
       411   -1.153096E-05
       412   -3.761943E-04
       413   -1.362908E-03
       414   -7.525345E-05
       415    5.792617E-05
       416    1.732728E-05
       417   -8.804588E-05
       418   -1.393095E-04
       419   -1.543327E-04
       420    8.365079E-07
       421   -1.254156E-06
       422    4.896603E-05
       423   -1.446344E-06
       424    4.107860E-08
       425    8.425720E-05
       426    3.240512E-07
       427    1.641548E-06
       428   -1.499520E-04
       429   -1.155627E-04
       430    4.077791E-03
       431    9.702568E-03
       432   -1.520166E-02
       433   -2.351634E-02
       434   -2.022797E-02
       435   -6.319538E-02
       436   -1.461062E-02
       437    7.808634E-06
       438    2.330200E-01
       439   -1.684780E-02
       440   -1.014214E-06
       441    2.307312E-01
       442   -1.501028E-02
       443   -1.094219E-04
       444    1.919924E-01
       445   -8.572203E-05
       446    1.258766E-05
       447    7.313437E-05
       448    1.749405E-07
       449    9.818473E-04
       450    2.583730E-07
       451   -1.996700E-04
       452   -1.279414E-03
       453    1.479084E-03
       454   -3.727409E-06
       455    4.117089E-03
       456    9.170296E-07
       457   -1.785911E-03
       458   -2.422128E-03
       459    4.208039E-03
       460   -8.312611E-06
       461    2.302851E-03
       462    9.718281E-06
       463   -1.298219E-04
       464    2.347649E-08
       465   -8.913015E-04
       466   -6.828710E-05
       467   -2.404899E-08
       468    4.351054E-04
       469    2.424614E-04
       470   -7.448034E-09
       471    7.607011E-04
       472    1.469596E-08
       473    8.742425E-03
       474    1.618038E-02
       475    2.663597E-02
       476   -1.979117E-03
       477   -1.699606E-03
       478    1.194843E-02
       479    1.510072E-03
       480   -3.139830E-03
       481    1.456068E-02
       482    8.737563E-03
       483    1.611135E-02
       484    2.637006E-02
       485   -1.975806E-03
       486    1.692833E-03
       487    1.195200E-02
       488    1.535459E-03
       489    3.096027E-03
       490    1.457432E-02
 Sym= X
 Ene= 0.943918
 Spin= Alpha
 Occup= 0.943918
         1   -7.605253E-03
         2   -1.720044E-02
         3    3.122693E-02
         4    2.457581E-02
         5   -1.438571E+00
         6    1.465426E+00
         7   -1.426835E-02
         8   -6.291080E-03
         9   -3.101605E-04
        10   -1.290813E-01
        11   -2.328534E-02
        12    3.281246E-03
        13   -4.318333E-01
        14    1.418979E-02
        15   -2.628301E-02
        16    1.309805E-03
        17    7.455857E-04
        18   -2.055391E-03
        19   -8.843274E-04
        20   -9.420293E-05
        21   -1.054763E-04
        22   -2.006187E-02
        23    2.396885E-02
        24   -3.906970E-03
        25    4.131019E-03
        26    1.018516E-03
        27   -4.094045E-04
        28   -6.542051E-01
        29    4.774602E-01
        30    1.767448E-01
        31   -6.853983E-01
        32   -2.529332E-02
        33    2.660991E-02
        34   -2.404666E-04
        35   -1.524020E-04
        36    8.940741E-06
        37   -4.676658E-04
        38   -4.923985E-05
        39    3.504312E-05
        40    7.902856E-04
        41    2.537086E-04
        42   -4.703838E-05
        43    3.445701E-05
        44   -5.770403E-03
        45   -1.260078E-02
        46    2.621244E-03
        47    2.008246E-01
        48   -2.819133E+00
        49   -2.059076E+00
        50    2.085025E-03
        51    2.627829E-07
        52   -3.550455E-03
        53   -6.854160E-02
        54   -3.507813E-05
        55   -6.018493E-04
        56   -2.048547E+00
        57   -1.444266E-03
        58   -8.822411E-02
        59   -4.561924E-04
        60    3.173341E-03
        61   -2.717149E-03
        62   -3.119601E-07