[Molden Format]
[Title]
ADC(2) - opt by CAM-B3LYP gaussian                                              
[Atoms] AU
 c     1    6 -.12588789760523E+01 -.22833296301999E+01 -.24948636837890E-01
 c     2    6 -.25574931053929E+01 0.00000000000000E+00 -.23691968959520E-01
 c     3    6 -.12588770863262E+01 0.22833296301999E+01 -.24954306016290E-01
 c     4    6 0.13320886199507E+01 0.22850077070059E+01 -.26951746538750E-01
 c     5    6 0.26868238359857E+01 0.00000000000000E+00 -.26437741030600E-01
 c     6    6 0.13320867302245E+01 -.22850077070059E+01 -.26946077360350E-01
 h     7    1 -.22977937121289E+01 -.40382313624087E+01 -.22371050392630E-01
 h     8    1 -.22977918224027E+01 0.40382332521348E+01 -.22380499023300E-01
 h     9    1 0.23512179234159E+01 0.40571966538783E+01 -.29234535707270E-01
 h    10    1 0.23512179234159E+01 -.40571947641522E+01 -.29223197350470E-01
 n    11    7 -.52733186864479E+01 0.00000000000000E+00 -.17996334395000E-01
 o    12    8 -.63812046469225E+01 0.20269448165729E+01 -.15568036314240E-01
 o    13    8 -.63812027571964E+01 -.20269467062990E+01 -.15583154123310E-01
 n    14    7 0.52441127328484E+01 0.00000000000000E+00 -.70347417454330E-01
 h    15    1 0.62045074583774E+01 0.16172030580838E+01 0.18832018534119E+00
 h    16    1 0.62045055686513E+01 -.16172049478099E+01 0.18831451616279E+00
[GTO]
    1 0
 s    6 1.00
 0.13575349682000E+05 0.60645503603591E-03
 0.20352333680000E+04 0.46979088884982E-02
 0.46322562359000E+03 0.24332477647552E-01
 0.13120019598000E+03 0.97399968307759E-01
 0.42853015891000E+02 0.30195584253780E+00
 0.15584185766000E+02 0.66233609137875E+00
 s    2 1.00
 0.62067138508000E+01 0.65595308539952E+00
 0.25764896527000E+01 0.37585633285142E+00
 s    1 1.00
 0.57696339419000E+00 0.10000000000000E+01
 s    1 1.00
 0.22972831358000E+00 0.10000000000000E+01
 s    1 1.00
 0.95164440028000E-01 0.10000000000000E+01
 s    1 1.00
 0.48475401370000E-01 0.10000000000000E+01
 p    4 1.00
 0.34697232244000E+02 0.11327220003114E-01
 0.79582622826000E+01 0.76169659202087E-01
 0.23780826883000E+01 0.30192252202676E+00
 0.81433208183000E+00 0.72785027349547E+00
 p    1 1.00
 0.28887547253000E+00 0.10000000000000E+01
 p    1 1.00
 0.10056823671000E+00 0.10000000000000E+01
 d    1 1.00
 0.10970000000000E+01 0.10000000000000E+01
 d    1 1.00
 0.31800000000000E+00 0.10000000000000E+01
 d    1 1.00
 0.90985336424000E-01 0.10000000000000E+01
 f    1 1.00
 0.76100000000000E+00 0.10000000000000E+01
 
    2 0
 s    6 1.00
 0.13575349682000E+05 0.60645503603591E-03
 0.20352333680000E+04 0.46979088884982E-02
 0.46322562359000E+03 0.24332477647552E-01
 0.13120019598000E+03 0.97399968307759E-01
 0.42853015891000E+02 0.30195584253780E+00
 0.15584185766000E+02 0.66233609137875E+00
 s    2 1.00
 0.62067138508000E+01 0.65595308539952E+00
 0.25764896527000E+01 0.37585633285142E+00
 s    1 1.00
 0.57696339419000E+00 0.10000000000000E+01
 s    1 1.00
 0.22972831358000E+00 0.10000000000000E+01
 s    1 1.00
 0.95164440028000E-01 0.10000000000000E+01
 s    1 1.00
 0.48475401370000E-01 0.10000000000000E+01
 p    4 1.00
 0.34697232244000E+02 0.11327220003114E-01
 0.79582622826000E+01 0.76169659202087E-01
 0.23780826883000E+01 0.30192252202676E+00
 0.81433208183000E+00 0.72785027349547E+00
 p    1 1.00
 0.28887547253000E+00 0.10000000000000E+01
 p    1 1.00
 0.10056823671000E+00 0.10000000000000E+01
 d    1 1.00
 0.10970000000000E+01 0.10000000000000E+01
 d    1 1.00
 0.31800000000000E+00 0.10000000000000E+01
 d    1 1.00
 0.90985336424000E-01 0.10000000000000E+01
 f    1 1.00
 0.76100000000000E+00 0.10000000000000E+01
 
    3 0
 s    6 1.00
 0.13575349682000E+05 0.60645503603591E-03
 0.20352333680000E+04 0.46979088884982E-02
 0.46322562359000E+03 0.24332477647552E-01
 0.13120019598000E+03 0.97399968307759E-01
 0.42853015891000E+02 0.30195584253780E+00
 0.15584185766000E+02 0.66233609137875E+00
 s    2 1.00
 0.62067138508000E+01 0.65595308539952E+00
 0.25764896527000E+01 0.37585633285142E+00
 s    1 1.00
 0.57696339419000E+00 0.10000000000000E+01
 s    1 1.00
 0.22972831358000E+00 0.10000000000000E+01
 s    1 1.00
 0.95164440028000E-01 0.10000000000000E+01
 s    1 1.00
 0.48475401370000E-01 0.10000000000000E+01
 p    4 1.00
 0.34697232244000E+02 0.11327220003114E-01
 0.79582622826000E+01 0.76169659202087E-01
 0.23780826883000E+01 0.30192252202676E+00
 0.81433208183000E+00 0.72785027349547E+00
 p    1 1.00
 0.28887547253000E+00 0.10000000000000E+01
 p    1 1.00
 0.10056823671000E+00 0.10000000000000E+01
 d    1 1.00
 0.10970000000000E+01 0.10000000000000E+01
 d    1 1.00
 0.31800000000000E+00 0.10000000000000E+01
 d    1 1.00
 0.90985336424000E-01 0.10000000000000E+01
 f    1 1.00
 0.76100000000000E+00 0.10000000000000E+01
 
    4 0
 s    6 1.00
 0.13575349682000E+05 0.60645503603591E-03
 0.20352333680000E+04 0.46979088884982E-02
 0.46322562359000E+03 0.24332477647552E-01
 0.13120019598000E+03 0.97399968307759E-01
 0.42853015891000E+02 0.30195584253780E+00
 0.15584185766000E+02 0.66233609137875E+00
 s    2 1.00
 0.62067138508000E+01 0.65595308539952E+00
 0.25764896527000E+01 0.37585633285142E+00
 s    1 1.00
 0.57696339419000E+00 0.10000000000000E+01
 s    1 1.00
 0.22972831358000E+00 0.10000000000000E+01
 s    1 1.00
 0.95164440028000E-01 0.10000000000000E+01
 s    1 1.00
 0.48475401370000E-01 0.10000000000000E+01
 p    4 1.00
 0.34697232244000E+02 0.11327220003114E-01
 0.79582622826000E+01 0.76169659202087E-01
 0.23780826883000E+01 0.30192252202676E+00
 0.81433208183000E+00 0.72785027349547E+00
 p    1 1.00
 0.28887547253000E+00 0.10000000000000E+01
 p    1 1.00
 0.10056823671000E+00 0.10000000000000E+01
 d    1 1.00
 0.10970000000000E+01 0.10000000000000E+01
 d    1 1.00
 0.31800000000000E+00 0.10000000000000E+01
 d    1 1.00
 0.90985336424000E-01 0.10000000000000E+01
 f    1 1.00
 0.76100000000000E+00 0.10000000000000E+01
 
    5 0
 s    6 1.00
 0.13575349682000E+05 0.60645503603591E-03
 0.20352333680000E+04 0.46979088884982E-02
 0.46322562359000E+03 0.24332477647552E-01
 0.13120019598000E+03 0.97399968307759E-01
 0.42853015891000E+02 0.30195584253780E+00
 0.15584185766000E+02 0.66233609137875E+00
 s    2 1.00
 0.62067138508000E+01 0.65595308539952E+00
 0.25764896527000E+01 0.37585633285142E+00
 s    1 1.00
 0.57696339419000E+00 0.10000000000000E+01
 s    1 1.00
 0.22972831358000E+00 0.10000000000000E+01
 s    1 1.00
 0.95164440028000E-01 0.10000000000000E+01
 s    1 1.00
 0.48475401370000E-01 0.10000000000000E+01
 p    4 1.00
 0.34697232244000E+02 0.11327220003114E-01
 0.79582622826000E+01 0.76169659202087E-01
 0.23780826883000E+01 0.30192252202676E+00
 0.81433208183000E+00 0.72785027349547E+00
 p    1 1.00
 0.28887547253000E+00 0.10000000000000E+01
 p    1 1.00
 0.10056823671000E+00 0.10000000000000E+01
 d    1 1.00
 0.10970000000000E+01 0.10000000000000E+01
 d    1 1.00
 0.31800000000000E+00 0.10000000000000E+01
 d    1 1.00
 0.90985336424000E-01 0.10000000000000E+01
 f    1 1.00
 0.76100000000000E+00 0.10000000000000E+01
 
    6 0
 s    6 1.00
 0.13575349682000E+05 0.60645503603591E-03
 0.20352333680000E+04 0.46979088884982E-02
 0.46322562359000E+03 0.24332477647552E-01
 0.13120019598000E+03 0.97399968307759E-01
 0.42853015891000E+02 0.30195584253780E+00
 0.15584185766000E+02 0.66233609137875E+00
 s    2 1.00
 0.62067138508000E+01 0.65595308539952E+00
 0.25764896527000E+01 0.37585633285142E+00
 s    1 1.00
 0.57696339419000E+00 0.10000000000000E+01
 s    1 1.00
 0.22972831358000E+00 0.10000000000000E+01
 s    1 1.00
 0.95164440028000E-01 0.10000000000000E+01
 s    1 1.00
 0.48475401370000E-01 0.10000000000000E+01
 p    4 1.00
 0.34697232244000E+02 0.11327220003114E-01
 0.79582622826000E+01 0.76169659202087E-01
 0.23780826883000E+01 0.30192252202676E+00
 0.81433208183000E+00 0.72785027349547E+00
 p    1 1.00
 0.28887547253000E+00 0.10000000000000E+01
 p    1 1.00
 0.10056823671000E+00 0.10000000000000E+01
 d    1 1.00
 0.10970000000000E+01 0.10000000000000E+01
 d    1 1.00
 0.31800000000000E+00 0.10000000000000E+01
 d    1 1.00
 0.90985336424000E-01 0.10000000000000E+01
 f    1 1.00
 0.76100000000000E+00 0.10000000000000E+01
 
    7 0
 s    3 1.00
 0.34061341000000E+02 0.25439307208879E-01
 0.51235746000000E+01 0.19008594890375E+00
 0.11646626000000E+01 0.85244113011042E+00
 s    1 1.00
 0.32723041000000E+00 0.10000000000000E+01
 s    1 1.00
 0.10307241000000E+00 0.10000000000000E+01
 p    1 1.00
 0.80000000000000E+00 0.10000000000000E+01
 p    1 1.00
 0.95774129632000E-01 0.10000000000000E+01
 
    8 0
 s    3 1.00
 0.34061341000000E+02 0.25439307208879E-01
 0.51235746000000E+01 0.19008594890375E+00
 0.11646626000000E+01 0.85244113011042E+00
 s    1 1.00
 0.32723041000000E+00 0.10000000000000E+01
 s    1 1.00
 0.10307241000000E+00 0.10000000000000E+01
 p    1 1.00
 0.80000000000000E+00 0.10000000000000E+01
 p    1 1.00
 0.95774129632000E-01 0.10000000000000E+01
 
    9 0
 s    3 1.00
 0.34061341000000E+02 0.25439307208879E-01
 0.51235746000000E+01 0.19008594890375E+00
 0.11646626000000E+01 0.85244113011042E+00
 s    1 1.00
 0.32723041000000E+00 0.10000000000000E+01
 s    1 1.00
 0.10307241000000E+00 0.10000000000000E+01
 p    1 1.00
 0.80000000000000E+00 0.10000000000000E+01
 p    1 1.00
 0.95774129632000E-01 0.10000000000000E+01
 
   10 0
 s    3 1.00
 0.34061341000000E+02 0.25439307208879E-01
 0.51235746000000E+01 0.19008594890375E+00
 0.11646626000000E+01 0.85244113011042E+00
 s    1 1.00
 0.32723041000000E+00 0.10000000000000E+01
 s    1 1.00
 0.10307241000000E+00 0.10000000000000E+01
 p    1 1.00
 0.80000000000000E+00 0.10000000000000E+01
 p    1 1.00
 0.95774129632000E-01 0.10000000000000E+01
 
   11 0
 s    6 1.00
 0.19730800647000E+05 0.58626402628763E-03
 0.29578958745000E+04 0.45428820586397E-02
 0.67322133595000E+03 0.23558413450084E-01
 0.19068249494000E+03 0.94709193292923E-01
 0.62295441898000E+02 0.29719784913376E+00
 0.22654161182000E+02 0.66916246895232E+00
 s    2 1.00
 0.89791477428000E+01 0.64596683630063E+00
 0.36863002370000E+01 0.38700574393705E+00
 s    1 1.00
 0.84660076805000E+00 0.10000000000000E+01
 s    1 1.00
 0.33647133771000E+00 0.10000000000000E+01
 s    1 1.00
 0.13647653675000E+00 0.10000000000000E+01
 s    1 1.00
 0.68441605847000E-01 0.10000000000000E+01
 p    4 1.00
 0.49200380510000E+02 0.11448825101764E-01
 0.11346790537000E+02 0.78422337970864E-01
 0.34273972411000E+01 0.30818094738830E+00
 0.11785525134000E+01 0.72027196368413E+00
 p    1 1.00
 0.41642204972000E+00 0.10000000000000E+01
 p    1 1.00
 0.14260826011000E+00 0.10000000000000E+01
 d    1 1.00
 0.16540000000000E+01 0.10000000000000E+01
 d    1 1.00
 0.46900000000000E+00 0.10000000000000E+01
 d    1 1.00
 0.12829642058000E+00 0.10000000000000E+01
 f    1 1.00
 0.10930000000000E+01 0.10000000000000E+01
 
   12 0
 s    6 1.00
 0.27032382631000E+05 0.57227335211155E-03
 0.40523871392000E+04 0.44353233492995E-02
 0.92232722710000E+03 0.23020107706038E-01
 0.26124070989000E+03 0.92822490667928E-01
 0.85354641351000E+02 0.29378500009671E+00
 0.31035035245000E+02 0.67401604501641E+00
 s    2 1.00
 0.12260860728000E+02 0.63839937025506E+00
 0.49987076005000E+01 0.39534587125718E+00
 s    1 1.00
 0.11703108158000E+01 0.10000000000000E+01
 s    1 1.00
 0.46474740994000E+00 0.10000000000000E+01
 s    1 1.00
 0.18504536357000E+00 0.10000000000000E+01
 s    1 1.00
 0.70288026270000E-01 0.10000000000000E+01
 p    4 1.00
 0.63274954801000E+02 0.12018332222616E-01
 0.14627049379000E+02 0.83005421790056E-01
 0.44501223456000E+01 0.31991743925964E+00
 0.15275799647000E+01 0.70715542916104E+00
 p    1 1.00
 0.52935117943000E+00 0.10000000000000E+01
 p    1 1.00
 0.17478421270000E+00 0.10000000000000E+01
 p    1 1.00
 0.51112745706000E-01 0.10000000000000E+01
 d    1 1.00
 0.23140000000000E+01 0.10000000000000E+01
 d    1 1.00
 0.64500000000000E+00 0.10000000000000E+01
 d    1 1.00
 0.14696477366000E+00 0.10000000000000E+01
 f    1 1.00
 0.14280000000000E+01 0.10000000000000E+01
 
   13 0
 s    6 1.00
 0.27032382631000E+05 0.57227335211155E-03
 0.40523871392000E+04 0.44353233492995E-02
 0.92232722710000E+03 0.23020107706038E-01
 0.26124070989000E+03 0.92822490667928E-01
 0.85354641351000E+02 0.29378500009671E+00
 0.31035035245000E+02 0.67401604501641E+00
 s    2 1.00
 0.12260860728000E+02 0.63839937025506E+00
 0.49987076005000E+01 0.39534587125718E+00
 s    1 1.00
 0.11703108158000E+01 0.10000000000000E+01
 s    1 1.00
 0.46474740994000E+00 0.10000000000000E+01
 s    1 1.00
 0.18504536357000E+00 0.10000000000000E+01
 s    1 1.00
 0.70288026270000E-01 0.10000000000000E+01
 p    4 1.00
 0.63274954801000E+02 0.12018332222616E-01
 0.14627049379000E+02 0.83005421790056E-01
 0.44501223456000E+01 0.31991743925964E+00
 0.15275799647000E+01 0.70715542916104E+00
 p    1 1.00
 0.52935117943000E+00 0.10000000000000E+01
 p    1 1.00
 0.17478421270000E+00 0.10000000000000E+01
 p    1 1.00
 0.51112745706000E-01 0.10000000000000E+01
 d    1 1.00
 0.23140000000000E+01 0.10000000000000E+01
 d    1 1.00
 0.64500000000000E+00 0.10000000000000E+01
 d    1 1.00
 0.14696477366000E+00 0.10000000000000E+01
 f    1 1.00
 0.14280000000000E+01 0.10000000000000E+01
 
   14 0
 s    6 1.00
 0.19730800647000E+05 0.58626402628763E-03
 0.29578958745000E+04 0.45428820586397E-02
 0.67322133595000E+03 0.23558413450084E-01
 0.19068249494000E+03 0.94709193292923E-01
 0.62295441898000E+02 0.29719784913376E+00
 0.22654161182000E+02 0.66916246895232E+00
 s    2 1.00
 0.89791477428000E+01 0.64596683630063E+00
 0.36863002370000E+01 0.38700574393705E+00
 s    1 1.00
 0.84660076805000E+00 0.10000000000000E+01
 s    1 1.00
 0.33647133771000E+00 0.10000000000000E+01
 s    1 1.00
 0.13647653675000E+00 0.10000000000000E+01
 s    1 1.00
 0.68441605847000E-01 0.10000000000000E+01
 p    4 1.00
 0.49200380510000E+02 0.11448825101764E-01
 0.11346790537000E+02 0.78422337970864E-01
 0.34273972411000E+01 0.30818094738830E+00
 0.11785525134000E+01 0.72027196368413E+00
 p    1 1.00
 0.41642204972000E+00 0.10000000000000E+01
 p    1 1.00
 0.14260826011000E+00 0.10000000000000E+01
 d    1 1.00
 0.16540000000000E+01 0.10000000000000E+01
 d    1 1.00
 0.46900000000000E+00 0.10000000000000E+01
 d    1 1.00
 0.12829642058000E+00 0.10000000000000E+01
 f    1 1.00
 0.10930000000000E+01 0.10000000000000E+01
 
   15 0
 s    3 1.00
 0.34061341000000E+02 0.25439307208879E-01
 0.51235746000000E+01 0.19008594890375E+00
 0.11646626000000E+01 0.85244113011042E+00
 s    1 1.00
 0.32723041000000E+00 0.10000000000000E+01
 s    1 1.00
 0.10307241000000E+00 0.10000000000000E+01
 p    1 1.00
 0.80000000000000E+00 0.10000000000000E+01
 p    1 1.00
 0.95774129632000E-01 0.10000000000000E+01
 
   16 0
 s    3 1.00
 0.34061341000000E+02 0.25439307208879E-01
 0.51235746000000E+01 0.19008594890375E+00
 0.11646626000000E+01 0.85244113011042E+00
 s    1 1.00
 0.32723041000000E+00 0.10000000000000E+01
 s    1 1.00
 0.10307241000000E+00 0.10000000000000E+01
 p    1 1.00
 0.80000000000000E+00 0.10000000000000E+01
 p    1 1.00
 0.95774129632000E-01 0.10000000000000E+01
 
[MO]
 Sym= X
 Ene= -0.952525
 Spin= Alpha
 Occup= -0.952525
         1   -3.454692E-04
         2   -8.264972E-04
         3   -2.656766E-03
         4    2.723762E-02
         5    2.430445E-01
         6   -3.502600E-02
         7   -2.511173E-02
         8    5.761675E-02
         9   -3.493158E-03
        10   -9.344903E-03
        11    4.994510E-02
        12   -3.401328E-03
        13   -3.551476E-02
        14    9.100628E-02
        15   -7.752737E-04
        16   -2.363995E-03
        17    2.580886E-03
        18   -2.168908E-04
        19   -1.059390E-03
        20   -4.870957E-05
        21   -8.666334E-05
        22    1.376415E-03
        23    1.440408E-03
        24   -2.816823E-03
        25   -2.059711E-03
        26   -7.733957E-05
        27   -1.369557E-04
        28    4.697208E-04
        29    3.343915E-04
        30   -8.041123E-04
        31    1.106874E-02
        32    1.235114E-04
        33    4.775051E-05
        34    1.598859E-04
        35    5.603467E-04
        36    3.126187E-05
        37   -1.929205E-04
        38   -5.827326E-04
        39   -2.358478E-05
        40   -2.158903E-05
        41   -1.690513E-04
        42   -1.835742E-05
        43    6.372691E-06
        44    9.201672E-03
        45    2.078488E-02
        46   -2.959378E-02
        47   -6.329329E-02
        48   -2.223857E-01
        49    3.200362E-02
        50    1.583999E-01
        51    2.874261E-06
        52   -4.147821E-03
        53    1.150817E-01
        54    3.928074E-06
        55   -4.045868E-03
        56   -7.863880E-02
        57   -4.076358E-05
        58   -1.147824E-03
        59   -5.973484E-03
        60    5.299143E-03
        61    6.743418E-04
        62    9.417674E-08
        63   -6.264177E-05
        64    4.359066E-08
        65   -1.548710E-03
        66    1.346848E-03
        67    2.018616E-04
        68    1.938254E-08
        69   -1.336559E-04
        70   -8.153825E-07
        71    4.471102E-02
        72   -4.586195E-02
        73    1.150926E-03
        74   -2.156467E-06
        75   -2.507655E-04
        76    1.880768E-05
        77    1.124369E-03
        78    2.632485E-08
        79    3.769825E-05
        80   -7.664959E-04
        81   -1.876781E-08
        82   -2.248967E-05
        83   -7.420029E-04
        84   -1.655068E-08
        85   -2.808784E-05
        86   -1.789118E-08
        87   -3.457933E-04
        88   -8.272500E-04
        89   -2.655623E-03
        90    2.724311E-02
        91    2.431452E-01
        92   -3.503047E-02
        93   -2.511618E-02
        94   -5.761905E-02
        95   -3.492445E-03
        96   -9.344542E-03
        97   -4.994556E-02
        98   -3.399020E-03
        99   -3.553182E-02
       100   -9.103210E-02
       101   -7.500138E-04
       102   -2.364086E-03
       103    2.581023E-03
       104   -2.169373E-04
       105    1.059581E-03
       106   -4.866296E-05
       107    8.673689E-05
       108    1.376715E-03
       109    1.440122E-03
       110   -2.816837E-03
       111    2.059705E-03
       112   -7.724440E-05
       113    1.363254E-04
       114    4.739715E-04
       115    3.298127E-04
       116   -8.037842E-04
       117   -1.106795E-02
       118    1.651587E-04
       119   -2.386900E-05
       120    1.599044E-04
       121   -5.603782E-04
       122    3.120774E-05
       123   -1.929430E-04
       124    5.827602E-04
       125   -2.354211E-05
       126   -2.159118E-05
       127    1.690661E-04
       128   -1.832747E-05
       129   -6.318573E-06
       130    1.426812E-03
       131    3.251728E-03
       132   -2.532726E-03
       133   -2.538014E-02
       134   -7.667839E-02
       135    3.143920E-02
       136    3.028919E-02
       137    2.200709E-02
       138   -3.637603E-03
       139    3.778163E-02
       140    1.796241E-02
       141   -3.567801E-03
       142    2.528026E-02
       143    5.077334E-02
       144   -1.967387E-03
       145   -7.062494E-04
       146    5.952884E-04
       147    1.109609E-04
       148    2.151425E-03
       149    4.725622E-05
       150    8.256798E-05
       151   -2.925716E-03
       152    1.070661E-03
       153    1.855055E-03
       154    3.094142E-03
       155    1.004068E-04
       156    1.526006E-04
       157   -5.493543E-03
       158    6.439452E-03
       159   -9.459090E-04
       160   -1.830403E-02
       161    1.779034E-04
       162    9.967898E-05
       163    2.777111E-04
       164    3.535065E-04
       165    3.476269E-05
       166   -1.708340E-04
       167   -4.287707E-04
       168   -2.808436E-05
       169   -2.017545E-04
       170   -4.550813E-05
       171   -1.855469E-05
       172    6.313861E-06
       173    3.711220E-03
       174    8.456877E-03
       175   -1.521520E-02
       176   -7.748334E-03
       177   -4.664757E-02
       178   -3.641495E-02
       179    1.866517E-02
       180   -1.423984E-06
       181   -4.186471E-03
       182    1.144993E-02
       183   -1.085220E-06
       184   -4.050156E-03
       185   -1.087441E-02
       186    7.971236E-06
       187   -8.658079E-04
       188   -2.404198E-04
       189    1.929422E-04
       190    4.747758E-05
       191    8.067757E-08
       192    5.156104E-06
       193    3.478867E-08
       194    1.257256E-04
       195    4.738737E-04
       196   -5.995994E-04
       197    2.595981E-07
       198    6.706612E-05
       199   -2.157065E-07
       200   -1.622344E-02
       201    1.606850E-02
       202    1.549375E-04
       203    2.487074E-06
       204   -2.698888E-04
       205   -2.372575E-05
       206   -2.412493E-05
       207    2.093566E-08
       208    4.426899E-05
       209    8.707799E-05
       210   -2.299984E-08
       211   -3.615719E-05
       212   -5.471100E-05
       213   -5.088299E-09
       214   -2.323589E-05
       215   -1.491375E-09
       216    1.426675E-03
       217    3.251417E-03
       218   -2.532654E-03
       219   -2.537758E-02
       220   -7.667950E-02
       221    3.143754E-02
       222    3.028631E-02
       223   -2.200270E-02
       224   -3.638417E-03
       225    3.777608E-02
       226   -1.795838E-02
       227   -3.568518E-03
       228    2.527942E-02
       229   -5.075259E-02
       230   -1.956485E-03
       231   -7.061392E-04
       232    5.952075E-04
       233    1.109317E-04
       234   -2.151292E-03
       235    4.736435E-05
       236   -8.259731E-05
       237   -2.924740E-03
       238    1.069918E-03
       239    1.854822E-03
       240   -3.093496E-03
       241    9.949826E-05
       242   -1.523301E-04
       243   -5.485163E-03
       244    6.430473E-03
       245   -9.453101E-04
       246    1.830696E-02
       247    1.356459E-04
       248   -1.199377E-04
       249    2.776788E-04
       250   -3.534959E-04
       251    3.476424E-05
       252   -1.708077E-04
       253    4.287737E-04
       254   -2.807365E-05
       255   -2.017374E-04
       256    4.549074E-05
       257   -1.856748E-05
       258   -6.319638E-06
       259   -1.188440E-02
       260   -1.666751E-02
       261   -1.432659E-02
       262   -2.876786E-03
       263   -1.453088E-03
       264   -1.115393E-04
       265   -6.493561E-03
       266    3.487096E-04
       267    4.256473E-05
       268   -1.188434E-02
       269   -1.666767E-02
       270   -1.432313E-02
       271   -2.876728E-03
       272    1.453050E-03
       273   -1.113066E-04
       274   -6.486811E-03
       275   -3.440505E-04
       276    3.498629E-05
       277    1.944490E-02
       278    3.063704E-02
       279    1.525339E-02
       280   -5.047220E-04
       281   -2.732559E-03
       282   -1.227671E-04
       283    8.603971E-03
       284   -3.139367E-03
       285   -1.702133E-04
       286    1.944239E-02
       287    3.063489E-02
       288    1.528792E-02
       289   -5.046159E-04
       290    2.732238E-03
       291   -1.234096E-04
       292    8.594501E-03
       293    3.137092E-03
       294   -1.688009E-04
       295    3.141248E-03
       296    7.292431E-03
       297   -6.562609E-03
       298   -3.930060E-02
       299   -1.663157E-01
       300    1.137234E-02
       301   -1.369572E-01
       302    1.515070E-06
       303    1.183525E-03
       304   -1.264740E-01
       305    1.504368E-06
       306    1.130702E-03
       307   -1.007400E-01
       308    2.465812E-06
       309    2.864889E-04
       310   -1.154665E-02
       311    1.290448E-02
       312   -1.357835E-03
       313   -3.001838E-07
       314   -5.176567E-05
       315   -5.271672E-07
       316   -3.337872E-02
       317    3.438126E-02
       318   -1.002548E-03
       319   -8.646378E-07
       320   -1.323584E-04
       321   -1.147074E-06
       322    1.433580E-02
       323   -4.777570E-03
       324   -9.558231E-03
       325    2.834147E-06
       326   -1.641118E-04
       327    7.331266E-07
       328    4.307713E-05
       329   -7.754894E-08
       330   -6.874858E-06
       331   -4.093453E-04
       332    1.111088E-07
       333   -8.030158E-06
       334    3.515512E-04
       335   -7.065932E-09
       336    1.725375E-05
       337    6.831182E-08
       338   -3.617931E-05
       339   -1.526980E-04
       340   -6.748653E-04
       341   -1.261436E-02
       342   -7.066069E-03
       343   -2.109527E-02
       344    2.987530E-01
       345    4.630144E-02
       346    9.473985E-04
       347    2.627100E-01
       348    4.594438E-02
       349    8.971079E-04
       350    2.004929E-01
       351    4.428566E-02
       352    4.938237E-04
       353    1.568401E-02
       354    8.739201E-03
       355    3.798230E-05
       356    6.904761E-04
       357    1.705652E-04
       358   -8.610413E-04
       359   -2.604819E-03
       360    4.199515E-06
       361   -1.587236E-05
       362    3.025641E-03
       363   -6.342163E-04
       364   -2.391425E-03
       365   -5.873192E-03
       366    1.838291E-05
       367   -5.024458E-05
       368    3.518582E-03
       369   -3.009976E-03
       370   -5.086062E-04
       371   -6.093195E-03
       372    2.799147E-05
       373    7.514079E-06
       374   -3.047076E-04
       375    4.016973E-04
       376   -2.387855E-06
       377    6.405403E-04
       378   -8.429604E-04
       379   -1.500568E-06
       380   -2.317321E-04
       381    3.040269E-04
       382    4.704213E-06
       383   -2.653872E-06
       384   -3.613940E-05
       385   -1.525912E-04
       386   -6.750535E-04
       387   -1.261414E-02
       388   -7.068194E-03
       389   -2.109670E-02
       390    2.987705E-01
       391   -4.631626E-02
       392    9.794014E-04
       393    2.627259E-01
       394   -4.595725E-02
       395    9.250042E-04
       396    2.005077E-01
       397   -4.429419E-02
       398    5.287297E-04
       399    1.568519E-02
       400   -8.739711E-03
       401    3.715234E-05
       402    6.906020E-04
       403    1.703816E-04
       404   -8.609836E-04
       405    2.604799E-03
       406    4.284004E-06
       407    1.612848E-05
       408    3.026081E-03
       409   -6.346674E-04
       410   -2.391414E-03
       411    5.873319E-03
       412    1.842689E-05
       413    5.167437E-05
       414    3.519130E-03
       415   -3.010348E-03
       416   -5.087814E-04
       417    6.093980E-03
       418    2.091595E-05
       419    2.086812E-07
       420   -3.046934E-04
       421   -4.017467E-04
       422   -2.531179E-06
       423    6.405107E-04
       424    8.430162E-04
       425   -1.391290E-06
       426   -2.317216E-04
       427   -3.040163E-04
       428    4.787223E-06
       429    2.688916E-06
       430    4.578947E-04
       431    1.091383E-03
       432   -1.615650E-03
       433   -5.208001E-03
       434    1.817864E-02
       435    2.562026E-02
       436   -7.467436E-03
       437   -2.216564E-07
       438   -3.458193E-03
       439   -5.891846E-03
       440   -4.272564E-07
       441   -3.244938E-03
       442   -2.430535E-03
       443   -3.647143E-07
       444   -1.417131E-03
       445    1.131911E-04
       446   -1.034363E-04
       447   -9.754726E-06
       448   -1.270258E-09
       449    1.769298E-05
       450   -5.123215E-09
       451    1.714944E-04
       452    1.631294E-04
       453   -3.346238E-04
       454    4.973371E-08
       455    7.935235E-05
       456    2.181298E-08
       457   -9.504976E-04
       458    1.002678E-03
       459   -5.218046E-05
       460   -6.868461E-07
       461   -1.028853E-04
       462    1.142532E-06
       463   -2.235494E-05
       464    1.780168E-09
       465    2.321239E-05
       466   -2.043450E-05
       467   -4.837547E-09
       468   -2.470091E-05
       469    5.042680E-05
       470    2.449201E-09
       471   -6.441782E-06
       472    2.176014E-09
       473   -1.984257E-03
       474   -3.512141E-03
       475    2.609257E-04
       476    2.299670E-06
       477    6.302238E-04
       478   -3.978421E-05
       479   -1.681599E-03
       480   -1.168585E-03
       481    4.179796E-04
       482   -1.984143E-03
       483   -3.511509E-03
       484    2.559513E-04
       485    2.230051E-06
       486   -6.301901E-04
       487   -3.974436E-05
       488   -1.681991E-03
       489    1.165764E-03
       490    4.200503E-04
 Sym= X
 Ene= 0.952525
 Spin= Alpha
 Occup= 0.952525
         1   -9.487177E-05
         2   -2.326578E-04
         3    6.692822E-04
         4   -2.533038E-03
         5   -3.889024E-01
         6   -6.449795E-02
         7   -2.358022E-04
         8   -3.720463E-04
         9    9.924261E-02
        10    1.330077E-03
        11   -2.150558E-03
        12    1.045407E-01
        13   -1.496996E-01
        14    1.400273E-01
        15    2.505422E-02
        16    6.855912E-05
        17   -5.752956E-05
        18   -1.102956E-05
        19   -5.902088E-05
        20    8.773863E-05
        21    8.902995E-04
        22   -7.113004E-04
        23    4.568955E-04
        24    2.544048E-04
        25    9.227594E-04
        26   -3.939393E-03
        27   -1.264127E-03
        28   -2.813827E-02
        29    3.417461E-02
        30   -6.036345E-03
        31   -7.613270E-03
        32   -4.883821E-02
        33   -3.406797E-02
        34    2.485909E-06
        35    1.034617E-05
        36   -1.213710E-04
        37   -5.778353E-06
        38   -2.223576E-05
        39   -2.253025E-04
        40    2.443157E-06
        41    8.354922E-06
        42    3.881388E-04
        43    1.573833E-04
        44   -1.077301E-04
        45   -2.649396E-04
        46    6.517663E-04
        47    2.958268E-03
        48   -4.151603E-01
        49    1.095190E-01
        50   -5.341609E-04
        51    1.875089E-06
        52   -1.178535E-02
        53    2.206873E-03
        54   -4.005802E-05
        55   -8.510402E-03
        56   -1.108817E-01
        57   -1.301504E-03
        58   -6.988637E-03
        59   -4.169282E-06
        60    2.864693E-05
        61   -2.447765E-05
        62   -2.731350E-08