[Molden Format]
[Title]
ADC(2) - opt by CAM-B3LYP gaussian                                              
[Atoms] AU
 c     1    6 -.12588789760523E+01 -.22833296301999E+01 -.24948636837890E-01
 c     2    6 -.25574931053929E+01 0.00000000000000E+00 -.23691968959520E-01
 c     3    6 -.12588770863262E+01 0.22833296301999E+01 -.24954306016290E-01
 c     4    6 0.13320886199507E+01 0.22850077070059E+01 -.26951746538750E-01
 c     5    6 0.26868238359857E+01 0.00000000000000E+00 -.26437741030600E-01
 c     6    6 0.13320867302245E+01 -.22850077070059E+01 -.26946077360350E-01
 h     7    1 -.22977937121289E+01 -.40382313624087E+01 -.22371050392630E-01
 h     8    1 -.22977918224027E+01 0.40382332521348E+01 -.22380499023300E-01
 h     9    1 0.23512179234159E+01 0.40571966538783E+01 -.29234535707270E-01
 h    10    1 0.23512179234159E+01 -.40571947641522E+01 -.29223197350470E-01
 n    11    7 -.52733186864479E+01 0.00000000000000E+00 -.17996334395000E-01
 o    12    8 -.63812046469225E+01 0.20269448165729E+01 -.15568036314240E-01
 o    13    8 -.63812027571964E+01 -.20269467062990E+01 -.15583154123310E-01
 n    14    7 0.52441127328484E+01 0.00000000000000E+00 -.70347417454330E-01
 h    15    1 0.62045074583774E+01 0.16172030580838E+01 0.18832018534119E+00
 h    16    1 0.62045055686513E+01 -.16172049478099E+01 0.18831451616279E+00
[GTO]
    1 0
 s    6 1.00
 0.13575349682000E+05 0.60645503603591E-03
 0.20352333680000E+04 0.46979088884982E-02
 0.46322562359000E+03 0.24332477647552E-01
 0.13120019598000E+03 0.97399968307759E-01
 0.42853015891000E+02 0.30195584253780E+00
 0.15584185766000E+02 0.66233609137875E+00
 s    2 1.00
 0.62067138508000E+01 0.65595308539952E+00
 0.25764896527000E+01 0.37585633285142E+00
 s    1 1.00
 0.57696339419000E+00 0.10000000000000E+01
 s    1 1.00
 0.22972831358000E+00 0.10000000000000E+01
 s    1 1.00
 0.95164440028000E-01 0.10000000000000E+01
 s    1 1.00
 0.48475401370000E-01 0.10000000000000E+01
 p    4 1.00
 0.34697232244000E+02 0.11327220003114E-01
 0.79582622826000E+01 0.76169659202087E-01
 0.23780826883000E+01 0.30192252202676E+00
 0.81433208183000E+00 0.72785027349547E+00
 p    1 1.00
 0.28887547253000E+00 0.10000000000000E+01
 p    1 1.00
 0.10056823671000E+00 0.10000000000000E+01
 d    1 1.00
 0.10970000000000E+01 0.10000000000000E+01
 d    1 1.00
 0.31800000000000E+00 0.10000000000000E+01
 d    1 1.00
 0.90985336424000E-01 0.10000000000000E+01
 f    1 1.00
 0.76100000000000E+00 0.10000000000000E+01
 
    2 0
 s    6 1.00
 0.13575349682000E+05 0.60645503603591E-03
 0.20352333680000E+04 0.46979088884982E-02
 0.46322562359000E+03 0.24332477647552E-01
 0.13120019598000E+03 0.97399968307759E-01
 0.42853015891000E+02 0.30195584253780E+00
 0.15584185766000E+02 0.66233609137875E+00
 s    2 1.00
 0.62067138508000E+01 0.65595308539952E+00
 0.25764896527000E+01 0.37585633285142E+00
 s    1 1.00
 0.57696339419000E+00 0.10000000000000E+01
 s    1 1.00
 0.22972831358000E+00 0.10000000000000E+01
 s    1 1.00
 0.95164440028000E-01 0.10000000000000E+01
 s    1 1.00
 0.48475401370000E-01 0.10000000000000E+01
 p    4 1.00
 0.34697232244000E+02 0.11327220003114E-01
 0.79582622826000E+01 0.76169659202087E-01
 0.23780826883000E+01 0.30192252202676E+00
 0.81433208183000E+00 0.72785027349547E+00
 p    1 1.00
 0.28887547253000E+00 0.10000000000000E+01
 p    1 1.00
 0.10056823671000E+00 0.10000000000000E+01
 d    1 1.00
 0.10970000000000E+01 0.10000000000000E+01
 d    1 1.00
 0.31800000000000E+00 0.10000000000000E+01
 d    1 1.00
 0.90985336424000E-01 0.10000000000000E+01
 f    1 1.00
 0.76100000000000E+00 0.10000000000000E+01
 
    3 0
 s    6 1.00
 0.13575349682000E+05 0.60645503603591E-03
 0.20352333680000E+04 0.46979088884982E-02
 0.46322562359000E+03 0.24332477647552E-01
 0.13120019598000E+03 0.97399968307759E-01
 0.42853015891000E+02 0.30195584253780E+00
 0.15584185766000E+02 0.66233609137875E+00
 s    2 1.00
 0.62067138508000E+01 0.65595308539952E+00
 0.25764896527000E+01 0.37585633285142E+00
 s    1 1.00
 0.57696339419000E+00 0.10000000000000E+01
 s    1 1.00
 0.22972831358000E+00 0.10000000000000E+01
 s    1 1.00
 0.95164440028000E-01 0.10000000000000E+01
 s    1 1.00
 0.48475401370000E-01 0.10000000000000E+01
 p    4 1.00
 0.34697232244000E+02 0.11327220003114E-01
 0.79582622826000E+01 0.76169659202087E-01
 0.23780826883000E+01 0.30192252202676E+00
 0.81433208183000E+00 0.72785027349547E+00
 p    1 1.00
 0.28887547253000E+00 0.10000000000000E+01
 p    1 1.00
 0.10056823671000E+00 0.10000000000000E+01
 d    1 1.00
 0.10970000000000E+01 0.10000000000000E+01
 d    1 1.00
 0.31800000000000E+00 0.10000000000000E+01
 d    1 1.00
 0.90985336424000E-01 0.10000000000000E+01
 f    1 1.00
 0.76100000000000E+00 0.10000000000000E+01
 
    4 0
 s    6 1.00
 0.13575349682000E+05 0.60645503603591E-03
 0.20352333680000E+04 0.46979088884982E-02
 0.46322562359000E+03 0.24332477647552E-01
 0.13120019598000E+03 0.97399968307759E-01
 0.42853015891000E+02 0.30195584253780E+00
 0.15584185766000E+02 0.66233609137875E+00
 s    2 1.00
 0.62067138508000E+01 0.65595308539952E+00
 0.25764896527000E+01 0.37585633285142E+00
 s    1 1.00
 0.57696339419000E+00 0.10000000000000E+01
 s    1 1.00
 0.22972831358000E+00 0.10000000000000E+01
 s    1 1.00
 0.95164440028000E-01 0.10000000000000E+01
 s    1 1.00
 0.48475401370000E-01 0.10000000000000E+01
 p    4 1.00
 0.34697232244000E+02 0.11327220003114E-01
 0.79582622826000E+01 0.76169659202087E-01
 0.23780826883000E+01 0.30192252202676E+00
 0.81433208183000E+00 0.72785027349547E+00
 p    1 1.00
 0.28887547253000E+00 0.10000000000000E+01
 p    1 1.00
 0.10056823671000E+00 0.10000000000000E+01
 d    1 1.00
 0.10970000000000E+01 0.10000000000000E+01
 d    1 1.00
 0.31800000000000E+00 0.10000000000000E+01
 d    1 1.00
 0.90985336424000E-01 0.10000000000000E+01
 f    1 1.00
 0.76100000000000E+00 0.10000000000000E+01
 
    5 0
 s    6 1.00
 0.13575349682000E+05 0.60645503603591E-03
 0.20352333680000E+04 0.46979088884982E-02
 0.46322562359000E+03 0.24332477647552E-01
 0.13120019598000E+03 0.97399968307759E-01
 0.42853015891000E+02 0.30195584253780E+00
 0.15584185766000E+02 0.66233609137875E+00
 s    2 1.00
 0.62067138508000E+01 0.65595308539952E+00
 0.25764896527000E+01 0.37585633285142E+00
 s    1 1.00
 0.57696339419000E+00 0.10000000000000E+01
 s    1 1.00
 0.22972831358000E+00 0.10000000000000E+01
 s    1 1.00
 0.95164440028000E-01 0.10000000000000E+01
 s    1 1.00
 0.48475401370000E-01 0.10000000000000E+01
 p    4 1.00
 0.34697232244000E+02 0.11327220003114E-01
 0.79582622826000E+01 0.76169659202087E-01
 0.23780826883000E+01 0.30192252202676E+00
 0.81433208183000E+00 0.72785027349547E+00
 p    1 1.00
 0.28887547253000E+00 0.10000000000000E+01
 p    1 1.00
 0.10056823671000E+00 0.10000000000000E+01
 d    1 1.00
 0.10970000000000E+01 0.10000000000000E+01
 d    1 1.00
 0.31800000000000E+00 0.10000000000000E+01
 d    1 1.00
 0.90985336424000E-01 0.10000000000000E+01
 f    1 1.00
 0.76100000000000E+00 0.10000000000000E+01
 
    6 0
 s    6 1.00
 0.13575349682000E+05 0.60645503603591E-03
 0.20352333680000E+04 0.46979088884982E-02
 0.46322562359000E+03 0.24332477647552E-01
 0.13120019598000E+03 0.97399968307759E-01
 0.42853015891000E+02 0.30195584253780E+00
 0.15584185766000E+02 0.66233609137875E+00
 s    2 1.00
 0.62067138508000E+01 0.65595308539952E+00
 0.25764896527000E+01 0.37585633285142E+00
 s    1 1.00
 0.57696339419000E+00 0.10000000000000E+01
 s    1 1.00
 0.22972831358000E+00 0.10000000000000E+01
 s    1 1.00
 0.95164440028000E-01 0.10000000000000E+01
 s    1 1.00
 0.48475401370000E-01 0.10000000000000E+01
 p    4 1.00
 0.34697232244000E+02 0.11327220003114E-01
 0.79582622826000E+01 0.76169659202087E-01
 0.23780826883000E+01 0.30192252202676E+00
 0.81433208183000E+00 0.72785027349547E+00
 p    1 1.00
 0.28887547253000E+00 0.10000000000000E+01
 p    1 1.00
 0.10056823671000E+00 0.10000000000000E+01
 d    1 1.00
 0.10970000000000E+01 0.10000000000000E+01
 d    1 1.00
 0.31800000000000E+00 0.10000000000000E+01
 d    1 1.00
 0.90985336424000E-01 0.10000000000000E+01
 f    1 1.00
 0.76100000000000E+00 0.10000000000000E+01
 
    7 0
 s    3 1.00
 0.34061341000000E+02 0.25439307208879E-01
 0.51235746000000E+01 0.19008594890375E+00
 0.11646626000000E+01 0.85244113011042E+00
 s    1 1.00
 0.32723041000000E+00 0.10000000000000E+01
 s    1 1.00
 0.10307241000000E+00 0.10000000000000E+01
 p    1 1.00
 0.80000000000000E+00 0.10000000000000E+01
 p    1 1.00
 0.95774129632000E-01 0.10000000000000E+01
 
    8 0
 s    3 1.00
 0.34061341000000E+02 0.25439307208879E-01
 0.51235746000000E+01 0.19008594890375E+00
 0.11646626000000E+01 0.85244113011042E+00
 s    1 1.00
 0.32723041000000E+00 0.10000000000000E+01
 s    1 1.00
 0.10307241000000E+00 0.10000000000000E+01
 p    1 1.00
 0.80000000000000E+00 0.10000000000000E+01
 p    1 1.00
 0.95774129632000E-01 0.10000000000000E+01
 
    9 0
 s    3 1.00
 0.34061341000000E+02 0.25439307208879E-01
 0.51235746000000E+01 0.19008594890375E+00
 0.11646626000000E+01 0.85244113011042E+00
 s    1 1.00
 0.32723041000000E+00 0.10000000000000E+01
 s    1 1.00
 0.10307241000000E+00 0.10000000000000E+01
 p    1 1.00
 0.80000000000000E+00 0.10000000000000E+01
 p    1 1.00
 0.95774129632000E-01 0.10000000000000E+01
 
   10 0
 s    3 1.00
 0.34061341000000E+02 0.25439307208879E-01
 0.51235746000000E+01 0.19008594890375E+00
 0.11646626000000E+01 0.85244113011042E+00
 s    1 1.00
 0.32723041000000E+00 0.10000000000000E+01
 s    1 1.00
 0.10307241000000E+00 0.10000000000000E+01
 p    1 1.00
 0.80000000000000E+00 0.10000000000000E+01
 p    1 1.00
 0.95774129632000E-01 0.10000000000000E+01
 
   11 0
 s    6 1.00
 0.19730800647000E+05 0.58626402628763E-03
 0.29578958745000E+04 0.45428820586397E-02
 0.67322133595000E+03 0.23558413450084E-01
 0.19068249494000E+03 0.94709193292923E-01
 0.62295441898000E+02 0.29719784913376E+00
 0.22654161182000E+02 0.66916246895232E+00
 s    2 1.00
 0.89791477428000E+01 0.64596683630063E+00
 0.36863002370000E+01 0.38700574393705E+00
 s    1 1.00
 0.84660076805000E+00 0.10000000000000E+01
 s    1 1.00
 0.33647133771000E+00 0.10000000000000E+01
 s    1 1.00
 0.13647653675000E+00 0.10000000000000E+01
 s    1 1.00
 0.68441605847000E-01 0.10000000000000E+01
 p    4 1.00
 0.49200380510000E+02 0.11448825101764E-01
 0.11346790537000E+02 0.78422337970864E-01
 0.34273972411000E+01 0.30818094738830E+00
 0.11785525134000E+01 0.72027196368413E+00
 p    1 1.00
 0.41642204972000E+00 0.10000000000000E+01
 p    1 1.00
 0.14260826011000E+00 0.10000000000000E+01
 d    1 1.00
 0.16540000000000E+01 0.10000000000000E+01
 d    1 1.00
 0.46900000000000E+00 0.10000000000000E+01
 d    1 1.00
 0.12829642058000E+00 0.10000000000000E+01
 f    1 1.00
 0.10930000000000E+01 0.10000000000000E+01
 
   12 0
 s    6 1.00
 0.27032382631000E+05 0.57227335211155E-03
 0.40523871392000E+04 0.44353233492995E-02
 0.92232722710000E+03 0.23020107706038E-01
 0.26124070989000E+03 0.92822490667928E-01
 0.85354641351000E+02 0.29378500009671E+00
 0.31035035245000E+02 0.67401604501641E+00
 s    2 1.00
 0.12260860728000E+02 0.63839937025506E+00
 0.49987076005000E+01 0.39534587125718E+00
 s    1 1.00
 0.11703108158000E+01 0.10000000000000E+01
 s    1 1.00
 0.46474740994000E+00 0.10000000000000E+01
 s    1 1.00
 0.18504536357000E+00 0.10000000000000E+01
 s    1 1.00
 0.70288026270000E-01 0.10000000000000E+01
 p    4 1.00
 0.63274954801000E+02 0.12018332222616E-01
 0.14627049379000E+02 0.83005421790056E-01
 0.44501223456000E+01 0.31991743925964E+00
 0.15275799647000E+01 0.70715542916104E+00
 p    1 1.00
 0.52935117943000E+00 0.10000000000000E+01
 p    1 1.00
 0.17478421270000E+00 0.10000000000000E+01
 p    1 1.00
 0.51112745706000E-01 0.10000000000000E+01
 d    1 1.00
 0.23140000000000E+01 0.10000000000000E+01
 d    1 1.00
 0.64500000000000E+00 0.10000000000000E+01
 d    1 1.00
 0.14696477366000E+00 0.10000000000000E+01
 f    1 1.00
 0.14280000000000E+01 0.10000000000000E+01
 
   13 0
 s    6 1.00
 0.27032382631000E+05 0.57227335211155E-03
 0.40523871392000E+04 0.44353233492995E-02
 0.92232722710000E+03 0.23020107706038E-01
 0.26124070989000E+03 0.92822490667928E-01
 0.85354641351000E+02 0.29378500009671E+00
 0.31035035245000E+02 0.67401604501641E+00
 s    2 1.00
 0.12260860728000E+02 0.63839937025506E+00
 0.49987076005000E+01 0.39534587125718E+00
 s    1 1.00
 0.11703108158000E+01 0.10000000000000E+01
 s    1 1.00
 0.46474740994000E+00 0.10000000000000E+01
 s    1 1.00
 0.18504536357000E+00 0.10000000000000E+01
 s    1 1.00
 0.70288026270000E-01 0.10000000000000E+01
 p    4 1.00
 0.63274954801000E+02 0.12018332222616E-01
 0.14627049379000E+02 0.83005421790056E-01
 0.44501223456000E+01 0.31991743925964E+00
 0.15275799647000E+01 0.70715542916104E+00
 p    1 1.00
 0.52935117943000E+00 0.10000000000000E+01
 p    1 1.00
 0.17478421270000E+00 0.10000000000000E+01
 p    1 1.00
 0.51112745706000E-01 0.10000000000000E+01
 d    1 1.00
 0.23140000000000E+01 0.10000000000000E+01
 d    1 1.00
 0.64500000000000E+00 0.10000000000000E+01
 d    1 1.00
 0.14696477366000E+00 0.10000000000000E+01
 f    1 1.00
 0.14280000000000E+01 0.10000000000000E+01
 
   14 0
 s    6 1.00
 0.19730800647000E+05 0.58626402628763E-03
 0.29578958745000E+04 0.45428820586397E-02
 0.67322133595000E+03 0.23558413450084E-01
 0.19068249494000E+03 0.94709193292923E-01
 0.62295441898000E+02 0.29719784913376E+00
 0.22654161182000E+02 0.66916246895232E+00
 s    2 1.00
 0.89791477428000E+01 0.64596683630063E+00
 0.36863002370000E+01 0.38700574393705E+00
 s    1 1.00
 0.84660076805000E+00 0.10000000000000E+01
 s    1 1.00
 0.33647133771000E+00 0.10000000000000E+01
 s    1 1.00
 0.13647653675000E+00 0.10000000000000E+01
 s    1 1.00
 0.68441605847000E-01 0.10000000000000E+01
 p    4 1.00
 0.49200380510000E+02 0.11448825101764E-01
 0.11346790537000E+02 0.78422337970864E-01
 0.34273972411000E+01 0.30818094738830E+00
 0.11785525134000E+01 0.72027196368413E+00
 p    1 1.00
 0.41642204972000E+00 0.10000000000000E+01
 p    1 1.00
 0.14260826011000E+00 0.10000000000000E+01
 d    1 1.00
 0.16540000000000E+01 0.10000000000000E+01
 d    1 1.00
 0.46900000000000E+00 0.10000000000000E+01
 d    1 1.00
 0.12829642058000E+00 0.10000000000000E+01
 f    1 1.00
 0.10930000000000E+01 0.10000000000000E+01
 
   15 0
 s    3 1.00
 0.34061341000000E+02 0.25439307208879E-01
 0.51235746000000E+01 0.19008594890375E+00
 0.11646626000000E+01 0.85244113011042E+00
 s    1 1.00
 0.32723041000000E+00 0.10000000000000E+01
 s    1 1.00
 0.10307241000000E+00 0.10000000000000E+01
 p    1 1.00
 0.80000000000000E+00 0.10000000000000E+01
 p    1 1.00
 0.95774129632000E-01 0.10000000000000E+01
 
   16 0
 s    3 1.00
 0.34061341000000E+02 0.25439307208879E-01
 0.51235746000000E+01 0.19008594890375E+00
 0.11646626000000E+01 0.85244113011042E+00
 s    1 1.00
 0.32723041000000E+00 0.10000000000000E+01
 s    1 1.00
 0.10307241000000E+00 0.10000000000000E+01
 p    1 1.00
 0.80000000000000E+00 0.10000000000000E+01
 p    1 1.00
 0.95774129632000E-01 0.10000000000000E+01
 
[MO]
 Sym= X
 Ene= -0.301987
 Spin= Alpha
 Occup= -0.301987
         1   -2.247379E-05
         2   -5.121763E-05
         3    1.268429E-04
         4   -1.759784E-04
         5   -9.662382E-03
         6   -4.720945E-04
         7   -1.375685E-04
         8   -1.570271E-04
         9   -1.895807E-01
        10   -5.653402E-04
        11   -3.255205E-05
        12   -1.900595E-01
        13    3.700482E-03
        14   -6.212403E-03
        15   -1.113685E-01
        16   -7.823166E-06
        17    2.458454E-06
        18    5.364712E-06
        19    1.536931E-06
        20   -4.980458E-03
        21   -5.491273E-04
        22   -9.879395E-05
        23    6.003436E-05
        24    3.875958E-05
        25    1.727988E-05
        26   -9.477174E-03
        27    3.916154E-04
        28    8.023190E-04
        29   -9.364622E-04
        30    1.341432E-04
        31    4.541218E-04
        32   -2.597558E-03
        33   -6.990597E-04
        34   -4.298902E-06
        35   -8.091006E-07
        36    1.174699E-03
        37    8.729282E-07
        38    1.449831E-07
        39   -1.419093E-03
        40    4.894654E-06
        41    9.405392E-07
        42   -1.569303E-04
        43    1.026872E-06
        44    1.654907E-07
        45    3.916195E-07
        46    4.262242E-07
        47   -3.249615E-05
        48    2.159864E-03
        49    1.186960E-04
        50   -1.314286E-06
        51    1.000086E-04
        52   -1.636405E-05
        53   -4.024396E-06
        54    2.029077E-04
        55   -9.282453E-06
        56    1.018064E-03
        57   -9.499833E-03
        58    4.686954E-05
        59   -3.228537E-08
        60   -1.072018E-07
        61    1.394871E-07
        62    1.003559E-05
        63   -2.097626E-07
        64    7.120815E-03
        65   -9.602319E-07
        66    2.576984E-06
        67   -1.616752E-06
        68    7.195987E-05
        69    2.473655E-06
        70    1.602917E-02
        71    1.823568E-05
        72    1.752262E-05
        73   -3.575830E-05
        74   -1.367644E-03
        75    1.001470E-05
        76    1.373084E-03
        77    4.655449E-08
        78    1.620762E-07
        79   -1.511429E-08
        80   -7.642979E-08
        81    1.700525E-06
        82    5.753870E-09
        83    1.397038E-08
        84   -1.917973E-06
        85    1.452408E-08
        86    1.013206E-03
        87    2.175188E-05
        88    4.973989E-05
        89   -1.236794E-04
        90    2.024263E-04
        91    5.888976E-03
        92    3.204842E-04
        93    1.378742E-04
        94   -1.532347E-04
        95    1.895719E-01
        96    5.226516E-04
        97   -2.511312E-05
        98    1.900492E-01
        99   -4.704107E-03
       100   -4.389417E-03
       101    1.112065E-01
       102    8.234088E-06
       103   -2.508810E-06
       104   -5.725278E-06
       105    1.256961E-06
       106    4.981965E-03
       107   -5.487912E-04
       108    8.477595E-05
       109   -5.115807E-05
       110   -3.361788E-05
       111    1.429716E-05
       112    9.479716E-03
       113    3.965640E-04
       114   -7.585547E-04
       115    8.401441E-04
       116   -8.158938E-05
       117    5.525801E-04
       118    2.566271E-03
       119   -6.620610E-04
       120    4.062213E-06
       121   -7.884449E-07
       122   -1.174689E-03
       123   -8.847618E-07
       124    2.917905E-07
       125    1.419358E-03
       126   -4.565268E-06
       127    7.660193E-07
       128    1.566529E-04
       129    7.893128E-07
       130   -1.426301E-05
       131   -3.386231E-05
       132    1.343718E-04
       133   -5.604834E-04
       134   -9.481104E-03
       135   -4.505020E-04
       136    1.413937E-04
       137    7.653521E-05
       138    2.002493E-01
       139    3.369955E-04
       140    1.594556E-04
       141    2.029543E-01
       142   -5.359607E-03
       143    6.642046E-03
       144    1.295911E-01
       145   -1.211081E-05
       146   -8.972040E-07
       147    1.300802E-05
       148    7.223829E-06
       149   -4.699766E-03
       150   -4.901650E-04
       151   -1.335476E-04
       152    4.099763E-05
       153    9.254996E-05
       154    6.966475E-05
       155   -8.401886E-03
       156   -7.562916E-04
       157    2.190135E-04
       158   -4.214581E-04
       159    2.024446E-04
       160    9.023574E-04
       161   -4.599882E-04
       162   -2.588773E-03
       163    5.073260E-06
       164    1.219704E-06
       165   -1.313700E-03
       166   -3.172421E-06
       167    5.216943E-07
       168    1.468068E-03
       169   -3.634072E-06
       170   -2.158099E-06
       171    2.944453E-04
       172   -4.669235E-05
       173    6.303470E-07
       174    1.300910E-06
       175    3.949996E-06
       176   -1.198974E-05
       177   -2.646010E-03
       178   -1.600614E-04
       179   -2.307593E-07
       180   -1.167369E-04
       181    1.125923E-05
       182    1.178302E-05
       183   -1.017573E-04
       184    4.050966E-06
       185    9.543288E-04
       186    1.415002E-02
       187   -1.038564E-05
       188    1.939650E-07
       189   -1.158765E-07
       190   -7.808851E-08
       191   -2.225475E-05
       192   -1.645966E-06
       193    7.486788E-03
       194   -2.273208E-07
       195   -6.071720E-06
       196    6.299041E-06
       197   -9.002897E-05
       198   -1.218183E-06
       199    1.558062E-02
       200   -2.058629E-05
       201   -3.851843E-05
       202    5.910473E-05
       203   -2.539232E-03
       204    1.626487E-06
       205   -3.009029E-03
       206   -1.186597E-07
       207    4.536580E-06
       208    8.706652E-08
       209    2.301868E-07
       210   -3.474155E-06
       211   -2.463282E-07
       212   -7.098811E-08
       213   -2.612306E-06
       214    1.295162E-07
       215   -1.182263E-03
       216    1.505588E-05
       217    3.560359E-05
       218   -1.455120E-04
       219    5.918171E-04
       220    1.382949E-02
       221    6.050178E-04
       222   -1.466297E-04
       223    7.887097E-05
       224   -2.002106E-01
       225   -3.779613E-04
       226    1.915446E-04
       227   -2.029124E-01
       228    4.691533E-03
       229    8.485969E-03
       230   -1.294114E-01
       231    1.220293E-05
       232    4.630235E-07
       233   -1.266596E-05
       234    7.500187E-06
       235    4.700305E-03
       236   -4.897665E-04
       237    1.438964E-04
       238   -4.432667E-05
       239   -9.956972E-05
       240    7.674043E-05
       241    8.403556E-03
       242   -7.513113E-04
       243   -2.757245E-04
       244    5.390463E-04
       245   -2.633218E-04
       246    8.114034E-04
       247    4.392127E-04
       248   -2.568695E-03
       249   -5.354445E-06
       250    1.382231E-06
       251    1.313556E-03
       252    3.352031E-06
       253    6.129164E-07
       254   -1.468169E-03
       255    3.831711E-06
       256   -2.467373E-06
       257   -2.941508E-04
       258   -4.647106E-05
       259    2.957401E-05
       260    2.358466E-05
       261   -7.809519E-04
       262   -9.901523E-06
       263   -1.634484E-06
       264   -7.767363E-03
       265    5.893958E-05
       266   -3.034103E-04
       267   -7.558383E-03
       268   -2.680068E-05
       269   -4.075077E-05
       270    1.745669E-04
       271    9.100774E-06
       272   -4.094342E-07
       273    7.766651E-03
       274   -9.624821E-05
       275   -1.509276E-04
       276    7.525193E-03
       277    1.113958E-05
       278    1.107397E-05
       279   -1.854471E-03
       280    1.410416E-05
       281    3.824612E-06
       282    8.597509E-03
       283    4.731697E-04
       284    1.499726E-04
       285    9.489311E-03
       286   -1.520890E-05
       287   -3.160274E-06
       288    2.254556E-03
       289   -1.485287E-05
       290    5.262043E-06
       291   -8.595959E-03
       292   -5.046581E-04
       293    2.865526E-04
       294   -9.482930E-03
       295   -7.189257E-09
       296    8.650779E-09
       297   -6.454168E-07
       298    2.670385E-06
       299    1.404386E-04
       300   -6.715980E-05
       301    5.838617E-08
       302   -1.026256E-05
       303    2.015881E-07
       304    1.441938E-06
       305    6.521920E-06
       306    1.723438E-07
       307    2.986578E-05
       308    2.532411E-04
       309   -1.273104E-06
       310    6.387560E-08
       311   -7.998768E-08
       312    1.611207E-08
       313   -5.395914E-07
       314   -3.182023E-07
       315   -5.839988E-04
       316    1.435369E-07
       317    1.271319E-07
       318   -2.706688E-07
       319    9.587872E-06
       320   -8.159725E-07
       321   -1.291741E-03
       322   -6.927825E-06
       323   -5.856869E-06
       324    1.278469E-05
       325    1.478768E-04
       326    3.599143E-07
       327   -2.063443E-03
       328    1.717522E-08
       329   -7.131529E-07
       330   -7.419281E-09
       331   -3.202201E-08
       332    2.006053E-06
       333   -4.228159E-08
       334    8.979042E-09
       335   -1.049258E-06
       336    5.223560E-08
       337    2.723468E-04
       338    8.081305E-07
       339    2.039905E-06
       340   -3.858003E-06
       341    5.197019E-06
       342   -1.830698E-05
       343   -2.280592E-05
       344   -8.817402E-05
       345   -5.866305E-06
       346   -2.273256E-02
       347   -7.764366E-05
       348   -2.291222E-06
       349   -2.142970E-02
       350   -1.530591E-04
       351   -4.312587E-05
       352   -1.489223E-02
       353   -1.957227E-05
       354   -9.638182E-06
       355    2.987027E-04
       356    8.974426E-08
       357   -1.727801E-07
       358    8.303586E-08
       359    5.306325E-07
       360   -3.770903E-05
       361    1.679752E-04
       362   -2.664264E-06
       363    6.461007E-07
       364    2.018163E-06
       365    3.448637E-06
       366   -1.702334E-04
       367    7.355886E-04
       368   -6.728111E-06
       369    1.639093E-05
       370   -9.662815E-06
       371    7.694315E-06
       372    4.215940E-04
       373   -3.449734E-04
       374    1.670870E-07
       375   -7.617160E-08
       376    1.836150E-05
       377   -2.431364E-07
       378    3.954104E-07
       379    2.650868E-05
       380    1.896564E-08
       381   -2.932155E-07
       382   -5.114321E-05
       383    5.866431E-05
       384   -7.256912E-07
       385   -1.856705E-06
       386    4.019609E-06
       387   -8.547453E-06
       388    5.455213E-05
       389    6.324651E-05
       390    8.546207E-05
       391   -5.168856E-06
       392    2.274346E-02
       393    7.607760E-05
       394   -2.522298E-06
       395    2.143963E-02
       396    1.483117E-04
       397   -3.390666E-05
       398    1.490089E-02
       399    2.432184E-05
       400   -4.723792E-06
       401   -2.988902E-04
       402   -7.484442E-08
       403    1.733708E-07
       404   -9.852636E-08
       405    4.911814E-07
       406    3.772013E-05
       407    1.680733E-04
       408    2.479372E-06
       409   -6.466192E-07
       410   -1.832753E-06
       411    3.348718E-06
       412    1.703474E-04
       413    7.359047E-04
       414    6.324972E-06
       415   -1.499856E-05
       416    8.673588E-06
       417    5.685006E-06
       418   -4.222606E-04
       419   -3.441805E-04
       420   -1.706966E-07
       421   -6.227646E-08
       422   -1.837588E-05
       423    2.226021E-07
       424    3.796797E-07
       425   -2.652462E-05
       426    6.411415E-09
       427   -2.961271E-07
       428    5.117846E-05
       429    5.869032E-05
       430   -9.987986E-07
       431   -2.409178E-06
       432    3.908982E-06
       433    8.487256E-07
       434   -1.929322E-05
       435    7.200319E-05
       436    1.327194E-06
       437   -8.502825E-04
       438   -4.156065E-05
       439    3.025337E-06
       440   -1.115059E-03
       441   -4.049460E-05
       442   -3.614781E-05
       443   -1.422449E-03
       444   -3.673165E-05
       445    3.537568E-08
       446   -3.148135E-08
       447   -3.894333E-09
       448    1.877821E-05
       449   -5.668316E-08
       450    2.984445E-04
       451    3.390781E-07
       452    4.572588E-07
       453   -7.963369E-07
       454   -5.104202E-05
       455   -3.799866E-08
       456    6.513793E-04
       457    1.208006E-05
       458   -2.823280E-06
       459   -9.256783E-06
       460   -6.383091E-04
       461    1.347541E-06
       462   -1.052866E-03
       463    5.595662E-09
       464   -3.928161E-06
       465    1.764335E-07
       466    2.131826E-08
       467   -1.411047E-05
       468   -1.245904E-07
       469   -2.882563E-08
       470    1.938065E-05
       471   -1.121201E-07
       472   -1.337132E-04
       473    6.082983E-05
       474    5.985035E-04
       475    3.985912E-03
       476   -6.483914E-05
       477   -8.184673E-05
       478    3.718201E-04
       479   -3.023219E-04
       480   -8.501718E-04
       481    1.911693E-03
       482   -6.403991E-05
       483   -6.071862E-04
       484   -3.982642E-03
       485    6.601156E-05
       486   -8.289266E-05
       487   -3.757663E-04
       488    2.851853E-04
       489   -8.601728E-04
       490   -1.914417E-03
 Sym= X
 Ene= -0.652654
 Spin= Alpha
 Occup= -0.652654
         1   -1.292206E-04
         2   -3.021805E-04
         3    9.095507E-04
         4   -2.254600E-03
         5   -1.102070E-02
         6   -9.189725E-03
         7    1.093842E-03
         8    1.311341E-04
         9    3.177705E-02
        10   -2.155953E-03
        11    2.828366E-04
        12    2.984516E-02
        13   -3.043678E-02
        14    9.099269E-03
        15    7.052623E-03
        16   -6.845073E-06
        17   -4.836130E-06
        18    1.168120E-05
        19   -4.523348E-06
        20   -6.520150E-03
        21    4.141562E-03
        22   -5.593537E-04
        23    3.326648E-04
        24    2.266889E-04
        25   -5.590591E-04
        26   -1.467924E-02
        27    7.760155E-03
        28   -4.559655E-03
        29    4.287989E-03
        30    2.716654E-04
        31    7.998977E-04
        32    9.169369E-04
        33   -9.374857E-03
        34   -1.708255E-05
        35    4.981469E-06
        36   -1.645411E-04
        37    7.390487E-06
        38   -5.153558E-06
        39   -6.865642E-04
        40    1.552816E-05
        41   -1.529784E-06
        42    9.073193E-04
        43   -7.452434E-04
        44    1.941734E-05
        45    4.258445E-05
        46    9.683335E-05
        47   -2.033744E-03
        48   -4.558360E-02
        49    4.036715E-03
        50    4.325914E-04
        51    1.177411E-06
        52    2.189609E-01
        53   -2.062125E-04
        54    2.102008E-05
        55    2.268789E-01
        56   -1.453069E-02
        57   -1.192223E-03
        58    2.055715E-01
        59    2.296333E-05
        60   -2.086831E-05
        61   -2.095021E-06
        62    9.562346E-08