 hostname is         n02
 this is node-proc. number 0 running on node n02
 the total number of node-proc. spawned is   1

 ricc2 (n02) : TURBOMOLE V6.6( 19125 ) 27 May 2014 at 14:24:19
 Copyright (C) 2014 TURBOMOLE GmbH, Karlsruhe


    2024-04-18 18:06:05.758 



                              R I C C 2 - PROGRAM

                          the quantum chemistry groups
                             at the universities in
                           Karlsruhe, Bochum & Mainz
                                   Germany



   *-----------------------------------------------------------------------*
   |                     program will use  1 thread(s)                     |
   *-----------------------------------------------------------------------*


              +--------------------------------------------------+
              | Atomic coordinate, charge and isotop information |
              +--------------------------------------------------+

                    atomic coordinates            atom    charge  isotop
          2.62715396    0.00000000    0.00000000    c      6.000     0
          0.00000000    0.00000000    0.00000000    c      6.000     0
         -1.34248034    2.25824163    0.00000000    c      6.000     0
         -0.06302237    4.51094635    0.00056692    c      6.000     0
          2.59336566    4.55873753    0.00249444    c      6.000     0
          3.90971109    2.25090949    0.00056692    c      6.000     0
          3.63910231   -1.77057890    0.00147399    h      1.000     0
         -3.38155153    2.22333838    0.00147399    h      1.000     0
         -1.09938597    6.27304038   -0.00066140    h      1.000     0
          5.95399792    2.26052819   -0.00058582    h      1.000     0
         -1.34232916   -2.35962543    0.00300466    n      7.000     0
         -3.65236818   -2.32113171    0.00430858    o      8.000     0
         -0.12880373   -4.32558312    0.00430858    o      8.000     0
          3.85736567    6.78060193   -0.03705753    n      7.000     0
          2.92680783    8.41653784    0.21238632    h      1.000     0
          5.73909827    6.81669570    0.21240522    h      1.000     0
          1.27418564   11.45750403   -0.30171367    o      8.000     0
          0.21922713   11.76528373    1.23569192    h      1.000     0
          2.24454111   13.02331221   -0.72346275    h      1.000     0
          2.79807969   -8.34115666   -2.19323505    o      8.000     0
          1.66403614   -6.86643329   -1.86073773    h      1.000     0
          3.26472866   -8.37658903   -4.02415290    h      1.000     0
          2.02508722    7.15421968   -5.23919011    o      8.000     0
          2.55264206    7.46610008   -3.45156588    h      1.000     0
          0.93824902    8.58151093   -5.83328222    h      1.000     0
         -2.56295996   -7.52764846    3.97498223    o      8.000     0
         -1.38303386   -6.50523103    2.91019714    h      1.000     0
         -3.17850046   -9.01399365    2.98342403    h      1.000     0
          9.39779703    7.22576471    1.43919653    o      8.000     0
          9.88534637    9.01010082    1.05231289    h      1.000     0
          9.57021564    6.91407328    3.29511546    h      1.000     0
         -7.64101313   -6.59599458   -1.27191797    o      8.000     0
         -6.96466125   -4.85347811   -0.99354241    h      1.000     0
         -6.33050696   -7.64998933   -2.13384095    h      1.000     0
          4.02955752   -3.63003162    4.87288560    o      8.000     0
          5.19551854   -4.02394503    3.43879134    h      1.000     0
          3.41779648   -5.24132550    5.64801347    h      1.000     0
          6.85165563   -2.35000673   -3.86411200    o      8.000     0
          6.79543628   -0.59917546   -4.57308055    h      1.000     0
          8.31247062   -2.50126041   -2.67481285    h      1.000     0
         12.01217644    4.06022777   -1.29467027    o      8.000     0
         10.70624341    5.06187711   -0.36598326    h      1.000     0
         13.73500197    4.60482795   -0.74096162    h      1.000     0
         -5.65003547    9.23575302    2.95301834    o      8.000     0
         -6.61111239    7.77474905    3.66933792    h      1.000     0
         -3.86348839    9.17575421    3.56612108    h      1.000     0
         -1.49919533   11.01511914   -4.55722575    o      8.000     0
         -1.72668056   12.78465869   -5.18026845    h      1.000     0
         -0.72559814   11.04892634   -2.83337977    h      1.000     0
          1.06624018    0.30851669    6.08782833    o      8.000     0
          2.16112860   -1.03269754    5.33038830    h      1.000     0
          2.13125203    1.48727116    7.11137959    h      1.000     0
         -4.60392088    6.84946355   -5.20188692    o      8.000     0
         -3.17560918    8.02725426   -4.82235432    h      1.000     0
         -6.07376876    7.26255768   -4.08825241    h      1.000     0
         -1.45601509    8.45624099    5.55382952    o      8.000     0
         -0.62721900    6.75813308    5.52614503    h      1.000     0
         -0.13216745    9.80174489    5.64510329    h      1.000     0
         11.31671943   -1.60180746   -1.06013636    o      8.000     0
         11.26114259    0.28275972   -1.18909127    h      1.000     0
         13.01057545   -2.22197778   -1.62359600    h      1.000     0
         -9.88685815    1.09617344    0.83227318    o      8.000     0
        -11.74466681    1.31468247    0.56398876    h      1.000     0
         -9.16347099    2.68594334    1.55386511    h      1.000     0
          1.38681332    1.89756850   -6.25348172    o      8.000     0
          1.57070257    3.76851075   -6.06091863    h      1.000     0
         -0.41447363    1.40809163   -5.95841988    h      1.000     0
 
       center of nuclear mass  :    0.96765821    1.92236058   -0.21126977
       center of nuclear charge:    1.01186003    2.00110316   -0.20459276

              +--------------------------------------------------+
              |               basis set information              |
              +--------------------------------------------------+

              we will work with the 1s 3p 5d 7f 9g ... basis set
              ...i.e. with spherical basis functions...

   type   atoms  prim   cont   basis
   ---------------------------------------------------------------------------
    c        6     52     37   def2-TZVPD   [6s3p3d1f|12s6p3d1f]
    h        6     11      9   def2-TZVPD   [3s2p|5s2p]
    n        2     52     37   def2-TZVPD   [6s3p3d1f|12s6p3d1f]
    o        2     55     40   def2-TZVPD   [6s4p3d1f|12s7p3d1f]
    o       17     24     14   def-SV(P)   [3s2p1d|7s4p1d]
    h       34      4      2   def-SV(P)   [2s|4s]
   ---------------------------------------------------------------------------
   total:   67   1136    736
   ---------------------------------------------------------------------------

   total number of primitive shells          :   90
   total number of contracted shells         :  332
   total number of cartesian basis functions :  813
   total number of SCF-basis functions       :  736



   =========================================================================


     restricted closed shell calculation for the wavefunction models:
               ADC(2)     - Algebraic Diagrammatic Construction to 2. Order (strict)


     global parameters for ricc2 program:

        hard restart (reuse of interm.) :  disabled
        soft restart (reuse of vectors) :  disabled
        threshold for vector function   :    0.100000E-05
        convergence threshold energy    :    0.100000E-06
        linear dependence threshold     :    0.100000E-13
        global print level              :      1
        maximum number of iterations    :   300
        maximum number DIIS vectors     :    10
        max. dim. of reduced space      :   100
        core memory limit (MB)          :   500
        disk space limit (MB)           :   none


   =========================================================================

------------------------------------------------------------------------
 point charges
------------------------------------------------------------------------

 number of point charges read in =       3186

 distance threshold set to   0.10D-05

No check for symmetry or overlap of point charges - nocheck keyword found !

     "cartesian on" in $drvopt is ignored by $ricc2

    der. integral neglect threshold  :  0.10E-07
    integral neglect threshold       :  0.41E-11
    integral storage threshold THIZE :  0.10E-04
    integral storage threshold THIME :         5


                  +------------------------------------------+
                  |     Auxiliary basis set information      |
                  +------------------------------------------+

              we will work with the 1s 3p 5d 7f 9g ... basis set
              ...i.e. with spherical basis functions...

   type   atoms  prim   cont   basis
   ---------------------------------------------------------------------------
    c        6     97     92   def2-TZVPD   [9s7p5d4f1g|9s7p6d4f1g]
    h        6     32     24   def2-TZVPD   [5s3p2d|5s4p3d]
    n        2     97     92   def2-TZVPD   [9s7p5d4f1g|9s7p6d4f1g]
    o        2     97     92   def2-TZVPD   [9s7p5d4f1g|9s7p6d4f1g]
    o       17     72     48   def-SV(P)   [6s5p4d1f|8s6p5d3f]
    h       34     23     14   def-SV(P)   [3s2p1d|4s3p2d]
   ---------------------------------------------------------------------------
   total:   67   3168   2356
   ---------------------------------------------------------------------------

   total number of primitive shells          :  124
   total number of contracted shells         :  796
   total number of cartesian basis functions : 2751
   total number of SCF-basis functions       : 2356


 symmetry group of the molecule :   c1 

 the group has the following generators :
   c1(z)

    1 symmetry operations found

 there are 1 real representations :   a   

 maximum number of shells which are related by symmetry :  1


 The symmetry information takes   1 MB

*---------------------------------------------------------------------*
|               simplified C1 algorithm will be applied               |
*---------------------------------------------------------------------*
  MOs are in ASCII format !


 reading orbital data $scfmo  from file mos . 

 orbital characterization : scfconv=7
 

         --------------------------------------------------------------
                   checking mo's by calculating trace(D*S)

              number of electrons : 
                 from trace(D*S)         :  241.999999999998
                 from occupation numbers :  242.000000000000

              molecular charge           :    0.000000000000
         --------------------------------------------------------------

 time elapsed for calculating density matrices :   0.022 sec



              +--------------------------------------------+
              | list of orbitals that will be kept frozen: |
              +--------------------------------------------+
              |   irrep   index      energy     occ/vir    |
              +--------------------------------------------+
              |   a         1      -20.6227     occupied   |
              |   a         2      -20.6083     occupied   |
              |   a         3      -20.6078     occupied   |
              |   a         4      -20.6057     occupied   |
              |   a         5      -20.5884     occupied   |
              |   a         6      -20.5875     occupied   |
              |   a         7      -20.5809     occupied   |
              |   a         8      -20.5744     occupied   |
              |   a         9      -20.5743     occupied   |
              |   a        10      -20.5738     occupied   |
              |   a        11      -20.5645     occupied   |
              |   a        12      -20.5595     occupied   |
              |   a        13      -20.5586     occupied   |
              |   a        14      -20.5584     occupied   |
              |   a        15      -20.5574     occupied   |
              |   a        16      -20.5494     occupied   |
              |   a        17      -20.5367     occupied   |
              |   a        18      -20.5256     occupied   |
              |   a        19      -20.5179     occupied   |
              |   a        20      -15.8627     occupied   |
              |   a        21      -15.5703     occupied   |
              |   a        22      -11.3073     occupied   |
              |   a        23      -11.2768     occupied   |
              |   a        24      -11.2617     occupied   |
              |   a        25      -11.2601     occupied   |
              |   a        26      -11.2325     occupied   |
              |   a        27      -11.2309     occupied   |
              +--------------------------------------------+



   Molecular Orbital Statistic:
   ============================

   -----------------------------
   orbitals in total:
   -----------------------------
    frozen occupied :     27
    active occupied :     94
    active virtual  :    615
    frozen virtual  :      0
    all together    :    736
   -----------------------------


     time in riccmos       cpu:  0.16 sec    wall:  0.58 sec    ratio:  0.3

     total memory allocated for calculation of (Q|P)**(-1/2) : 64 MiB


     calculation of (P|Q) ...
     time in lp2sym        cpu:  0.06 sec    wall:  0.06 sec    ratio:  1.0


     calculation of the Cholesky decomposition of (P|Q)**(-1) ...
     time in invmetri      cpu:  0.28 sec    wall:  0.73 sec    ratio:  0.4

   threshold for RMS(d[D]) in SCF was     :  0.10E-06
   integral neglect threshold             :  0.41E-11
   derivative integral neglect threshold  :  0.10E-07


 setting up bound for integral derivative estimation

 increment for numerical differentiation : 0.00050000

   =========================================================================

     Energy of reference wave function is -1780.9504670940000
     Maximum orbital residual is           0.1498524407474E-04


     Number of symmetry-nonredundant auxiliary basis functions:     2356

     Block lengths for integral files:
        frozen occupied (BOI):        1 MiB
        active occupied (BJI):        2 MiB
        active virtual  (BAI):       12 MiB
        frozen virtual  (BGI):        0 MiB
               general  (BTI):       14 MiB

   =========================================================================




   **************************************************************************
   *                                                                        *
   *          OPTIMIZATION OF THE GROUND STATE CLUSTER AMPLITUDES           *
   *                                                                        *
   **************************************************************************


   Iter.   MP2 energy       Norm(Omega)    Norm(t1)  Norm(t2)     cpu    wall
   ...........................................................................
    1  -1786.1439477612    0.2025223670     0.00000   0.72398    6.16    9.19
   ...........................................................................


     time in total         cpu:  6 min 10 s  wall:  9 min 12 s  ratio:  0.7


     **********************************************************************
     *                                                                    *
     *   RHF  energy                             :  -1780.9504670940      *
     *   MP2 correlation energy                  :     -5.1934806672      *
     *                                                                    *
     *   Final MP2 energy                        :  -1786.1439477612      *
     *                                                                    *
     *   Norm of MP1 T2 amplitudes               :      0.7239773380      *
     *                                                                    *
     *   D1 diagnostic                           :      0.0599            *
     *                                                                    *
     **********************************************************************



 **************************************************************
 *                                                            *
 *    OPTIMIZATION OF THE EXCITED STATE CLUSTER AMPLITUDES    *
 *                                                            *
 **************************************************************


  preoptimize excitation energies/vectors using CCS:

  ==================================================


 ======== LINEAR CC RESPONSE SOLVER ========

    threshold for convergence: 0.10E-02
    maximum number of simultaneous jacoby matrix transformations: 10
                                                
     summary of start vectors generation:
     -------------------------------------------
     type of solution vectors      : RE0
     symmetry                      : a  
     number of vectors requested   :    10
     number of vectors generated   :    10
       -- guessed as rhs/(e_a-e_i) :    10
     -------------------------------------------
                                                

    Iter  #Vectors  time (min)    max. residual 
    --------------------------------------------
      1      10         8.16     0.15E+00  (  1)
      2      10         8.21     0.52E-01  (  1)
      3      10         7.82     0.62E-01  (  5)
      4      10         7.86     0.61E-01  (  8)
      5      10         7.74     0.79E-01  (  7)
      6       9         6.75     0.12E+00  (  3)
      7       8         6.07     0.96E-01  (  4)
      8       9         6.91     0.25E-01  (  4)
      9       7         5.40     0.71E-02  (  4)
     10       4         3.09     0.23E-02  (  4)
     11       3         2.56     0.85E-03  (  4)
    --------------------------------------------
    converged in 11 iterations

         Total time         70.63 minutes


 ===========================================




 Note that this is the intermediate result of a preoptimization!
 The convergence threshold was  0.1E-02 only!


 +==================================================================+
 | sym | multi | state |          CCS excitation energies           |
 |     |       |       +--------------------------------------------+
 |     |       |       |   Hartree    |     eV       |     cm-1     |
 +==================================================================+
 | a   |   1   |   1   |    0.1754290 |      4.77367 |    38502.220 |
 | a   |   1   |   2   |    0.1988752 |      5.41167 |    43648.055 |
 | a   |   1   |   3   |    0.2010460 |      5.47074 |    44124.504 |
 | a   |   1   |   4   |    0.2181685 |      5.93667 |    47882.452 |
 | a   |   1   |   5   |    0.2450161 |      6.66723 |    53774.816 |
 | a   |   1   |   6   |    0.2568313 |      6.98874 |    56367.956 |
 | a   |   1   |   7   |    0.2676196 |      7.28230 |    58735.703 |
 | a   |   1   |   8   |    0.2741724 |      7.46061 |    60173.880 |
 | a   |   1   |   9   |    0.2854801 |      7.76831 |    62655.633 |
 | a   |   1   |  10   |    0.2891843 |      7.86910 |    63468.614 |
 +==================================================================+




  preoptimize ADC(2) excitation energies/vectors using a quasi linear algorithm:
  ==============================================================================


 ======== LINEAR CC RESPONSE SOLVER ========

    threshold for convergence: 0.10E-02
    maximum number of simultaneous jacoby matrix transformations: 10
                                                
     summary of start vectors generation:
     -------------------------------------------
     type of solution vectors      : RE0
     symmetry                      : a  
     number of vectors requested   :    10
     number of vectors generated   :    10
       -- restarted from file      :    10
     -------------------------------------------
                                                

    Iter  #Vectors  time (min)    max. residual 
    --------------------------------------------
 threshold for this macro iteration:  5.693164298642278E-002
      1      10       141.64     0.95E-01  (  6)
 ...adapted threshold to:  6.536438769036226E-002
      2       8       105.15     0.39E-01  (  8)
                                                
     summary of start vectors generation:
     -------------------------------------------
     type of solution vectors      : RE0
     symmetry                      : a  
     number of vectors requested   :    10
     number of vectors generated   :    10
       -- restarted from file      :    10
     -------------------------------------------
                                                

    Iter  #Vectors  time (min)    max. residual 
    --------------------------------------------
 threshold for this macro iteration:  8.696629070594736E-003
      3      10       132.01     0.39E-01  ( 10)
      4      10       131.54     0.32E-01  ( 10)
 ...adapted threshold to:  1.169948118276695E-002
      5       8       102.38     0.68E-01  (  9)
 ...adapted threshold to:  1.618579095490383E-002
      6       3        41.50     0.26E-01  (  8)
 ...adapted threshold to:  1.688574739336129E-002
      7       2        26.45     0.26E-01  (  8)
 ...adapted threshold to:  1.720643664535232E-002
      8       1        12.88     0.13E-01  (  8)
                                                
     summary of start vectors generation:
     -------------------------------------------
     type of solution vectors      : RE0
     symmetry                      : a  
     number of vectors requested   :    10
     number of vectors generated   :    10
       -- restarted from file      :    10
     -------------------------------------------
                                                

    Iter  #Vectors  time (min)    max. residual 
    --------------------------------------------
 threshold for this macro iteration:  1.000000000000000E-003
      9      10       132.23     0.13E-01  (  8)
     10       8       104.07     0.49E-02  (  8)
     11       6        78.65     0.42E-02  (  8)
     12       4        52.16     0.36E-02  ( 10)
     13       2        27.47     0.11E-01  ( 10)
 ...adapted threshold to:  1.427272621182973E-003
     14       2        27.45     0.17E-01  ( 10)
 ...adapted threshold to:  2.084187020980760E-003
     15       1        12.50     0.11E-01  ( 10)
 ...adapted threshold to:  2.327258842009849E-003
     16       1        13.83     0.53E-02  ( 10)
 ...adapted threshold to:  2.417153836706348E-003
     17       1        13.38     0.37E-02  ( 10)
 ...adapted threshold to:  2.452027233634968E-003
     18       1        12.27     0.21E-02  ( 10)
                                                
     summary of start vectors generation:
     -------------------------------------------
     type of solution vectors      : RE0
     symmetry                      : a  
     number of vectors requested   :    10
     number of vectors generated   :    10
       -- restarted from file      :    10
     -------------------------------------------
                                                

    Iter  #Vectors  time (min)    max. residual 
    --------------------------------------------
 threshold for this macro iteration:  4.036127947604440E-003
     19      10       131.37     0.19E-02  ( 10)
                                                
     summary of start vectors generation:
     -------------------------------------------
     type of solution vectors      : RE0
     symmetry                      : a  
     number of vectors requested   :    10
     number of vectors generated   :    10
       -- restarted from file      :    10
     -------------------------------------------
                                                

    Iter  #Vectors  time (min)    max. residual 
    --------------------------------------------
 threshold for this macro iteration:  1.000000000000000E-003
     20      10       136.06     0.18E-02  ( 10)
     21       1        13.01     0.27E-02  ( 10)
     22       1        12.61     0.22E-02  ( 10)
     23       1        12.38     0.20E-02  ( 10)
     24       1        12.69     0.17E-02  ( 10)
     25       1        12.44     0.13E-02  ( 10)
     26       1        12.49     0.94E-03  ( 10)
    --------------------------------------------
    converged in 26 iterations

         Total time       1510.74 minutes


 ===========================================




 Note that this is the intermediate result of a preoptimization!
 The convergence threshold was  0.1E-02 only!


 +==================================================================+
 | sym | multi | state |          ADC(2) excitation energies        |
 |     |       |       +--------------------------------------------+
 |     |       |       |   Hartree    |     eV       |     cm-1     |
 +==================================================================+
 | a   |   1   |   1   |    0.1229590 |      3.34588 |    26986.384 |
 | a   |   1   |   2   |    0.1393843 |      3.79284 |    30591.315 |
 | a   |   1   |   3   |    0.1614657 |      4.39371 |    35437.631 |
 | a   |   1   |   4   |    0.1690135 |      4.59909 |    37094.177 |
 | a   |   1   |   5   |    0.1858819 |      5.05810 |    40796.369 |
 | a   |   1   |   6   |    0.2143873 |      5.83378 |    47052.577 |
 | a   |   1   |   7   |    0.2171085 |      5.90782 |    47649.803 |
 | a   |   1   |   8   |    0.2248191 |      6.11764 |    49342.087 |
 | a   |   1   |   9   |    0.2338724 |      6.36399 |    51329.063 |
 | a   |   1   |  10   |    0.2422485 |      6.59192 |    53167.407 |
 +==================================================================+





  solve for ADC(2) excitation energies/vectors using a DIIS algorithm:
  =================================================================
                                                
     summary of start vectors generation:
     -------------------------------------------
     type of solution vectors      : RE0
     symmetry                      : a  
     number of vectors requested   :    10
     number of vectors generated   :    10
       -- restarted from file      :    10
     -------------------------------------------
                                                


 ========= DIIS CC RESPONSE SOLVER =========

    threshold for convergence:0.10E-05
    max. nb. of DIIS vectors :      10
    maximum number of simultaneous jacoby matrix transformations: 10

    Iter  #Vectors  time (min)   residual
    --------------------------------------
      1      10       132.51     0.47E-03  ( 10)    0.43E-02
      2      10       131.93     0.40E-03  ( 10)    0.38E-02
      3      10       134.66     0.32E-03  ( 10)    0.40E-02
      4      10       127.44     0.29E-03  ( 10)    0.39E-02
      5       7        90.42     0.23E-03  ( 10)    0.39E-02
      6       6        77.89     0.13E-03  ( 10)    0.40E-02
      7       5        65.18     0.72E-04  ( 10)    0.39E-02
      8       4        51.55     0.41E-04  ( 10)    0.40E-02
      9       3        41.87     0.26E-04  ( 10)    0.39E-02
     10       3        40.21     0.15E-04  ( 10)    0.40E-02
     11       2        26.04     0.10E-04  ( 10)    0.39E-02
     12       1        12.74     0.70E-05  ( 10)    0.39E-02
     13       1        12.48     0.55E-05  ( 10)    0.39E-02
     14       1        12.11     0.42E-05  ( 10)    0.39E-02
     15       1        12.63     0.35E-05  ( 10)    0.39E-02
     16       1        12.27     0.28E-05  ( 10)    0.39E-02
     17       1        12.39     0.23E-05  ( 10)    0.39E-02
     18       1        12.98     0.17E-05  ( 10)    0.39E-02
     19       1        12.29     0.12E-05  ( 10)    0.39E-02
     20       1        12.39     0.89E-06  ( 10)    0.39E-02
    --------------------------------------
    converged in  20 iterations

   Total time       1031.98 minutes


 ===========================================





 +================================================================================+
 | sym | multi | state |          ADC(2) excitation energies    |  %t1   |  %t2   |
 |     |       |       +----------------------------------------+--------+--------+
 |     |       |       |   Hartree    |    eV      |    cm-1    |    %   |    %   |
 +================================================================================+
 | a   |   1   |   1   |    0.1229632 |    3.34600 |  26987.296 |  86.77 |  13.23 |
 | a   |   1   |   2   |    0.1393855 |    3.79287 |  30591.584 |  89.60 |  10.40 |
 | a   |   1   |   3   |    0.1614683 |    4.39378 |  35438.203 |  88.35 |  11.65 |
 | a   |   1   |   4   |    0.1690141 |    4.59911 |  37094.313 |  89.97 |  10.03 |
 | a   |   1   |   5   |    0.1858848 |    5.05818 |  40797.008 |  88.35 |  11.65 |
 | a   |   1   |   6   |    0.2143887 |    5.83381 |  47052.884 |  88.65 |  11.35 |
 | a   |   1   |   7   |    0.2171095 |    5.90785 |  47650.038 |  89.09 |  10.91 |
 | a   |   1   |   8   |    0.2248150 |    6.11753 |  49341.198 |  86.02 |  13.98 |
 | a   |   1   |   9   |    0.2338724 |    6.36399 |  51329.050 |  90.39 |   9.61 |
 | a   |   1   |  10   |    0.2421712 |    6.58981 |  53150.441 |  85.80 |  14.20 |
 +================================================================================+


       Energy:     0.1229632 H      3.34600 eV    26987.296 cm-1

     +=======================================================================+
     | type: RE0                    symmetry: a               state:    1    |
     +-----------------------+-----------------------+-----------------------+
     | occ. orb.  index spin | vir. orb.  index spin |  coeff/|amp|     %    |
     +=======================+=======================+=======================+
     |  121 a      121       |  122 a      122       |   0.97041      94.2   |
     |  120 a      120       |  126 a      126       |  -0.07151       0.5   |
     |  121 a      121       |  128 a      128       |  -0.06807       0.5   |
     +=======================+=======================+=======================+
     norm of printed elements:  0.95144


       Energy:     0.1393855 H      3.79287 eV    30591.584 cm-1

     +=======================================================================+
     | type: RE0                    symmetry: a               state:    2    |
     +-----------------------+-----------------------+-----------------------+
     | occ. orb.  index spin | vir. orb.  index spin |  coeff/|amp|     %    |
     +=======================+=======================+=======================+
     |  111 a      111       |  122 a      122       |  -0.66047      43.6   |
     |  114 a      114       |  122 a      122       |   0.60543      36.7   |
     |  108 a      108       |  122 a      122       |   0.16146       2.6   |
     |  113 a      113       |  122 a      122       |   0.13547       1.8   |
     |  111 a      111       |  134 a      134       |  -0.10584       1.1   |
     |  111 a      111       |  131 a      131       |   0.10228       1.0   |
     |  109 a      109       |  122 a      122       |   0.09989       1.0   |
     |  114 a      114       |  134 a      134       |   0.09561       0.9   |
     |  114 a      114       |  131 a      131       |  -0.09210       0.8   |
     |  110 a      110       |  122 a      122       |  -0.09013       0.8   |
     |  111 a      111       |  139 a      139       |  -0.07311       0.5   |
     |   83 a       83       |  122 a      122       |  -0.06633       0.4   |
     |  114 a      114       |  139 a      139       |   0.06598       0.4   |
     |  111 a      111       |  132 a      132       |  -0.06116       0.4   |
     |  102 a      102       |  122 a      122       |   0.05712       0.3   |
     |   99 a       99       |  122 a      122       |  -0.05623       0.3   |
     |   98 a       98       |  122 a      122       |   0.05563       0.3   |
     |  114 a      114       |  132 a      132       |   0.05533       0.3   |
     |  105 a      105       |  122 a      122       |   0.05355       0.3   |
     |  111 a      111       |  136 a      136       |  -0.05154       0.3   |
     +=======================+=======================+=======================+
     norm of printed elements:  0.94052


       Energy:     0.1614683 H      4.39378 eV    35438.203 cm-1

     +=======================================================================+
     | type: RE0                    symmetry: a               state:    3    |
     +-----------------------+-----------------------+-----------------------+
     | occ. orb.  index spin | vir. orb.  index spin |  coeff/|amp|     %    |
     +=======================+=======================+=======================+
     |  120 a      120       |  122 a      122       |   0.85694      73.4   |
     |  121 a      121       |  126 a      126       |   0.42578      18.1   |
     |  121 a      121       |  128 a      128       |   0.12876       1.7   |
     |  121 a      121       |  124 a      124       |   0.09957       1.0   |
     |  120 a      120       |  128 a      128       |  -0.08871       0.8   |
     |  121 a      121       |  125 a      125       |   0.08268       0.7   |
     +=======================+=======================+=======================+
     norm of printed elements:  0.95683


       Energy:     0.1690141 H      4.59911 eV    37094.313 cm-1

     +=======================================================================+
     | type: RE0                    symmetry: a               state:    4    |
     +-----------------------+-----------------------+-----------------------+
     | occ. orb.  index spin | vir. orb.  index spin |  coeff/|amp|     %    |
     +=======================+=======================+=======================+
     |  109 a      109       |  122 a      122       |   0.82351      67.8   |
     |  102 a      102       |  122 a      122       |  -0.21116       4.5   |
     |  105 a      105       |  122 a      122       |   0.20190       4.1   |
     |  111 a      111       |  122 a      122       |   0.18762       3.5   |
     |  108 a      108       |  122 a      122       |   0.17428       3.0   |
     |   77 a       77       |  122 a      122       |   0.12441       1.5   |
     |  109 a      109       |  134 a      134       |   0.12329       1.5   |
     |  109 a      109       |  131 a      131       |  -0.11952       1.4   |
     |   99 a       99       |  122 a      122       |  -0.09732       0.9   |
     |   86 a       86       |  122 a      122       |   0.09175       0.8   |
     |  109 a      109       |  139 a      139       |   0.08383       0.7   |
     |   89 a       89       |  122 a      122       |  -0.08276       0.7   |
     |  109 a      109       |  132 a      132       |   0.07180       0.5   |
     |   54 a       54       |  122 a      122       |   0.06895       0.5   |
     |   98 a       98       |  122 a      122       |   0.06840       0.5   |
     |  109 a      109       |  136 a      136       |   0.06118       0.4   |
     |   88 a       88       |  122 a      122       |  -0.06043       0.4   |
     |   90 a       90       |  122 a      122       |   0.05650       0.3   |
     |   92 a       92       |  122 a      122       |  -0.05577       0.3   |
     |  109 a      109       |  128 a      128       |  -0.05464       0.3   |
     +=======================+=======================+=======================+
     norm of printed elements:  0.93709


       Energy:     0.1858848 H      5.05818 eV    40797.008 cm-1

     +=======================================================================+
     | type: RE0                    symmetry: a               state:    5    |
     +-----------------------+-----------------------+-----------------------+
     | occ. orb.  index spin | vir. orb.  index spin |  coeff/|amp|     %    |
     +=======================+=======================+=======================+
     |  121 a      121       |  126 a      126       |   0.74071      54.9   |
     |  120 a      120       |  122 a      122       |  -0.45101      20.3   |
     |  121 a      121       |  128 a      128       |   0.21601       4.7   |
     |  121 a      121       |  124 a      124       |   0.19076       3.6   |
     |  116 a      116       |  122 a      122       |  -0.17582       3.1   |
     |  121 a      121       |  125 a      125       |   0.14405       2.1   |
     |  120 a      120       |  134 a      134       |  -0.10284       1.1   |
     |  120 a      120       |  131 a      131       |   0.10162       1.0   |
     |  121 a      121       |  123 a      123       |  -0.09112       0.8   |
     |  120 a      120       |  139 a      139       |  -0.07923       0.6   |
     |  121 a      121       |  129 a      129       |   0.07616       0.6   |
     |  121 a      121       |  127 a      127       |   0.07360       0.5   |
     |  119 a      119       |  126 a      126       |   0.06833       0.5   |
     |  121 a      121       |  134 a      134       |  -0.06621       0.4   |
     |  120 a      120       |  132 a      132       |  -0.05828       0.3   |
     |  120 a      120       |  136 a      136       |  -0.05470       0.3   |
     |  121 a      121       |  133 a      133       |  -0.04834       0.2   |
     |  121 a      121       |  136 a      136       |  -0.04810       0.2   |
     |  120 a      120       |  129 a      129       |  -0.04736       0.2   |
     |  121 a      121       |  135 a      135       |   0.04718       0.2   |
     +=======================+=======================+=======================+
     norm of printed elements:  0.95803


       Energy:     0.2143887 H      5.83381 eV    47052.884 cm-1

     +=======================================================================+
     | type: RE0                    symmetry: a               state:    6    |
     +-----------------------+-----------------------+-----------------------+
     | occ. orb.  index spin | vir. orb.  index spin |  coeff/|amp|     %    |
     +=======================+=======================+=======================+
     |  116 a      116       |  122 a      122       |   0.90503      81.9   |
     |  119 a      119       |  122 a      122       |  -0.18242       3.3   |
     |  120 a      120       |  122 a      122       |  -0.11530       1.3   |
     |  116 a      116       |  131 a      131       |  -0.11320       1.3   |
     |  121 a      121       |  126 a      126       |   0.09951       1.0   |
     |  115 a      115       |  122 a      122       |   0.09733       0.9   |
     |  116 a      116       |  134 a      134       |   0.09713       0.9   |
     |  118 a      118       |  122 a      122       |  -0.06215       0.4   |
     |  116 a      116       |  132 a      132       |   0.05953       0.4   |
     |  116 a      116       |  129 a      129       |   0.05679       0.3   |
     |  119 a      119       |  126 a      126       |   0.05657       0.3   |
     |  116 a      116       |  139 a      139       |   0.05610       0.3   |
     |  116 a      116       |  136 a      136       |   0.05412       0.3   |
     |  121 a      121       |  128 a      128       |   0.04783       0.2   |
     |  121 a      121       |  124 a      124       |   0.04343       0.2   |
     |  111 a      111       |  123 a      123       |  -0.03603       0.1   |
     |  116 a      116       |  142 a      142       |  -0.03234       0.1   |
     |  116 a      116       |  140 a      140       |  -0.03158       0.1   |
     |  116 a      116       |  135 a      135       |  -0.03079       0.1   |
     |  114 a      114       |  123 a      123       |   0.03010       0.1   |
     +=======================+=======================+=======================+
     norm of printed elements:  0.93656


       Energy:     0.2171095 H      5.90785 eV    47650.038 cm-1

     +=======================================================================+
     | type: RE0                    symmetry: a               state:    7    |
     +-----------------------+-----------------------+-----------------------+
     | occ. orb.  index spin | vir. orb.  index spin |  coeff/|amp|     %    |
     +=======================+=======================+=======================+
     |  119 a      119       |  122 a      122       |  -0.56363      31.8   |
     |  121 a      121       |  131 a      131       |  -0.44401      19.7   |
     |  121 a      121       |  134 a      134       |   0.30202       9.1   |
     |  121 a      121       |  129 a      129       |   0.28822       8.3   |
     |  121 a      121       |  139 a      139       |   0.19397       3.8   |
     |  120 a      120       |  126 a      126       |   0.19150       3.7   |
     |  121 a      121       |  132 a      132       |   0.18904       3.6   |
     |  121 a      121       |  123 a      123       |   0.16765       2.8   |
     |  121 a      121       |  136 a      136       |   0.15663       2.5   |
     |  121 a      121       |  124 a      124       |  -0.13584       1.8   |
     |  116 a      116       |  122 a      122       |  -0.11437       1.3   |
     |  121 a      121       |  140 a      140       |  -0.10187       1.0   |
     |  121 a      121       |  128 a      128       |   0.09714       0.9   |
     |  121 a      121       |  135 a      135       |  -0.07496       0.6   |
     |  121 a      121       |  137 a      137       |  -0.07142       0.5   |
     |  118 a      118       |  122 a      122       |  -0.07139       0.5   |
     |  120 a      120       |  128 a      128       |   0.06110       0.4   |
     |  121 a      121       |  133 a      133       |   0.06017       0.4   |
     |  119 a      119       |  131 a      131       |  -0.05886       0.3   |
     |  121 a      121       |  143 a      143       |   0.05326       0.3   |
     +=======================+=======================+=======================+
     norm of printed elements:  0.93260


       Energy:     0.2248150 H      6.11753 eV    49341.198 cm-1

     +=======================================================================+
     | type: RE0                    symmetry: a               state:    8    |
     +-----------------------+-----------------------+-----------------------+
     | occ. orb.  index spin | vir. orb.  index spin |  coeff/|amp|     %    |
     +=======================+=======================+=======================+
     |  119 a      119       |  122 a      122       |   0.73196      53.6   |
     |  121 a      121       |  131 a      131       |  -0.31222       9.7   |
     |  121 a      121       |  129 a      129       |   0.22714       5.2   |
     |  121 a      121       |  134 a      134       |   0.21654       4.7   |
     |  115 a      115       |  122 a      122       |  -0.19519       3.8   |
     |  121 a      121       |  123 a      123       |   0.19494       3.8   |
     |  116 a      116       |  122 a      122       |   0.16045       2.6   |
     |  121 a      121       |  124 a      124       |  -0.15898       2.5   |
     |  121 a      121       |  139 a      139       |   0.13999       2.0   |
     |  121 a      121       |  132 a      132       |   0.13633       1.9   |
     |  121 a      121       |  136 a      136       |   0.11654       1.4   |
     |  113 a      113       |  122 a      122       |   0.09391       0.9   |
     |  118 a      118       |  122 a      122       |   0.08118       0.7   |
     |  121 a      121       |  140 a      140       |  -0.08054       0.6   |
     |  121 a      121       |  128 a      128       |   0.07764       0.6   |
     |  121 a      121       |  126 a      126       |   0.06028       0.4   |
     |  120 a      120       |  126 a      126       |   0.05092       0.3   |
     |  121 a      121       |  137 a      137       |  -0.04962       0.2   |
     |  121 a      121       |  135 a      135       |  -0.04550       0.2   |
     |  119 a      119       |  128 a      128       |  -0.04527       0.2   |
     +=======================+=======================+=======================+
     norm of printed elements:  0.95136


       Energy:     0.2338724 H      6.36399 eV    51329.050 cm-1

     +=======================================================================+
     | type: RE0                    symmetry: a               state:    9    |
     +-----------------------+-----------------------+-----------------------+
     | occ. orb.  index spin | vir. orb.  index spin |  coeff/|amp|     %    |
     +=======================+=======================+=======================+
     |  121 a      121       |  123 a      123       |  -0.59227      35.1   |
     |  121 a      121       |  124 a      124       |   0.59108      34.9   |
     |  121 a      121       |  131 a      131       |  -0.26271       6.9   |
     |  121 a      121       |  125 a      125       |  -0.16035       2.6   |
     |  121 a      121       |  127 a      127       |  -0.15178       2.3   |
     |  121 a      121       |  126 a      126       |  -0.15113       2.3   |
     |  121 a      121       |  134 a      134       |   0.14983       2.2   |
     |  119 a      119       |  124 a      124       |   0.11087       1.2   |
     |  121 a      121       |  139 a      139       |   0.09197       0.8   |
     |  121 a      121       |  152 a      152       |   0.09153       0.8   |
     |  121 a      121       |  132 a      132       |   0.08443       0.7   |
     |  121 a      121       |  144 a      144       |   0.08162       0.7   |
     |  121 a      121       |  146 a      146       |   0.08059       0.6   |
     |  115 a      115       |  122 a      122       |  -0.07624       0.6   |
     |  121 a      121       |  135 a      135       |  -0.07227       0.5   |
     |  119 a      119       |  122 a      122       |   0.07091       0.5   |
     |  121 a      121       |  156 a      156       |   0.06549       0.4   |
     |  120 a      120       |  126 a      126       |   0.06358       0.4   |
     |  121 a      121       |  148 a      148       |   0.06309       0.4   |
     |  121 a      121       |  166 a      166       |   0.05509       0.3   |
     +=======================+=======================+=======================+
     norm of printed elements:  0.94404


       Energy:     0.2421712 H      6.58981 eV    53150.441 cm-1

     +=======================================================================+
     | type: RE0                    symmetry: a               state:   10    |
     +-----------------------+-----------------------+-----------------------+
     | occ. orb.  index spin | vir. orb.  index spin |  coeff/|amp|     %    |
     +=======================+=======================+=======================+
     |  115 a      115       |  122 a      122       |   0.95258      90.7   |
     |  119 a      119       |  122 a      122       |   0.16203       2.6   |
     |  113 a      113       |  122 a      122       |   0.14210       2.0   |
     +=======================+=======================+=======================+
     norm of printed elements:  0.95385



     Info: copy ADC(2) right eigenvectors into left eigenvector files.


                    ========   CC DENSITY MODULE   ========

                      current wave-function model: ADC(2)  

  calculating overlap between   10 left and right vector(s)
    density nr.      cpu/min        wall/min    L     R
   ------------------------------------------------------
         1             8.42            9.78    LE0    RE0 
         2             8.34            9.50    LE0    RE0 
         3             8.34            9.46    LE0    RE0 
         4             8.34            9.23    LE0    RE0 
         5             8.29            9.62    LE0    RE0 
         6             8.32            9.19    LE0    RE0 
         7             8.32            9.37    LE0    RE0 
         8             8.37            9.38    LE0    RE0 
         9             8.34            9.35    LE0    RE0 
        10             8.30            9.26    LE0    RE0 
   ------------------------------------------------------
     time in cc_1den       cpu:  1 h 23 min  wall:  1 h 34 min  ratio:  0.9



     +==========================================================+
     |   contributions of excitation levels to excited states   |
     |     wavefunctions as computed from the <L|R> overlap     |
     +----------------------------------------------------------+
     | sym | multi | state |    E / eV  | % singles | % doubles |
     +==========================================================+
     | a   |   1   |   1   |    3.34600 |   86.77   |   13.23   |
     | a   |   1   |   2   |    3.79287 |   89.60   |   10.40   |
     | a   |   1   |   3   |    4.39378 |   88.35   |   11.65   |
     | a   |   1   |   4   |    4.59911 |   89.97   |   10.03   |
     | a   |   1   |   5   |    5.05818 |   88.35   |   11.65   |
     | a   |   1   |   6   |    5.83381 |   88.65   |   11.35   |
     | a   |   1   |   7   |    5.90785 |   89.09   |   10.91   |
     | a   |   1   |   8   |    6.11753 |   86.02   |   13.98   |
     | a   |   1   |   9   |    6.36399 |   90.39   |    9.61   |
     | a   |   1   |  10   |    6.58981 |   85.80   |   14.20   |
     +==========================================================+



      The semi-canonical algorithm will be used for densities


                    ========   CC DENSITY MODULE   ========

                      current wave-function model: ADC(2)  

  calculating    10 xi densities

   a semicanonical algorithm will be used

    density nr.      cpu/min        wall/min    L     R
   ------------------------------------------------------
         1            15.78           24.59    LE0    R0  
         2            15.86           23.15    LE0    R0  
         3            15.73           23.79    LE0    R0  
         4            15.61           22.78    LE0    R0  
         5            15.38           23.13    LE0    R0  
         6            15.89           21.07    LE0    R0  
         7            15.75           21.34    LE0    R0  
         8            15.53           21.69    LE0    R0  
         9            15.52           25.05    LE0    R0  
        10            15.73           24.61    LE0    R0  
   ------------------------------------------------------
     time in cc_1den       cpu:  2 h 36 min  wall:  3 h 51 min  ratio:  0.7


 **************************************************************
 *                                                            *
 *<<<<<<<<<<<<  ONE-PHOTON ABSORPTION STRENGTHS  >>>>>>>>>>>>>*
 *                                                            *
 **************************************************************



  +=========================================================================+
  |  Transition                                             model: ADC(2)   |
  |    number, symmetry, multiplicity:    1 a    1                          |
  |    frequency :   0.1229631685 a.u.     3.34600 e.V.     26987.3 rcm     |
  +=========================================================================+

     +-----------+-----------------+-----------------+---------------------+
     | operator  |   left moment   |  right moment   | transition strength |
     +-----------+-----------------+-----------------+---------------------+
     | xdiplen   |      1.07274956 |      1.07274956 |       1.15079161    |
     | ydiplen   |      2.06437023 |      2.06437023 |       4.26162445    |
     | zdiplen   |     -0.08378447 |     -0.08378447 |       0.00701984    |
     | xdipvel   |      0.14351896 |     -0.14351896 |       0.02059769    |
     | ydipvel   |      0.28354625 |     -0.28354625 |       0.08039847    |
     | zdipvel   |     -0.01482683 |      0.01482683 |       0.00021983    |
     | xangmom   |     -0.11660354 |      0.11660354 |       0.01359639    |
     | yangmom   |      0.08821275 |     -0.08821275 |       0.00778149    |
     | zangmom   |      0.03916124 |     -0.03916124 |       0.00153360    |
     +-----------+-----------------+-----------------+---------------------+
 
       oscillator strength (length gauge)   :      0.44426067
       oscillator strength (velocity gauge) :      0.54876053
       oscillator strength (mixed gauge)    :      0.49369773
 
       rotator strength (length gauge)      :      0.02686813 a.u.
       Rotator strength (length gauge)      :     12.66680864 10^(-40)*erg*cm^3
       rotator strength (velocity gauge)    :      0.03129774 a.u.
       Rotator strength (velocity gauge)    :     14.75511561 10^(-40)*erg*cm^3
 


  +=========================================================================+
  |  Transition                                             model: ADC(2)   |
  |    number, symmetry, multiplicity:    2 a    1                          |
  |    frequency :   0.1393855134 a.u.     3.79287 e.V.     30591.6 rcm     |
  +=========================================================================+

     +-----------+-----------------+-----------------+---------------------+
     | operator  |   left moment   |  right moment   | transition strength |
     +-----------+-----------------+-----------------+---------------------+
     | xdiplen   |      0.02667650 |      0.02667650 |       0.00071164    |
     | ydiplen   |      0.03142880 |      0.03142880 |       0.00098777    |
     | zdiplen   |      0.00167063 |      0.00167063 |       0.00000279    |
     | xdipvel   |      0.00489947 |     -0.00489947 |       0.00002400    |
     | ydipvel   |      0.00622318 |     -0.00622318 |       0.00003873    |
     | zdipvel   |      0.00092522 |     -0.00092522 |       0.00000086    |
     | xangmom   |     -0.42383954 |      0.42383954 |       0.17963995    |
     | yangmom   |     -0.40053499 |      0.40053499 |       0.16042828    |
     | zangmom   |     -0.00360822 |      0.00360822 |       0.00001302    |
     +-----------+-----------------+-----------------+---------------------+
 
       oscillator strength (length gauge)   :      0.00015817
       oscillator strength (velocity gauge) :      0.00030414
       oscillator strength (mixed gauge)    :      0.00021856
 
       rotator strength (length gauge)      :     -0.01195046 a.u.
       Rotator strength (length gauge)      :     -5.63396736 10^(-40)*erg*cm^3
       rotator strength (velocity gauge)    :     -0.01640245 a.u.
       Rotator strength (velocity gauge)    :     -7.73283001 10^(-40)*erg*cm^3
 


  +=========================================================================+
  |  Transition                                             model: ADC(2)   |
  |    number, symmetry, multiplicity:    3 a    1                          |
  |    frequency :   0.1614683362 a.u.     4.39378 e.V.     35438.2 rcm     |
  +=========================================================================+

     +-----------+-----------------+-----------------+---------------------+
     | operator  |   left moment   |  right moment   | transition strength |
     +-----------+-----------------+-----------------+---------------------+
     | xdiplen   |     -0.07828658 |     -0.07828658 |       0.00612879    |
     | ydiplen   |      0.01891996 |      0.01891996 |       0.00035796    |
     | zdiplen   |     -0.00957744 |     -0.00957744 |       0.00009173    |
     | xdipvel   |     -0.00052350 |      0.00052350 |       0.00000027    |
     | ydipvel   |     -0.00392637 |      0.00392637 |       0.00001542    |
     | zdipvel   |     -0.00123983 |      0.00123983 |       0.00000154    |
     | xangmom   |     -0.01902801 |      0.01902801 |       0.00036207    |
     | yangmom   |      0.00254832 |     -0.00254832 |       0.00000649    |
     | zangmom   |      0.94355431 |     -0.94355431 |       0.89029474    |
     +-----------+-----------------+-----------------+---------------------+
 
       oscillator strength (length gauge)   :      0.00070814
       oscillator strength (velocity gauge) :      0.00007113
       oscillator strength (mixed gauge)    :      0.00001429
 
       rotator strength (length gauge)      :     -0.00374949 a.u.
       Rotator strength (length gauge)      :     -1.76767251 10^(-40)*erg*cm^3
       rotator strength (velocity gauge)    :     -0.00362266 a.u.
       Rotator strength (velocity gauge)    :     -1.70788158 10^(-40)*erg*cm^3
 


  +=========================================================================+
  |  Transition                                             model: ADC(2)   |
  |    number, symmetry, multiplicity:    4 a    1                          |
  |    frequency :   0.1690141256 a.u.     4.59911 e.V.     37094.3 rcm     |
  +=========================================================================+

     +-----------+-----------------+-----------------+---------------------+
     | operator  |   left moment   |  right moment   | transition strength |
     +-----------+-----------------+-----------------+---------------------+
     | xdiplen   |      0.02333608 |      0.02333608 |       0.00054457    |
     | ydiplen   |      0.00317715 |      0.00317715 |       0.00001009    |
     | zdiplen   |     -0.07630252 |     -0.07630252 |       0.00582207    |
     | xdipvel   |      0.00517254 |     -0.00517254 |       0.00002676    |
     | ydipvel   |      0.00120740 |     -0.00120740 |       0.00000146    |
     | zdipvel   |     -0.01969231 |      0.01969231 |       0.00038779    |
     | xangmom   |      0.89401353 |     -0.89401353 |       0.79926019    |
     | yangmom   |     -0.59059554 |      0.59059554 |       0.34880309    |
     | zangmom   |      0.03693388 |     -0.03693388 |       0.00136411    |
     +-----------+-----------------+-----------------+---------------------+
 
       oscillator strength (length gauge)   :      0.00071851
       oscillator strength (velocity gauge) :      0.00164089
       oscillator strength (mixed gauge)    :      0.00108474
 
       rotator strength (length gauge)      :      0.00808411 a.u.
       Rotator strength (length gauge)      :      3.81119960 10^(-40)*erg*cm^3
       rotator strength (velocity gauge)    :      0.00941911 a.u.
       Rotator strength (velocity gauge)    :      4.44057908 10^(-40)*erg*cm^3
 


  +=========================================================================+
  |  Transition                                             model: ADC(2)   |
  |    number, symmetry, multiplicity:    5 a    1                          |
  |    frequency :   0.1858848472 a.u.     5.05818 e.V.     40797.0 rcm     |
  +=========================================================================+

     +-----------+-----------------+-----------------+---------------------+
     | operator  |   left moment   |  right moment   | transition strength |
     +-----------+-----------------+-----------------+---------------------+
     | xdiplen   |      0.57530814 |      0.57530814 |       0.33097945    |
     | ydiplen   |     -0.20955063 |     -0.20955063 |       0.04391147    |
     | zdiplen   |     -0.01166699 |     -0.01166699 |       0.00013612    |
     | xdipvel   |      0.08470442 |     -0.08470442 |       0.00717484    |
     | ydipvel   |     -0.02378570 |      0.02378570 |       0.00056576    |
     | zdipvel   |     -0.00373070 |      0.00373070 |       0.00001392    |
     | xangmom   |      0.01590407 |     -0.01590407 |       0.00025294    |
     | yangmom   |      0.00353007 |     -0.00353007 |       0.00001246    |
     | zangmom   |      0.11687612 |     -0.11687612 |       0.01366003    |
     +-----------+-----------------+-----------------+---------------------+
 
       oscillator strength (length gauge)   :      0.04647456
       oscillator strength (velocity gauge) :      0.02781118
       oscillator strength (mixed gauge)    :      0.03583932
 
       rotator strength (length gauge)      :      0.00352321 a.u.
       Rotator strength (length gauge)      :      1.66099452 10^(-40)*erg*cm^3
       rotator strength (velocity gauge)    :      0.00222490 a.u.
       Rotator strength (velocity gauge)    :      1.04891490 10^(-40)*erg*cm^3
 


  +=========================================================================+
  |  Transition                                             model: ADC(2)   |
  |    number, symmetry, multiplicity:    6 a    1                          |
  |    frequency :   0.2143887137 a.u.     5.83381 e.V.     47052.9 rcm     |
  +=========================================================================+

     +-----------+-----------------+-----------------+---------------------+
     | operator  |   left moment   |  right moment   | transition strength |
     +-----------+-----------------+-----------------+---------------------+
     | xdiplen   |      1.02121608 |      1.02121608 |       1.04288229    |
     | ydiplen   |     -0.57758197 |     -0.57758197 |       0.33360093    |
     | zdiplen   |      0.04353631 |      0.04353631 |       0.00189541    |
     | xdipvel   |      0.23384851 |     -0.23384851 |       0.05468512    |
     | ydipvel   |     -0.14492660 |      0.14492660 |       0.02100372    |
     | zdipvel   |      0.01086803 |     -0.01086803 |       0.00011811    |
     | xangmom   |     -0.05491401 |      0.05491401 |       0.00301555    |
     | yangmom   |     -0.02960047 |      0.02960047 |       0.00087619    |
     | zangmom   |      0.84201388 |     -0.84201388 |       0.70898738    |
     +-----------+-----------------+-----------------+---------------------+
 
       oscillator strength (length gauge)   :      0.19700588
       oscillator strength (velocity gauge) :      0.23573056
       oscillator strength (mixed gauge)    :      0.21532667
 
       rotator strength (length gauge)      :     -0.00116210 a.u.
       Rotator strength (length gauge)      :     -0.54786244 10^(-40)*erg*cm^3
       rotator strength (velocity gauge)    :      0.00139787 a.u.
       Rotator strength (velocity gauge)    :      0.65901504 10^(-40)*erg*cm^3
 


  +=========================================================================+
  |  Transition                                             model: ADC(2)   |
  |    number, symmetry, multiplicity:    7 a    1                          |
  |    frequency :   0.2171095469 a.u.     5.90785 e.V.     47650.0 rcm     |
  +=========================================================================+

     +-----------+-----------------+-----------------+---------------------+
     | operator  |   left moment   |  right moment   | transition strength |
     +-----------+-----------------+-----------------+---------------------+
     | xdiplen   |     -0.09404007 |     -0.09404007 |       0.00884353    |
     | ydiplen   |     -0.10852694 |     -0.10852694 |       0.01177810    |
     | zdiplen   |      0.08521298 |      0.08521298 |       0.00726125    |
     | xdipvel   |     -0.03328274 |      0.03328274 |       0.00110774    |
     | ydipvel   |     -0.04275522 |      0.04275522 |       0.00182801    |
     | zdipvel   |      0.01956850 |     -0.01956850 |       0.00038293    |
     | xangmom   |      0.26467120 |     -0.26467120 |       0.07005085    |
     | yangmom   |     -0.11006070 |      0.11006070 |       0.01211336    |
     | zangmom   |     -0.14061902 |      0.14061902 |       0.01977371    |
     +-----------+-----------------+-----------------+---------------------+
 
       oscillator strength (length gauge)   :      0.00403576
       oscillator strength (velocity gauge) :      0.01019048
       oscillator strength (mixed gauge)    :      0.00629166
 
       rotator strength (length gauge)      :     -0.01246386 a.u.
       Rotator strength (length gauge)      :     -5.87600477 10^(-40)*erg*cm^3
       rotator strength (velocity gauge)    :     -0.01578700 a.u.
       Rotator strength (velocity gauge)    :     -7.44267936 10^(-40)*erg*cm^3
 


  +=========================================================================+
  |  Transition                                             model: ADC(2)   |
  |    number, symmetry, multiplicity:    8 a    1                          |
  |    frequency :   0.2248150410 a.u.     6.11753 e.V.     49341.2 rcm     |
  +=========================================================================+

     +-----------+-----------------+-----------------+---------------------+
     | operator  |   left moment   |  right moment   | transition strength |
     +-----------+-----------------+-----------------+---------------------+
     | xdiplen   |     -0.17031446 |     -0.17031446 |       0.02900702    |
     | ydiplen   |     -0.59014143 |     -0.59014143 |       0.34826690    |
     | zdiplen   |      0.06179248 |      0.06179248 |       0.00381831    |
     | xdipvel   |     -0.02834385 |      0.02834385 |       0.00080337    |
     | ydipvel   |     -0.11562614 |      0.11562614 |       0.01336940    |
     | zdipvel   |      0.01559199 |     -0.01559199 |       0.00024311    |
     | xangmom   |     -0.06611967 |      0.06611967 |       0.00437181    |
     | yangmom   |      0.01520546 |     -0.01520546 |       0.00023121    |
     | zangmom   |      0.00101708 |     -0.00101708 |       0.00000103    |
     +-----------+-----------------+-----------------+---------------------+
 
       oscillator strength (length gauge)   :      0.05711684
       oscillator strength (velocity gauge) :      0.04274888
       oscillator strength (mixed gauge)    :      0.04935107
 
       rotator strength (length gauge)      :      0.00117531 a.u.
       Rotator strength (length gauge)      :      0.55409097 10^(-40)*erg*cm^3
       rotator strength (velocity gauge)    :      0.00029312 a.u.
       Rotator strength (velocity gauge)    :      0.13819006 10^(-40)*erg*cm^3
 


  +=========================================================================+
  |  Transition                                             model: ADC(2)   |
  |    number, symmetry, multiplicity:    9 a    1                          |
  |    frequency :   0.2338723628 a.u.     6.36399 e.V.     51329.1 rcm     |
  +=========================================================================+

     +-----------+-----------------+-----------------+---------------------+
     | operator  |   left moment   |  right moment   | transition strength |
     +-----------+-----------------+-----------------+---------------------+
     | xdiplen   |     -0.04433790 |     -0.04433790 |       0.00196585    |
     | ydiplen   |     -0.13108992 |     -0.13108992 |       0.01718457    |
     | zdiplen   |      0.01755041 |      0.01755041 |       0.00030802    |
     | xdipvel   |     -0.00830707 |      0.00830707 |       0.00006901    |
     | ydipvel   |     -0.03091364 |      0.03091364 |       0.00095565    |
     | zdipvel   |      0.01209240 |     -0.01209240 |       0.00014623    |
     | xangmom   |      0.42575611 |     -0.42575611 |       0.18126826    |
     | yangmom   |     -0.27165603 |      0.27165603 |       0.07379700    |
     | zangmom   |     -0.08020476 |      0.08020476 |       0.00643280    |
     +-----------+-----------------+-----------------+---------------------+
 
       oscillator strength (length gauge)   :      0.00303386
       oscillator strength (velocity gauge) :      0.00333768
       oscillator strength (mixed gauge)    :      0.00308867
 
       rotator strength (length gauge)      :      0.00766330 a.u.
       Rotator strength (length gauge)      :      3.61281540 10^(-40)*erg*cm^3
       rotator strength (velocity gauge)    :      0.00831911 a.u.
       Rotator strength (velocity gauge)    :      3.92199256 10^(-40)*erg*cm^3
 


  +=========================================================================+
  |  Transition                                             model: ADC(2)   |
  |    number, symmetry, multiplicity:   10 a    1                          |
  |    frequency :   0.2421712300 a.u.     6.58981 e.V.     53150.4 rcm     |
  +=========================================================================+

     +-----------+-----------------+-----------------+---------------------+
     | operator  |   left moment   |  right moment   | transition strength |
     +-----------+-----------------+-----------------+---------------------+
     | xdiplen   |     -0.10725520 |     -0.10725520 |       0.01150368    |
     | ydiplen   |     -0.15596193 |     -0.15596193 |       0.02432412    |
     | zdiplen   |     -0.09784194 |     -0.09784194 |       0.00957305    |
     | xdipvel   |     -0.01555617 |      0.01555617 |       0.00024199    |
     | ydipvel   |     -0.01679494 |      0.01679494 |       0.00028207    |
     | zdipvel   |     -0.03330549 |      0.03330549 |       0.00110926    |
     | xangmom   |     -0.01261777 |      0.01261777 |       0.00015921    |
     | yangmom   |      0.04531874 |     -0.04531874 |       0.00205379    |
     | zangmom   |      0.03898511 |     -0.03898511 |       0.00151984    |
     +-----------+-----------------+-----------------+---------------------+
 
       oscillator strength (length gauge)   :      0.00732985
       oscillator strength (velocity gauge) :      0.00449632
       oscillator strength (mixed gauge)    :      0.00503102
 
       rotator strength (length gauge)      :     -0.00476453 a.u.
       Rotator strength (length gauge)      :     -2.24620593 10^(-40)*erg*cm^3
       rotator strength (velocity gauge)    :     -0.00384699 a.u.
       Rotator strength (velocity gauge)    :     -1.81363783 10^(-40)*erg*cm^3
 
 Exporting transition densities


    ------------------------------------------------------------------------
         total  cpu-time :   1 days  9 hours 12 minutes and 22 seconds
         total wall-time :   2 days  1 hours  9 minutes and 22 seconds
    ------------------------------------------------------------------------


   ****  ricc2 : all done  ****


    2024-04-20 19:15:27.836 

