 operating system is UNIX !
 hostname is         n02

 dscf (n02) : TURBOMOLE V6.6( 19103 ) 21 May 2014 at 15:45:05
 Copyright (C) 2014 TURBOMOLE GmbH, Karlsruhe


    2024-04-18 17:08:57.638 



                             d s c f - program

                   idea & directorship : reinhart ahlrichs
                   program development : marco haeser
                                         michael baer
                           dft version : oliver treutler


                          quantum chemistry group
                          universitaet  karlsruhe
                                  germany




                          References             
                                                 
          TURBOMOLE:                             
              R. Ahlrichs, M. Baer, M. Haeser, H. Horn, and
              C. Koelmel
              Electronic structure calculations on workstation
              computers: the program system TURBOMOLE
              Chem. Phys. Lett. 162: 165 (1989)
          Density Functional:                              
              O. Treutler and R. Ahlrichs                      
              Efficient Molecular Numerical Integration Schemes
              J. Chem. Phys. 102: 346 (1995)                   
          Parallel Version:                                
              Performance of parallel TURBOMOLE for Density    
              Functional Calculations                          
              M. v. Arnim and R. Ahlrichs                      
              J. Comp. Chem. 19: 1746 (1998)                   
                                         




              +--------------------------------------------------+
              | Atomic coordinate, charge and isotop information |
              +--------------------------------------------------+

                    atomic coordinates            atom    charge  isotop
          2.62715396    0.00000000    0.00000000    c      6.000     0
          0.00000000    0.00000000    0.00000000    c      6.000     0
         -1.34248034    2.25824163    0.00000000    c      6.000     0
         -0.06302237    4.51094635    0.00056692    c      6.000     0
          2.59336566    4.55873753    0.00249444    c      6.000     0
          3.90971109    2.25090949    0.00056692    c      6.000     0
          3.63910231   -1.77057890    0.00147399    h      1.000     0
         -3.38155153    2.22333838    0.00147399    h      1.000     0
         -1.09938597    6.27304038   -0.00066140    h      1.000     0
          5.95399792    2.26052819   -0.00058582    h      1.000     0
         -1.34232916   -2.35962543    0.00300466    n      7.000     0
         -3.65236818   -2.32113171    0.00430858    o      8.000     0
         -0.12880373   -4.32558312    0.00430858    o      8.000     0
          3.85736567    6.78060193   -0.03705753    n      7.000     0
          2.92680783    8.41653784    0.21238632    h      1.000     0
          5.73909827    6.81669570    0.21240522    h      1.000     0
          1.27418564   11.45750403   -0.30171367    o      8.000     0
          0.21922713   11.76528373    1.23569192    h      1.000     0
          2.24454111   13.02331221   -0.72346275    h      1.000     0
          2.79807969   -8.34115666   -2.19323505    o      8.000     0
          1.66403614   -6.86643329   -1.86073773    h      1.000     0
          3.26472866   -8.37658903   -4.02415290    h      1.000     0
          2.02508722    7.15421968   -5.23919011    o      8.000     0
          2.55264206    7.46610008   -3.45156588    h      1.000     0
          0.93824902    8.58151093   -5.83328222    h      1.000     0
         -2.56295996   -7.52764846    3.97498223    o      8.000     0
         -1.38303386   -6.50523103    2.91019714    h      1.000     0
         -3.17850046   -9.01399365    2.98342403    h      1.000     0
          9.39779703    7.22576471    1.43919653    o      8.000     0
          9.88534637    9.01010082    1.05231289    h      1.000     0
          9.57021564    6.91407328    3.29511546    h      1.000     0
         -7.64101313   -6.59599458   -1.27191797    o      8.000     0
         -6.96466125   -4.85347811   -0.99354241    h      1.000     0
         -6.33050696   -7.64998933   -2.13384095    h      1.000     0
          4.02955752   -3.63003162    4.87288560    o      8.000     0
          5.19551854   -4.02394503    3.43879134    h      1.000     0
          3.41779648   -5.24132550    5.64801347    h      1.000     0
          6.85165563   -2.35000673   -3.86411200    o      8.000     0
          6.79543628   -0.59917546   -4.57308055    h      1.000     0
          8.31247062   -2.50126041   -2.67481285    h      1.000     0
         12.01217644    4.06022777   -1.29467027    o      8.000     0
         10.70624341    5.06187711   -0.36598326    h      1.000     0
         13.73500197    4.60482795   -0.74096162    h      1.000     0
         -5.65003547    9.23575302    2.95301834    o      8.000     0
         -6.61111239    7.77474905    3.66933792    h      1.000     0
         -3.86348839    9.17575421    3.56612108    h      1.000     0
         -1.49919533   11.01511914   -4.55722575    o      8.000     0
         -1.72668056   12.78465869   -5.18026845    h      1.000     0
         -0.72559814   11.04892634   -2.83337977    h      1.000     0
          1.06624018    0.30851669    6.08782833    o      8.000     0
          2.16112860   -1.03269754    5.33038830    h      1.000     0
          2.13125203    1.48727116    7.11137959    h      1.000     0
         -4.60392088    6.84946355   -5.20188692    o      8.000     0
         -3.17560918    8.02725426   -4.82235432    h      1.000     0
         -6.07376876    7.26255768   -4.08825241    h      1.000     0
         -1.45601509    8.45624099    5.55382952    o      8.000     0
         -0.62721900    6.75813308    5.52614503    h      1.000     0
         -0.13216745    9.80174489    5.64510329    h      1.000     0
         11.31671943   -1.60180746   -1.06013636    o      8.000     0
         11.26114259    0.28275972   -1.18909127    h      1.000     0
         13.01057545   -2.22197778   -1.62359600    h      1.000     0
         -9.88685815    1.09617344    0.83227318    o      8.000     0
        -11.74466681    1.31468247    0.56398876    h      1.000     0
         -9.16347099    2.68594334    1.55386511    h      1.000     0
          1.38681332    1.89756850   -6.25348172    o      8.000     0
          1.57070257    3.76851075   -6.06091863    h      1.000     0
         -0.41447363    1.40809163   -5.95841988    h      1.000     0
 
       center of nuclear mass  :    0.96765821    1.92236058   -0.21126977
       center of nuclear charge:    1.01186003    2.00110316   -0.20459276

              +--------------------------------------------------+
              |               basis set information              |
              +--------------------------------------------------+

              we will work with the 1s 3p 5d 7f 9g ... basis set
              ...i.e. with spherical basis functions...

   type   atoms  prim   cont   basis
   ---------------------------------------------------------------------------
    c        6     52     37   def2-TZVPD   [6s3p3d1f|12s6p3d1f]
    h        6     11      9   def2-TZVPD   [3s2p|5s2p]
    n        2     52     37   def2-TZVPD   [6s3p3d1f|12s6p3d1f]
    o        2     55     40   def2-TZVPD   [6s4p3d1f|12s7p3d1f]
    o       17     24     14   def-SV(P)   [3s2p1d|7s4p1d]
    h       34      4      2   def-SV(P)   [2s|4s]
   ---------------------------------------------------------------------------
   total:   67   1136    736
   ---------------------------------------------------------------------------

   total number of primitive shells          :   90
   total number of contracted shells         :  332
   total number of cartesian basis functions :  813
   total number of SCF-basis functions       :  736


 integral neglect threshold       :  0.41E-11
 integral storage threshold THIZE :  0.10E-04
 integral storage threshold THIME :         5


 DENSITY CONVERGENCE CHECK SWITCHED ON !
 SCF CONVERGENCE IF RMS(delta[D]) <     0.1000000000E-06


 symmetry group of the molecule :   c1 

 the group has the following generators :
   c1(z)

    1 symmetry operations found

 there are 1 real representations :   a   

 maximum number of shells which are related by symmetry :  1


    mo occupation :
   irrep   mo's   occupied
    a      736      121
 
 number of basis functions   :          736
 number of occupied orbitals :          121
 

          ------------------------
          nuclear repulsion energy  :   3116.68586018    
          ------------------------

 
          -----------------
          -S,T+V- integrals
          -----------------

 1e-integrals will be neglected if expon. factor < 0.411065E-12

------------------------------------------------------------------------
 point charges
------------------------------------------------------------------------

 number of point charges read in =       3186

 distance threshold set to   0.10D-05

No check for symmetry or overlap of point charges - nocheck keyword found !


 nuclear electrostatic interaction energy :    5.18490701751    

 
   Difference densities algorithm switched on.
   The maximal number of linear combinations of
   difference densities is          20 .

 automatic virtual orbital shift switched on 
      shift if e(lumo)-e(homo) < 0.10000000    


 DIIS switched on: error vector is FDS-SDF
 Max. Iterations for DIIS is     :   5
 DIIS matrix (see manual) 
    Scaling factor of diagonals  :  1.200
    threshold for scaling factor :  0.000

 scf convergence criterion : increment of total energy < .1000000D-06
                  and increment of one-electron energy < .1000000D-03


 <geterg> : there is no data group $energy 

  MOs are in ASCII format !


 reading orbital data $scfmo  from file mos . 

 orbital characterization : expanded
 
 mo provided and orthogonalized by Cholesky decomposition

 DSCF restart information will be dumped onto file mos

 
                                              current damping :  0.300
 ITERATION  ENERGY          1e-ENERGY        2e-ENERGY     RMS[dD(SAO)]   TOL
   1  -1776.0659278476    -8688.9478619     3791.0111669    0.000D+00 0.410D-11
          max. resid. norm for Fia-block=  3.409D-01 for orbital     51a         
          max. resid. fock norm         =  9.271D+00 for orbital    498a         
          Delta Eig. =   933.7240763044 eV 
 
                                              current damping :  0.250
 ITERATION  ENERGY          1e-ENERGY        2e-ENERGY     RMS[dD(SAO)]   TOL
   2  -1780.3607604174    -8674.9503914     3772.7188638    0.343D+00 0.960D-12
          Norm of current diis error:  2.8997    
          max. resid. norm for Fia-block=  1.481D-01 for orbital     28a         
          max. resid. fock norm         =  3.330D-01 for orbital    721a         
          Delta Eig. =   213.2955157207 eV 
 
                                              current damping :  0.200
 ITERATION  ENERGY          1e-ENERGY        2e-ENERGY     RMS[dD(SAO)]   TOL
   3  -1780.8410149237    -8680.0378924     3777.3261103    0.265D+00 0.796D-12
          Norm of current diis error:  1.1332    
          max. resid. norm for Fia-block=  5.069D-02 for orbital     61a         
          max. resid. fock norm         =  6.591D-02 for orbital    677a         
          Delta Eig. =    48.1778553870 eV 
 
                                              current damping :  0.250
 ITERATION  ENERGY          1e-ENERGY        2e-ENERGY     RMS[dD(SAO)]   TOL
   4  -1780.9375208425    -8679.0796133     3776.2713253    0.135D+00 0.750D-12
          Norm of current diis error: 0.33594    
          max. resid. norm for Fia-block=  1.803D-02 for orbital     58a         
          max. resid. fock norm         =  2.421D-02 for orbital    731a         
          Delta Eig. =     6.6225108937 eV 
 
                                              current damping :  0.100
 ITERATION  ENERGY          1e-ENERGY        2e-ENERGY     RMS[dD(SAO)]   TOL
   5  -1780.9482429773    -8678.7386167     3775.9196065    0.434D-01 0.738D-12
          Norm of current diis error: 0.11554    
          max. resid. norm for Fia-block=  7.251D-03 for orbital    121a         
          max. resid. fock norm         =  1.086D-02 for orbital    731a         
 mo-orthogonalization: Cholesky decomposition
          Delta Eig. =     1.5776480574 eV 
 
                                              current damping :  0.150
 ITERATION  ENERGY          1e-ENERGY        2e-ENERGY     RMS[dD(SAO)]   TOL
   6  -1780.9500959763    -8679.0551067     3776.2342435    0.107D-01 0.736D-12
          Norm of current diis error: 0.45133E-01
          max. resid. norm for Fia-block=  3.418D-03 for orbital    121a         
          max. resid. fock norm         =  4.416D-03 for orbital    731a         
          Delta Eig. =     0.1852106082 eV 
 
                                              current damping :  0.200
 ITERATION  ENERGY          1e-ENERGY        2e-ENERGY     RMS[dD(SAO)]   TOL
   7  -1780.9503923370    -8678.9424162     3776.1212566    0.499D-02 0.735D-12
          Norm of current diis error: 0.20310E-01
          max. resid. norm for Fia-block=  1.893D-03 for orbital    121a         
          max. resid. fock norm         =  2.120D-03 for orbital    121a         
          Delta Eig. =     0.0996639190 eV 
 
                                              current damping :  0.250
 ITERATION  ENERGY          1e-ENERGY        2e-ENERGY     RMS[dD(SAO)]   TOL
   8  -1780.9504522194    -8678.9510782     3776.1298588    0.127D-02 0.735D-12
          Norm of current diis error: 0.90574E-02
          max. resid. norm for Fia-block=  1.011D-03 for orbital    121a         
          max. resid. fock norm         =  1.265D-03 for orbital    735a         
          Delta Eig. =     0.0302611306 eV 
 
                                              current damping :  0.100
 ITERATION  ENERGY          1e-ENERGY        2e-ENERGY     RMS[dD(SAO)]   TOL
   9  -1780.9504642979    -8678.9658534     3776.1446219    0.333D-03 0.735D-12
          Norm of current diis error: 0.39352E-02
          max. resid. norm for Fia-block=  4.911D-04 for orbital    121a         
          max. resid. fock norm         =  5.835D-04 for orbital    735a         
          Delta Eig. =     0.0166315399 eV 
 
                                              current damping :  0.150
 ITERATION  ENERGY          1e-ENERGY        2e-ENERGY     RMS[dD(SAO)]   TOL
  10  -1780.9504666033    -8678.9558353     3776.1346015    0.299D-03 0.734D-12
          Norm of current diis error: 0.17841E-02
          max. resid. norm for Fia-block=  1.699D-04 for orbital    121a         
          max. resid. fock norm         =  3.875D-04 for orbital    735a         
 mo-orthogonalization: Cholesky decomposition
          Delta Eig. =     0.0158386869 eV 
 
                                              current damping :  0.200
 ITERATION  ENERGY          1e-ENERGY        2e-ENERGY     RMS[dD(SAO)]   TOL
  11  -1780.9504669428    -8678.9590667     3776.1378326    0.675D-04 0.734D-12
          Norm of current diis error: 0.71318E-03
          max. resid. norm for Fia-block=  7.280D-05 for orbital    121a         
          max. resid. fock norm         =  9.543D-05 for orbital    735a         
          Delta Eig. =     0.0030539382 eV 
 
                                              current damping :  0.100
 ITERATION  ENERGY          1e-ENERGY        2e-ENERGY     RMS[dD(SAO)]   TOL
  12  -1780.9504670115    -8678.9599284     3776.1386942    0.307D-04 0.734D-12
          Norm of current diis error: 0.36061E-03
          max. resid. norm for Fia-block=  3.908D-05 for orbital    121a         
          max. resid. fock norm         =  4.568D-05 for orbital    122a         
          Delta Eig. =     0.0016085479 eV 
 
                                              current damping :  0.150
 ITERATION  ENERGY          1e-ENERGY        2e-ENERGY     RMS[dD(SAO)]   TOL
  13  -1780.9504670330    -8678.9589479     3776.1377136    0.157D-04 0.734D-12
          Norm of current diis error: 0.17793E-03
          max. resid. norm for Fia-block=  1.768D-05 for orbital    121a         
          max. resid. fock norm         =  2.760D-05 for orbital    122a         
          Delta Eig. =     0.0006791319 eV 
 
                                              current damping :  0.200
 ITERATION  ENERGY          1e-ENERGY        2e-ENERGY     RMS[dD(SAO)]   TOL
  14  -1780.9504670379    -8678.9594664     3776.1382322    0.146D-04 0.734D-12
          Norm of current diis error: 0.86771E-04
          max. resid. norm for Fia-block=  1.057D-05 for orbital    121a         
          max. resid. fock norm         =  1.320D-05 for orbital    122a         
          Delta Eig. =     0.0002024092 eV 
 
                                              current damping :  0.250
 ITERATION  ENERGY          1e-ENERGY        2e-ENERGY     RMS[dD(SAO)]   TOL
  15  -1780.9504670368    -8678.9594217     3776.1381874    0.385D-05 0.734D-12
          Norm of current diis error: 0.48116E-04
          max. resid. norm for Fia-block=  4.361D-06 for orbital    116a         
          max. resid. fock norm         =  6.905D-06 for orbital    122a         
 mo-orthogonalization: Cholesky decomposition
          Delta Eig. =     0.0001381211 eV 
 
                                              current damping :  0.100
 ITERATION  ENERGY          1e-ENERGY        2e-ENERGY     RMS[dD(SAO)]   TOL
  16  -1780.9504670628    -8678.9593736     3776.1381393    0.270D-05 0.117D-11
          Norm of current diis error: 0.27312E-04
          max. resid. norm for Fia-block=  3.670D-06 for orbital    121a         
          max. resid. fock norm         =  9.811D-05 for orbital    354a         
          Delta Eig. =     0.0004003870 eV 
 
                                              current damping :  0.150
 ITERATION  ENERGY          1e-ENERGY        2e-ENERGY     RMS[dD(SAO)]   TOL
  17  -1780.9504670870    -8678.9594152     3776.1381809    0.146D-03 0.117D-11
          Norm of current diis error: 0.12103E-04
          max. resid. norm for Fia-block=  1.392D-06 for orbital    116a         
          max. resid. fock norm         =  3.810D-05 for orbital    354a         
          Delta Eig. =     0.0001578383 eV 
 
                                              current damping :  0.200
 ITERATION  ENERGY          1e-ENERGY        2e-ENERGY     RMS[dD(SAO)]   TOL
  18  -1780.9504670928    -8678.9594042     3776.1381699    0.565D-04 0.114D-11
          Norm of current diis error: 0.72186E-05
          max. resid. norm for Fia-block=  7.613D-07 for orbital    120a         
          max. resid. fock norm         =  2.275D-05 for orbital    354a         
          Delta Eig. =     0.0001094403 eV 
 
                                              current damping :  0.100
 ITERATION  ENERGY          1e-ENERGY        2e-ENERGY     RMS[dD(SAO)]   TOL
  19  -1780.9504670873    -8678.9593992     3776.1381649    0.253D-04 0.117D-11
          Norm of current diis error: 0.32140E-05
          max. resid. norm for Fia-block=  3.787D-07 for orbital     99a         
          max. resid. fock norm         =  1.612D-05 for orbital    354a         
          Delta Eig. =     0.0000697916 eV 
 
                                              current damping :  0.150
 ITERATION  ENERGY          1e-ENERGY        2e-ENERGY     RMS[dD(SAO)]   TOL
  20  -1780.9504670798    -8678.9594048     3776.1381705    0.229D-04 0.117D-11
          Norm of current diis error: 0.15163E-05
          max. resid. norm for Fia-block=  3.456D-07 for orbital    113a         
          max. resid. fock norm         =  1.471D-05 for orbital    354a         
 mo-orthogonalization: Cholesky decomposition
          Delta Eig. =     0.0000769326 eV 
 
                                              current damping :  0.200
 ITERATION  ENERGY          1e-ENERGY        2e-ENERGY     RMS[dD(SAO)]   TOL
  21  -1780.9504670823    -8678.9594027     3776.1381684    0.228D-04 0.117D-11
          Norm of current diis error: 0.65702E-06
          max. resid. norm for Fia-block=  1.622D-07 for orbital     94a         
          max. resid. fock norm         =  7.008D-06 for orbital    328a         
          Delta Eig. =     0.0000353227 eV 
 
                                              current damping :  0.100
 ITERATION  ENERGY          1e-ENERGY        2e-ENERGY     RMS[dD(SAO)]   TOL
  22  -1780.9504670710    -8678.9594022     3776.1381679    0.142D-04 0.410D-11
          Norm of current diis error: 0.40961E-06
          max. resid. norm for Fia-block=  5.488D-07 for orbital     90a         
          max. resid. fock norm         =  2.342D-05 for orbital    353a         
          Delta Eig. =     0.0000778874 eV 
 
                                              current damping :  0.150
 ITERATION  ENERGY          1e-ENERGY        2e-ENERGY     RMS[dD(SAO)]   TOL
  23  -1780.9504670759    -8678.9594028     3776.1381686    0.413D-04 0.260D-11
          Norm of current diis error: 0.23276E-06
          max. resid. norm for Fia-block=  1.784D-07 for orbital     90a         
          max. resid. fock norm         =  6.648D-06 for orbital    353a         
          Delta Eig. =     0.0000292179 eV 
 
                                              current damping :  0.200
 ITERATION  ENERGY          1e-ENERGY        2e-ENERGY     RMS[dD(SAO)]   TOL
  24  -1780.9504670824    -8678.9594026     3776.1381683    0.129D-04 0.207D-11
          Norm of current diis error: 0.15237E-06
          max. resid. norm for Fia-block=  2.596D-07 for orbital     92a         
          max. resid. fock norm         =  8.184D-06 for orbital    352a         
          Delta Eig. =     0.0000322397 eV 
 
                                              current damping :  0.100
 ITERATION  ENERGY          1e-ENERGY        2e-ENERGY     RMS[dD(SAO)]   TOL
  25  -1780.9504670877    -8678.9594026     3776.1381683    0.119D-04 0.164D-11
          Norm of current diis error: 0.12385E-06
          max. resid. norm for Fia-block=  3.214D-07 for orbital     92a         
          max. resid. fock norm         =  1.078D-05 for orbital    352a         
 mo-orthogonalization: Cholesky decomposition
          Delta Eig. =     0.0000484928 eV 
 
                                              current damping :  0.150
 ITERATION  ENERGY          1e-ENERGY        2e-ENERGY     RMS[dD(SAO)]   TOL
  26  -1780.9504670924    -8678.9594027     3776.1381684    0.178D-04 0.137D-11
          Norm of current diis error: 0.10895E-06
          max. resid. norm for Fia-block=  2.670D-07 for orbital     90a         
          max. resid. fock norm         =  1.225D-05 for orbital    354a         
          Delta Eig. =     0.0000398116 eV 

 ENERGY & DENSITY CONVERGED !

 
                                              current damping :  0.100
 ITERATION  ENERGY          1e-ENERGY        2e-ENERGY     RMS[dD(SAO)]   TOL
  27  -1780.9504670945    -8678.9594027     3776.1381684    0.145D-04 0.130D-11
          max. resid. norm for Fia-block=  2.987D-07 for orbital     90a         
          max. resid. fock norm         =  1.499D-05 for orbital    354a         

 convergence criteria satisfied after 27 iterations


                  ------------------------------------------ 
                 |  total energy      =  -1780.95046709449  |
                  ------------------------------------------ 
                 :  kinetic energy    =   1775.33683006486  :
                 :  potential energy  =  -3556.28729715935  :
                 :  virial theorem    =      1.99684795443  :
                 :  wavefunction norm =      1.00000000000  :
                  .......................................... 


 <geterg> : there is no data group $energy 


 <skperg> : $end is missing 


 orbitals $scfmo  will be written to file mos

    irrep                117a        118a        119a        120a        121a   
 eigenvalues H         -0.47711    -0.46830    -0.46137    -0.35889    -0.31311
            eV         -12.9830    -12.7431    -12.5546     -9.7660     -8.5202
 occupation              2.0000      2.0000      2.0000      2.0000      2.0000 

    irrep                122a        123a        124a        125a        126a   
 eigenvalues H          0.03747     0.08726     0.10143     0.10848     0.11400
            eV           1.0197      2.3744      2.7602      2.9518      3.1021
 

------------------------------------------------------------------------
 point charges
------------------------------------------------------------------------

 number of point charges read in =       3186

 distance threshold set to   0.10D-05

No check for symmetry or overlap of point charges - nocheck keyword found !

 
 
 
 ==============================================================================
                           electrostatic moments
 ==============================================================================
 
              nuc           elec       ->  sum     point charges -> total
 ------------------------------------------------------------------------------
                          charge      
 ------------------------------------------------------------------------------
         242.000000    -242.000000      -0.000000       0.000000      -0.000000
 
 ------------------------------------------------------------------------------
                       dipole moment  
 ------------------------------------------------------------------------------
   x     244.870126    -238.135419       6.734708      -3.842319       2.892389
   y     484.266964    -473.170640      11.096324     -74.203646     -63.107322
   z     -49.511448      52.822963       3.311514     -15.697370     -12.385855
 
   | dipole moment | =    64.3763 a.u. =   163.6282 debye 
 
 ------------------------------------------------------------------------------
                     quadrupole moment
 ------------------------------------------------------------------------------
  xx    7208.517331   -7289.364283     -80.846953     306.760635     225.913682
  yy    8917.172190   -8953.706031     -36.533842     423.872172     387.338330
  zz    2557.082901   -2700.477815    -143.394914     471.488250     328.093336
  xy     717.916620    -686.613529      31.303091    -689.835286    -658.532195
  xz    -382.281133     406.871449      24.590316    -198.032945    -173.442629
  yz    -617.502861     641.555635      24.052774    -391.873203    -367.820429
 
     1/3  trace=     313.781783
     anisotropy=    1348.006260
 
 ==============================================================================
 


    ------------------------------------------------------------------------
         total  cpu-time : 56 minutes and 58 seconds
         total wall-time : 57 minutes and  8 seconds
    ------------------------------------------------------------------------


   ****  dscf : all done  ****


    2024-04-18 18:06:05.704 

