 operating system is UNIX !
 hostname is         dlt12.abaxnet

 dscf (dlt12.abaxnet) : TURBOMOLE V6.6( 19103 ) 21 May 2014 at 15:45:05
 Copyright (C) 2014 TURBOMOLE GmbH, Karlsruhe


    2023-02-13 11:55:56.548 



                             d s c f - program

                   idea & directorship : reinhart ahlrichs
                   program development : marco haeser
                                         michael baer
                           dft version : oliver treutler


                          quantum chemistry group
                          universitaet  karlsruhe
                                  germany




                          References             
                                                 
          TURBOMOLE:                             
              R. Ahlrichs, M. Baer, M. Haeser, H. Horn, and
              C. Koelmel
              Electronic structure calculations on workstation
              computers: the program system TURBOMOLE
              Chem. Phys. Lett. 162: 165 (1989)
          Density Functional:                              
              O. Treutler and R. Ahlrichs                      
              Efficient Molecular Numerical Integration Schemes
              J. Chem. Phys. 102: 346 (1995)                   
          Parallel Version:                                
              Performance of parallel TURBOMOLE for Density    
              Functional Calculations                          
              M. v. Arnim and R. Ahlrichs                      
              J. Comp. Chem. 19: 1746 (1998)                   
                                         




              +--------------------------------------------------+
              | Atomic coordinate, charge and isotop information |
              +--------------------------------------------------+

                    atomic coordinates            atom    charge  isotop
          1.25927523    2.28001328   -0.03534591    c      6.000     0
          2.55116382    0.00000201   -0.03367161    c      6.000     0
          1.25927901   -2.28001115   -0.03535725    c      6.000     0
         -1.33644503   -2.27982218   -0.03853010    c      6.000     0
         -2.68576996   -0.00000177   -0.03902521    c      6.000     0
         -1.33644692    2.27982053   -0.03851687    c      6.000     0
          2.30551832    4.03075383   -0.03226566    h      1.000     0
          2.30552399   -4.03074982   -0.03228455    h      1.000     0
         -2.35484679   -4.05309772   -0.04361913    h      1.000     0
         -2.35485435    4.05309229   -0.04359456    h      1.000     0
          5.28605674    0.00000012   -0.02677600    n      7.000     0
          6.37712225   -2.02807286   -0.02385071    o      8.000     0
          6.37712603    2.02807121   -0.02388283    o      8.000     0
         -5.26155739    0.00000012   -0.10505224    n      7.000     0
         -6.19557531   -1.60862547    0.27588254    h      1.000     0
         -6.19556964    1.60862760    0.27589009    h      1.000     0
 
       center of nuclear mass  :    1.36355447   -0.00000010   -0.03514747
       center of nuclear charge:    1.22197243   -0.00000009   -0.03093526

   *************************************************************************
   ADC(2) - opt by CAM-B3LYP gaussian                                       
   *************************************************************************



              +--------------------------------------------------+
              |               basis set information              |
              +--------------------------------------------------+

              we will work with the 1s 3p 5d 7f 9g ... basis set
              ...i.e. with spherical basis functions...

   type   atoms  prim   cont   basis
   ---------------------------------------------------------------------------
    c        6     52     37   def2-TZVPD   [6s3p3d1f|12s6p3d1f]
    h        6     11      9   def2-TZVPD   [3s2p|5s2p]
    n        2     52     37   def2-TZVPD   [6s3p3d1f|12s6p3d1f]
    o        2     55     40   def2-TZVPD   [6s4p3d1f|12s7p3d1f]
   ---------------------------------------------------------------------------
   total:   16    592    430
   ---------------------------------------------------------------------------

   total number of primitive shells          :   74
   total number of contracted shells         :  162
   total number of cartesian basis functions :  490
   total number of SCF-basis functions       :  430

 ==============================================================================
                      COSMO switched on
 ==============================================================================
 COSMO stati: segments per atom: H   32 other atoms   92

 symmetry group of the molecule :   c1 

 the group has the following generators :
   c1(z)

    1 symmetry operations found
 COSMO statistics: nps    664 npspher:    312

 symmetry group of the molecule :   c1 

 the group has the following generators :
   c1(z)

    1 symmetry operations found
 COSMO surface:
   number of segments:  664
   area (bohr**2):      573.250121
   volume (bohr**3):   1037.931543
 COSMO: check number of disjunct cavities:

       ... OK contiguous cavity found

 integral neglect threshold       :  0.68E-11
 integral storage threshold THIZE :  0.10E-04
 integral storage threshold THIME :         5


 DENSITY CONVERGENCE CHECK SWITCHED ON !
 SCF CONVERGENCE IF RMS(delta[D]) <     0.1000000000E-07


 symmetry group of the molecule :   c1 

 the group has the following generators :
   c1(z)

    1 symmetry operations found

 there are 1 real representations :   a   

 maximum number of shells which are related by symmetry :  1


    mo occupation :
   irrep   mo's   occupied
    a      430       36
 
 number of basis functions   :          430
 number of occupied orbitals :           36
 

          ------------------------
          nuclear repulsion energy  :   498.647120669    
          ------------------------

 
          -----------------
          -S,T+V- integrals
          -----------------

 1e-integrals will be neglected if expon. factor < 0.682033E-12
 
   Difference densities algorithm switched on.
   The maximal number of linear combinations of
   difference densities is          20 .

 automatic virtual orbital shift switched on 
      shift if e(lumo)-e(homo) < 0.10000000    


 DIIS switched on: error vector is FDS-SDF
 Max. Iterations for DIIS is     :   5
 DIIS matrix (see manual) 
    Scaling factor of diagonals  :  1.200
    threshold for scaling factor :  0.000

 scf convergence criterion : increment of total energy < .1000000D-06
                  and increment of one-electron energy < .1000000D-03

  MOs are in ASCII format !


 reading orbital data $scfmo  from file mos . 

 orbital characterization : scfconv=7
 

 DSCF restart information will be dumped onto file mos

 
                                              current damping :  0.300
 ITERATION  ENERGY          1e-ENERGY        2e-ENERGY     RMS[dD(SAO)]   TOL
   1  -489.41182997037    -1655.6858955     667.62694488    0.000D+00 0.680D-11
                          Ediel =    -0.009995973280
          max. resid. norm for Fia-block=  8.398D-07 for orbital     35a         
          max. resid. fock norm         =  5.333D-05 for orbital    186a         
          Delta Eig. =     0.0003294016 eV 
 
                                              current damping :  0.300
 ITERATION  ENERGY          1e-ENERGY        2e-ENERGY     RMS[dD(SAO)]   TOL
   2  -489.41182997012    -1655.6858952     667.62694459    0.936D-06 0.431D-11
                          Ediel =    -0.009995981402
          Norm of current diis error: 0.81329E-05
          max. resid. norm for Fia-block=  8.950D-07 for orbital     35a         
          max. resid. fock norm         =  1.473D-05 for orbital    186a         
          Delta Eig. =     0.0000696028 eV 

 ENERGY & DENSITY CONVERGED !

 
                                              current damping :  0.350
 ITERATION  ENERGY          1e-ENERGY        2e-ENERGY     RMS[dD(SAO)]   TOL
   3  -489.41182997167    -1655.6858958     667.62694512    0.396D-06 0.340D-11
                          Ediel =    -0.009995986228
          max. resid. norm for Fia-block=  4.021D-07 for orbital     35a         
          max. resid. fock norm         =  1.297D-05 for orbital    132a         
 COSMO: write data to file cosmotransfer

 convergence criteria satisfied after  3 iterations


   *************************************************************************
   ADC(2) - opt by CAM-B3LYP gaussian                                       
   *************************************************************************


                  ------------------------------------------ 
                 |  total energy      =   -489.41182997167  |
                  ------------------------------------------ 
                 :  kinetic energy    =    488.91837467877  :
                 :  potential energy  =   -978.33020465044  :
                 :  virial theorem    =      1.99899173812  :
                 :  wavefunction norm =      1.00000000000  :
                  .......................................... 


 orbitals $scfmo  will be written to file mos

    irrep                 32a         33a         34a         35a         36a   
 eigenvalues H         -0.48658    -0.47813    -0.45418    -0.36879    -0.32131
            eV         -13.2407    -13.0107    -12.3591    -10.0354     -8.7434
 occupation              2.0000      2.0000      2.0000      2.0000      2.0000 

    irrep                 37a         38a         39a         40a         41a   
 eigenvalues H          0.05161     0.06462     0.07993     0.08088     0.10073
            eV           1.4044      1.7584      2.1749      2.2007      2.7409
 
 ==============================================================================
                                  COSMO RESULTS
 ==============================================================================
  PARAMETER:
    nppa:      1082
    nspa:        92
    nsph:        32
    nps:        664
    npspher:    312
    disex:   10.0000    
    disex2:  4393.80    
    rsolv [A]: 1.3000
    routf:     0.8500
    phsran:    0.0    
    ampran:   0.10E-04
    cavity:  closed
    epsilon:     2.374
    refind:     1.300
    fepsi:      0.4780793
  CAVITY VOLUME/AREA [a.u.]:
    surface: V1.0, A matrix: V1.0
    area:   573.25
    volume:  1037.93
  SCREENING CHARGE:
    cosmo      :  -0.025685
    correction :   0.024927
    total      :  -0.000758
  ENERGIES [a.u.]:
    Total energy            =     -489.4118299717
    Total energy + OC corr. =     -489.4119137199
    Dielectric energy       =       -0.0099959862
    Diel. energy + OC corr. =       -0.0100797345
  ELEMENT RADIUS [A]: ATOM LIST
    c  2.00: 1-6
    h  1.30: 7-10,15,16
    n  1.83: 11,14
    o  1.72: 12,13
 ==============================================================================
 
 
 
 ==============================================================================
                           electrostatic moments
 ==============================================================================
 
              nuc           elec       ->  total
 ------------------------------------------------------------------------------
                          charge      
 ------------------------------------------------------------------------------
          72.000000     -72.000000      -0.000000
 
 ------------------------------------------------------------------------------
                       dipole moment  
 ------------------------------------------------------------------------------
   x      87.982015     -91.294896      -3.312881
   y      -0.000007       0.000139       0.000133
   z      -2.227339       2.489771       0.262432
 
   | dipole moment | =     3.3233 a.u. =     8.4469 debye 
 
 ------------------------------------------------------------------------------
                     quadrupole moment
 ------------------------------------------------------------------------------
  xx    1261.352988   -1313.341281     -51.988293
  yy     261.086150    -299.968583     -38.882433
  zz       0.298243     -45.575872     -45.277629
  xy      -0.000047      -0.000058      -0.000106
  xz      -2.721752       0.969034      -1.752718
  yz       0.000004       0.000196       0.000199
 
     1/3  trace=     -45.382785
     anisotropy=      11.750047
 
 ==============================================================================
 


    ------------------------------------------------------------------------
         total  cpu-time :  3 minutes and 19 seconds
         total wall-time :  3 minutes and 19 seconds
    ------------------------------------------------------------------------


   ****  dscf : all done  ****


    2023-02-13 11:59:15.835 

