 operating system is UNIX !
 hostname is         dlt12.abaxnet

 dscf (dlt12.abaxnet) : TURBOMOLE V6.6( 19103 ) 21 May 2014 at 15:45:05
 Copyright (C) 2014 TURBOMOLE GmbH, Karlsruhe


    2023-02-13 11:36:47.138 



                             d s c f - program

                   idea & directorship : reinhart ahlrichs
                   program development : marco haeser
                                         michael baer
                           dft version : oliver treutler


                          quantum chemistry group
                          universitaet  karlsruhe
                                  germany




                          References             
                                                 
          TURBOMOLE:                             
              R. Ahlrichs, M. Baer, M. Haeser, H. Horn, and
              C. Koelmel
              Electronic structure calculations on workstation
              computers: the program system TURBOMOLE
              Chem. Phys. Lett. 162: 165 (1989)
          Density Functional:                              
              O. Treutler and R. Ahlrichs                      
              Efficient Molecular Numerical Integration Schemes
              J. Chem. Phys. 102: 346 (1995)                   
          Parallel Version:                                
              Performance of parallel TURBOMOLE for Density    
              Functional Calculations                          
              M. v. Arnim and R. Ahlrichs                      
              J. Comp. Chem. 19: 1746 (1998)                   
                                         




              +--------------------------------------------------+
              | Atomic coordinate, charge and isotop information |
              +--------------------------------------------------+

                    atomic coordinates            atom    charge  isotop
          1.25927523    2.28001328   -0.03534591    c      6.000     0
          2.55116382    0.00000201   -0.03367161    c      6.000     0
          1.25927901   -2.28001115   -0.03535725    c      6.000     0
         -1.33644503   -2.27982218   -0.03853010    c      6.000     0
         -2.68576996   -0.00000177   -0.03902521    c      6.000     0
         -1.33644692    2.27982053   -0.03851687    c      6.000     0
          2.30551832    4.03075383   -0.03226566    h      1.000     0
          2.30552399   -4.03074982   -0.03228455    h      1.000     0
         -2.35484679   -4.05309772   -0.04361913    h      1.000     0
         -2.35485435    4.05309229   -0.04359456    h      1.000     0
          5.28605674    0.00000012   -0.02677600    n      7.000     0
          6.37712225   -2.02807286   -0.02385071    o      8.000     0
          6.37712603    2.02807121   -0.02388283    o      8.000     0
         -5.26155739    0.00000012   -0.10505224    n      7.000     0
         -6.19557531   -1.60862547    0.27588254    h      1.000     0
         -6.19556964    1.60862760    0.27589009    h      1.000     0
 
       center of nuclear mass  :    1.36355447   -0.00000010   -0.03514747
       center of nuclear charge:    1.22197243   -0.00000009   -0.03093526

   *************************************************************************
   ADC(2) - opt by CAM-B3LYP gaussian                                       
   *************************************************************************



              +--------------------------------------------------+
              |               basis set information              |
              +--------------------------------------------------+

              we will work with the 1s 3p 5d 7f 9g ... basis set
              ...i.e. with spherical basis functions...

   type   atoms  prim   cont   basis
   ---------------------------------------------------------------------------
    c        6     52     37   def2-TZVPD   [6s3p3d1f|12s6p3d1f]
    h        6     11      9   def2-TZVPD   [3s2p|5s2p]
    n        2     52     37   def2-TZVPD   [6s3p3d1f|12s6p3d1f]
    o        2     55     40   def2-TZVPD   [6s4p3d1f|12s7p3d1f]
   ---------------------------------------------------------------------------
   total:   16    592    430
   ---------------------------------------------------------------------------

   total number of primitive shells          :   74
   total number of contracted shells         :  162
   total number of cartesian basis functions :  490
   total number of SCF-basis functions       :  430

 ==============================================================================
                      COSMO switched on
 ==============================================================================
 COSMO stati: segments per atom: H   32 other atoms   92

 symmetry group of the molecule :   c1 

 the group has the following generators :
   c1(z)

    1 symmetry operations found
 COSMO statistics: nps    664 npspher:    312

 symmetry group of the molecule :   c1 

 the group has the following generators :
   c1(z)

    1 symmetry operations found
 COSMO surface:
   number of segments:  664
   area (bohr**2):      573.250121
   volume (bohr**3):   1037.931543
 COSMO: check number of disjunct cavities:

       ... OK contiguous cavity found

 integral neglect threshold       :  0.68E-11
 integral storage threshold THIZE :  0.10E-04
 integral storage threshold THIME :         5


 DENSITY CONVERGENCE CHECK SWITCHED ON !
 SCF CONVERGENCE IF RMS(delta[D]) <     0.1000000000E-07


 symmetry group of the molecule :   c1 

 the group has the following generators :
   c1(z)

    1 symmetry operations found

 there are 1 real representations :   a   

 maximum number of shells which are related by symmetry :  1


    mo occupation :
   irrep   mo's   occupied
    a      430       36
 
 number of basis functions   :          430
 number of occupied orbitals :           36
 

          ------------------------
          nuclear repulsion energy  :   498.647120669    
          ------------------------

 
          -----------------
          -S,T+V- integrals
          -----------------

 1e-integrals will be neglected if expon. factor < 0.682033E-12
 
   Difference densities algorithm switched on.
   The maximal number of linear combinations of
   difference densities is          20 .

 automatic virtual orbital shift switched on 
      shift if e(lumo)-e(homo) < 0.10000000    


 DIIS switched on: error vector is FDS-SDF
 Max. Iterations for DIIS is     :   5
 DIIS matrix (see manual) 
    Scaling factor of diagonals  :  1.200
    threshold for scaling factor :  0.000

 scf convergence criterion : increment of total energy < .1000000D-06
                  and increment of one-electron energy < .1000000D-03


 <geterg> : there is no data group $energy 

  MOs are in ASCII format !


 reading orbital data $scfmo  from file mos . 

 orbital characterization : expanded
 
 mo provided and orthogonalized by Cholesky decomposition

 DSCF restart information will be dumped onto file mos

 
                                              current damping :  0.300
 ITERATION  ENERGY          1e-ENERGY        2e-ENERGY     RMS[dD(SAO)]   TOL
   1  -487.42236951657    -1642.0295863     655.96009615    0.000D+00 0.680D-11
                          Ediel =    -0.037247183302
          max. resid. norm for Fia-block=  4.154D-01 for orbital     22a         
          max. resid. fock norm         =  9.184D+00 for orbital    168a         
          Delta Eig. =   933.8742099840 eV 
 
                                              current damping :  0.250
 ITERATION  ENERGY          1e-ENERGY        2e-ENERGY     RMS[dD(SAO)]   TOL
   2  -489.20113055257    -1654.4675440     666.61929276    0.509D-01 0.675D-11
                          Ediel =    -0.015014591874
          Norm of current diis error:  2.5502    
          max. resid. norm for Fia-block=  1.507D-01 for orbital     11a         
          max. resid. fock norm         =  3.322D-01 for orbital    415a         
          Delta Eig. =   212.6409969724 eV 
 
                                              current damping :  0.150
 ITERATION  ENERGY          1e-ENERGY        2e-ENERGY     RMS[dD(SAO)]   TOL
   3  -489.36753523531    -1655.1894729     667.17481695    0.105D-01 0.424D-11
                          Ediel =    -0.012583609955
          Norm of current diis error:  1.0047    
          max. resid. norm for Fia-block=  6.209D-02 for orbital     24a         
          max. resid. fock norm         =  7.077D-02 for orbital     24a         
          Delta Eig. =    50.0224303582 eV 
 
                                              current damping :  0.100
 ITERATION  ENERGY          1e-ENERGY        2e-ENERGY     RMS[dD(SAO)]   TOL
   4  -489.40688733138    -1655.5205200     667.46651197    0.315D-02 0.340D-11
                          Ediel =    -0.010444870885
          Norm of current diis error: 0.28323    
          max. resid. norm for Fia-block=  1.699D-02 for orbital     23a         
          max. resid. fock norm         =  2.013D-02 for orbital     11a         
          Delta Eig. =     5.8270665695 eV 
 
                                              current damping :  0.100
 ITERATION  ENERGY          1e-ENERGY        2e-ENERGY     RMS[dD(SAO)]   TOL
   5  -489.41108480995    -1655.7293385     667.67113303    0.909D-03 0.311D-11
                          Ediel =    -0.010243952247
          Norm of current diis error: 0.86056E-01
          max. resid. norm for Fia-block=  6.250D-03 for orbital     36a         
          max. resid. fock norm         =  1.073D-02 for orbital    425a         
 mo-orthogonalization: Cholesky decomposition
          Delta Eig. =     0.5701948296 eV 
 
                                              current damping :  0.150
 ITERATION  ENERGY          1e-ENERGY        2e-ENERGY     RMS[dD(SAO)]   TOL
   6  -489.41166607379    -1655.6912274     667.63244063    0.299D-03 0.292D-11
                          Ediel =    -0.010126590431
          Norm of current diis error: 0.34694E-01
          max. resid. norm for Fia-block=  3.468D-03 for orbital     36a         
          max. resid. fock norm         =  3.628D-03 for orbital     36a         
          Delta Eig. =     0.1139609751 eV 
 
                                              current damping :  0.100
 ITERATION  ENERGY          1e-ENERGY        2e-ENERGY     RMS[dD(SAO)]   TOL
   7  -489.41179522525    -1655.6872110     667.62829509    0.163D-03 0.275D-11
                          Ediel =    -0.010060784445
          Norm of current diis error: 0.16055E-01
          max. resid. norm for Fia-block=  1.839D-03 for orbital     36a         
          max. resid. fock norm         =  1.974D-03 for orbital     36a         
          Delta Eig. =     0.0510621574 eV 
 
                                              current damping :  0.150
 ITERATION  ENERGY          1e-ENERGY        2e-ENERGY     RMS[dD(SAO)]   TOL
   8  -489.41182573706    -1655.6896326     667.63068624    0.812D-04 0.259D-11
                          Ediel =    -0.010033752521
          Norm of current diis error: 0.53787E-02
          max. resid. norm for Fia-block=  6.850D-04 for orbital     36a         
          max. resid. fock norm         =  6.977D-04 for orbital     36a         
          Delta Eig. =     0.0132438025 eV 
 
                                              current damping :  0.200
 ITERATION  ENERGY          1e-ENERGY        2e-ENERGY     RMS[dD(SAO)]   TOL
   9  -489.41182934901    -1655.6861828     667.62723282    0.253D-04 0.250D-11
                          Ediel =    -0.010012359464
          Norm of current diis error: 0.20330E-02
          max. resid. norm for Fia-block=  2.529D-04 for orbital     36a         
          max. resid. fock norm         =  2.687D-04 for orbital     36a         
          Delta Eig. =     0.0058943677 eV 
 
                                              current damping :  0.250
 ITERATION  ENERGY          1e-ENERGY        2e-ENERGY     RMS[dD(SAO)]   TOL
  10  -489.41182983091    -1655.6862461     667.62729560    0.774D-05 0.243D-11
                          Ediel =    -0.010004890378
          Norm of current diis error: 0.86014E-03
          max. resid. norm for Fia-block=  1.204D-04 for orbital     36a         
          max. resid. fock norm         =  1.220D-04 for orbital     36a         
 mo-orthogonalization: Cholesky decomposition
          Delta Eig. =     0.0024751165 eV 
 
                                              current damping :  0.300
 ITERATION  ENERGY          1e-ENERGY        2e-ENERGY     RMS[dD(SAO)]   TOL
  11  -489.41182993006    -1655.6860522     667.62710162    0.362D-05 0.235D-11
                          Ediel =    -0.010000691745
          Norm of current diis error: 0.46142E-03
          max. resid. norm for Fia-block=  5.922D-05 for orbital     36a         
          max. resid. fock norm         =  6.283D-05 for orbital     37a         
          Delta Eig. =     0.0015769197 eV 
 
                                              current damping :  0.150
 ITERATION  ENERGY          1e-ENERGY        2e-ENERGY     RMS[dD(SAO)]   TOL
  12  -489.41182995842    -1655.6859794     667.62702878    0.196D-05 0.226D-11
                          Ediel =    -0.009998283942
          Norm of current diis error: 0.24049E-03
          max. resid. norm for Fia-block=  3.732D-05 for orbital     36a         
          max. resid. fock norm         =  3.753D-05 for orbital     36a         
          Delta Eig. =     0.0005720803 eV 
 
                                              current damping :  0.100
 ITERATION  ENERGY          1e-ENERGY        2e-ENERGY     RMS[dD(SAO)]   TOL
  13  -489.41182996844    -1655.6859079     667.62695725    0.124D-05 0.216D-11
                          Ediel =    -0.009996970885
          Norm of current diis error: 0.12786E-03
          max. resid. norm for Fia-block=  1.833D-05 for orbital     36a         
          max. resid. fock norm         =  1.987D-05 for orbital     37a         
          Delta Eig. =     0.0005434765 eV 
 
                                              current damping :  0.150
 ITERATION  ENERGY          1e-ENERGY        2e-ENERGY     RMS[dD(SAO)]   TOL
  14  -489.41182997170    -1655.6859151     667.62696441    0.876D-06 0.204D-11
                          Ediel =    -0.009996240966
          Norm of current diis error: 0.61295E-04
          max. resid. norm for Fia-block=  8.575D-06 for orbital     36a         
          max. resid. fock norm         =  1.506D-05 for orbital    186a         
          Delta Eig. =     0.0001959768 eV 
 
                                              current damping :  0.200
 ITERATION  ENERGY          1e-ENERGY        2e-ENERGY     RMS[dD(SAO)]   TOL
  15  -489.41182997214    -1655.6858931     667.62694249    0.456D-06 0.195D-11
                          Ediel =    -0.009996047733
          Norm of current diis error: 0.27745E-04
          max. resid. norm for Fia-block=  4.491D-06 for orbital     35a         
          max. resid. fock norm         =  1.638D-05 for orbital    186a         
 mo-orthogonalization: Cholesky decomposition
          Delta Eig. =     0.0001134673 eV 

 ENERGY & DENSITY CONVERGED !

 
                                              current damping :  0.250
 ITERATION  ENERGY          1e-ENERGY        2e-ENERGY     RMS[dD(SAO)]   TOL
  16  -489.41182997272    -1655.6858955     667.62694487    0.349D-06 0.194D-11
                          Ediel =    -0.009995973281
          max. resid. norm for Fia-block=  8.398D-07 for orbital     35a         
          max. resid. fock norm         =  4.119D-06 for orbital    186a         
 COSMO: write data to file cosmo_transfer.tmp

 convergence criteria satisfied after 16 iterations


   *************************************************************************
   ADC(2) - opt by CAM-B3LYP gaussian                                       
   *************************************************************************


                  ------------------------------------------ 
                 |  total energy      =   -489.41182997272  |
                  ------------------------------------------ 
                 :  kinetic energy    =    488.91837482643  :
                 :  potential energy  =   -978.33020479915  :
                 :  virial theorem    =      1.99899173842  :
                 :  wavefunction norm =      1.00000000000  :
                  .......................................... 


 <geterg> : there is no data group $energy 


 <skperg> : $end is missing 


 orbitals $scfmo  will be written to file mos

    irrep                 32a         33a         34a         35a         36a   
 eigenvalues H         -0.48658    -0.47813    -0.45418    -0.36879    -0.32131
            eV         -13.2407    -13.0107    -12.3591    -10.0354     -8.7434
 occupation              2.0000      2.0000      2.0000      2.0000      2.0000 

    irrep                 37a         38a         39a         40a         41a   
 eigenvalues H          0.05161     0.06462     0.07993     0.08088     0.10073
            eV           1.4044      1.7584      2.1749      2.2007      2.7409
 
 ==============================================================================
                                  COSMO RESULTS
 ==============================================================================
  PARAMETER:
    nppa:      1082
    nspa:        92
    nsph:        32
    nps:        664
    npspher:    312
    disex:   10.0000    
    disex2:  4393.80    
    rsolv [A]: 1.3000
    routf:     0.8500
    phsran:    0.0    
    ampran:   0.10E-04
    cavity:  closed
    epsilon:     2.374
    refind:     1.300
    fepsi:      0.4780793
  CAVITY VOLUME/AREA [a.u.]:
    surface: V1.0, A matrix: V1.0
    area:   573.25
    volume:  1037.93
  SCREENING CHARGE:
    cosmo      :  -0.025685
    correction :   0.024927
    total      :  -0.000758
  ENERGIES [a.u.]:
    Total energy            =     -489.4118299727
    Total energy + OC corr. =     -489.4119137204
    Dielectric energy       =       -0.0099959733
    Diel. energy + OC corr. =       -0.0100797209
  ELEMENT RADIUS [A]: ATOM LIST
    c  2.00: 1-6
    h  1.30: 7-10,15,16
    n  1.83: 11,14
    o  1.72: 12,13
 ==============================================================================
 
 
 
 ==============================================================================
                           electrostatic moments
 ==============================================================================
 
              nuc           elec       ->  total
 ------------------------------------------------------------------------------
                          charge      
 ------------------------------------------------------------------------------
          72.000000     -72.000000      -0.000000
 
 ------------------------------------------------------------------------------
                       dipole moment  
 ------------------------------------------------------------------------------
   x      87.982015     -91.294894      -3.312880
   y      -0.000007       0.000139       0.000133
   z      -2.227339       2.489770       0.262432
 
   | dipole moment | =     3.3233 a.u. =     8.4469 debye 
 
 ------------------------------------------------------------------------------
                     quadrupole moment
 ------------------------------------------------------------------------------
  xx    1261.352988   -1313.341273     -51.988285
  yy     261.086150    -299.968601     -38.882452
  zz       0.298243     -45.575864     -45.277621
  xy      -0.000047      -0.000058      -0.000106
  xz      -2.721752       0.969036      -1.752716
  yz       0.000004       0.000196       0.000199
 
     1/3  trace=     -45.382786
     anisotropy=      11.750025
 
 ==============================================================================
 


    ------------------------------------------------------------------------
         total  cpu-time : 18 minutes and 57 seconds
         total wall-time : 19 minutes and  9 seconds
    ------------------------------------------------------------------------


   ****  dscf : all done  ****


    2023-02-13 11:55:56.098 

