[Molden Format]
[Title]
ADC(2) - opt by CAM-B3LYP gaussian                                              
[Atoms] AU
 c     1    6 -.12589065566052E+01 -.22830902054421E+01 -.26005390588660E-01
 c     2    6 -.25569912224779E+01 0.86573078000000E-06 -.24733756079320E-01
 c     3    6 -.12589060841737E+01 0.22830907841707E+01 -.26008073999770E-01
 c     4    6 0.13324295737882E+01 0.22846183820847E+01 -.28114684000920E-01
 c     5    6 0.26867573459717E+01 0.39329925000000E-06 -.27723246129760E-01
 c     6    6 0.13324281942881E+01 -.22846180679178E+01 -.28111244699360E-01
 h     7    1 -.22982509786098E+01 -.40377481062879E+01 -.23319125993500E-01
 h     8    1 -.22982490510892E+01 0.40377494409070E+01 -.23324322740370E-01
 h     9    1 0.23514918675648E+01 0.40568894753521E+01 -.30529017005560E-01
 h    10    1 0.23514910360853E+01 -.40568888210345E+01 -.30521911635300E-01
 n    11    7 -.52742123095903E+01 0.14763485000000E-06 -.18925267070140E-01
 o    12    8 -.63809534361791E+01 0.20269762391752E+01 -.16457057973460E-01
 o    13    8 -.63809510362269E+01 -.20269772478165E+01 -.16464881439650E-01
 n    14    7 0.52454603626942E+01 -.57046108000000E-06 -.73989411041200E-01
 h    15    1 0.62036818842731E+01 0.16164996606794E+01 0.19711589672944E+00
 h    16    1 0.62036804102867E+01 -.16165023700742E+01 0.19711149366755E+00
[GTO]
    1 0
 s    6 1.00
 0.13575349682000E+05 0.60645503603591E-03
 0.20352333680000E+04 0.46979088884982E-02
 0.46322562359000E+03 0.24332477647552E-01
 0.13120019598000E+03 0.97399968307759E-01
 0.42853015891000E+02 0.30195584253780E+00
 0.15584185766000E+02 0.66233609137875E+00
 s    2 1.00
 0.62067138508000E+01 0.65595308539952E+00
 0.25764896527000E+01 0.37585633285142E+00
 s    1 1.00
 0.57696339419000E+00 0.10000000000000E+01
 s    1 1.00
 0.22972831358000E+00 0.10000000000000E+01
 s    1 1.00
 0.95164440028000E-01 0.10000000000000E+01
 s    1 1.00
 0.48475401370000E-01 0.10000000000000E+01
 p    4 1.00
 0.34697232244000E+02 0.11327220003114E-01
 0.79582622826000E+01 0.76169659202087E-01
 0.23780826883000E+01 0.30192252202676E+00
 0.81433208183000E+00 0.72785027349547E+00
 p    1 1.00
 0.28887547253000E+00 0.10000000000000E+01
 p    1 1.00
 0.10056823671000E+00 0.10000000000000E+01
 d    1 1.00
 0.10970000000000E+01 0.10000000000000E+01
 d    1 1.00
 0.31800000000000E+00 0.10000000000000E+01
 d    1 1.00
 0.90985336424000E-01 0.10000000000000E+01
 f    1 1.00
 0.76100000000000E+00 0.10000000000000E+01
 
    2 0
 s    6 1.00
 0.13575349682000E+05 0.60645503603591E-03
 0.20352333680000E+04 0.46979088884982E-02
 0.46322562359000E+03 0.24332477647552E-01
 0.13120019598000E+03 0.97399968307759E-01
 0.42853015891000E+02 0.30195584253780E+00
 0.15584185766000E+02 0.66233609137875E+00
 s    2 1.00
 0.62067138508000E+01 0.65595308539952E+00
 0.25764896527000E+01 0.37585633285142E+00
 s    1 1.00
 0.57696339419000E+00 0.10000000000000E+01
 s    1 1.00
 0.22972831358000E+00 0.10000000000000E+01
 s    1 1.00
 0.95164440028000E-01 0.10000000000000E+01
 s    1 1.00
 0.48475401370000E-01 0.10000000000000E+01
 p    4 1.00
 0.34697232244000E+02 0.11327220003114E-01
 0.79582622826000E+01 0.76169659202087E-01
 0.23780826883000E+01 0.30192252202676E+00
 0.81433208183000E+00 0.72785027349547E+00
 p    1 1.00
 0.28887547253000E+00 0.10000000000000E+01
 p    1 1.00
 0.10056823671000E+00 0.10000000000000E+01
 d    1 1.00
 0.10970000000000E+01 0.10000000000000E+01
 d    1 1.00
 0.31800000000000E+00 0.10000000000000E+01
 d    1 1.00
 0.90985336424000E-01 0.10000000000000E+01
 f    1 1.00
 0.76100000000000E+00 0.10000000000000E+01
 
    3 0
 s    6 1.00
 0.13575349682000E+05 0.60645503603591E-03
 0.20352333680000E+04 0.46979088884982E-02
 0.46322562359000E+03 0.24332477647552E-01
 0.13120019598000E+03 0.97399968307759E-01
 0.42853015891000E+02 0.30195584253780E+00
 0.15584185766000E+02 0.66233609137875E+00
 s    2 1.00
 0.62067138508000E+01 0.65595308539952E+00
 0.25764896527000E+01 0.37585633285142E+00
 s    1 1.00
 0.57696339419000E+00 0.10000000000000E+01
 s    1 1.00
 0.22972831358000E+00 0.10000000000000E+01
 s    1 1.00
 0.95164440028000E-01 0.10000000000000E+01
 s    1 1.00
 0.48475401370000E-01 0.10000000000000E+01
 p    4 1.00
 0.34697232244000E+02 0.11327220003114E-01
 0.79582622826000E+01 0.76169659202087E-01
 0.23780826883000E+01 0.30192252202676E+00
 0.81433208183000E+00 0.72785027349547E+00
 p    1 1.00
 0.28887547253000E+00 0.10000000000000E+01
 p    1 1.00
 0.10056823671000E+00 0.10000000000000E+01
 d    1 1.00
 0.10970000000000E+01 0.10000000000000E+01
 d    1 1.00
 0.31800000000000E+00 0.10000000000000E+01
 d    1 1.00
 0.90985336424000E-01 0.10000000000000E+01
 f    1 1.00
 0.76100000000000E+00 0.10000000000000E+01
 
    4 0
 s    6 1.00
 0.13575349682000E+05 0.60645503603591E-03
 0.20352333680000E+04 0.46979088884982E-02
 0.46322562359000E+03 0.24332477647552E-01
 0.13120019598000E+03 0.97399968307759E-01
 0.42853015891000E+02 0.30195584253780E+00
 0.15584185766000E+02 0.66233609137875E+00
 s    2 1.00
 0.62067138508000E+01 0.65595308539952E+00
 0.25764896527000E+01 0.37585633285142E+00
 s    1 1.00
 0.57696339419000E+00 0.10000000000000E+01
 s    1 1.00
 0.22972831358000E+00 0.10000000000000E+01
 s    1 1.00
 0.95164440028000E-01 0.10000000000000E+01
 s    1 1.00
 0.48475401370000E-01 0.10000000000000E+01
 p    4 1.00
 0.34697232244000E+02 0.11327220003114E-01
 0.79582622826000E+01 0.76169659202087E-01
 0.23780826883000E+01 0.30192252202676E+00
 0.81433208183000E+00 0.72785027349547E+00
 p    1 1.00
 0.28887547253000E+00 0.10000000000000E+01
 p    1 1.00
 0.10056823671000E+00 0.10000000000000E+01
 d    1 1.00
 0.10970000000000E+01 0.10000000000000E+01
 d    1 1.00
 0.31800000000000E+00 0.10000000000000E+01
 d    1 1.00
 0.90985336424000E-01 0.10000000000000E+01
 f    1 1.00
 0.76100000000000E+00 0.10000000000000E+01
 
    5 0
 s    6 1.00
 0.13575349682000E+05 0.60645503603591E-03
 0.20352333680000E+04 0.46979088884982E-02
 0.46322562359000E+03 0.24332477647552E-01
 0.13120019598000E+03 0.97399968307759E-01
 0.42853015891000E+02 0.30195584253780E+00
 0.15584185766000E+02 0.66233609137875E+00
 s    2 1.00
 0.62067138508000E+01 0.65595308539952E+00
 0.25764896527000E+01 0.37585633285142E+00
 s    1 1.00
 0.57696339419000E+00 0.10000000000000E+01
 s    1 1.00
 0.22972831358000E+00 0.10000000000000E+01
 s    1 1.00
 0.95164440028000E-01 0.10000000000000E+01
 s    1 1.00
 0.48475401370000E-01 0.10000000000000E+01
 p    4 1.00
 0.34697232244000E+02 0.11327220003114E-01
 0.79582622826000E+01 0.76169659202087E-01
 0.23780826883000E+01 0.30192252202676E+00
 0.81433208183000E+00 0.72785027349547E+00
 p    1 1.00
 0.28887547253000E+00 0.10000000000000E+01
 p    1 1.00
 0.10056823671000E+00 0.10000000000000E+01
 d    1 1.00
 0.10970000000000E+01 0.10000000000000E+01
 d    1 1.00
 0.31800000000000E+00 0.10000000000000E+01
 d    1 1.00
 0.90985336424000E-01 0.10000000000000E+01
 f    1 1.00
 0.76100000000000E+00 0.10000000000000E+01
 
    6 0
 s    6 1.00
 0.13575349682000E+05 0.60645503603591E-03
 0.20352333680000E+04 0.46979088884982E-02
 0.46322562359000E+03 0.24332477647552E-01
 0.13120019598000E+03 0.97399968307759E-01
 0.42853015891000E+02 0.30195584253780E+00
 0.15584185766000E+02 0.66233609137875E+00
 s    2 1.00
 0.62067138508000E+01 0.65595308539952E+00
 0.25764896527000E+01 0.37585633285142E+00
 s    1 1.00
 0.57696339419000E+00 0.10000000000000E+01
 s    1 1.00
 0.22972831358000E+00 0.10000000000000E+01
 s    1 1.00
 0.95164440028000E-01 0.10000000000000E+01
 s    1 1.00
 0.48475401370000E-01 0.10000000000000E+01
 p    4 1.00
 0.34697232244000E+02 0.11327220003114E-01
 0.79582622826000E+01 0.76169659202087E-01
 0.23780826883000E+01 0.30192252202676E+00
 0.81433208183000E+00 0.72785027349547E+00
 p    1 1.00
 0.28887547253000E+00 0.10000000000000E+01
 p    1 1.00
 0.10056823671000E+00 0.10000000000000E+01
 d    1 1.00
 0.10970000000000E+01 0.10000000000000E+01
 d    1 1.00
 0.31800000000000E+00 0.10000000000000E+01
 d    1 1.00
 0.90985336424000E-01 0.10000000000000E+01
 f    1 1.00
 0.76100000000000E+00 0.10000000000000E+01
 
    7 0
 s    3 1.00
 0.34061341000000E+02 0.25439307208879E-01
 0.51235746000000E+01 0.19008594890375E+00
 0.11646626000000E+01 0.85244113011042E+00
 s    1 1.00
 0.32723041000000E+00 0.10000000000000E+01
 s    1 1.00
 0.10307241000000E+00 0.10000000000000E+01
 p    1 1.00
 0.80000000000000E+00 0.10000000000000E+01
 p    1 1.00
 0.95774129632000E-01 0.10000000000000E+01
 
    8 0
 s    3 1.00
 0.34061341000000E+02 0.25439307208879E-01
 0.51235746000000E+01 0.19008594890375E+00
 0.11646626000000E+01 0.85244113011042E+00
 s    1 1.00
 0.32723041000000E+00 0.10000000000000E+01
 s    1 1.00
 0.10307241000000E+00 0.10000000000000E+01
 p    1 1.00
 0.80000000000000E+00 0.10000000000000E+01
 p    1 1.00
 0.95774129632000E-01 0.10000000000000E+01
 
    9 0
 s    3 1.00
 0.34061341000000E+02 0.25439307208879E-01
 0.51235746000000E+01 0.19008594890375E+00
 0.11646626000000E+01 0.85244113011042E+00
 s    1 1.00
 0.32723041000000E+00 0.10000000000000E+01
 s    1 1.00
 0.10307241000000E+00 0.10000000000000E+01
 p    1 1.00
 0.80000000000000E+00 0.10000000000000E+01
 p    1 1.00
 0.95774129632000E-01 0.10000000000000E+01
 
   10 0
 s    3 1.00
 0.34061341000000E+02 0.25439307208879E-01
 0.51235746000000E+01 0.19008594890375E+00
 0.11646626000000E+01 0.85244113011042E+00
 s    1 1.00
 0.32723041000000E+00 0.10000000000000E+01
 s    1 1.00
 0.10307241000000E+00 0.10000000000000E+01
 p    1 1.00
 0.80000000000000E+00 0.10000000000000E+01
 p    1 1.00
 0.95774129632000E-01 0.10000000000000E+01
 
   11 0
 s    6 1.00
 0.19730800647000E+05 0.58626402628763E-03
 0.29578958745000E+04 0.45428820586397E-02
 0.67322133595000E+03 0.23558413450084E-01
 0.19068249494000E+03 0.94709193292923E-01
 0.62295441898000E+02 0.29719784913376E+00
 0.22654161182000E+02 0.66916246895232E+00
 s    2 1.00
 0.89791477428000E+01 0.64596683630063E+00
 0.36863002370000E+01 0.38700574393705E+00
 s    1 1.00
 0.84660076805000E+00 0.10000000000000E+01
 s    1 1.00
 0.33647133771000E+00 0.10000000000000E+01
 s    1 1.00
 0.13647653675000E+00 0.10000000000000E+01
 s    1 1.00
 0.68441605847000E-01 0.10000000000000E+01
 p    4 1.00
 0.49200380510000E+02 0.11448825101764E-01
 0.11346790537000E+02 0.78422337970864E-01
 0.34273972411000E+01 0.30818094738830E+00
 0.11785525134000E+01 0.72027196368413E+00
 p    1 1.00
 0.41642204972000E+00 0.10000000000000E+01
 p    1 1.00
 0.14260826011000E+00 0.10000000000000E+01
 d    1 1.00
 0.16540000000000E+01 0.10000000000000E+01
 d    1 1.00
 0.46900000000000E+00 0.10000000000000E+01
 d    1 1.00
 0.12829642058000E+00 0.10000000000000E+01
 f    1 1.00
 0.10930000000000E+01 0.10000000000000E+01
 
   12 0
 s    6 1.00
 0.27032382631000E+05 0.57227335211155E-03
 0.40523871392000E+04 0.44353233492995E-02
 0.92232722710000E+03 0.23020107706038E-01
 0.26124070989000E+03 0.92822490667928E-01
 0.85354641351000E+02 0.29378500009671E+00
 0.31035035245000E+02 0.67401604501641E+00
 s    2 1.00
 0.12260860728000E+02 0.63839937025506E+00
 0.49987076005000E+01 0.39534587125718E+00
 s    1 1.00
 0.11703108158000E+01 0.10000000000000E+01
 s    1 1.00
 0.46474740994000E+00 0.10000000000000E+01
 s    1 1.00
 0.18504536357000E+00 0.10000000000000E+01
 s    1 1.00
 0.70288026270000E-01 0.10000000000000E+01
 p    4 1.00
 0.63274954801000E+02 0.12018332222616E-01
 0.14627049379000E+02 0.83005421790056E-01
 0.44501223456000E+01 0.31991743925964E+00
 0.15275799647000E+01 0.70715542916104E+00
 p    1 1.00
 0.52935117943000E+00 0.10000000000000E+01
 p    1 1.00
 0.17478421270000E+00 0.10000000000000E+01
 p    1 1.00
 0.51112745706000E-01 0.10000000000000E+01
 d    1 1.00
 0.23140000000000E+01 0.10000000000000E+01
 d    1 1.00
 0.64500000000000E+00 0.10000000000000E+01
 d    1 1.00
 0.14696477366000E+00 0.10000000000000E+01
 f    1 1.00
 0.14280000000000E+01 0.10000000000000E+01
 
   13 0
 s    6 1.00
 0.27032382631000E+05 0.57227335211155E-03
 0.40523871392000E+04 0.44353233492995E-02
 0.92232722710000E+03 0.23020107706038E-01
 0.26124070989000E+03 0.92822490667928E-01
 0.85354641351000E+02 0.29378500009671E+00
 0.31035035245000E+02 0.67401604501641E+00
 s    2 1.00
 0.12260860728000E+02 0.63839937025506E+00
 0.49987076005000E+01 0.39534587125718E+00
 s    1 1.00
 0.11703108158000E+01 0.10000000000000E+01
 s    1 1.00
 0.46474740994000E+00 0.10000000000000E+01
 s    1 1.00
 0.18504536357000E+00 0.10000000000000E+01
 s    1 1.00
 0.70288026270000E-01 0.10000000000000E+01
 p    4 1.00
 0.63274954801000E+02 0.12018332222616E-01
 0.14627049379000E+02 0.83005421790056E-01
 0.44501223456000E+01 0.31991743925964E+00
 0.15275799647000E+01 0.70715542916104E+00
 p    1 1.00
 0.52935117943000E+00 0.10000000000000E+01
 p    1 1.00
 0.17478421270000E+00 0.10000000000000E+01
 p    1 1.00
 0.51112745706000E-01 0.10000000000000E+01
 d    1 1.00
 0.23140000000000E+01 0.10000000000000E+01
 d    1 1.00
 0.64500000000000E+00 0.10000000000000E+01
 d    1 1.00
 0.14696477366000E+00 0.10000000000000E+01
 f    1 1.00
 0.14280000000000E+01 0.10000000000000E+01
 
   14 0
 s    6 1.00
 0.19730800647000E+05 0.58626402628763E-03
 0.29578958745000E+04 0.45428820586397E-02
 0.67322133595000E+03 0.23558413450084E-01
 0.19068249494000E+03 0.94709193292923E-01
 0.62295441898000E+02 0.29719784913376E+00
 0.22654161182000E+02 0.66916246895232E+00
 s    2 1.00
 0.89791477428000E+01 0.64596683630063E+00
 0.36863002370000E+01 0.38700574393705E+00
 s    1 1.00
 0.84660076805000E+00 0.10000000000000E+01
 s    1 1.00
 0.33647133771000E+00 0.10000000000000E+01
 s    1 1.00
 0.13647653675000E+00 0.10000000000000E+01
 s    1 1.00
 0.68441605847000E-01 0.10000000000000E+01
 p    4 1.00
 0.49200380510000E+02 0.11448825101764E-01
 0.11346790537000E+02 0.78422337970864E-01
 0.34273972411000E+01 0.30818094738830E+00
 0.11785525134000E+01 0.72027196368413E+00
 p    1 1.00
 0.41642204972000E+00 0.10000000000000E+01
 p    1 1.00
 0.14260826011000E+00 0.10000000000000E+01
 d    1 1.00
 0.16540000000000E+01 0.10000000000000E+01
 d    1 1.00
 0.46900000000000E+00 0.10000000000000E+01
 d    1 1.00
 0.12829642058000E+00 0.10000000000000E+01
 f    1 1.00
 0.10930000000000E+01 0.10000000000000E+01
 
   15 0
 s    3 1.00
 0.34061341000000E+02 0.25439307208879E-01
 0.51235746000000E+01 0.19008594890375E+00
 0.11646626000000E+01 0.85244113011042E+00
 s    1 1.00
 0.32723041000000E+00 0.10000000000000E+01
 s    1 1.00
 0.10307241000000E+00 0.10000000000000E+01
 p    1 1.00
 0.80000000000000E+00 0.10000000000000E+01
 p    1 1.00
 0.95774129632000E-01 0.10000000000000E+01
 
   16 0
 s    3 1.00
 0.34061341000000E+02 0.25439307208879E-01
 0.51235746000000E+01 0.19008594890375E+00
 0.11646626000000E+01 0.85244113011042E+00
 s    1 1.00
 0.32723041000000E+00 0.10000000000000E+01
 s    1 1.00
 0.10307241000000E+00 0.10000000000000E+01
 p    1 1.00
 0.80000000000000E+00 0.10000000000000E+01
 p    1 1.00
 0.95774129632000E-01 0.10000000000000E+01
 
[MO]
 Sym= X
 Ene= -0.234133
 Spin= Alpha
 Occup= -0.234133
         1   -2.035381E-04
         2   -4.729580E-04
         3    1.289662E-03
         4   -2.661498E-03
         5   -9.162840E-03
         6   -1.166456E-02
         7    2.203268E-03
         8    2.069143E-04
         9    7.526000E-03
        10   -2.149627E-03
        11    4.280495E-04
        12    5.967390E-03
        13   -3.592575E-02
        14    1.014086E-02
        15   -1.544453E-03
        16    2.192510E-05
        17   -3.239789E-05
        18    1.047278E-05
        19   -1.687777E-05
        20   -6.306893E-03
        21    3.309551E-03
        22   -6.629871E-04
        23    3.948927E-04
        24    2.680944E-04
        25   -7.433021E-04
        26   -1.412550E-02
        27    6.362400E-03
        28   -5.142228E-03
        29    4.821565E-03
        30    3.206633E-04
        31    1.147131E-03
        32    2.367968E-03
        33   -1.033999E-02
        34   -1.895058E-05
        35    7.016719E-06
        36    3.964010E-05
        37    7.980849E-06
        38   -6.927070E-06
        39   -7.850330E-04
        40    1.744402E-05
        41   -2.486847E-06
        42    7.318502E-04
        43   -6.422154E-04
        44    3.482755E-05
        45    7.644272E-05
        46    1.250500E-04
        47   -2.981911E-03
        48   -5.009445E-02
        49    6.093287E-03
        50    5.363222E-05
        51    1.946586E-06
        52    1.784961E-01
        53   -7.267709E-04
        54    1.803267E-05
        55    1.859037E-01
        56   -1.660971E-02
        57   -7.207020E-04
        58    1.908149E-01
        59    6.355634E-05
        60   -6.104328E-05
        61   -2.513062E-06
        62    1.012455E-07
        63   -1.180595E-03
        64    2.051485E-07
        65    4.225781E-04
        66   -6.814875E-04
        67    2.589094E-04
        68    4.038924E-06
        69   -4.120988E-03
        70    3.613959E-07
        71    9.490133E-03
        72   -1.061082E-02
        73    1.120684E-03
        74   -1.100612E-04
        75    4.043697E-03
        76   -1.597382E-05
        77    5.710364E-06
        78    2.573677E-08
        79   -9.517827E-04
        80   -6.410985E-06
        81    3.900614E-08
        82    6.058657E-04
        83   -1.250272E-06
        84   -7.353564E-08
        85    6.710848E-04
        86    5.719470E-08
        87   -2.035693E-04
        88   -4.730201E-04
        89    1.290956E-03
        90   -2.680143E-03
        91   -7.436557E-03
        92   -1.164038E-02
        93    2.204707E-03
        94   -2.104302E-04
        95    7.537720E-03
        96   -2.113573E-03
        97   -4.240589E-04
        98    5.974595E-03
        99   -3.621060E-02
       100   -1.080504E-02
       101   -1.537387E-03
       102    2.200800E-05
       103   -3.242872E-05
       104    1.042073E-05
       105    1.725346E-05
       106   -6.306641E-03
       107   -3.309675E-03
       108   -6.553619E-04
       109    3.871777E-04
       110    2.681842E-04
       111    7.403544E-04
       112   -1.412595E-02
       113   -6.361452E-03
       114   -5.246934E-03
       115    4.936363E-03
       116    3.105707E-04
       117   -1.040364E-03
       118    2.351467E-03
       119    1.033231E-02
       120   -1.894884E-05
       121   -6.984463E-06
       122    3.968917E-05
       123    8.154519E-06
       124    6.857731E-06
       125   -7.851146E-04
       126    1.726801E-05
       127    2.512910E-06
       128    7.318660E-04
       129    6.421529E-04
       130    1.346722E-04
       131    2.919024E-04
       132    5.510728E-04
       133   -1.077846E-02
       134    2.910275E-02
       135    1.320006E-02
       136   -1.904121E-03
       137    7.529796E-04
       138   -1.626069E-01
       139   -9.817687E-03
       140    6.402791E-03
       141   -1.652369E-01
       142   -2.453313E-02
       143   -8.452421E-03
       144   -9.770466E-02
       145    1.730005E-04
       146   -2.046087E-04
       147    3.160812E-05
       148   -3.577004E-06
       149   -4.486731E-04
       150    3.072537E-03
       151    6.624724E-04
       152   -7.963622E-04
       153    1.338898E-04
       154    1.753670E-03
       155   -3.389021E-03
       156    5.131702E-03
       157    8.567413E-03
       158   -6.750227E-03
       159   -1.817186E-03
       160   -8.994965E-03
       161    3.666354E-03
       162   -1.275223E-02
       163   -1.655000E-05
       164    1.066052E-05
       165    9.473872E-04
       166   -2.057181E-05
       167    1.658609E-05
       168   -3.064657E-04
       169    4.277596E-05
       170   -3.088868E-05
       171   -9.645877E-04
       172    3.218316E-04
       173   -1.139767E-03
       174   -2.599122E-03
       175    2.703216E-03
       176    2.200070E-02
       177   -2.023524E-02
       178    8.817667E-03
       179    9.905986E-03
       180   -2.252930E-06
       181   -1.138980E-01
       182    7.481171E-04
       183   -1.168024E-05
       184   -1.165355E-01
       185   -2.754729E-02
       186    9.306747E-04
       187   -1.335434E-01
       188    5.315562E-04
       189   -3.106565E-04
       190   -2.208997E-04
       191    3.476665E-07
       192    1.036595E-02
       193    4.474543E-07
       194   -1.911976E-03
       195    4.189494E-03
       196   -2.277518E-03
       197    7.364923E-07
       198    2.554350E-02
       199   -1.655021E-06
       200   -5.996405E-03
       201    7.184721E-03
       202   -1.188316E-03
       203   -1.293275E-04
       204    1.936551E-02
       205    5.554158E-06
       206    1.207639E-04
       207    5.133665E-09
       208    3.434971E-04
       209   -8.347161E-05
       210   -2.989014E-08
       211    1.071152E-03
       212   -7.855013E-05
       213    2.300261E-08
       214   -1.532002E-03
       215    2.761366E-08
       216    1.350844E-04
       217    2.925989E-04
       218    5.508551E-04
       219   -1.078884E-02
       220    3.107246E-02
       221    1.321362E-02
       222   -1.903440E-03
       223   -7.440689E-04
       224   -1.626184E-01
       225   -9.837820E-03
       226   -6.404779E-03
       227   -1.652527E-01
       228   -2.413489E-02
       229    9.375351E-03
       230   -9.771560E-02
       231    1.729691E-04
       232   -2.049519E-04
       233    3.198283E-05
       234    4.052443E-06
       235   -4.486532E-04
       236   -3.072579E-03
       237    6.677673E-04
       238   -7.991810E-04
       239    1.314137E-04
       240   -1.757427E-03
       241   -3.385694E-03
       242   -5.131674E-03
       243    8.487379E-03
       244   -6.666466E-03
       245   -1.820913E-03
       246    9.118989E-03
       247    3.692310E-03
       248    1.275814E-02
       249   -1.673644E-05
       250   -1.069844E-05
       251    9.476154E-04
       252   -2.050811E-05
       253   -1.654648E-05
       254   -3.067606E-04
       255    4.296240E-05
       256    3.089994E-05
       257   -9.645990E-04
       258   -3.218655E-04
       259   -5.026552E-04
       260   -4.263676E-04
       261   -1.803951E-02
       262   -1.260744E-05
       263   -2.081281E-05
       264    3.649956E-04
       265   -5.460038E-03
       266   -3.440075E-04
       267   -6.406624E-03
       268   -5.054717E-04
       269   -4.204658E-04
       270   -1.799460E-02
       271   -1.171061E-05
       272    1.987871E-05
       273    3.653331E-04
       274   -5.551131E-03
       275    3.114562E-04
       276   -6.407961E-03
       277   -5.820127E-04
       278   -2.662836E-03
       279    3.570002E-02
       280   -1.268786E-05
       281    1.270901E-04
       282   -6.522624E-03
       283   -2.023186E-03
       284   -2.845979E-03
       285    2.121027E-03
       286   -5.864102E-04
       287   -2.673617E-03
       288    3.601052E-02
       289   -1.191810E-05
       290   -1.277190E-04
       291   -6.523837E-03
       292   -2.006788E-03
       293    2.902711E-03
       294    2.111834E-03
       295   -6.757686E-05
       296   -1.578726E-04
       297    1.639759E-04
       298    5.941331E-04
       299   -6.841143E-03
       300    6.351697E-04
       301    8.307304E-04
       302   -4.668072E-07
       303    2.825832E-02
       304    4.834859E-04
       305    4.208691E-07
       306    3.022316E-02
       307   -3.045458E-03
       308    3.623672E-05
       309    1.015933E-02
       310    3.401286E-05
       311   -2.413675E-05
       312   -9.876118E-06
       313    1.077920E-07
       314    3.869464E-03
       315    1.124356E-07
       316    4.095040E-05
       317    1.698669E-05
       318   -5.793709E-05
       319   -2.354873E-07
       320    1.182152E-02
       321    1.608723E-07
       322   -1.026231E-03
       323    2.898544E-03
       324   -1.872313E-03
       325    2.510314E-05
       326    2.656032E-03
       327    4.306246E-06
       328    7.018700E-06
       329    2.104055E-08
       330   -4.796699E-05
       331   -4.079307E-06
       332   -9.807773E-09
       333    6.416201E-04
       334   -5.337267E-06
       335   -1.842109E-08
       336   -5.772657E-04
       337   -1.165881E-08
       338   -1.617072E-05
       339   -3.583932E-05
       340    9.803255E-06
       341    5.652834E-04
       342   -6.007131E-03
       343   -9.109741E-04
       344   -5.575486E-04
       345    1.225801E-04
       346   -6.584892E-02
       347   -6.053722E-04
       348    2.471231E-04
       349   -6.122319E-02
       350   -1.708095E-03
       351    5.028045E-04
       352   -5.184529E-02
       353   -1.982787E-04
       354    2.004626E-04
       355   -6.772915E-03
       356    4.151717E-06
       357   -6.339794E-06
       358    2.188077E-06
       359    3.052825E-06
       360    8.235528E-05
       361    2.942884E-04
       362   -1.333718E-05
       363   -1.403665E-05
       364    2.737383E-05
       365    1.620359E-05
       366   -2.436397E-04
       367    1.047174E-03
       368   -8.190215E-05
       369    5.229824E-05
       370    2.960391E-05
       371    8.852246E-05
       372    3.129898E-05
       373    1.116401E-04
       374    1.204430E-06
       375    1.725905E-06
       376    3.317589E-05
       377   -2.292374E-06
       378   -5.182009E-08
       379    7.453900E-05
       380    6.764625E-07
       381   -2.263724E-06
       382   -1.190491E-04
       383    8.867393E-05
       384   -1.606671E-05
       385   -3.562588E-05
       386    9.980797E-06
       387    5.605775E-04
       388   -5.998660E-03
       389   -8.872168E-04
       390   -5.591274E-04
       391   -1.192364E-04
       392   -6.585380E-02
       393   -6.065376E-04
       394   -2.438850E-04
       395   -6.122841E-02
       396   -1.681932E-03
       397   -4.936764E-04
       398   -5.184131E-02
       399   -1.844913E-04
       400   -2.057354E-04
       401   -6.773943E-03
       402    4.114388E-06
       403   -6.303461E-06
       404    2.189073E-06
       405   -3.098429E-06
       406    8.230801E-05
       407   -2.943297E-04
       408   -1.323061E-05
       409   -1.384889E-05
       410    2.707950E-05
       411   -1.578750E-05
       412   -2.436651E-04
       413   -1.047327E-03
       414   -8.150840E-05
       415    5.387255E-05
       416    2.763585E-05
       417   -8.725006E-05
       418    3.128948E-05
       419   -1.107098E-04
       420    1.199496E-06
       421   -1.708991E-06
       422    3.318730E-05
       423   -2.269998E-06
       424    3.952895E-08
       425    7.453765E-05
       426    6.607055E-07
       427    2.253323E-06
       428   -1.190631E-04
       429   -8.869129E-05
       430    4.818856E-03
       431    1.146185E-02
       432   -1.793435E-02
       433   -2.793598E-02
       434   -2.139618E-02
       435   -6.972316E-02
       436   -1.804795E-02
       437    8.168398E-06
       438    2.624475E-01
       439   -2.066905E-02
       440    1.055645E-06
       441    2.592514E-01
       442   -1.972544E-02
       443   -1.101970E-04
       444    2.115029E-01
       445   -9.709981E-05
       446   -1.337862E-05
       447    1.104784E-04
       448    2.741357E-07
       449    7.591105E-04
       450    2.446155E-07
       451   -1.905759E-04
       452   -1.610997E-03
       453    1.801573E-03
       454   -3.867121E-06
       455    3.636156E-03
       456    1.514682E-06
       457   -1.714200E-03
       458   -3.313031E-03
       459    5.027232E-03
       460   -3.337935E-06
       461    2.292032E-03
       462    7.932267E-06
       463   -1.483464E-04
       464    3.590940E-08
       465   -1.044864E-03
       466   -8.562609E-05
       467   -6.545365E-09
       468    5.661145E-04
       469    2.846536E-04
       470   -4.163215E-08
       471    8.357173E-04
       472    3.129606E-09
       473    9.834565E-03
       474    1.862475E-02
       475    3.112351E-02
       476   -2.365626E-03
       477   -1.983862E-03
       478    1.328051E-02
       479    1.167348E-03
       480   -3.567592E-03
       481    1.511180E-02
       482    9.828652E-03
       483    1.855575E-02
       484    3.093347E-02
       485   -2.362207E-03
       486    1.977267E-03
       487    1.328385E-02
       488    1.184854E-03
       489    3.530916E-03
       490    1.512079E-02
 Sym= X
 Ene= -0.710137
 Spin= Alpha
 Occup= -0.710137
         1    1.973392E-05
         2    4.504509E-05
         3   -1.216457E-04
         4    2.382731E-04
         5    9.119402E-03
         6    4.229950E-04
         7    1.113282E-04
         8    1.272541E-04
         9    1.634345E-01
        10    5.661157E-04
        11    1.233046E-05
        12    1.638775E-01
        13   -3.625473E-03
        14    5.897529E-03
        15    9.166365E-02
        16    7.078755E-06
        17   -1.973009E-06
        18   -5.105746E-06
        19   -4.040862E-07
        20    4.406667E-03
        21    4.541965E-04
        22    1.027855E-04
        23   -6.080870E-05
        24   -4.197683E-05
        25   -1.330110E-05
        26    8.951640E-03
        27   -5.037292E-04
        28   -8.980645E-04
        29    1.040133E-03
        30   -1.420688E-04
        31   -4.662862E-04
        32    3.836088E-03
        33   -9.233523E-04
        34    4.098520E-06
        35    7.156670E-07
        36   -9.819672E-04
        37   -1.108009E-06
        38   -1.000118E-07
        39    1.195698E-03
        40   -4.390733E-06
        41   -8.601562E-07
        42    1.217491E-04
        43    2.616744E-05
        44    1.174620E-07
        45    2.120970E-07
        46    1.756305E-06
        47    4.274306E-06
        48   -2.071806E-03
        49   -1.298086E-04
        50    4.727122E-06
        51   -7.896446E-05
        52   -2.989156E-06
        53   -3.132971E-06
        54   -1.993327E-04
        55   -5.723821E-06
        56   -9.561189E-04
        57    8.973896E-03
        58    1.944280E-05
        59   -1.025925E-07
        60    1.054096E-07
        61   -2.817102E-09
        62   -7.666198E-06