[Molden Format]
[Title]
ADC(2) - opt by CAM-B3LYP gaussian                                              
[Atoms] AU
 c     1    6 -.12589065566052E+01 -.22830902054421E+01 -.26005390588660E-01
 c     2    6 -.25569912224779E+01 0.86573078000000E-06 -.24733756079320E-01
 c     3    6 -.12589060841737E+01 0.22830907841707E+01 -.26008073999770E-01
 c     4    6 0.13324295737882E+01 0.22846183820847E+01 -.28114684000920E-01
 c     5    6 0.26867573459717E+01 0.39329925000000E-06 -.27723246129760E-01
 c     6    6 0.13324281942881E+01 -.22846180679178E+01 -.28111244699360E-01
 h     7    1 -.22982509786098E+01 -.40377481062879E+01 -.23319125993500E-01
 h     8    1 -.22982490510892E+01 0.40377494409070E+01 -.23324322740370E-01
 h     9    1 0.23514918675648E+01 0.40568894753521E+01 -.30529017005560E-01
 h    10    1 0.23514910360853E+01 -.40568888210345E+01 -.30521911635300E-01
 n    11    7 -.52742123095903E+01 0.14763485000000E-06 -.18925267070140E-01
 o    12    8 -.63809534361791E+01 0.20269762391752E+01 -.16457057973460E-01
 o    13    8 -.63809510362269E+01 -.20269772478165E+01 -.16464881439650E-01
 n    14    7 0.52454603626942E+01 -.57046108000000E-06 -.73989411041200E-01
 h    15    1 0.62036818842731E+01 0.16164996606794E+01 0.19711589672944E+00
 h    16    1 0.62036804102867E+01 -.16165023700742E+01 0.19711149366755E+00
[GTO]
    1 0
 s    6 1.00
 0.13575349682000E+05 0.60645503603591E-03
 0.20352333680000E+04 0.46979088884982E-02
 0.46322562359000E+03 0.24332477647552E-01
 0.13120019598000E+03 0.97399968307759E-01
 0.42853015891000E+02 0.30195584253780E+00
 0.15584185766000E+02 0.66233609137875E+00
 s    2 1.00
 0.62067138508000E+01 0.65595308539952E+00
 0.25764896527000E+01 0.37585633285142E+00
 s    1 1.00
 0.57696339419000E+00 0.10000000000000E+01
 s    1 1.00
 0.22972831358000E+00 0.10000000000000E+01
 s    1 1.00
 0.95164440028000E-01 0.10000000000000E+01
 s    1 1.00
 0.48475401370000E-01 0.10000000000000E+01
 p    4 1.00
 0.34697232244000E+02 0.11327220003114E-01
 0.79582622826000E+01 0.76169659202087E-01
 0.23780826883000E+01 0.30192252202676E+00
 0.81433208183000E+00 0.72785027349547E+00
 p    1 1.00
 0.28887547253000E+00 0.10000000000000E+01
 p    1 1.00
 0.10056823671000E+00 0.10000000000000E+01
 d    1 1.00
 0.10970000000000E+01 0.10000000000000E+01
 d    1 1.00
 0.31800000000000E+00 0.10000000000000E+01
 d    1 1.00
 0.90985336424000E-01 0.10000000000000E+01
 f    1 1.00
 0.76100000000000E+00 0.10000000000000E+01
 
    2 0
 s    6 1.00
 0.13575349682000E+05 0.60645503603591E-03
 0.20352333680000E+04 0.46979088884982E-02
 0.46322562359000E+03 0.24332477647552E-01
 0.13120019598000E+03 0.97399968307759E-01
 0.42853015891000E+02 0.30195584253780E+00
 0.15584185766000E+02 0.66233609137875E+00
 s    2 1.00
 0.62067138508000E+01 0.65595308539952E+00
 0.25764896527000E+01 0.37585633285142E+00
 s    1 1.00
 0.57696339419000E+00 0.10000000000000E+01
 s    1 1.00
 0.22972831358000E+00 0.10000000000000E+01
 s    1 1.00
 0.95164440028000E-01 0.10000000000000E+01
 s    1 1.00
 0.48475401370000E-01 0.10000000000000E+01
 p    4 1.00
 0.34697232244000E+02 0.11327220003114E-01
 0.79582622826000E+01 0.76169659202087E-01
 0.23780826883000E+01 0.30192252202676E+00
 0.81433208183000E+00 0.72785027349547E+00
 p    1 1.00
 0.28887547253000E+00 0.10000000000000E+01
 p    1 1.00
 0.10056823671000E+00 0.10000000000000E+01
 d    1 1.00
 0.10970000000000E+01 0.10000000000000E+01
 d    1 1.00
 0.31800000000000E+00 0.10000000000000E+01
 d    1 1.00
 0.90985336424000E-01 0.10000000000000E+01
 f    1 1.00
 0.76100000000000E+00 0.10000000000000E+01
 
    3 0
 s    6 1.00
 0.13575349682000E+05 0.60645503603591E-03
 0.20352333680000E+04 0.46979088884982E-02
 0.46322562359000E+03 0.24332477647552E-01
 0.13120019598000E+03 0.97399968307759E-01
 0.42853015891000E+02 0.30195584253780E+00
 0.15584185766000E+02 0.66233609137875E+00
 s    2 1.00
 0.62067138508000E+01 0.65595308539952E+00
 0.25764896527000E+01 0.37585633285142E+00
 s    1 1.00
 0.57696339419000E+00 0.10000000000000E+01
 s    1 1.00
 0.22972831358000E+00 0.10000000000000E+01
 s    1 1.00
 0.95164440028000E-01 0.10000000000000E+01
 s    1 1.00
 0.48475401370000E-01 0.10000000000000E+01
 p    4 1.00
 0.34697232244000E+02 0.11327220003114E-01
 0.79582622826000E+01 0.76169659202087E-01
 0.23780826883000E+01 0.30192252202676E+00
 0.81433208183000E+00 0.72785027349547E+00
 p    1 1.00
 0.28887547253000E+00 0.10000000000000E+01
 p    1 1.00
 0.10056823671000E+00 0.10000000000000E+01
 d    1 1.00
 0.10970000000000E+01 0.10000000000000E+01
 d    1 1.00
 0.31800000000000E+00 0.10000000000000E+01
 d    1 1.00
 0.90985336424000E-01 0.10000000000000E+01
 f    1 1.00
 0.76100000000000E+00 0.10000000000000E+01
 
    4 0
 s    6 1.00
 0.13575349682000E+05 0.60645503603591E-03
 0.20352333680000E+04 0.46979088884982E-02
 0.46322562359000E+03 0.24332477647552E-01
 0.13120019598000E+03 0.97399968307759E-01
 0.42853015891000E+02 0.30195584253780E+00
 0.15584185766000E+02 0.66233609137875E+00
 s    2 1.00
 0.62067138508000E+01 0.65595308539952E+00
 0.25764896527000E+01 0.37585633285142E+00
 s    1 1.00
 0.57696339419000E+00 0.10000000000000E+01
 s    1 1.00
 0.22972831358000E+00 0.10000000000000E+01
 s    1 1.00
 0.95164440028000E-01 0.10000000000000E+01
 s    1 1.00
 0.48475401370000E-01 0.10000000000000E+01
 p    4 1.00
 0.34697232244000E+02 0.11327220003114E-01
 0.79582622826000E+01 0.76169659202087E-01
 0.23780826883000E+01 0.30192252202676E+00
 0.81433208183000E+00 0.72785027349547E+00
 p    1 1.00
 0.28887547253000E+00 0.10000000000000E+01
 p    1 1.00
 0.10056823671000E+00 0.10000000000000E+01
 d    1 1.00
 0.10970000000000E+01 0.10000000000000E+01
 d    1 1.00
 0.31800000000000E+00 0.10000000000000E+01
 d    1 1.00
 0.90985336424000E-01 0.10000000000000E+01
 f    1 1.00
 0.76100000000000E+00 0.10000000000000E+01
 
    5 0
 s    6 1.00
 0.13575349682000E+05 0.60645503603591E-03
 0.20352333680000E+04 0.46979088884982E-02
 0.46322562359000E+03 0.24332477647552E-01
 0.13120019598000E+03 0.97399968307759E-01
 0.42853015891000E+02 0.30195584253780E+00
 0.15584185766000E+02 0.66233609137875E+00
 s    2 1.00
 0.62067138508000E+01 0.65595308539952E+00
 0.25764896527000E+01 0.37585633285142E+00
 s    1 1.00
 0.57696339419000E+00 0.10000000000000E+01
 s    1 1.00
 0.22972831358000E+00 0.10000000000000E+01
 s    1 1.00
 0.95164440028000E-01 0.10000000000000E+01
 s    1 1.00
 0.48475401370000E-01 0.10000000000000E+01
 p    4 1.00
 0.34697232244000E+02 0.11327220003114E-01
 0.79582622826000E+01 0.76169659202087E-01
 0.23780826883000E+01 0.30192252202676E+00
 0.81433208183000E+00 0.72785027349547E+00
 p    1 1.00
 0.28887547253000E+00 0.10000000000000E+01
 p    1 1.00
 0.10056823671000E+00 0.10000000000000E+01
 d    1 1.00
 0.10970000000000E+01 0.10000000000000E+01
 d    1 1.00
 0.31800000000000E+00 0.10000000000000E+01
 d    1 1.00
 0.90985336424000E-01 0.10000000000000E+01
 f    1 1.00
 0.76100000000000E+00 0.10000000000000E+01
 
    6 0
 s    6 1.00
 0.13575349682000E+05 0.60645503603591E-03
 0.20352333680000E+04 0.46979088884982E-02
 0.46322562359000E+03 0.24332477647552E-01
 0.13120019598000E+03 0.97399968307759E-01
 0.42853015891000E+02 0.30195584253780E+00
 0.15584185766000E+02 0.66233609137875E+00
 s    2 1.00
 0.62067138508000E+01 0.65595308539952E+00
 0.25764896527000E+01 0.37585633285142E+00
 s    1 1.00
 0.57696339419000E+00 0.10000000000000E+01
 s    1 1.00
 0.22972831358000E+00 0.10000000000000E+01
 s    1 1.00
 0.95164440028000E-01 0.10000000000000E+01
 s    1 1.00
 0.48475401370000E-01 0.10000000000000E+01
 p    4 1.00
 0.34697232244000E+02 0.11327220003114E-01
 0.79582622826000E+01 0.76169659202087E-01
 0.23780826883000E+01 0.30192252202676E+00
 0.81433208183000E+00 0.72785027349547E+00
 p    1 1.00
 0.28887547253000E+00 0.10000000000000E+01
 p    1 1.00
 0.10056823671000E+00 0.10000000000000E+01
 d    1 1.00
 0.10970000000000E+01 0.10000000000000E+01
 d    1 1.00
 0.31800000000000E+00 0.10000000000000E+01
 d    1 1.00
 0.90985336424000E-01 0.10000000000000E+01
 f    1 1.00
 0.76100000000000E+00 0.10000000000000E+01
 
    7 0
 s    3 1.00
 0.34061341000000E+02 0.25439307208879E-01
 0.51235746000000E+01 0.19008594890375E+00
 0.11646626000000E+01 0.85244113011042E+00
 s    1 1.00
 0.32723041000000E+00 0.10000000000000E+01
 s    1 1.00
 0.10307241000000E+00 0.10000000000000E+01
 p    1 1.00
 0.80000000000000E+00 0.10000000000000E+01
 p    1 1.00
 0.95774129632000E-01 0.10000000000000E+01
 
    8 0
 s    3 1.00
 0.34061341000000E+02 0.25439307208879E-01
 0.51235746000000E+01 0.19008594890375E+00
 0.11646626000000E+01 0.85244113011042E+00
 s    1 1.00
 0.32723041000000E+00 0.10000000000000E+01
 s    1 1.00
 0.10307241000000E+00 0.10000000000000E+01
 p    1 1.00
 0.80000000000000E+00 0.10000000000000E+01
 p    1 1.00
 0.95774129632000E-01 0.10000000000000E+01
 
    9 0
 s    3 1.00
 0.34061341000000E+02 0.25439307208879E-01
 0.51235746000000E+01 0.19008594890375E+00
 0.11646626000000E+01 0.85244113011042E+00
 s    1 1.00
 0.32723041000000E+00 0.10000000000000E+01
 s    1 1.00
 0.10307241000000E+00 0.10000000000000E+01
 p    1 1.00
 0.80000000000000E+00 0.10000000000000E+01
 p    1 1.00
 0.95774129632000E-01 0.10000000000000E+01
 
   10 0
 s    3 1.00
 0.34061341000000E+02 0.25439307208879E-01
 0.51235746000000E+01 0.19008594890375E+00
 0.11646626000000E+01 0.85244113011042E+00
 s    1 1.00
 0.32723041000000E+00 0.10000000000000E+01
 s    1 1.00
 0.10307241000000E+00 0.10000000000000E+01
 p    1 1.00
 0.80000000000000E+00 0.10000000000000E+01
 p    1 1.00
 0.95774129632000E-01 0.10000000000000E+01
 
   11 0
 s    6 1.00
 0.19730800647000E+05 0.58626402628763E-03
 0.29578958745000E+04 0.45428820586397E-02
 0.67322133595000E+03 0.23558413450084E-01
 0.19068249494000E+03 0.94709193292923E-01
 0.62295441898000E+02 0.29719784913376E+00
 0.22654161182000E+02 0.66916246895232E+00
 s    2 1.00
 0.89791477428000E+01 0.64596683630063E+00
 0.36863002370000E+01 0.38700574393705E+00
 s    1 1.00
 0.84660076805000E+00 0.10000000000000E+01
 s    1 1.00
 0.33647133771000E+00 0.10000000000000E+01
 s    1 1.00
 0.13647653675000E+00 0.10000000000000E+01
 s    1 1.00
 0.68441605847000E-01 0.10000000000000E+01
 p    4 1.00
 0.49200380510000E+02 0.11448825101764E-01
 0.11346790537000E+02 0.78422337970864E-01
 0.34273972411000E+01 0.30818094738830E+00
 0.11785525134000E+01 0.72027196368413E+00
 p    1 1.00
 0.41642204972000E+00 0.10000000000000E+01
 p    1 1.00
 0.14260826011000E+00 0.10000000000000E+01
 d    1 1.00
 0.16540000000000E+01 0.10000000000000E+01
 d    1 1.00
 0.46900000000000E+00 0.10000000000000E+01
 d    1 1.00
 0.12829642058000E+00 0.10000000000000E+01
 f    1 1.00
 0.10930000000000E+01 0.10000000000000E+01
 
   12 0
 s    6 1.00
 0.27032382631000E+05 0.57227335211155E-03
 0.40523871392000E+04 0.44353233492995E-02
 0.92232722710000E+03 0.23020107706038E-01
 0.26124070989000E+03 0.92822490667928E-01
 0.85354641351000E+02 0.29378500009671E+00
 0.31035035245000E+02 0.67401604501641E+00
 s    2 1.00
 0.12260860728000E+02 0.63839937025506E+00
 0.49987076005000E+01 0.39534587125718E+00
 s    1 1.00
 0.11703108158000E+01 0.10000000000000E+01
 s    1 1.00
 0.46474740994000E+00 0.10000000000000E+01
 s    1 1.00
 0.18504536357000E+00 0.10000000000000E+01
 s    1 1.00
 0.70288026270000E-01 0.10000000000000E+01
 p    4 1.00
 0.63274954801000E+02 0.12018332222616E-01
 0.14627049379000E+02 0.83005421790056E-01
 0.44501223456000E+01 0.31991743925964E+00
 0.15275799647000E+01 0.70715542916104E+00
 p    1 1.00
 0.52935117943000E+00 0.10000000000000E+01
 p    1 1.00
 0.17478421270000E+00 0.10000000000000E+01
 p    1 1.00
 0.51112745706000E-01 0.10000000000000E+01
 d    1 1.00
 0.23140000000000E+01 0.10000000000000E+01
 d    1 1.00
 0.64500000000000E+00 0.10000000000000E+01
 d    1 1.00
 0.14696477366000E+00 0.10000000000000E+01
 f    1 1.00
 0.14280000000000E+01 0.10000000000000E+01
 
   13 0
 s    6 1.00
 0.27032382631000E+05 0.57227335211155E-03
 0.40523871392000E+04 0.44353233492995E-02
 0.92232722710000E+03 0.23020107706038E-01
 0.26124070989000E+03 0.92822490667928E-01
 0.85354641351000E+02 0.29378500009671E+00
 0.31035035245000E+02 0.67401604501641E+00
 s    2 1.00
 0.12260860728000E+02 0.63839937025506E+00
 0.49987076005000E+01 0.39534587125718E+00
 s    1 1.00
 0.11703108158000E+01 0.10000000000000E+01
 s    1 1.00
 0.46474740994000E+00 0.10000000000000E+01
 s    1 1.00
 0.18504536357000E+00 0.10000000000000E+01
 s    1 1.00
 0.70288026270000E-01 0.10000000000000E+01
 p    4 1.00
 0.63274954801000E+02 0.12018332222616E-01
 0.14627049379000E+02 0.83005421790056E-01
 0.44501223456000E+01 0.31991743925964E+00
 0.15275799647000E+01 0.70715542916104E+00
 p    1 1.00
 0.52935117943000E+00 0.10000000000000E+01
 p    1 1.00
 0.17478421270000E+00 0.10000000000000E+01
 p    1 1.00
 0.51112745706000E-01 0.10000000000000E+01
 d    1 1.00
 0.23140000000000E+01 0.10000000000000E+01
 d    1 1.00
 0.64500000000000E+00 0.10000000000000E+01
 d    1 1.00
 0.14696477366000E+00 0.10000000000000E+01
 f    1 1.00
 0.14280000000000E+01 0.10000000000000E+01
 
   14 0
 s    6 1.00
 0.19730800647000E+05 0.58626402628763E-03
 0.29578958745000E+04 0.45428820586397E-02
 0.67322133595000E+03 0.23558413450084E-01
 0.19068249494000E+03 0.94709193292923E-01
 0.62295441898000E+02 0.29719784913376E+00
 0.22654161182000E+02 0.66916246895232E+00
 s    2 1.00
 0.89791477428000E+01 0.64596683630063E+00
 0.36863002370000E+01 0.38700574393705E+00
 s    1 1.00
 0.84660076805000E+00 0.10000000000000E+01
 s    1 1.00
 0.33647133771000E+00 0.10000000000000E+01
 s    1 1.00
 0.13647653675000E+00 0.10000000000000E+01
 s    1 1.00
 0.68441605847000E-01 0.10000000000000E+01
 p    4 1.00
 0.49200380510000E+02 0.11448825101764E-01
 0.11346790537000E+02 0.78422337970864E-01
 0.34273972411000E+01 0.30818094738830E+00
 0.11785525134000E+01 0.72027196368413E+00
 p    1 1.00
 0.41642204972000E+00 0.10000000000000E+01
 p    1 1.00
 0.14260826011000E+00 0.10000000000000E+01
 d    1 1.00
 0.16540000000000E+01 0.10000000000000E+01
 d    1 1.00
 0.46900000000000E+00 0.10000000000000E+01
 d    1 1.00
 0.12829642058000E+00 0.10000000000000E+01
 f    1 1.00
 0.10930000000000E+01 0.10000000000000E+01
 
   15 0
 s    3 1.00
 0.34061341000000E+02 0.25439307208879E-01
 0.51235746000000E+01 0.19008594890375E+00
 0.11646626000000E+01 0.85244113011042E+00
 s    1 1.00
 0.32723041000000E+00 0.10000000000000E+01
 s    1 1.00
 0.10307241000000E+00 0.10000000000000E+01
 p    1 1.00
 0.80000000000000E+00 0.10000000000000E+01
 p    1 1.00
 0.95774129632000E-01 0.10000000000000E+01
 
   16 0
 s    3 1.00
 0.34061341000000E+02 0.25439307208879E-01
 0.51235746000000E+01 0.19008594890375E+00
 0.11646626000000E+01 0.85244113011042E+00
 s    1 1.00
 0.32723041000000E+00 0.10000000000000E+01
 s    1 1.00
 0.10307241000000E+00 0.10000000000000E+01
 p    1 1.00
 0.80000000000000E+00 0.10000000000000E+01
 p    1 1.00
 0.95774129632000E-01 0.10000000000000E+01
 
[MO]
 Sym= X
 Ene= -0.296716
 Spin= Alpha
 Occup= -0.296716
         1   -2.386582E-05
         2   -5.449080E-05
         3    1.438037E-04
         4   -2.569299E-04
         5   -9.751268E-03
         6   -5.518808E-04
         7   -1.409246E-04
         8   -1.668018E-04
         9   -1.894621E-01
        10   -6.204467E-04
        11   -4.352336E-05
        12   -1.899584E-01
        13    3.672051E-03
        14   -6.304353E-03
        15   -1.111980E-01
        16   -8.339186E-06
        17    2.748916E-06
        18    5.590270E-06
        19    1.451000E-06
        20   -4.979471E-03
        21   -5.498174E-04
        22   -1.093006E-04
        23    6.454964E-05
        24    4.475096E-05
        25    1.790074E-05
        26   -9.489197E-03
        27    3.954409E-04
        28    8.306145E-04
        29   -9.694753E-04
        30    1.388609E-04
        31    4.727414E-04
        32   -2.696217E-03
        33   -5.391849E-04
        34   -4.782349E-06
        35   -8.236597E-07
        36    1.174706E-03
        37    1.254151E-06
        38    5.028047E-08
        39   -1.419286E-03
        40    5.162044E-06
        41    1.054775E-06
        42   -1.567480E-04
        43    7.123880E-07
        44    1.545236E-07
        45    4.154755E-07
        46   -3.619042E-06
        47   -5.920046E-06
        48    2.403451E-03
        49    1.745933E-04
        50   -1.604086E-06
        51    1.028779E-04
        52    7.223954E-06
        53    5.982917E-06
        54    2.117140E-04
        55    1.080019E-05
        56    1.079547E-03
        57   -9.405944E-03
        58   -1.386311E-05
        59   -3.308981E-08
        60    5.804741E-10
        61    3.250934E-08
        62    1.013480E-05
        63    2.627762E-08
        64    7.120906E-03
        65   -1.772442E-06
        66    5.373205E-06
        67   -3.600763E-06
        68    7.577150E-05
        69    6.523214E-07
        70    1.604067E-02
        71    3.945038E-05
        72    8.265080E-06
        73   -4.771546E-05
        74   -1.366109E-03
        75    2.768506E-06
        76    1.490816E-03
        77    1.262154E-08
        78    1.460067E-07
        79   -9.529421E-08
        80    2.788956E-08
        81    1.712434E-06
        82    4.359246E-08
        83   -4.482314E-08
        84   -1.908323E-06
        85    8.425814E-08
        86    1.014147E-03
        87    2.274714E-05
        88    5.195257E-05
        89   -1.277901E-04
        90    2.160897E-04
        91    5.074010E-03
        92    3.078725E-04
        93    1.410831E-04
        94   -1.624758E-04
        95    1.894682E-01
        96    5.469480E-04
        97   -1.805144E-05
        98    1.899693E-01
        99   -5.035281E-03
       100   -4.213819E-03
       101    1.111768E-01
       102    8.538089E-06
       103   -2.610450E-06
       104   -5.927640E-06
       105    1.045943E-06
       106    4.979432E-03
       107   -5.502376E-04
       108    8.803712E-05
       109   -5.394785E-05
       110   -3.408927E-05
       111    1.112186E-05
       112    9.492255E-03
       113    3.961543E-04
       114   -8.206372E-04
       115    8.834865E-04
       116   -6.284931E-05
       117    5.851039E-04
       118    2.691873E-03
       119   -5.513651E-04
       120    4.240836E-06
       121   -7.321005E-07
       122   -1.174990E-03
       123   -1.004881E-06
       124    2.420400E-07
       125    1.419619E-03
       126   -4.684797E-06
       127    7.401758E-07
       128    1.567959E-04
       129    6.460830E-07
       130   -1.465415E-05
       131   -3.478533E-05
       132    1.350843E-04
       133   -5.815836E-04
       134   -9.511466E-03
       135   -3.947511E-04
       136    1.528594E-04
       137    6.476601E-05
       138    2.003443E-01
       139    3.621918E-04
       140    1.487979E-04
       141    2.030553E-01
       142   -5.923126E-03
       143    6.741667E-03
       144    1.297516E-01
       145   -1.266617E-05
       146   -1.493959E-06
       147    1.416013E-05
       148    7.112035E-06
       149   -4.691017E-03
       150   -4.896281E-04
       151   -1.417959E-04
       152    4.803530E-05
       153    9.376061E-05
       154    7.117912E-05
       155   -8.374792E-03
       156   -7.350361E-04
       157    2.171705E-04
       158   -4.200494E-04
       159    2.028788E-04
       160    9.788776E-04
       161   -1.834416E-04
       162   -2.647775E-03
       163    5.168764E-06
       164    1.172385E-06
       165   -1.314238E-03
       166   -3.026301E-06
       167    5.396756E-07
       168    1.467834E-03
       169   -3.908324E-06
       170   -2.112595E-06
       171    2.954013E-04
       172   -4.661247E-05
       173    1.438972E-07
       174    1.548633E-07
       175    8.192041E-06
       176   -1.303923E-05
       177   -3.021875E-03
       178   -2.139310E-04
       179   -6.466549E-07
       180   -1.190126E-04
       181    3.077699E-06
       182    1.852611E-05
       183   -1.173054E-04
       184   -1.020930E-06
       185    1.124572E-03
       186    1.516495E-02
       187    6.032564E-05
       188    4.074001E-07
       189   -1.560891E-07
       190   -2.513110E-07
       191   -2.274247E-05
       192   -4.634532E-07
       193    7.499099E-03
       194   -6.162460E-07
       195   -8.182959E-06
       196    8.799205E-06
       197   -9.000273E-05
       198   -1.611890E-06
       199    1.561836E-02
       200   -3.237284E-05
       201   -4.183002E-05
       202    7.420286E-05
       203   -2.585021E-03
       204   -1.159556E-05
       205   -3.304729E-03
       206   -9.097040E-08
       207    4.662640E-06
       208    1.278412E-08
       209    2.972927E-07
       210   -3.858727E-06
       211   -9.189988E-08
       212   -1.752431E-07
       213   -2.396861E-06
       214    7.474818E-08
       215   -1.182819E-03
       216    1.513976E-05
       217    3.592900E-05
       218   -1.556285E-04
       219    6.823581E-04
       220    1.491197E-02
       221    6.475415E-04
       222   -1.575574E-04
       223    6.818653E-05
       224   -2.003341E-01
       225   -4.310823E-04
       226    1.915462E-04
       227   -2.030467E-01
       228    4.902474E-03
       229    8.884162E-03
       230   -1.297700E-01
       231    1.291022E-05
       232    1.124514E-06
       233   -1.403473E-05
       234    7.523001E-06
       235    4.690963E-03
       236   -4.893639E-04
       237    1.611364E-04
       238   -5.191782E-05
       239   -1.092186E-04
       240    7.978775E-05
       241    8.377595E-03
       242   -7.335644E-04
       243   -2.435638E-04
       244    5.374823E-04
       245   -2.939185E-04
       246    8.476213E-04
       247    1.869175E-04
       248   -2.671255E-03
       249   -5.804173E-06
       250    1.408849E-06
       251    1.314270E-03
       252    3.571959E-06
       253    6.424429E-07
       254   -1.468007E-03
       255    4.215155E-06
       256   -2.532612E-06
       257   -2.952716E-04
       258   -4.660467E-05
       259    3.149997E-05
       260    3.061378E-05
       261   -8.374369E-04
       262   -9.378933E-06
       263   -1.152370E-06
       264   -7.762932E-03
       265    8.273266E-05
       266   -3.337428E-04
       267   -7.483570E-03
       268   -2.743408E-05
       269   -4.926200E-05
       270    1.111472E-04
       271    8.567257E-06
       272    5.162412E-07
       273    7.763636E-03
       274   -1.413526E-04
       275   -1.604348E-04
       276    7.503545E-03
       277    3.946605E-06
       278   -1.270460E-05
       279   -1.830006E-03
       280    1.716497E-05
       281    5.776712E-06
       282    8.609664E-03
       283    4.717092E-04
       284    1.097654E-04
       285    9.540191E-03
       286   -7.723674E-06
       287    1.735898E-05
       288    2.338978E-03
       289   -1.770537E-05
       290    6.822999E-06
       291   -8.609825E-03
       292   -5.437744E-04
       293    2.774124E-04
       294   -9.560927E-03
       295    9.037620E-09
       296    6.479372E-08
       297   -9.473959E-07
       298    5.881794E-06
       299    9.834317E-05
       300   -9.630299E-05
       301   -1.089176E-07
       302   -1.067514E-05
       303    8.165918E-07
       304    2.211319E-06
       305    8.578752E-06
       306   -3.977363E-07
       307    2.500954E-05
       308    2.356723E-04
       309    5.743743E-06
       310    6.008945E-08
       311   -6.187951E-08
       312    1.790063E-09
       313   -5.943481E-07
       314    1.434552E-07
       315   -5.936355E-04
       316    3.392939E-07
       317   -2.608322E-07
       318   -7.846176E-08
       319    1.010218E-05
       320    4.198539E-07
       321   -1.324190E-03
       322   -7.729646E-06
       323   -5.527884E-06
       324    1.325753E-05
       325    1.388850E-04
       326    2.643101E-06
       327   -2.057403E-03
       328    1.582572E-08
       329   -7.301622E-07
       330   -3.260200E-09
       331   -2.548754E-08
       332    2.056557E-06
       333    2.331193E-08
       334    4.255107E-09
       335   -1.076941E-06
       336   -1.893792E-08
       337    2.731671E-04
       338    7.957969E-07
       339    2.004534E-06
       340   -3.770593E-06
       341    5.526166E-06
       342   -1.458137E-05
       343   -1.824613E-05
       344   -8.959250E-05
       345   -5.344930E-06
       346   -2.295188E-02
       347   -7.886836E-05
       348   -2.106077E-06
       349   -2.162744E-02
       350   -1.491920E-04
       351   -4.334829E-05
       352   -1.504243E-02
       353   -2.213800E-05
       354   -1.300535E-05
       355    2.478612E-04
       356    8.171448E-08
       357   -1.687567E-07
       358    8.704226E-08
       359    5.418503E-07
       360   -3.934472E-05
       361    1.701090E-04
       362   -2.676616E-06
       363    5.943210E-07
       364    2.082295E-06
       365    3.522088E-06
       366   -1.751500E-04
       367    7.421298E-04
       368   -7.337908E-06
       369    1.694132E-05
       370   -9.603409E-06
       371    7.435910E-06
       372    4.024090E-04
       373   -3.368401E-04
       374    1.696804E-07
       375   -7.389102E-08
       376    1.865713E-05
       377   -2.543921E-07
       378    4.044266E-07
       379    2.663080E-05
       380    2.674187E-08
       381   -3.052914E-07
       382   -5.166196E-05
       383    5.926079E-05
       384   -6.896566E-07
       385   -1.765172E-06
       386    3.789024E-06
       387   -8.564128E-06
       388    5.617330E-05
       389    7.125986E-05
       390    8.667996E-05
       391   -4.409361E-06
       392    2.294698E-02
       393    7.753109E-05
       394   -1.560376E-06
       395    2.162247E-02
       396    1.447662E-04
       397   -3.114269E-05
       398    1.504046E-02
       399    2.802588E-05
       400   -7.747034E-06
       401   -2.478102E-04
       402   -6.235271E-08
       403    1.760602E-07
       404   -1.137075E-07
       405    4.889896E-07
       406    3.935078E-05
       407    1.700815E-04
       408    2.461124E-06
       409   -5.592264E-07
       410   -1.901897E-06
       411    3.563954E-06
       412    1.750741E-04
       413    7.420256E-04
       414    6.556094E-06
       415   -1.476393E-05
       416    8.207837E-06
       417    5.078357E-06
       418   -4.027518E-04
       419   -3.359221E-04
       420   -1.753031E-07
       421   -6.165881E-08
       422   -1.865793E-05
       423    2.382789E-07
       424    3.920729E-07
       425   -2.662716E-05
       426   -3.085022E-09
       427   -3.093489E-07
       428    5.165940E-05
       429    5.925752E-05
       430   -6.193571E-07
       431   -1.537861E-06
       432    3.062519E-06
       433   -5.668140E-06
       434   -1.534634E-05
       435    7.106551E-05
       436   -5.424920E-07
       437   -8.978228E-04
       438   -1.618053E-05
       439    2.464205E-06
       440   -1.164076E-03
       441   -1.547264E-05
       442   -5.051456E-05
       443   -1.493360E-03
       444   -1.453801E-05
       445    3.235932E-08
       446   -5.505006E-08
       447    2.269074E-08
       448    1.948061E-05
       449    8.054757E-09
       450    2.989312E-04
       451    2.011471E-07
       452    6.669493E-07
       453   -8.680964E-07
       454   -4.910147E-05
       455   -2.261799E-07
       456    6.497308E-04
       457    1.481963E-05
       458   -3.834936E-06
       459   -1.098470E-05
       460   -6.160085E-04
       461    9.731852E-07
       462   -1.016020E-03
       463    4.486929E-09
       464   -4.114316E-06
       465    4.748119E-08
       466   -6.551628E-10
       467   -1.466336E-05
       468   -3.205466E-08
       469   -5.364684E-09
       470    2.018329E-05
       471   -3.164804E-08
       472   -1.337105E-04
       473    6.410912E-05
       474    6.013612E-04
       475    3.941273E-03
       476   -6.735210E-05
       477   -8.190568E-05
       478    3.722546E-04
       479   -2.952318E-04
       480   -8.436086E-04
       481    1.893347E-03
       482   -6.566176E-05
       483   -6.086924E-04
       484   -3.928562E-03
       485    6.840378E-05
       486   -8.261063E-05
       487   -3.736329E-04
       488    2.778448E-04
       489   -8.513529E-04
       490   -1.891629E-03
 Sym= X
 Ene= -0.656462
 Spin= Alpha
 Occup= -0.656462
         1   -1.342303E-04
         2   -3.140033E-04
         3    9.555159E-04
         4   -2.442068E-03
         5   -1.038523E-02
         6   -9.626871E-03
         7    1.144101E-03
         8    1.364005E-04
         9    3.278077E-02
        10   -2.295937E-03
        11    2.958211E-04
        12    3.085279E-02
        13   -3.180661E-02
        14    9.947477E-03
        15    8.133710E-03
        16   -7.242266E-06
        17   -5.120869E-06
        18    1.236314E-05
        19   -4.656700E-06
        20   -6.504723E-03
        21    4.151186E-03
        22   -5.901616E-04
        23    3.517736E-04
        24    2.383879E-04
        25   -5.859339E-04
        26   -1.465300E-02
        27    7.776580E-03
        28   -4.766922E-03
        29    4.493366E-03
        30    2.735569E-04
        31    7.971745E-04
        32    1.060576E-03
        33   -9.293564E-03
        34   -1.810375E-05
        35    5.180897E-06
        36   -1.694061E-04
        37    7.930426E-06
        38   -5.288394E-06
        39   -6.840308E-04
        40    1.635830E-05
        41   -1.662508E-06
        42    9.113129E-04
        43   -7.449258E-04
        44    2.063026E-05
        45    4.528907E-05
        46    1.004157E-04
        47   -2.154001E-03
        48   -4.768677E-02
        49    4.242228E-03
        50    4.404204E-04
        51    1.432459E-06
        52    2.190942E-01
        53   -2.315787E-04
        54    2.079952E-05
        55    2.269784E-01
        56   -1.504490E-02
        57   -6.100891E-04
        58    2.048460E-01
        59    2.429102E-05
        60   -2.206926E-05
        61   -2.221754E-06
        62    8.135522E-08