[Molden Format]
[Title]
ADC(2) - opt by CAM-B3LYP gaussian                                              
[Atoms] AU
 c     1    6 -.12589065566052E+01 -.22830902054421E+01 -.26005390588660E-01
 c     2    6 -.25569912224779E+01 0.86573078000000E-06 -.24733756079320E-01
 c     3    6 -.12589060841737E+01 0.22830907841707E+01 -.26008073999770E-01
 c     4    6 0.13324295737882E+01 0.22846183820847E+01 -.28114684000920E-01
 c     5    6 0.26867573459717E+01 0.39329925000000E-06 -.27723246129760E-01
 c     6    6 0.13324281942881E+01 -.22846180679178E+01 -.28111244699360E-01
 h     7    1 -.22982509786098E+01 -.40377481062879E+01 -.23319125993500E-01
 h     8    1 -.22982490510892E+01 0.40377494409070E+01 -.23324322740370E-01
 h     9    1 0.23514918675648E+01 0.40568894753521E+01 -.30529017005560E-01
 h    10    1 0.23514910360853E+01 -.40568888210345E+01 -.30521911635300E-01
 n    11    7 -.52742123095903E+01 0.14763485000000E-06 -.18925267070140E-01
 o    12    8 -.63809534361791E+01 0.20269762391752E+01 -.16457057973460E-01
 o    13    8 -.63809510362269E+01 -.20269772478165E+01 -.16464881439650E-01
 n    14    7 0.52454603626942E+01 -.57046108000000E-06 -.73989411041200E-01
 h    15    1 0.62036818842731E+01 0.16164996606794E+01 0.19711589672944E+00
 h    16    1 0.62036804102867E+01 -.16165023700742E+01 0.19711149366755E+00
[GTO]
    1 0
 s    6 1.00
 0.13575349682000E+05 0.60645503603591E-03
 0.20352333680000E+04 0.46979088884982E-02
 0.46322562359000E+03 0.24332477647552E-01
 0.13120019598000E+03 0.97399968307759E-01
 0.42853015891000E+02 0.30195584253780E+00
 0.15584185766000E+02 0.66233609137875E+00
 s    2 1.00
 0.62067138508000E+01 0.65595308539952E+00
 0.25764896527000E+01 0.37585633285142E+00
 s    1 1.00
 0.57696339419000E+00 0.10000000000000E+01
 s    1 1.00
 0.22972831358000E+00 0.10000000000000E+01
 s    1 1.00
 0.95164440028000E-01 0.10000000000000E+01
 s    1 1.00
 0.48475401370000E-01 0.10000000000000E+01
 p    4 1.00
 0.34697232244000E+02 0.11327220003114E-01
 0.79582622826000E+01 0.76169659202087E-01
 0.23780826883000E+01 0.30192252202676E+00
 0.81433208183000E+00 0.72785027349547E+00
 p    1 1.00
 0.28887547253000E+00 0.10000000000000E+01
 p    1 1.00
 0.10056823671000E+00 0.10000000000000E+01
 d    1 1.00
 0.10970000000000E+01 0.10000000000000E+01
 d    1 1.00
 0.31800000000000E+00 0.10000000000000E+01
 d    1 1.00
 0.90985336424000E-01 0.10000000000000E+01
 f    1 1.00
 0.76100000000000E+00 0.10000000000000E+01
 
    2 0
 s    6 1.00
 0.13575349682000E+05 0.60645503603591E-03
 0.20352333680000E+04 0.46979088884982E-02
 0.46322562359000E+03 0.24332477647552E-01
 0.13120019598000E+03 0.97399968307759E-01
 0.42853015891000E+02 0.30195584253780E+00
 0.15584185766000E+02 0.66233609137875E+00
 s    2 1.00
 0.62067138508000E+01 0.65595308539952E+00
 0.25764896527000E+01 0.37585633285142E+00
 s    1 1.00
 0.57696339419000E+00 0.10000000000000E+01
 s    1 1.00
 0.22972831358000E+00 0.10000000000000E+01
 s    1 1.00
 0.95164440028000E-01 0.10000000000000E+01
 s    1 1.00
 0.48475401370000E-01 0.10000000000000E+01
 p    4 1.00
 0.34697232244000E+02 0.11327220003114E-01
 0.79582622826000E+01 0.76169659202087E-01
 0.23780826883000E+01 0.30192252202676E+00
 0.81433208183000E+00 0.72785027349547E+00
 p    1 1.00
 0.28887547253000E+00 0.10000000000000E+01
 p    1 1.00
 0.10056823671000E+00 0.10000000000000E+01
 d    1 1.00
 0.10970000000000E+01 0.10000000000000E+01
 d    1 1.00
 0.31800000000000E+00 0.10000000000000E+01
 d    1 1.00
 0.90985336424000E-01 0.10000000000000E+01
 f    1 1.00
 0.76100000000000E+00 0.10000000000000E+01
 
    3 0
 s    6 1.00
 0.13575349682000E+05 0.60645503603591E-03
 0.20352333680000E+04 0.46979088884982E-02
 0.46322562359000E+03 0.24332477647552E-01
 0.13120019598000E+03 0.97399968307759E-01
 0.42853015891000E+02 0.30195584253780E+00
 0.15584185766000E+02 0.66233609137875E+00
 s    2 1.00
 0.62067138508000E+01 0.65595308539952E+00
 0.25764896527000E+01 0.37585633285142E+00
 s    1 1.00
 0.57696339419000E+00 0.10000000000000E+01
 s    1 1.00
 0.22972831358000E+00 0.10000000000000E+01
 s    1 1.00
 0.95164440028000E-01 0.10000000000000E+01
 s    1 1.00
 0.48475401370000E-01 0.10000000000000E+01
 p    4 1.00
 0.34697232244000E+02 0.11327220003114E-01
 0.79582622826000E+01 0.76169659202087E-01
 0.23780826883000E+01 0.30192252202676E+00
 0.81433208183000E+00 0.72785027349547E+00
 p    1 1.00
 0.28887547253000E+00 0.10000000000000E+01
 p    1 1.00
 0.10056823671000E+00 0.10000000000000E+01
 d    1 1.00
 0.10970000000000E+01 0.10000000000000E+01
 d    1 1.00
 0.31800000000000E+00 0.10000000000000E+01
 d    1 1.00
 0.90985336424000E-01 0.10000000000000E+01
 f    1 1.00
 0.76100000000000E+00 0.10000000000000E+01
 
    4 0
 s    6 1.00
 0.13575349682000E+05 0.60645503603591E-03
 0.20352333680000E+04 0.46979088884982E-02
 0.46322562359000E+03 0.24332477647552E-01
 0.13120019598000E+03 0.97399968307759E-01
 0.42853015891000E+02 0.30195584253780E+00
 0.15584185766000E+02 0.66233609137875E+00
 s    2 1.00
 0.62067138508000E+01 0.65595308539952E+00
 0.25764896527000E+01 0.37585633285142E+00
 s    1 1.00
 0.57696339419000E+00 0.10000000000000E+01
 s    1 1.00
 0.22972831358000E+00 0.10000000000000E+01
 s    1 1.00
 0.95164440028000E-01 0.10000000000000E+01
 s    1 1.00
 0.48475401370000E-01 0.10000000000000E+01
 p    4 1.00
 0.34697232244000E+02 0.11327220003114E-01
 0.79582622826000E+01 0.76169659202087E-01
 0.23780826883000E+01 0.30192252202676E+00
 0.81433208183000E+00 0.72785027349547E+00
 p    1 1.00
 0.28887547253000E+00 0.10000000000000E+01
 p    1 1.00
 0.10056823671000E+00 0.10000000000000E+01
 d    1 1.00
 0.10970000000000E+01 0.10000000000000E+01
 d    1 1.00
 0.31800000000000E+00 0.10000000000000E+01
 d    1 1.00
 0.90985336424000E-01 0.10000000000000E+01
 f    1 1.00
 0.76100000000000E+00 0.10000000000000E+01
 
    5 0
 s    6 1.00
 0.13575349682000E+05 0.60645503603591E-03
 0.20352333680000E+04 0.46979088884982E-02
 0.46322562359000E+03 0.24332477647552E-01
 0.13120019598000E+03 0.97399968307759E-01
 0.42853015891000E+02 0.30195584253780E+00
 0.15584185766000E+02 0.66233609137875E+00
 s    2 1.00
 0.62067138508000E+01 0.65595308539952E+00
 0.25764896527000E+01 0.37585633285142E+00
 s    1 1.00
 0.57696339419000E+00 0.10000000000000E+01
 s    1 1.00
 0.22972831358000E+00 0.10000000000000E+01
 s    1 1.00
 0.95164440028000E-01 0.10000000000000E+01
 s    1 1.00
 0.48475401370000E-01 0.10000000000000E+01
 p    4 1.00
 0.34697232244000E+02 0.11327220003114E-01
 0.79582622826000E+01 0.76169659202087E-01
 0.23780826883000E+01 0.30192252202676E+00
 0.81433208183000E+00 0.72785027349547E+00
 p    1 1.00
 0.28887547253000E+00 0.10000000000000E+01
 p    1 1.00
 0.10056823671000E+00 0.10000000000000E+01
 d    1 1.00
 0.10970000000000E+01 0.10000000000000E+01
 d    1 1.00
 0.31800000000000E+00 0.10000000000000E+01
 d    1 1.00
 0.90985336424000E-01 0.10000000000000E+01
 f    1 1.00
 0.76100000000000E+00 0.10000000000000E+01
 
    6 0
 s    6 1.00
 0.13575349682000E+05 0.60645503603591E-03
 0.20352333680000E+04 0.46979088884982E-02
 0.46322562359000E+03 0.24332477647552E-01
 0.13120019598000E+03 0.97399968307759E-01
 0.42853015891000E+02 0.30195584253780E+00
 0.15584185766000E+02 0.66233609137875E+00
 s    2 1.00
 0.62067138508000E+01 0.65595308539952E+00
 0.25764896527000E+01 0.37585633285142E+00
 s    1 1.00
 0.57696339419000E+00 0.10000000000000E+01
 s    1 1.00
 0.22972831358000E+00 0.10000000000000E+01
 s    1 1.00
 0.95164440028000E-01 0.10000000000000E+01
 s    1 1.00
 0.48475401370000E-01 0.10000000000000E+01
 p    4 1.00
 0.34697232244000E+02 0.11327220003114E-01
 0.79582622826000E+01 0.76169659202087E-01
 0.23780826883000E+01 0.30192252202676E+00
 0.81433208183000E+00 0.72785027349547E+00
 p    1 1.00
 0.28887547253000E+00 0.10000000000000E+01
 p    1 1.00
 0.10056823671000E+00 0.10000000000000E+01
 d    1 1.00
 0.10970000000000E+01 0.10000000000000E+01
 d    1 1.00
 0.31800000000000E+00 0.10000000000000E+01
 d    1 1.00
 0.90985336424000E-01 0.10000000000000E+01
 f    1 1.00
 0.76100000000000E+00 0.10000000000000E+01
 
    7 0
 s    3 1.00
 0.34061341000000E+02 0.25439307208879E-01
 0.51235746000000E+01 0.19008594890375E+00
 0.11646626000000E+01 0.85244113011042E+00
 s    1 1.00
 0.32723041000000E+00 0.10000000000000E+01
 s    1 1.00
 0.10307241000000E+00 0.10000000000000E+01
 p    1 1.00
 0.80000000000000E+00 0.10000000000000E+01
 p    1 1.00
 0.95774129632000E-01 0.10000000000000E+01
 
    8 0
 s    3 1.00
 0.34061341000000E+02 0.25439307208879E-01
 0.51235746000000E+01 0.19008594890375E+00
 0.11646626000000E+01 0.85244113011042E+00
 s    1 1.00
 0.32723041000000E+00 0.10000000000000E+01
 s    1 1.00
 0.10307241000000E+00 0.10000000000000E+01
 p    1 1.00
 0.80000000000000E+00 0.10000000000000E+01
 p    1 1.00
 0.95774129632000E-01 0.10000000000000E+01
 
    9 0
 s    3 1.00
 0.34061341000000E+02 0.25439307208879E-01
 0.51235746000000E+01 0.19008594890375E+00
 0.11646626000000E+01 0.85244113011042E+00
 s    1 1.00
 0.32723041000000E+00 0.10000000000000E+01
 s    1 1.00
 0.10307241000000E+00 0.10000000000000E+01
 p    1 1.00
 0.80000000000000E+00 0.10000000000000E+01
 p    1 1.00
 0.95774129632000E-01 0.10000000000000E+01
 
   10 0
 s    3 1.00
 0.34061341000000E+02 0.25439307208879E-01
 0.51235746000000E+01 0.19008594890375E+00
 0.11646626000000E+01 0.85244113011042E+00
 s    1 1.00
 0.32723041000000E+00 0.10000000000000E+01
 s    1 1.00
 0.10307241000000E+00 0.10000000000000E+01
 p    1 1.00
 0.80000000000000E+00 0.10000000000000E+01
 p    1 1.00
 0.95774129632000E-01 0.10000000000000E+01
 
   11 0
 s    6 1.00
 0.19730800647000E+05 0.58626402628763E-03
 0.29578958745000E+04 0.45428820586397E-02
 0.67322133595000E+03 0.23558413450084E-01
 0.19068249494000E+03 0.94709193292923E-01
 0.62295441898000E+02 0.29719784913376E+00
 0.22654161182000E+02 0.66916246895232E+00
 s    2 1.00
 0.89791477428000E+01 0.64596683630063E+00
 0.36863002370000E+01 0.38700574393705E+00
 s    1 1.00
 0.84660076805000E+00 0.10000000000000E+01
 s    1 1.00
 0.33647133771000E+00 0.10000000000000E+01
 s    1 1.00
 0.13647653675000E+00 0.10000000000000E+01
 s    1 1.00
 0.68441605847000E-01 0.10000000000000E+01
 p    4 1.00
 0.49200380510000E+02 0.11448825101764E-01
 0.11346790537000E+02 0.78422337970864E-01
 0.34273972411000E+01 0.30818094738830E+00
 0.11785525134000E+01 0.72027196368413E+00
 p    1 1.00
 0.41642204972000E+00 0.10000000000000E+01
 p    1 1.00
 0.14260826011000E+00 0.10000000000000E+01
 d    1 1.00
 0.16540000000000E+01 0.10000000000000E+01
 d    1 1.00
 0.46900000000000E+00 0.10000000000000E+01
 d    1 1.00
 0.12829642058000E+00 0.10000000000000E+01
 f    1 1.00
 0.10930000000000E+01 0.10000000000000E+01
 
   12 0
 s    6 1.00
 0.27032382631000E+05 0.57227335211155E-03
 0.40523871392000E+04 0.44353233492995E-02
 0.92232722710000E+03 0.23020107706038E-01
 0.26124070989000E+03 0.92822490667928E-01
 0.85354641351000E+02 0.29378500009671E+00
 0.31035035245000E+02 0.67401604501641E+00
 s    2 1.00
 0.12260860728000E+02 0.63839937025506E+00
 0.49987076005000E+01 0.39534587125718E+00
 s    1 1.00
 0.11703108158000E+01 0.10000000000000E+01
 s    1 1.00
 0.46474740994000E+00 0.10000000000000E+01
 s    1 1.00
 0.18504536357000E+00 0.10000000000000E+01
 s    1 1.00
 0.70288026270000E-01 0.10000000000000E+01
 p    4 1.00
 0.63274954801000E+02 0.12018332222616E-01
 0.14627049379000E+02 0.83005421790056E-01
 0.44501223456000E+01 0.31991743925964E+00
 0.15275799647000E+01 0.70715542916104E+00
 p    1 1.00
 0.52935117943000E+00 0.10000000000000E+01
 p    1 1.00
 0.17478421270000E+00 0.10000000000000E+01
 p    1 1.00
 0.51112745706000E-01 0.10000000000000E+01
 d    1 1.00
 0.23140000000000E+01 0.10000000000000E+01
 d    1 1.00
 0.64500000000000E+00 0.10000000000000E+01
 d    1 1.00
 0.14696477366000E+00 0.10000000000000E+01
 f    1 1.00
 0.14280000000000E+01 0.10000000000000E+01
 
   13 0
 s    6 1.00
 0.27032382631000E+05 0.57227335211155E-03
 0.40523871392000E+04 0.44353233492995E-02
 0.92232722710000E+03 0.23020107706038E-01
 0.26124070989000E+03 0.92822490667928E-01
 0.85354641351000E+02 0.29378500009671E+00
 0.31035035245000E+02 0.67401604501641E+00
 s    2 1.00
 0.12260860728000E+02 0.63839937025506E+00
 0.49987076005000E+01 0.39534587125718E+00
 s    1 1.00
 0.11703108158000E+01 0.10000000000000E+01
 s    1 1.00
 0.46474740994000E+00 0.10000000000000E+01
 s    1 1.00
 0.18504536357000E+00 0.10000000000000E+01
 s    1 1.00
 0.70288026270000E-01 0.10000000000000E+01
 p    4 1.00
 0.63274954801000E+02 0.12018332222616E-01
 0.14627049379000E+02 0.83005421790056E-01
 0.44501223456000E+01 0.31991743925964E+00
 0.15275799647000E+01 0.70715542916104E+00
 p    1 1.00
 0.52935117943000E+00 0.10000000000000E+01
 p    1 1.00
 0.17478421270000E+00 0.10000000000000E+01
 p    1 1.00
 0.51112745706000E-01 0.10000000000000E+01
 d    1 1.00
 0.23140000000000E+01 0.10000000000000E+01
 d    1 1.00
 0.64500000000000E+00 0.10000000000000E+01
 d    1 1.00
 0.14696477366000E+00 0.10000000000000E+01
 f    1 1.00
 0.14280000000000E+01 0.10000000000000E+01
 
   14 0
 s    6 1.00
 0.19730800647000E+05 0.58626402628763E-03
 0.29578958745000E+04 0.45428820586397E-02
 0.67322133595000E+03 0.23558413450084E-01
 0.19068249494000E+03 0.94709193292923E-01
 0.62295441898000E+02 0.29719784913376E+00
 0.22654161182000E+02 0.66916246895232E+00
 s    2 1.00
 0.89791477428000E+01 0.64596683630063E+00
 0.36863002370000E+01 0.38700574393705E+00
 s    1 1.00
 0.84660076805000E+00 0.10000000000000E+01
 s    1 1.00
 0.33647133771000E+00 0.10000000000000E+01
 s    1 1.00
 0.13647653675000E+00 0.10000000000000E+01
 s    1 1.00
 0.68441605847000E-01 0.10000000000000E+01
 p    4 1.00
 0.49200380510000E+02 0.11448825101764E-01
 0.11346790537000E+02 0.78422337970864E-01
 0.34273972411000E+01 0.30818094738830E+00
 0.11785525134000E+01 0.72027196368413E+00
 p    1 1.00
 0.41642204972000E+00 0.10000000000000E+01
 p    1 1.00
 0.14260826011000E+00 0.10000000000000E+01
 d    1 1.00
 0.16540000000000E+01 0.10000000000000E+01
 d    1 1.00
 0.46900000000000E+00 0.10000000000000E+01
 d    1 1.00
 0.12829642058000E+00 0.10000000000000E+01
 f    1 1.00
 0.10930000000000E+01 0.10000000000000E+01
 
   15 0
 s    3 1.00
 0.34061341000000E+02 0.25439307208879E-01
 0.51235746000000E+01 0.19008594890375E+00
 0.11646626000000E+01 0.85244113011042E+00
 s    1 1.00
 0.32723041000000E+00 0.10000000000000E+01
 s    1 1.00
 0.10307241000000E+00 0.10000000000000E+01
 p    1 1.00
 0.80000000000000E+00 0.10000000000000E+01
 p    1 1.00
 0.95774129632000E-01 0.10000000000000E+01
 
   16 0
 s    3 1.00
 0.34061341000000E+02 0.25439307208879E-01
 0.51235746000000E+01 0.19008594890375E+00
 0.11646626000000E+01 0.85244113011042E+00
 s    1 1.00
 0.32723041000000E+00 0.10000000000000E+01
 s    1 1.00
 0.10307241000000E+00 0.10000000000000E+01
 p    1 1.00
 0.80000000000000E+00 0.10000000000000E+01
 p    1 1.00
 0.95774129632000E-01 0.10000000000000E+01
 
[MO]
 Sym= X
 Ene= -0.894980
 Spin= Alpha
 Occup= -0.894980
         1    2.356246E-05
         2    5.379630E-05
         3   -1.424137E-04
         4    2.577928E-04
         5    9.796200E-03
         6    5.395362E-04
         7    1.383023E-04
         8    1.629760E-04
         9    1.881368E-01
        10    6.210471E-04
        11    3.918806E-05
        12    1.886320E-01
        13   -3.719564E-03
        14    6.333672E-03
        15    1.097394E-01
        16    8.262497E-06
        17   -2.666017E-06
        18   -5.596479E-06
        19   -1.305350E-06
        20    4.962426E-03
        21    5.427598E-04
        22    1.098949E-04
        23   -6.491769E-05
        24   -4.497725E-05
        25   -1.743332E-05
        26    9.545283E-03
        27   -4.186711E-04
        28   -8.538291E-04
        29    9.952811E-04
        30   -1.414520E-04
        31   -4.787849E-04
        32    2.918798E-03
        33    3.134441E-04
        34    4.744605E-06
        35    8.187229E-07
        36   -1.161475E-03
        37   -1.249559E-06
        38   -5.898337E-08
        39    1.404784E-03
        40   -5.115996E-06
        41   -1.039449E-06
        42    1.534988E-04
        43    3.574133E-06
        44   -1.133549E-07
        45   -3.213660E-07
        46    3.375419E-06
        47    5.745551E-06
        48   -2.386404E-03
        49   -1.700468E-04
        50    2.127362E-06
        51   -1.005947E-04
        52   -6.655071E-06
        53   -5.616851E-06
        54   -2.129033E-04
        55   -1.015029E-05
        56   -1.075973E-03
        57    9.477651E-03
        58    1.496260E-05
        59    1.189400E-08
        60    1.635510E-08
        61   -2.824910E-08
        62   -9.891839E-06
        63   -1.445326E-08
        64   -7.017881E-03
        65    1.830931E-06
        66   -5.315201E-06
        67    3.484270E-06
        68   -7.579487E-05
        69   -6.670494E-07
        70   -1.593130E-02
        71   -4.027929E-05
        72   -7.154466E-06
        73    4.743376E-05
        74    1.397954E-03
        75   -2.554343E-06
        76   -1.938295E-03
        77   -1.570889E-08
        78   -1.726526E-07
        79    8.974398E-08
        80   -2.526722E-08
        81   -1.713712E-06
        82   -3.962487E-08
        83    4.634290E-08
        84    1.945350E-06
        85   -8.077932E-08
        86   -1.018133E-03
        87   -2.245313E-05
        88   -5.128277E-05
        89    1.265460E-04
        90   -2.173594E-04
        91   -5.155891E-03
        92   -3.003306E-04
        93   -1.387117E-04
        94    1.583534E-04
        95   -1.881421E-01
        96   -5.477985E-04
        97    1.385524E-05
        98   -1.886421E-01
        99    5.073150E-03
       100    4.257346E-03
       101   -1.097189E-01
       102   -8.471638E-06
       103    2.540025E-06
       104    5.931612E-06
       105   -9.030328E-07
       106   -4.962387E-03
       107    5.431539E-04
       108   -8.876056E-05
       109    5.439447E-05
       110    3.436609E-05
       111   -1.074472E-05
       112   -9.548335E-03
       113   -4.194161E-04
       114    8.429940E-04
       115   -9.085206E-04
       116    6.552665E-05
       117   -5.907135E-04
       118   -2.914658E-03
       119    3.259417E-04
       120   -4.203304E-06
       121    7.254880E-07
       122    1.161751E-03
       123    9.977824E-07
       124   -2.434589E-07
       125   -1.405112E-03
       126    4.641542E-06
       127   -7.298854E-07
       128   -1.535406E-04
       129    3.642048E-06
       130    1.451314E-05
       131    3.446843E-05
       132   -1.346217E-04
       133    5.803808E-04
       134    9.690240E-03
       135    3.845615E-04
       136   -1.529795E-04
       137   -6.243197E-05
       138   -1.992076E-01
       139   -3.644487E-04
       140   -1.451803E-04
       141   -2.018599E-01
       142    5.957732E-03
       143   -6.831111E-03
       144   -1.289603E-01
       145    1.257423E-05
       146    1.483540E-06
       147   -1.405777E-05
       148   -6.909643E-06
       149    4.662633E-03
       150    4.864933E-04
       151    1.422189E-04
       152   -4.857711E-05
       153   -9.364176E-05
       154   -7.059363E-05
       155    8.286718E-03
       156    7.370175E-04
       157   -2.455784E-04
       158    4.506487E-04
       159   -2.050703E-04
       160   -9.902687E-04
       161    1.937902E-04
       162    2.804323E-03
       163   -5.156667E-06
       164   -1.167535E-06
       165    1.306226E-03
       166    3.011638E-06
       167   -5.320008E-07
       168   -1.457747E-03
       169    3.906757E-06
       170    2.098414E-06
       171   -2.947399E-04
       172    4.704923E-05
       173   -1.312486E-07
       174   -1.275342E-07
       175   -8.175140E-06
       176    1.292745E-05
       177    2.991536E-03
       178    2.100164E-04
       179    6.193013E-07
       180    1.153141E-04
       181   -3.243930E-06
       182   -1.845436E-05
       183    1.157393E-04
       184    8.458276E-07
       185   -1.112407E-03
       186   -1.528549E-02
       187   -6.024246E-05
       188   -4.078269E-07
       189    1.586546E-07
       190    2.491723E-07
       191    2.269800E-05
       192    4.398817E-07
       193   -7.458403E-03
       194    5.898679E-07
       195    8.135370E-06
       196   -8.725238E-06
       197    8.871156E-05
       198    1.561225E-06
       199   -1.551272E-02
       200    3.286822E-05
       201    4.076203E-05
       202   -7.363026E-05
       203    2.643225E-03
       204    1.151487E-05
       205    3.319214E-03
       206    8.903759E-08
       207   -4.624418E-06
       208   -1.074505E-08
       209   -2.946564E-07
       210    3.793354E-06
       211    8.751114E-08
       212    1.751999E-07
       213    2.410954E-06
       214   -7.309514E-08
       215    1.175622E-03
       216   -1.498698E-05
       217   -3.558791E-05
       218    1.550972E-04
       219   -6.812816E-04
       220   -1.503926E-02
       221   -6.323578E-04
       222    1.578982E-04
       223   -6.591968E-05
       224    1.991978E-01
       225    4.334090E-04
       226   -1.877370E-04
       227    2.018516E-01
       228   -4.945830E-03
       229   -8.952367E-03
       230    1.289792E-01
       231   -1.282832E-05
       232   -1.107811E-06
       233    1.393613E-05
       234   -7.330923E-06
       235   -4.662600E-03
       236    4.862289E-04
       237   -1.614811E-04
       238    5.247359E-05
       239    1.090075E-04
       240   -7.915940E-05
       241   -8.289557E-03
       242    7.355505E-04
       243    2.716575E-04
       244   -5.672027E-04
       245    2.955452E-04
       246   -8.595725E-04
       247   -1.972625E-04
       248    2.827795E-03
       249    5.791987E-06
       250   -1.404243E-06
       251   -1.306261E-03
       252   -3.556184E-06
       253   -6.313698E-07
       254    1.457922E-03
       255   -4.214581E-06
       256    2.515359E-06
       257    2.946107E-04
       258    4.703969E-05
       259   -2.954971E-05
       260   -2.721790E-05
       261    8.032909E-04
       262    9.540380E-06
       263    1.369444E-06
       264    7.685184E-03
       265   -1.001476E-04
       266    3.389487E-04
       267    7.412165E-03
       268    2.549591E-05
       269    4.546925E-05
       270   -8.453437E-05
       271   -8.751611E-06
       272   -2.688390E-07
       273   -7.685859E-03
       274    1.574124E-04
       275    1.663399E-04
       276   -7.432394E-03
       277   -2.995393E-06
       278    1.502842E-05
       279    1.820810E-03
       280   -1.729854E-05
       281   -5.762532E-06
       282   -8.563008E-03
       283   -4.481516E-04
       284   -1.211073E-04
       285   -9.652859E-03
       286    6.870894E-06
       287   -1.942615E-05
       288   -2.321318E-03
       289    1.783506E-05
       290   -6.782179E-06
       291    8.563178E-03
       292    5.195278E-04
       293   -2.865434E-04
       294    9.673511E-03
       295    4.410650E-09
       296   -3.397530E-08
       297    9.006268E-07
       298   -5.701212E-06
       299   -9.702881E-05
       300    9.248289E-05
       301   -3.041580E-07
       302    1.025068E-05
       303   -8.747607E-07
       304   -2.723517E-06
       305   -9.288902E-06
       306    3.486716E-07
       307   -2.683874E-05
       308   -2.191505E-04
       309   -5.709974E-06
       310   -9.775443E-08
       311    1.087370E-07
       312   -1.098258E-08
       313    2.572707E-06
       314   -1.329416E-07
       315    1.457457E-03
       316   -5.315945E-07
       317    4.274635E-07
       318    1.041310E-07
       319   -4.317623E-06
       320   -3.996684E-07
       321    3.840582E-03
       322    8.335474E-06
       323    4.865017E-06
       324   -1.320049E-05
       325   -1.401159E-04
       326   -2.805518E-06
       327    2.178336E-03
       328   -1.670169E-08
       329    7.306461E-07
       330    3.919602E-09
       331    2.456684E-08
       332   -2.640194E-06
       333   -2.218607E-08
       334   -2.159171E-09
       335    1.659930E-06
       336    1.692737E-08
       337   -4.234553E-04
       338   -7.695590E-07
       339   -1.934327E-06
       340    3.568281E-06
       341   -5.135892E-06
       342    7.685406E-06
       343    2.122305E-05
       344    1.440075E-04
       345    6.357517E-06
       346    4.656075E-02
       347    1.286575E-04
       348    2.895557E-06
       349    4.329357E-02
       350    1.853083E-04
       351    4.748406E-05
       352    3.104212E-02
       353    2.786395E-05
       354    1.321214E-05
       355    1.967670E-03
       356    4.128453E-07
       357    1.537313E-07
       358   -5.665767E-07
       359   -9.787682E-07
       360    1.653991E-04
       361   -3.637382E-04
       362    4.258425E-06
       363   -6.509141E-07
       364   -3.607511E-06
       365   -4.965128E-06
       366    5.813370E-04
       367   -1.396582E-03
       368    8.487770E-06
       369   -1.722295E-05
       370    8.735177E-06
       371   -8.177636E-06
       372   -4.751107E-05
       373   -1.691059E-04
       374   -1.945558E-07
       375    7.773337E-08
       376   -5.432439E-05
       377    3.731147E-07
       378   -6.572251E-07
       379   -3.192626E-05
       380   -1.120907E-07
       381    5.529349E-07
       382    1.048101E-04
       383   -1.233403E-04
       384    6.801327E-07
       385    1.737476E-06
       386   -3.683972E-06
       387    8.106228E-06
       388   -4.925388E-05
       389   -7.349786E-05
       390   -1.387755E-04
       391    5.184224E-06
       392   -4.655620E-02
       393   -1.253127E-04
       394    2.118929E-06
       395   -4.328890E-02
       396   -1.790345E-04
       397    3.374834E-05
       398   -3.104055E-02
       399   -3.365678E-05
       400    7.927202E-06
       401   -1.967784E-03
       402   -4.232133E-07
       403   -1.579915E-07
       404    5.812048E-07
       405   -9.051477E-07
       406   -1.654071E-04
       407   -3.637144E-04
       408   -3.992566E-06
       409    5.707317E-07
       410    3.421834E-06
       411   -5.012501E-06
       412   -5.812743E-04
       413   -1.396495E-03
       414   -7.480555E-06
       415    1.471257E-05
       416   -7.232010E-06
       417   -5.948287E-06
       418    4.785218E-05
       419   -1.700885E-04
       420    2.028998E-07
       421    6.116734E-08
       422    5.432595E-05
       423   -3.519265E-07
       424   -6.394667E-07
       425    3.192291E-05
       426    7.970788E-08
       427    5.574021E-07
       428   -1.048088E-04
       429   -1.233384E-04
       430    6.060115E-07
       431    1.506093E-06
       432   -3.019855E-06
       433    5.767990E-06
       434    1.374985E-05
       435   -6.954691E-05
       436    6.102697E-07
       437    8.940754E-04
       438    1.538856E-05
       439   -2.391116E-06
       440    1.155279E-03
       441    1.470082E-05
       442    5.044082E-05
       443    1.473526E-03
       444    1.402608E-05
       445   -3.217794E-08
       446    5.583189E-08
       447   -2.365395E-08
       448   -1.923855E-05
       449   -3.274790E-09
       450   -2.971190E-04
       451   -1.966362E-07
       452   -6.588422E-07
       453    8.554784E-07
       454    4.693756E-05
       455    2.331163E-07
       456   -6.498489E-04
       457   -1.463713E-05
       458    3.868921E-06
       459    1.076821E-05
       460    6.112969E-04
       461   -9.622063E-07
       462    1.008046E-03
       463   -4.444654E-09
       464    4.064144E-06
       465   -4.364489E-08
       466    1.154275E-09
       467    1.456951E-05
       468    2.888914E-08
       469    4.808854E-09
       470   -2.002213E-05
       471    2.966662E-08
       472    1.330940E-04
       473   -6.331496E-05
       474   -5.890300E-04
       475   -3.957809E-03
       476    6.639815E-05
       477    7.995467E-05
       478   -3.698313E-04
       479    3.083770E-04
       480    8.379763E-04
       481   -1.892166E-03
       482    6.482942E-05
       483    5.961860E-04
       484    3.943796E-03
       485   -6.742447E-05
       486    8.064257E-05
       487    3.711380E-04
       488   -2.910185E-04
       489    8.454323E-04
       490    1.890496E-03
 Sym= X
 Ene= 0.894980
 Spin= Alpha
 Occup= 0.894980
         1   -8.363781E-05
         2   -2.694793E-04
         3    1.796672E-03
         4   -1.572053E-02
         5    8.213088E-01
         6    1.945016E-01
         7    4.387251E-04
         8    1.855906E-04
         9    1.893858E-01
        10    5.305786E-04
        11    3.360812E-03
        12    2.122756E-01
        13   -2.015717E-01
        14    3.419403E-01
        15    1.415134E-02
        16   -3.866744E-05
        17   -1.302370E-05
        18    5.169114E-05
        19   -3.040437E-05
        20   -6.024371E-03
        21    6.433937E-04
        22    2.123105E-04
        23    6.968862E-04
        24   -9.091967E-04
        25   -3.106827E-04
        26   -1.561751E-02
        27   -3.155303E-03
        28   -3.640003E-02
        29    6.081043E-02
        30   -2.441040E-02
        31   -7.055656E-02
        32    2.493568E-02
        33   -1.219454E-01
        34    1.285130E-05
        35    1.304412E-05
        36   -2.657531E-04
        37   -9.736019E-06
        38   -7.585950E-09
        39   -2.081660E-04
        40   -7.505808E-06
        41   -1.749294E-05
        42    5.647112E-04
        43   -4.307275E-06
        44    5.118749E-06
        45    1.162495E-05
        46   -1.937902E-06
        47   -3.456905E-05
        48    5.174254E-03
        49    1.857473E-02
        50   -1.275713E-05
        51   -6.371729E-04
        52    2.384918E-05
        53   -4.559691E-05
        54    2.085569E-03
        55    1.064657E-05
        56   -1.314338E-02
        57    7.530606E-01
        58    3.252368E-04
        59   -2.755074E-06
        60    3.404064E-06
        61   -6.489897E-07
        62   -5.796558E-05