[Molden Format]
[Title]
ADC(2) - opt by CAM-B3LYP gaussian                                              
[Atoms] AU
 c     1    6 -.12589065566052E+01 -.22830902054421E+01 -.26005390588660E-01
 c     2    6 -.25569912224779E+01 0.86573078000000E-06 -.24733756079320E-01
 c     3    6 -.12589060841737E+01 0.22830907841707E+01 -.26008073999770E-01
 c     4    6 0.13324295737882E+01 0.22846183820847E+01 -.28114684000920E-01
 c     5    6 0.26867573459717E+01 0.39329925000000E-06 -.27723246129760E-01
 c     6    6 0.13324281942881E+01 -.22846180679178E+01 -.28111244699360E-01
 h     7    1 -.22982509786098E+01 -.40377481062879E+01 -.23319125993500E-01
 h     8    1 -.22982490510892E+01 0.40377494409070E+01 -.23324322740370E-01
 h     9    1 0.23514918675648E+01 0.40568894753521E+01 -.30529017005560E-01
 h    10    1 0.23514910360853E+01 -.40568888210345E+01 -.30521911635300E-01
 n    11    7 -.52742123095903E+01 0.14763485000000E-06 -.18925267070140E-01
 o    12    8 -.63809534361791E+01 0.20269762391752E+01 -.16457057973460E-01
 o    13    8 -.63809510362269E+01 -.20269772478165E+01 -.16464881439650E-01
 n    14    7 0.52454603626942E+01 -.57046108000000E-06 -.73989411041200E-01
 h    15    1 0.62036818842731E+01 0.16164996606794E+01 0.19711589672944E+00
 h    16    1 0.62036804102867E+01 -.16165023700742E+01 0.19711149366755E+00
[GTO]
    1 0
 s    6 1.00
 0.13575349682000E+05 0.60645503603591E-03
 0.20352333680000E+04 0.46979088884982E-02
 0.46322562359000E+03 0.24332477647552E-01
 0.13120019598000E+03 0.97399968307759E-01
 0.42853015891000E+02 0.30195584253780E+00
 0.15584185766000E+02 0.66233609137875E+00
 s    2 1.00
 0.62067138508000E+01 0.65595308539952E+00
 0.25764896527000E+01 0.37585633285142E+00
 s    1 1.00
 0.57696339419000E+00 0.10000000000000E+01
 s    1 1.00
 0.22972831358000E+00 0.10000000000000E+01
 s    1 1.00
 0.95164440028000E-01 0.10000000000000E+01
 s    1 1.00
 0.48475401370000E-01 0.10000000000000E+01
 p    4 1.00
 0.34697232244000E+02 0.11327220003114E-01
 0.79582622826000E+01 0.76169659202087E-01
 0.23780826883000E+01 0.30192252202676E+00
 0.81433208183000E+00 0.72785027349547E+00
 p    1 1.00
 0.28887547253000E+00 0.10000000000000E+01
 p    1 1.00
 0.10056823671000E+00 0.10000000000000E+01
 d    1 1.00
 0.10970000000000E+01 0.10000000000000E+01
 d    1 1.00
 0.31800000000000E+00 0.10000000000000E+01
 d    1 1.00
 0.90985336424000E-01 0.10000000000000E+01
 f    1 1.00
 0.76100000000000E+00 0.10000000000000E+01
 
    2 0
 s    6 1.00
 0.13575349682000E+05 0.60645503603591E-03
 0.20352333680000E+04 0.46979088884982E-02
 0.46322562359000E+03 0.24332477647552E-01
 0.13120019598000E+03 0.97399968307759E-01
 0.42853015891000E+02 0.30195584253780E+00
 0.15584185766000E+02 0.66233609137875E+00
 s    2 1.00
 0.62067138508000E+01 0.65595308539952E+00
 0.25764896527000E+01 0.37585633285142E+00
 s    1 1.00
 0.57696339419000E+00 0.10000000000000E+01
 s    1 1.00
 0.22972831358000E+00 0.10000000000000E+01
 s    1 1.00
 0.95164440028000E-01 0.10000000000000E+01
 s    1 1.00
 0.48475401370000E-01 0.10000000000000E+01
 p    4 1.00
 0.34697232244000E+02 0.11327220003114E-01
 0.79582622826000E+01 0.76169659202087E-01
 0.23780826883000E+01 0.30192252202676E+00
 0.81433208183000E+00 0.72785027349547E+00
 p    1 1.00
 0.28887547253000E+00 0.10000000000000E+01
 p    1 1.00
 0.10056823671000E+00 0.10000000000000E+01
 d    1 1.00
 0.10970000000000E+01 0.10000000000000E+01
 d    1 1.00
 0.31800000000000E+00 0.10000000000000E+01
 d    1 1.00
 0.90985336424000E-01 0.10000000000000E+01
 f    1 1.00
 0.76100000000000E+00 0.10000000000000E+01
 
    3 0
 s    6 1.00
 0.13575349682000E+05 0.60645503603591E-03
 0.20352333680000E+04 0.46979088884982E-02
 0.46322562359000E+03 0.24332477647552E-01
 0.13120019598000E+03 0.97399968307759E-01
 0.42853015891000E+02 0.30195584253780E+00
 0.15584185766000E+02 0.66233609137875E+00
 s    2 1.00
 0.62067138508000E+01 0.65595308539952E+00
 0.25764896527000E+01 0.37585633285142E+00
 s    1 1.00
 0.57696339419000E+00 0.10000000000000E+01
 s    1 1.00
 0.22972831358000E+00 0.10000000000000E+01
 s    1 1.00
 0.95164440028000E-01 0.10000000000000E+01
 s    1 1.00
 0.48475401370000E-01 0.10000000000000E+01
 p    4 1.00
 0.34697232244000E+02 0.11327220003114E-01
 0.79582622826000E+01 0.76169659202087E-01
 0.23780826883000E+01 0.30192252202676E+00
 0.81433208183000E+00 0.72785027349547E+00
 p    1 1.00
 0.28887547253000E+00 0.10000000000000E+01
 p    1 1.00
 0.10056823671000E+00 0.10000000000000E+01
 d    1 1.00
 0.10970000000000E+01 0.10000000000000E+01
 d    1 1.00
 0.31800000000000E+00 0.10000000000000E+01
 d    1 1.00
 0.90985336424000E-01 0.10000000000000E+01
 f    1 1.00
 0.76100000000000E+00 0.10000000000000E+01
 
    4 0
 s    6 1.00
 0.13575349682000E+05 0.60645503603591E-03
 0.20352333680000E+04 0.46979088884982E-02
 0.46322562359000E+03 0.24332477647552E-01
 0.13120019598000E+03 0.97399968307759E-01
 0.42853015891000E+02 0.30195584253780E+00
 0.15584185766000E+02 0.66233609137875E+00
 s    2 1.00
 0.62067138508000E+01 0.65595308539952E+00
 0.25764896527000E+01 0.37585633285142E+00
 s    1 1.00
 0.57696339419000E+00 0.10000000000000E+01
 s    1 1.00
 0.22972831358000E+00 0.10000000000000E+01
 s    1 1.00
 0.95164440028000E-01 0.10000000000000E+01
 s    1 1.00
 0.48475401370000E-01 0.10000000000000E+01
 p    4 1.00
 0.34697232244000E+02 0.11327220003114E-01
 0.79582622826000E+01 0.76169659202087E-01
 0.23780826883000E+01 0.30192252202676E+00
 0.81433208183000E+00 0.72785027349547E+00
 p    1 1.00
 0.28887547253000E+00 0.10000000000000E+01
 p    1 1.00
 0.10056823671000E+00 0.10000000000000E+01
 d    1 1.00
 0.10970000000000E+01 0.10000000000000E+01
 d    1 1.00
 0.31800000000000E+00 0.10000000000000E+01
 d    1 1.00
 0.90985336424000E-01 0.10000000000000E+01
 f    1 1.00
 0.76100000000000E+00 0.10000000000000E+01
 
    5 0
 s    6 1.00
 0.13575349682000E+05 0.60645503603591E-03
 0.20352333680000E+04 0.46979088884982E-02
 0.46322562359000E+03 0.24332477647552E-01
 0.13120019598000E+03 0.97399968307759E-01
 0.42853015891000E+02 0.30195584253780E+00
 0.15584185766000E+02 0.66233609137875E+00
 s    2 1.00
 0.62067138508000E+01 0.65595308539952E+00
 0.25764896527000E+01 0.37585633285142E+00
 s    1 1.00
 0.57696339419000E+00 0.10000000000000E+01
 s    1 1.00
 0.22972831358000E+00 0.10000000000000E+01
 s    1 1.00
 0.95164440028000E-01 0.10000000000000E+01
 s    1 1.00
 0.48475401370000E-01 0.10000000000000E+01
 p    4 1.00
 0.34697232244000E+02 0.11327220003114E-01
 0.79582622826000E+01 0.76169659202087E-01
 0.23780826883000E+01 0.30192252202676E+00
 0.81433208183000E+00 0.72785027349547E+00
 p    1 1.00
 0.28887547253000E+00 0.10000000000000E+01
 p    1 1.00
 0.10056823671000E+00 0.10000000000000E+01
 d    1 1.00
 0.10970000000000E+01 0.10000000000000E+01
 d    1 1.00
 0.31800000000000E+00 0.10000000000000E+01
 d    1 1.00
 0.90985336424000E-01 0.10000000000000E+01
 f    1 1.00
 0.76100000000000E+00 0.10000000000000E+01
 
    6 0
 s    6 1.00
 0.13575349682000E+05 0.60645503603591E-03
 0.20352333680000E+04 0.46979088884982E-02
 0.46322562359000E+03 0.24332477647552E-01
 0.13120019598000E+03 0.97399968307759E-01
 0.42853015891000E+02 0.30195584253780E+00
 0.15584185766000E+02 0.66233609137875E+00
 s    2 1.00
 0.62067138508000E+01 0.65595308539952E+00
 0.25764896527000E+01 0.37585633285142E+00
 s    1 1.00
 0.57696339419000E+00 0.10000000000000E+01
 s    1 1.00
 0.22972831358000E+00 0.10000000000000E+01
 s    1 1.00
 0.95164440028000E-01 0.10000000000000E+01
 s    1 1.00
 0.48475401370000E-01 0.10000000000000E+01
 p    4 1.00
 0.34697232244000E+02 0.11327220003114E-01
 0.79582622826000E+01 0.76169659202087E-01
 0.23780826883000E+01 0.30192252202676E+00
 0.81433208183000E+00 0.72785027349547E+00
 p    1 1.00
 0.28887547253000E+00 0.10000000000000E+01
 p    1 1.00
 0.10056823671000E+00 0.10000000000000E+01
 d    1 1.00
 0.10970000000000E+01 0.10000000000000E+01
 d    1 1.00
 0.31800000000000E+00 0.10000000000000E+01
 d    1 1.00
 0.90985336424000E-01 0.10000000000000E+01
 f    1 1.00
 0.76100000000000E+00 0.10000000000000E+01
 
    7 0
 s    3 1.00
 0.34061341000000E+02 0.25439307208879E-01
 0.51235746000000E+01 0.19008594890375E+00
 0.11646626000000E+01 0.85244113011042E+00
 s    1 1.00
 0.32723041000000E+00 0.10000000000000E+01
 s    1 1.00
 0.10307241000000E+00 0.10000000000000E+01
 p    1 1.00
 0.80000000000000E+00 0.10000000000000E+01
 p    1 1.00
 0.95774129632000E-01 0.10000000000000E+01
 
    8 0
 s    3 1.00
 0.34061341000000E+02 0.25439307208879E-01
 0.51235746000000E+01 0.19008594890375E+00
 0.11646626000000E+01 0.85244113011042E+00
 s    1 1.00
 0.32723041000000E+00 0.10000000000000E+01
 s    1 1.00
 0.10307241000000E+00 0.10000000000000E+01
 p    1 1.00
 0.80000000000000E+00 0.10000000000000E+01
 p    1 1.00
 0.95774129632000E-01 0.10000000000000E+01
 
    9 0
 s    3 1.00
 0.34061341000000E+02 0.25439307208879E-01
 0.51235746000000E+01 0.19008594890375E+00
 0.11646626000000E+01 0.85244113011042E+00
 s    1 1.00
 0.32723041000000E+00 0.10000000000000E+01
 s    1 1.00
 0.10307241000000E+00 0.10000000000000E+01
 p    1 1.00
 0.80000000000000E+00 0.10000000000000E+01
 p    1 1.00
 0.95774129632000E-01 0.10000000000000E+01
 
   10 0
 s    3 1.00
 0.34061341000000E+02 0.25439307208879E-01
 0.51235746000000E+01 0.19008594890375E+00
 0.11646626000000E+01 0.85244113011042E+00
 s    1 1.00
 0.32723041000000E+00 0.10000000000000E+01
 s    1 1.00
 0.10307241000000E+00 0.10000000000000E+01
 p    1 1.00
 0.80000000000000E+00 0.10000000000000E+01
 p    1 1.00
 0.95774129632000E-01 0.10000000000000E+01
 
   11 0
 s    6 1.00
 0.19730800647000E+05 0.58626402628763E-03
 0.29578958745000E+04 0.45428820586397E-02
 0.67322133595000E+03 0.23558413450084E-01
 0.19068249494000E+03 0.94709193292923E-01
 0.62295441898000E+02 0.29719784913376E+00
 0.22654161182000E+02 0.66916246895232E+00
 s    2 1.00
 0.89791477428000E+01 0.64596683630063E+00
 0.36863002370000E+01 0.38700574393705E+00
 s    1 1.00
 0.84660076805000E+00 0.10000000000000E+01
 s    1 1.00
 0.33647133771000E+00 0.10000000000000E+01
 s    1 1.00
 0.13647653675000E+00 0.10000000000000E+01
 s    1 1.00
 0.68441605847000E-01 0.10000000000000E+01
 p    4 1.00
 0.49200380510000E+02 0.11448825101764E-01
 0.11346790537000E+02 0.78422337970864E-01
 0.34273972411000E+01 0.30818094738830E+00
 0.11785525134000E+01 0.72027196368413E+00
 p    1 1.00
 0.41642204972000E+00 0.10000000000000E+01
 p    1 1.00
 0.14260826011000E+00 0.10000000000000E+01
 d    1 1.00
 0.16540000000000E+01 0.10000000000000E+01
 d    1 1.00
 0.46900000000000E+00 0.10000000000000E+01
 d    1 1.00
 0.12829642058000E+00 0.10000000000000E+01
 f    1 1.00
 0.10930000000000E+01 0.10000000000000E+01
 
   12 0
 s    6 1.00
 0.27032382631000E+05 0.57227335211155E-03
 0.40523871392000E+04 0.44353233492995E-02
 0.92232722710000E+03 0.23020107706038E-01
 0.26124070989000E+03 0.92822490667928E-01
 0.85354641351000E+02 0.29378500009671E+00
 0.31035035245000E+02 0.67401604501641E+00
 s    2 1.00
 0.12260860728000E+02 0.63839937025506E+00
 0.49987076005000E+01 0.39534587125718E+00
 s    1 1.00
 0.11703108158000E+01 0.10000000000000E+01
 s    1 1.00
 0.46474740994000E+00 0.10000000000000E+01
 s    1 1.00
 0.18504536357000E+00 0.10000000000000E+01
 s    1 1.00
 0.70288026270000E-01 0.10000000000000E+01
 p    4 1.00
 0.63274954801000E+02 0.12018332222616E-01
 0.14627049379000E+02 0.83005421790056E-01
 0.44501223456000E+01 0.31991743925964E+00
 0.15275799647000E+01 0.70715542916104E+00
 p    1 1.00
 0.52935117943000E+00 0.10000000000000E+01
 p    1 1.00
 0.17478421270000E+00 0.10000000000000E+01
 p    1 1.00
 0.51112745706000E-01 0.10000000000000E+01
 d    1 1.00
 0.23140000000000E+01 0.10000000000000E+01
 d    1 1.00
 0.64500000000000E+00 0.10000000000000E+01
 d    1 1.00
 0.14696477366000E+00 0.10000000000000E+01
 f    1 1.00
 0.14280000000000E+01 0.10000000000000E+01
 
   13 0
 s    6 1.00
 0.27032382631000E+05 0.57227335211155E-03
 0.40523871392000E+04 0.44353233492995E-02
 0.92232722710000E+03 0.23020107706038E-01
 0.26124070989000E+03 0.92822490667928E-01
 0.85354641351000E+02 0.29378500009671E+00
 0.31035035245000E+02 0.67401604501641E+00
 s    2 1.00
 0.12260860728000E+02 0.63839937025506E+00
 0.49987076005000E+01 0.39534587125718E+00
 s    1 1.00
 0.11703108158000E+01 0.10000000000000E+01
 s    1 1.00
 0.46474740994000E+00 0.10000000000000E+01
 s    1 1.00
 0.18504536357000E+00 0.10000000000000E+01
 s    1 1.00
 0.70288026270000E-01 0.10000000000000E+01
 p    4 1.00
 0.63274954801000E+02 0.12018332222616E-01
 0.14627049379000E+02 0.83005421790056E-01
 0.44501223456000E+01 0.31991743925964E+00
 0.15275799647000E+01 0.70715542916104E+00
 p    1 1.00
 0.52935117943000E+00 0.10000000000000E+01
 p    1 1.00
 0.17478421270000E+00 0.10000000000000E+01
 p    1 1.00
 0.51112745706000E-01 0.10000000000000E+01
 d    1 1.00
 0.23140000000000E+01 0.10000000000000E+01
 d    1 1.00
 0.64500000000000E+00 0.10000000000000E+01
 d    1 1.00
 0.14696477366000E+00 0.10000000000000E+01
 f    1 1.00
 0.14280000000000E+01 0.10000000000000E+01
 
   14 0
 s    6 1.00
 0.19730800647000E+05 0.58626402628763E-03
 0.29578958745000E+04 0.45428820586397E-02
 0.67322133595000E+03 0.23558413450084E-01
 0.19068249494000E+03 0.94709193292923E-01
 0.62295441898000E+02 0.29719784913376E+00
 0.22654161182000E+02 0.66916246895232E+00
 s    2 1.00
 0.89791477428000E+01 0.64596683630063E+00
 0.36863002370000E+01 0.38700574393705E+00
 s    1 1.00
 0.84660076805000E+00 0.10000000000000E+01
 s    1 1.00
 0.33647133771000E+00 0.10000000000000E+01
 s    1 1.00
 0.13647653675000E+00 0.10000000000000E+01
 s    1 1.00
 0.68441605847000E-01 0.10000000000000E+01
 p    4 1.00
 0.49200380510000E+02 0.11448825101764E-01
 0.11346790537000E+02 0.78422337970864E-01
 0.34273972411000E+01 0.30818094738830E+00
 0.11785525134000E+01 0.72027196368413E+00
 p    1 1.00
 0.41642204972000E+00 0.10000000000000E+01
 p    1 1.00
 0.14260826011000E+00 0.10000000000000E+01
 d    1 1.00
 0.16540000000000E+01 0.10000000000000E+01
 d    1 1.00
 0.46900000000000E+00 0.10000000000000E+01
 d    1 1.00
 0.12829642058000E+00 0.10000000000000E+01
 f    1 1.00
 0.10930000000000E+01 0.10000000000000E+01
 
   15 0
 s    3 1.00
 0.34061341000000E+02 0.25439307208879E-01
 0.51235746000000E+01 0.19008594890375E+00
 0.11646626000000E+01 0.85244113011042E+00
 s    1 1.00
 0.32723041000000E+00 0.10000000000000E+01
 s    1 1.00
 0.10307241000000E+00 0.10000000000000E+01
 p    1 1.00
 0.80000000000000E+00 0.10000000000000E+01
 p    1 1.00
 0.95774129632000E-01 0.10000000000000E+01
 
   16 0
 s    3 1.00
 0.34061341000000E+02 0.25439307208879E-01
 0.51235746000000E+01 0.19008594890375E+00
 0.11646626000000E+01 0.85244113011042E+00
 s    1 1.00
 0.32723041000000E+00 0.10000000000000E+01
 s    1 1.00
 0.10307241000000E+00 0.10000000000000E+01
 p    1 1.00
 0.80000000000000E+00 0.10000000000000E+01
 p    1 1.00
 0.95774129632000E-01 0.10000000000000E+01
 
[MO]
 Sym= X
 Ene= -0.948986
 Spin= Alpha
 Occup= -0.948986
         1   -1.872567E-04
         2   -4.356380E-04
         3    1.212209E-03
         4   -2.616777E-03
         5   -9.493158E-03
         6   -1.120510E-02
         7    1.951384E-03
         8    1.903490E-04
         9    1.373520E-02
        10   -2.192727E-03
        11    3.971216E-04
        12    1.208088E-02
        13   -3.503875E-02
        14    1.012783E-02
        15    8.200569E-04
        16    1.485756E-05
        17   -2.582865E-05
        18    1.097109E-05
        19   -1.394251E-05
        20   -6.376678E-03
        21    3.526830E-03
        22   -6.473994E-04
        23    3.856713E-04
        24    2.617280E-04
        25   -7.072856E-04
        26   -1.430247E-02
        27    6.730201E-03
        28   -5.067737E-03
        29    4.757523E-03
        30    3.102144E-04
        31    1.065325E-03
        32    2.055862E-03
        33   -1.011876E-02
        34   -1.880737E-05
        35    6.590959E-06
        36   -1.141154E-05
        37    7.995514E-06
        38   -6.549278E-06
        39   -7.629591E-04
        40    1.723722E-05
        41   -2.293421E-06
        42    7.782693E-04
        43   -6.695380E-04
        44    3.146916E-05
        45    6.907334E-05
        46    1.194414E-04
        47   -2.789286E-03
        48   -4.967447E-02
        49    5.660670E-03
        50    1.485204E-04
        51    1.827288E-06
        52    1.890408E-01
        53   -6.079808E-04
        54    1.877118E-05
        55    1.965902E-01
        56   -1.628277E-02
        57   -6.960572E-04
        58    1.948963E-01
        59    5.415717E-05
        60   -5.170693E-05
        61   -2.450240E-06
        62    9.671795E-08
        63   -1.064729E-03
        64    1.901321E-07
        65    3.943643E-04
        66   -6.417563E-04
        67    2.473920E-04
        68    4.174636E-06
        69   -3.960861E-03
        70    3.595546E-07
        71    8.979741E-03
        72   -1.008405E-02
        73    1.104308E-03
        74   -1.086319E-04
        75    4.419463E-03
        76   -1.552416E-05
        77    6.181109E-06
        78    3.227361E-08
        79   -1.031875E-03
        80   -6.207365E-06
        81    3.535128E-08
        82    6.480844E-04
        83   -2.085462E-06
        84   -7.865088E-08
        85    7.363207E-04
        86    5.688881E-08
        87   -1.873383E-04
        88   -4.358153E-04
        89    1.213814E-03
        90   -2.635177E-03
        91   -7.850801E-03
        92   -1.117851E-02
        93    1.952583E-03
        94   -1.933952E-04
        95    1.374629E-02
        96   -2.156457E-03
        97   -3.918180E-04
        98    1.208754E-02
        99   -3.533120E-02
       100   -1.076310E-02
       101    8.252176E-04
       102    1.494949E-05
       103   -2.585659E-05
       104    1.090710E-05
       105    1.429478E-05
       106   -6.376444E-03
       107   -3.526959E-03
       108   -6.398794E-04
       109    3.779865E-04
       110    2.618928E-04
       111    7.040528E-04
       112   -1.430286E-02
       113   -6.729176E-03
       114   -5.174427E-03
       115    4.873705E-03
       116    3.007218E-04
       117   -9.592988E-04
       118    2.039903E-03
       119    1.011265E-02
       120   -1.880917E-05
       121   -6.555635E-06
       122   -1.136144E-05
       123    8.172897E-06
       124    6.484669E-06
       125   -7.630400E-04
       126    1.706226E-05
       127    2.310639E-06
       128    7.782830E-04
       129    6.694706E-04
       130    1.218161E-04
       131    2.632385E-04
       132    5.522566E-04
       133   -1.029467E-02
       134    2.931782E-02
       135    1.266359E-02
       136   -1.648223E-03
       137    6.706636E-04
       138   -1.616088E-01
       139   -9.283640E-03
       140    6.104992E-03
       141   -1.642522E-01
       142   -2.409050E-02
       143   -8.002274E-03
       144   -9.776780E-02
       145    1.572956E-04
       146   -1.866526E-04
       147    2.935701E-05
       148   -3.771837E-06
       149   -6.379633E-04
       150    3.120893E-03
       151    6.339949E-04
       152   -7.575136E-04
       153    1.235186E-04
       154    1.678978E-03
       155   -3.729833E-03
       156    5.243530E-03
       157    8.259852E-03
       158   -6.493196E-03
       159   -1.766655E-03
       160   -8.637986E-03
       161    3.519942E-03
       162   -1.221838E-02
       163   -1.577727E-05
       164    9.584258E-06
       165    9.376167E-04
       166   -1.916662E-05
       167    1.656690E-05
       168   -2.833977E-04
       169    4.033405E-05
       170   -2.942553E-05
       171   -9.745470E-04
       172    3.408686E-04
       173   -1.083532E-03
       174   -2.471477E-03
       175    2.547566E-03
       176    2.130774E-02
       177   -1.792109E-02
       178    8.810348E-03
       179    9.178579E-03
       180   -2.050804E-06
       181   -1.185476E-01
       182    5.566320E-04
       183   -1.099254E-05
       184   -1.210423E-01
       185   -2.582874E-02
       186    9.292377E-04
       187   -1.331658E-01
       188    4.951818E-04
       189   -2.845944E-04
       190   -2.105873E-04
       191    3.349618E-07
       192    1.009037E-02
       193    4.390573E-07
       194   -1.834013E-03
       195    4.027798E-03
       196   -2.193785E-03
       197    5.516192E-07
       198    2.499402E-02
       199   -1.757658E-06
       200   -5.655239E-03
       201    6.836104E-03
       202   -1.180865E-03
       203   -1.281098E-04
       204    1.921436E-02
       205    4.270206E-06
       206    1.143504E-04
       207    8.609746E-09
       208    3.862826E-04
       209   -7.971691E-05
       210   -2.903026E-08
       211    1.010514E-03
       212   -7.370023E-05
       213    1.747908E-08
       214   -1.528766E-03
       215    3.297005E-08
       216    1.222323E-04
       217    2.639498E-04
       218    5.518177E-04
       219   -1.030321E-02
       220    3.123986E-02
       221    1.267965E-02
       222   -1.647665E-03
       223   -6.621264E-04
       224   -1.616197E-01
       225   -9.303150E-03
       226   -6.106385E-03
       227   -1.642675E-01
       228   -2.367299E-02
       229    8.911151E-03
       230   -9.778182E-02
       231    1.572537E-04
       232   -1.869869E-04
       233    2.973320E-05
       234    4.222700E-06
       235   -6.379602E-04
       236   -3.120928E-03
       237    6.392433E-04
       238   -7.602168E-04
       239    1.209735E-04
       240   -1.682637E-03
       241   -3.726585E-03
       242   -5.243585E-03
       243    8.180249E-03
       244   -6.410031E-03
       245   -1.770218E-03
       246    8.764664E-03
       247    3.544744E-03
       248    1.222290E-02
       249   -1.596885E-05
       250   -9.622363E-06
       251    9.378440E-04
       252   -1.909543E-05
       253   -1.652707E-05
       254   -2.836876E-04
       255    4.051989E-05
       256    2.943682E-05
       257   -9.745622E-04
       258   -3.409049E-04
       259   -4.360222E-04
       260   -3.349575E-04
       261   -1.723293E-02
       262   -1.195008E-05
       263   -1.241101E-05
       264    5.883134E-04
       265   -5.276444E-03
       266   -2.753175E-04
       267   -6.313080E-03
       268   -4.385077E-04
       269   -3.289788E-04
       270   -1.719731E-02
       271   -1.104775E-05
       272    1.147753E-05
       273    5.886266E-04
       274   -5.369387E-03
       275    2.428557E-04
       276   -6.315258E-03
       277   -5.150033E-04
       278   -2.490076E-03
       279    3.421692E-02
       280   -1.085500E-05
       281    1.148935E-04
       282   -6.510463E-03
       283   -1.797261E-03
       284   -2.753718E-03
       285    1.657753E-03
       286   -5.192189E-04
       287   -2.500941E-03
       288    3.452413E-02
       289   -1.013176E-05
       290   -1.155465E-04
       291   -6.511655E-03
       292   -1.780162E-03
       293    2.809474E-03
       294    1.648058E-03
       295   -5.853742E-05
       296   -1.364940E-04
       297    1.356598E-04
       298    5.199166E-04
       299   -6.461479E-03
       300    9.065444E-04
       301    7.047757E-04
       302   -3.683207E-07
       303    2.749939E-02
       304    3.803938E-04
       305    6.713697E-07
       306    2.950732E-02
       307   -2.909605E-03
       308    3.414077E-05
       309    1.054539E-02
       310    3.058009E-05
       311   -1.909623E-05
       312   -1.148387E-05
       313    8.315493E-08
       314    4.078463E-03
       315    9.334707E-08
       316    3.332301E-05
       317    2.710035E-05
       318   -6.042337E-05
       319   -3.299012E-07
       320    1.242160E-02
       321    9.796400E-08
       322   -1.014749E-03
       323    2.804756E-03
       324   -1.790007E-03
       325    2.424461E-05
       326    2.938086E-03
       327    4.483408E-06
       328    6.886569E-06
       329    1.607530E-08
       330   -4.241504E-05
       331   -4.172391E-06
       332   -1.374116E-09
       333    6.717824E-04
       334   -5.066911E-06
       335   -2.019317E-08
       336   -6.148767E-04
       337   -8.663346E-09
       338   -1.402977E-05
       339   -3.075290E-05
       340    3.341737E-06
       341    5.289860E-04
       342   -5.779229E-03
       343   -8.948098E-04
       344   -4.682081E-04
       345    1.099239E-04
       346   -6.969722E-02
       347   -5.215271E-04
       348    2.330756E-04
       349   -6.476847E-02
       350   -1.615611E-03
       351    4.722989E-04
       352   -5.440149E-02
       353   -1.811083E-04
       354    2.030732E-04
       355   -7.001054E-03
       356    3.843909E-06
       357   -5.536183E-06
       358    1.692274E-06
       359    2.407037E-06
       360    7.158419E-05
       361    3.341957E-04
       362   -1.295805E-05
       363   -1.223942E-05
       364    2.519746E-05
       365    1.490852E-05
       366   -2.970945E-04
       367    1.170452E-03
       368   -8.059315E-05
       369    5.419193E-05
       370    2.640122E-05
       371    8.917605E-05
       372   -4.527611E-05
       373    1.315197E-04
       374    1.083536E-06
       375    1.578092E-06
       376    3.932696E-05
       377   -2.016498E-06
       378   -4.744886E-08
       379    7.828706E-05
       380    5.627820E-07
       381   -2.069783E-06
       382   -1.310497E-04
       383    9.909923E-05
       384   -1.392154E-05
       385   -3.053025E-05
       386    3.519032E-06
       387    5.242085E-04
       388   -5.770377E-03
       389   -8.702240E-04
       390   -4.685468E-04
       391   -1.076986E-04
       392   -6.970104E-02
       393   -5.215284E-04
       394   -2.307240E-04
       395   -6.477276E-02
       396   -1.589205E-03
       397   -4.638466E-04
       398   -5.439637E-02
       399   -1.669139E-04
       400   -2.085636E-04
       401   -7.001877E-03
       402    3.818872E-06
       403   -5.515945E-06
       404    1.697073E-06
       405   -2.454239E-06
       406    7.154148E-05
       407   -3.342279E-04
       408   -1.283411E-05
       409   -1.205867E-05
       410    2.489279E-05
       411   -1.447338E-05
       412   -2.970950E-04
       413   -1.170579E-03
       414   -8.005974E-05
       415    5.563714E-05
       416    2.442260E-05
       417   -8.808891E-05
       418   -4.526160E-05
       419   -1.304806E-04
       420    1.080073E-06
       421   -1.564352E-06
       422    3.933676E-05
       423   -1.994750E-06
       424    3.906635E-08
       425    7.828550E-05
       426    5.456811E-07
       427    2.059732E-06
       428   -1.310613E-04
       429   -9.911383E-05
       430    4.627819E-03
       431    1.100867E-02
       432   -1.723164E-02
       433   -2.681331E-02
       434   -2.123550E-02
       435   -6.848728E-02
       436   -1.706590E-02
       437    7.695835E-06
       438    2.519183E-01
       439   -1.958558E-02
       440    8.277362E-07
       441    2.490337E-01
       442   -1.834333E-02
       443   -1.073392E-04
       444    2.046133E-01
       445   -9.541897E-05
       446   -4.052966E-06
       447    9.947193E-05
       448    2.577728E-07
       449    8.519144E-04
       450    2.309074E-07
       451   -2.002608E-04
       452   -1.514609E-03
       453    1.714870E-03
       454   -3.744933E-06
       455    3.836267E-03
       456    1.463767E-06
       457   -1.785540E-03
       458   -3.049255E-03
       459    4.834795E-03
       460   -3.124979E-06
       461    2.318678E-03
       462    7.682798E-06
       463   -1.440891E-04
       464    3.277812E-08
       465   -9.874825E-04
       466   -8.063172E-05
       467   -6.074664E-09
       468    5.159278E-04
       469    2.739475E-04
       470   -3.790180E-08
       471    8.089191E-04
       472    2.418562E-09
       473    9.603974E-03
       474    1.805075E-02
       475    3.005022E-02
       476   -2.259175E-03
       477   -1.911639E-03
       478    1.279962E-02
       479    1.312679E-03
       480   -3.473004E-03
       481    1.493372E-02
       482    9.598450E-03
       483    1.798433E-02
       484    2.986500E-02
       485   -2.255908E-03
       486    1.905278E-03
       487    1.280286E-02
       488    1.329927E-03
       489    3.437444E-03
       490    1.494199E-02
 Sym= X
 Ene= 0.948986
 Spin= Alpha
 Occup= 0.948986
         1   -1.147986E-02
         2   -2.557739E-02
         3    1.053898E-02
         4    3.973325E-01
         5    5.410879E+00
         6   -6.863736E+00
         7   -5.111060E-03
         8   -1.560689E-02
         9    5.096964E-04
        10    8.625669E-02
        11    5.803934E-03
        12   -2.015443E-03
        13   -7.286372E-01
        14   -6.206643E-01
        15   -2.738392E-02
        16    1.417380E-03
        17    5.886254E-04
        18   -2.006006E-03
        19    3.450346E-04
        20    1.696468E-04
        21    3.065709E-05
        22    3.149694E-02
        23   -1.527859E-02
        24   -1.621835E-02
        25   -1.237347E-02
        26   -5.974078E-04
        27   -8.746661E-05
        28   -3.377157E-02
        29   -1.195982E-01
        30    1.533698E-01
        31    1.412193E+00
        32    7.740948E-03
        33   -1.989365E-02
        34    7.877337E-04
        35    1.017514E-04
        36   -2.584118E-05
        37   -6.353642E-04
        38    4.205056E-05
        39    1.685412E-05
        40   -4.214915E-04
        41   -1.785644E-04
        42    1.781546E-05
        43   -2.098459E-06
        44   -3.383358E-03
        45   -6.790721E-03
        46   -9.441442E-03
        47    2.223070E-01
        48    8.137937E+00
        49    5.119527E+00
        50   -5.450294E-03
        51    1.392554E-05
        52   -8.775767E-04
        53   -6.292839E-02
        54   -1.112991E-04
        55   -2.989944E-03
        56   -1.976818E+00
        57   -1.344916E-02
        58    7.522230E-02
        59    1.179157E-03
        60    1.835706E-03
        61   -3.014863E-03
        62   -6.141217E-07