[Molden Format]
[Title]
ADC(2) - opt by CAM-B3LYP gaussian                                              
[Atoms] AU
 c     1    6 -.12589065566052E+01 -.22830902054421E+01 -.26005390588660E-01
 c     2    6 -.25569912224779E+01 0.86573078000000E-06 -.24733756079320E-01
 c     3    6 -.12589060841737E+01 0.22830907841707E+01 -.26008073999770E-01
 c     4    6 0.13324295737882E+01 0.22846183820847E+01 -.28114684000920E-01
 c     5    6 0.26867573459717E+01 0.39329925000000E-06 -.27723246129760E-01
 c     6    6 0.13324281942881E+01 -.22846180679178E+01 -.28111244699360E-01
 h     7    1 -.22982509786098E+01 -.40377481062879E+01 -.23319125993500E-01
 h     8    1 -.22982490510892E+01 0.40377494409070E+01 -.23324322740370E-01
 h     9    1 0.23514918675648E+01 0.40568894753521E+01 -.30529017005560E-01
 h    10    1 0.23514910360853E+01 -.40568888210345E+01 -.30521911635300E-01
 n    11    7 -.52742123095903E+01 0.14763485000000E-06 -.18925267070140E-01
 o    12    8 -.63809534361791E+01 0.20269762391752E+01 -.16457057973460E-01
 o    13    8 -.63809510362269E+01 -.20269772478165E+01 -.16464881439650E-01
 n    14    7 0.52454603626942E+01 -.57046108000000E-06 -.73989411041200E-01
 h    15    1 0.62036818842731E+01 0.16164996606794E+01 0.19711589672944E+00
 h    16    1 0.62036804102867E+01 -.16165023700742E+01 0.19711149366755E+00
[GTO]
    1 0
 s    6 1.00
 0.13575349682000E+05 0.60645503603591E-03
 0.20352333680000E+04 0.46979088884982E-02
 0.46322562359000E+03 0.24332477647552E-01
 0.13120019598000E+03 0.97399968307759E-01
 0.42853015891000E+02 0.30195584253780E+00
 0.15584185766000E+02 0.66233609137875E+00
 s    2 1.00
 0.62067138508000E+01 0.65595308539952E+00
 0.25764896527000E+01 0.37585633285142E+00
 s    1 1.00
 0.57696339419000E+00 0.10000000000000E+01
 s    1 1.00
 0.22972831358000E+00 0.10000000000000E+01
 s    1 1.00
 0.95164440028000E-01 0.10000000000000E+01
 s    1 1.00
 0.48475401370000E-01 0.10000000000000E+01
 p    4 1.00
 0.34697232244000E+02 0.11327220003114E-01
 0.79582622826000E+01 0.76169659202087E-01
 0.23780826883000E+01 0.30192252202676E+00
 0.81433208183000E+00 0.72785027349547E+00
 p    1 1.00
 0.28887547253000E+00 0.10000000000000E+01
 p    1 1.00
 0.10056823671000E+00 0.10000000000000E+01
 d    1 1.00
 0.10970000000000E+01 0.10000000000000E+01
 d    1 1.00
 0.31800000000000E+00 0.10000000000000E+01
 d    1 1.00
 0.90985336424000E-01 0.10000000000000E+01
 f    1 1.00
 0.76100000000000E+00 0.10000000000000E+01
 
    2 0
 s    6 1.00
 0.13575349682000E+05 0.60645503603591E-03
 0.20352333680000E+04 0.46979088884982E-02
 0.46322562359000E+03 0.24332477647552E-01
 0.13120019598000E+03 0.97399968307759E-01
 0.42853015891000E+02 0.30195584253780E+00
 0.15584185766000E+02 0.66233609137875E+00
 s    2 1.00
 0.62067138508000E+01 0.65595308539952E+00
 0.25764896527000E+01 0.37585633285142E+00
 s    1 1.00
 0.57696339419000E+00 0.10000000000000E+01
 s    1 1.00
 0.22972831358000E+00 0.10000000000000E+01
 s    1 1.00
 0.95164440028000E-01 0.10000000000000E+01
 s    1 1.00
 0.48475401370000E-01 0.10000000000000E+01
 p    4 1.00
 0.34697232244000E+02 0.11327220003114E-01
 0.79582622826000E+01 0.76169659202087E-01
 0.23780826883000E+01 0.30192252202676E+00
 0.81433208183000E+00 0.72785027349547E+00
 p    1 1.00
 0.28887547253000E+00 0.10000000000000E+01
 p    1 1.00
 0.10056823671000E+00 0.10000000000000E+01
 d    1 1.00
 0.10970000000000E+01 0.10000000000000E+01
 d    1 1.00
 0.31800000000000E+00 0.10000000000000E+01
 d    1 1.00
 0.90985336424000E-01 0.10000000000000E+01
 f    1 1.00
 0.76100000000000E+00 0.10000000000000E+01
 
    3 0
 s    6 1.00
 0.13575349682000E+05 0.60645503603591E-03
 0.20352333680000E+04 0.46979088884982E-02
 0.46322562359000E+03 0.24332477647552E-01
 0.13120019598000E+03 0.97399968307759E-01
 0.42853015891000E+02 0.30195584253780E+00
 0.15584185766000E+02 0.66233609137875E+00
 s    2 1.00
 0.62067138508000E+01 0.65595308539952E+00
 0.25764896527000E+01 0.37585633285142E+00
 s    1 1.00
 0.57696339419000E+00 0.10000000000000E+01
 s    1 1.00
 0.22972831358000E+00 0.10000000000000E+01
 s    1 1.00
 0.95164440028000E-01 0.10000000000000E+01
 s    1 1.00
 0.48475401370000E-01 0.10000000000000E+01
 p    4 1.00
 0.34697232244000E+02 0.11327220003114E-01
 0.79582622826000E+01 0.76169659202087E-01
 0.23780826883000E+01 0.30192252202676E+00
 0.81433208183000E+00 0.72785027349547E+00
 p    1 1.00
 0.28887547253000E+00 0.10000000000000E+01
 p    1 1.00
 0.10056823671000E+00 0.10000000000000E+01
 d    1 1.00
 0.10970000000000E+01 0.10000000000000E+01
 d    1 1.00
 0.31800000000000E+00 0.10000000000000E+01
 d    1 1.00
 0.90985336424000E-01 0.10000000000000E+01
 f    1 1.00
 0.76100000000000E+00 0.10000000000000E+01
 
    4 0
 s    6 1.00
 0.13575349682000E+05 0.60645503603591E-03
 0.20352333680000E+04 0.46979088884982E-02
 0.46322562359000E+03 0.24332477647552E-01
 0.13120019598000E+03 0.97399968307759E-01
 0.42853015891000E+02 0.30195584253780E+00
 0.15584185766000E+02 0.66233609137875E+00
 s    2 1.00
 0.62067138508000E+01 0.65595308539952E+00
 0.25764896527000E+01 0.37585633285142E+00
 s    1 1.00
 0.57696339419000E+00 0.10000000000000E+01
 s    1 1.00
 0.22972831358000E+00 0.10000000000000E+01
 s    1 1.00
 0.95164440028000E-01 0.10000000000000E+01
 s    1 1.00
 0.48475401370000E-01 0.10000000000000E+01
 p    4 1.00
 0.34697232244000E+02 0.11327220003114E-01
 0.79582622826000E+01 0.76169659202087E-01
 0.23780826883000E+01 0.30192252202676E+00
 0.81433208183000E+00 0.72785027349547E+00
 p    1 1.00
 0.28887547253000E+00 0.10000000000000E+01
 p    1 1.00
 0.10056823671000E+00 0.10000000000000E+01
 d    1 1.00
 0.10970000000000E+01 0.10000000000000E+01
 d    1 1.00
 0.31800000000000E+00 0.10000000000000E+01
 d    1 1.00
 0.90985336424000E-01 0.10000000000000E+01
 f    1 1.00
 0.76100000000000E+00 0.10000000000000E+01
 
    5 0
 s    6 1.00
 0.13575349682000E+05 0.60645503603591E-03
 0.20352333680000E+04 0.46979088884982E-02
 0.46322562359000E+03 0.24332477647552E-01
 0.13120019598000E+03 0.97399968307759E-01
 0.42853015891000E+02 0.30195584253780E+00
 0.15584185766000E+02 0.66233609137875E+00
 s    2 1.00
 0.62067138508000E+01 0.65595308539952E+00
 0.25764896527000E+01 0.37585633285142E+00
 s    1 1.00
 0.57696339419000E+00 0.10000000000000E+01
 s    1 1.00
 0.22972831358000E+00 0.10000000000000E+01
 s    1 1.00
 0.95164440028000E-01 0.10000000000000E+01
 s    1 1.00
 0.48475401370000E-01 0.10000000000000E+01
 p    4 1.00
 0.34697232244000E+02 0.11327220003114E-01
 0.79582622826000E+01 0.76169659202087E-01
 0.23780826883000E+01 0.30192252202676E+00
 0.81433208183000E+00 0.72785027349547E+00
 p    1 1.00
 0.28887547253000E+00 0.10000000000000E+01
 p    1 1.00
 0.10056823671000E+00 0.10000000000000E+01
 d    1 1.00
 0.10970000000000E+01 0.10000000000000E+01
 d    1 1.00
 0.31800000000000E+00 0.10000000000000E+01
 d    1 1.00
 0.90985336424000E-01 0.10000000000000E+01
 f    1 1.00
 0.76100000000000E+00 0.10000000000000E+01
 
    6 0
 s    6 1.00
 0.13575349682000E+05 0.60645503603591E-03
 0.20352333680000E+04 0.46979088884982E-02
 0.46322562359000E+03 0.24332477647552E-01
 0.13120019598000E+03 0.97399968307759E-01
 0.42853015891000E+02 0.30195584253780E+00
 0.15584185766000E+02 0.66233609137875E+00
 s    2 1.00
 0.62067138508000E+01 0.65595308539952E+00
 0.25764896527000E+01 0.37585633285142E+00
 s    1 1.00
 0.57696339419000E+00 0.10000000000000E+01
 s    1 1.00
 0.22972831358000E+00 0.10000000000000E+01
 s    1 1.00
 0.95164440028000E-01 0.10000000000000E+01
 s    1 1.00
 0.48475401370000E-01 0.10000000000000E+01
 p    4 1.00
 0.34697232244000E+02 0.11327220003114E-01
 0.79582622826000E+01 0.76169659202087E-01
 0.23780826883000E+01 0.30192252202676E+00
 0.81433208183000E+00 0.72785027349547E+00
 p    1 1.00
 0.28887547253000E+00 0.10000000000000E+01
 p    1 1.00
 0.10056823671000E+00 0.10000000000000E+01
 d    1 1.00
 0.10970000000000E+01 0.10000000000000E+01
 d    1 1.00
 0.31800000000000E+00 0.10000000000000E+01
 d    1 1.00
 0.90985336424000E-01 0.10000000000000E+01
 f    1 1.00
 0.76100000000000E+00 0.10000000000000E+01
 
    7 0
 s    3 1.00
 0.34061341000000E+02 0.25439307208879E-01
 0.51235746000000E+01 0.19008594890375E+00
 0.11646626000000E+01 0.85244113011042E+00
 s    1 1.00
 0.32723041000000E+00 0.10000000000000E+01
 s    1 1.00
 0.10307241000000E+00 0.10000000000000E+01
 p    1 1.00
 0.80000000000000E+00 0.10000000000000E+01
 p    1 1.00
 0.95774129632000E-01 0.10000000000000E+01
 
    8 0
 s    3 1.00
 0.34061341000000E+02 0.25439307208879E-01
 0.51235746000000E+01 0.19008594890375E+00
 0.11646626000000E+01 0.85244113011042E+00
 s    1 1.00
 0.32723041000000E+00 0.10000000000000E+01
 s    1 1.00
 0.10307241000000E+00 0.10000000000000E+01
 p    1 1.00
 0.80000000000000E+00 0.10000000000000E+01
 p    1 1.00
 0.95774129632000E-01 0.10000000000000E+01
 
    9 0
 s    3 1.00
 0.34061341000000E+02 0.25439307208879E-01
 0.51235746000000E+01 0.19008594890375E+00
 0.11646626000000E+01 0.85244113011042E+00
 s    1 1.00
 0.32723041000000E+00 0.10000000000000E+01
 s    1 1.00
 0.10307241000000E+00 0.10000000000000E+01
 p    1 1.00
 0.80000000000000E+00 0.10000000000000E+01
 p    1 1.00
 0.95774129632000E-01 0.10000000000000E+01
 
   10 0
 s    3 1.00
 0.34061341000000E+02 0.25439307208879E-01
 0.51235746000000E+01 0.19008594890375E+00
 0.11646626000000E+01 0.85244113011042E+00
 s    1 1.00
 0.32723041000000E+00 0.10000000000000E+01
 s    1 1.00
 0.10307241000000E+00 0.10000000000000E+01
 p    1 1.00
 0.80000000000000E+00 0.10000000000000E+01
 p    1 1.00
 0.95774129632000E-01 0.10000000000000E+01
 
   11 0
 s    6 1.00
 0.19730800647000E+05 0.58626402628763E-03
 0.29578958745000E+04 0.45428820586397E-02
 0.67322133595000E+03 0.23558413450084E-01
 0.19068249494000E+03 0.94709193292923E-01
 0.62295441898000E+02 0.29719784913376E+00
 0.22654161182000E+02 0.66916246895232E+00
 s    2 1.00
 0.89791477428000E+01 0.64596683630063E+00
 0.36863002370000E+01 0.38700574393705E+00
 s    1 1.00
 0.84660076805000E+00 0.10000000000000E+01
 s    1 1.00
 0.33647133771000E+00 0.10000000000000E+01
 s    1 1.00
 0.13647653675000E+00 0.10000000000000E+01
 s    1 1.00
 0.68441605847000E-01 0.10000000000000E+01
 p    4 1.00
 0.49200380510000E+02 0.11448825101764E-01
 0.11346790537000E+02 0.78422337970864E-01
 0.34273972411000E+01 0.30818094738830E+00
 0.11785525134000E+01 0.72027196368413E+00
 p    1 1.00
 0.41642204972000E+00 0.10000000000000E+01
 p    1 1.00
 0.14260826011000E+00 0.10000000000000E+01
 d    1 1.00
 0.16540000000000E+01 0.10000000000000E+01
 d    1 1.00
 0.46900000000000E+00 0.10000000000000E+01
 d    1 1.00
 0.12829642058000E+00 0.10000000000000E+01
 f    1 1.00
 0.10930000000000E+01 0.10000000000000E+01
 
   12 0
 s    6 1.00
 0.27032382631000E+05 0.57227335211155E-03
 0.40523871392000E+04 0.44353233492995E-02
 0.92232722710000E+03 0.23020107706038E-01
 0.26124070989000E+03 0.92822490667928E-01
 0.85354641351000E+02 0.29378500009671E+00
 0.31035035245000E+02 0.67401604501641E+00
 s    2 1.00
 0.12260860728000E+02 0.63839937025506E+00
 0.49987076005000E+01 0.39534587125718E+00
 s    1 1.00
 0.11703108158000E+01 0.10000000000000E+01
 s    1 1.00
 0.46474740994000E+00 0.10000000000000E+01
 s    1 1.00
 0.18504536357000E+00 0.10000000000000E+01
 s    1 1.00
 0.70288026270000E-01 0.10000000000000E+01
 p    4 1.00
 0.63274954801000E+02 0.12018332222616E-01
 0.14627049379000E+02 0.83005421790056E-01
 0.44501223456000E+01 0.31991743925964E+00
 0.15275799647000E+01 0.70715542916104E+00
 p    1 1.00
 0.52935117943000E+00 0.10000000000000E+01
 p    1 1.00
 0.17478421270000E+00 0.10000000000000E+01
 p    1 1.00
 0.51112745706000E-01 0.10000000000000E+01
 d    1 1.00
 0.23140000000000E+01 0.10000000000000E+01
 d    1 1.00
 0.64500000000000E+00 0.10000000000000E+01
 d    1 1.00
 0.14696477366000E+00 0.10000000000000E+01
 f    1 1.00
 0.14280000000000E+01 0.10000000000000E+01
 
   13 0
 s    6 1.00
 0.27032382631000E+05 0.57227335211155E-03
 0.40523871392000E+04 0.44353233492995E-02
 0.92232722710000E+03 0.23020107706038E-01
 0.26124070989000E+03 0.92822490667928E-01
 0.85354641351000E+02 0.29378500009671E+00
 0.31035035245000E+02 0.67401604501641E+00
 s    2 1.00
 0.12260860728000E+02 0.63839937025506E+00
 0.49987076005000E+01 0.39534587125718E+00
 s    1 1.00
 0.11703108158000E+01 0.10000000000000E+01
 s    1 1.00
 0.46474740994000E+00 0.10000000000000E+01
 s    1 1.00
 0.18504536357000E+00 0.10000000000000E+01
 s    1 1.00
 0.70288026270000E-01 0.10000000000000E+01
 p    4 1.00
 0.63274954801000E+02 0.12018332222616E-01
 0.14627049379000E+02 0.83005421790056E-01
 0.44501223456000E+01 0.31991743925964E+00
 0.15275799647000E+01 0.70715542916104E+00
 p    1 1.00
 0.52935117943000E+00 0.10000000000000E+01
 p    1 1.00
 0.17478421270000E+00 0.10000000000000E+01
 p    1 1.00
 0.51112745706000E-01 0.10000000000000E+01
 d    1 1.00
 0.23140000000000E+01 0.10000000000000E+01
 d    1 1.00
 0.64500000000000E+00 0.10000000000000E+01
 d    1 1.00
 0.14696477366000E+00 0.10000000000000E+01
 f    1 1.00
 0.14280000000000E+01 0.10000000000000E+01
 
   14 0
 s    6 1.00
 0.19730800647000E+05 0.58626402628763E-03
 0.29578958745000E+04 0.45428820586397E-02
 0.67322133595000E+03 0.23558413450084E-01
 0.19068249494000E+03 0.94709193292923E-01
 0.62295441898000E+02 0.29719784913376E+00
 0.22654161182000E+02 0.66916246895232E+00
 s    2 1.00
 0.89791477428000E+01 0.64596683630063E+00
 0.36863002370000E+01 0.38700574393705E+00
 s    1 1.00
 0.84660076805000E+00 0.10000000000000E+01
 s    1 1.00
 0.33647133771000E+00 0.10000000000000E+01
 s    1 1.00
 0.13647653675000E+00 0.10000000000000E+01
 s    1 1.00
 0.68441605847000E-01 0.10000000000000E+01
 p    4 1.00
 0.49200380510000E+02 0.11448825101764E-01
 0.11346790537000E+02 0.78422337970864E-01
 0.34273972411000E+01 0.30818094738830E+00
 0.11785525134000E+01 0.72027196368413E+00
 p    1 1.00
 0.41642204972000E+00 0.10000000000000E+01
 p    1 1.00
 0.14260826011000E+00 0.10000000000000E+01
 d    1 1.00
 0.16540000000000E+01 0.10000000000000E+01
 d    1 1.00
 0.46900000000000E+00 0.10000000000000E+01
 d    1 1.00
 0.12829642058000E+00 0.10000000000000E+01
 f    1 1.00
 0.10930000000000E+01 0.10000000000000E+01
 
   15 0
 s    3 1.00
 0.34061341000000E+02 0.25439307208879E-01
 0.51235746000000E+01 0.19008594890375E+00
 0.11646626000000E+01 0.85244113011042E+00
 s    1 1.00
 0.32723041000000E+00 0.10000000000000E+01
 s    1 1.00
 0.10307241000000E+00 0.10000000000000E+01
 p    1 1.00
 0.80000000000000E+00 0.10000000000000E+01
 p    1 1.00
 0.95774129632000E-01 0.10000000000000E+01
 
   16 0
 s    3 1.00
 0.34061341000000E+02 0.25439307208879E-01
 0.51235746000000E+01 0.19008594890375E+00
 0.11646626000000E+01 0.85244113011042E+00
 s    1 1.00
 0.32723041000000E+00 0.10000000000000E+01
 s    1 1.00
 0.10307241000000E+00 0.10000000000000E+01
 p    1 1.00
 0.80000000000000E+00 0.10000000000000E+01
 p    1 1.00
 0.95774129632000E-01 0.10000000000000E+01
 
[MO]
 Sym= X
 Ene= -0.940596
 Spin= Alpha
 Occup= -0.940596
         1   -1.512997E-04
         2   -3.531716E-04
         3    1.038839E-03
         4   -2.502841E-03
         5   -1.012673E-02
         6   -1.014767E-02
         7    1.401928E-03
         8    1.537663E-04
         9    2.683355E-02
        10   -2.268510E-03
        11    3.285193E-04
        12    2.498772E-02
        13   -3.290060E-02
        14    1.002705E-02
        15    5.839830E-03
        16   -2.715035E-07
        17   -1.167954E-05
        18    1.195104E-05
        19   -7.603099E-06
        20   -6.478984E-03
        21    3.963197E-03
        22   -6.095958E-04
        23    3.632883E-04
        24    2.463076E-04
        25   -6.256291E-04
        26   -1.457539E-02
        27    7.463379E-03
        28   -4.872835E-03
        29    4.587068E-03
        30    2.857668E-04
        31    8.837613E-04
        32    1.377654E-03
        33   -9.575529E-03
        34   -1.836724E-05
        35    5.638452E-06
        36   -1.198379E-04
        37    7.968981E-06
        38   -5.699028E-06
        39   -7.105356E-04
        40    1.667326E-05
        41   -1.865749E-06
        42    8.713150E-04
        43   -7.227794E-04
        44    2.410390E-05
        45    5.291147E-05
        46    1.066586E-04
        47   -2.359738E-03
        48   -4.842331E-02
        49    4.700305E-03
        50    3.491303E-04
        51    1.560537E-06
        52    2.100891E-01
        53   -3.511086E-04
        54    2.020538E-05
        55    2.178852E-01
        56   -1.547038E-02
        57   -6.386521E-04
        58    2.021646E-01
        59    3.378869E-05
        60   -3.148966E-05
        61   -2.299029E-06
        62    8.639678E-08
        63   -8.107771E-04
        64    1.568431E-07
        65    3.315505E-04
        66   -5.526773E-04
        67    2.211268E-04
        68    4.432958E-06
        69   -3.591931E-03
        70    3.530460E-07
        71    7.830110E-03
        72   -8.891642E-03
        73    1.061531E-03
        74   -1.048101E-04
        75    5.186247E-03
        76   -1.445637E-05
        77    7.137053E-06
        78    4.593456E-08
        79   -1.194661E-03
        80   -5.729781E-06
        81    2.732786E-08
        82    7.331418E-04
        83   -3.845581E-06
        84   -8.895554E-08
        85    8.696635E-04
        86    5.582810E-08
        87   -1.514876E-04
        88   -3.535925E-04
        89    1.041091E-03
        90   -2.520587E-03
        91   -8.674605E-03
        92   -1.011614E-02
        93    1.402611E-03
        94   -1.557922E-04
        95    2.684320E-02
        96   -2.232041E-03
        97   -3.204633E-04
        98    2.499317E-02
        99   -3.320707E-02
       100   -1.059629E-02
       101    5.840905E-03
       102   -1.610422E-07
       103   -1.170112E-05
       104    1.186216E-05
       105    7.903023E-06
       106   -6.478788E-03
       107   -3.963335E-03
       108   -6.023537E-04
       109    3.557230E-04
       110    2.466306E-04
       111    6.218136E-04
       112   -1.457566E-02
       113   -7.462196E-03
       114   -4.982972E-03
       115    4.705354E-03
       116    2.776180E-04
       117   -7.800745E-04
       118    1.362962E-03
       119    9.572804E-03
       120   -1.837658E-05
       121   -5.596863E-06
       122   -1.197859E-04
       123    8.152975E-06
       124    5.644937E-06
       125   -7.106143E-04
       126    1.650180E-05
       127    1.864042E-06
       128    8.713240E-04
       129    7.227018E-04
       130    9.361163E-05
       131    2.004145E-04
       132    5.507873E-04
       133   -9.192092E-03
       134    2.956337E-02
       135    1.143192E-02
       136   -1.092425E-03
       137    4.908632E-04
       138   -1.583209E-01
       139   -8.081539E-03
       140    5.427970E-03
       141   -1.609740E-01
       142   -2.297584E-02
       143   -6.987750E-03
       144   -9.719642E-02
       145    1.227801E-04
       146   -1.471406E-04
       147    2.436048E-05
       148   -4.158727E-06
       149   -1.035690E-03
       150    3.201150E-03
       151    5.688914E-04
       152   -6.694751E-04
       153    1.005837E-04
       154    1.508104E-03
       155   -4.427299E-03
       156    5.443376E-03
       157    7.546528E-03
       158   -5.900025E-03
       159   -1.646503E-03
       160   -7.816897E-03
       161    3.183346E-03
       162   -1.099551E-02
       163   -1.402099E-05
       164    7.227521E-06
       165    9.100829E-04
       166   -1.604162E-05
       167    1.640655E-05
       168   -2.323223E-04
       169    3.485275E-05
       170   -2.610329E-05
       171   -9.886821E-04
       172    3.788711E-04
       173   -9.561874E-04
       174   -2.182334E-03
       175    2.198351E-03
       176    1.968111E-02
       177   -1.287311E-02
       178    8.731207E-03
       179    7.566257E-03
       180   -1.606389E-06
       181   -1.275745E-01
       182    1.456192E-04
       183   -9.451538E-06
       184   -1.297478E-01
       185   -2.198960E-02
       186    9.194771E-04
       187   -1.314021E-01
       188    4.142954E-04
       189   -2.271465E-04
       190   -1.871489E-04
       191    3.055410E-07
       192    9.431820E-03
       193    4.180412E-07
       194   -1.655069E-03
       195    3.655051E-03
       196   -1.999982E-03
       197    1.546962E-07
       198    2.364574E-02
       199   -1.963124E-06
       200   -4.889288E-03
       201    6.045794E-03
       202   -1.156506E-03
       203   -1.245969E-04
       204    1.875443E-02
       205    1.510388E-06
       206    9.989346E-05
       207    1.593591E-08
       208    4.744342E-04
       209   -7.116111E-05
       210   -2.699311E-08
       211    8.743364E-04
       212   -6.286003E-05
       213    5.612839E-09
       214   -1.510857E-03
       215    4.411695E-08
       216    9.403351E-05
       217    2.011521E-04
       218    5.498813E-04
       219   -9.196655E-03
       220    3.137020E-02
       221    1.145320E-02
       222   -1.092132E-03
       223   -4.831818E-04
       224   -1.583306E-01
       225   -8.099585E-03
       226   -5.428090E-03
       227   -1.609880E-01
       228   -2.252037E-02
       229    7.860197E-03
       230   -9.721690E-02
       231    1.227164E-04
       232   -1.474535E-04
       233    2.473711E-05
       234    4.554100E-06
       235   -1.035722E-03
       236   -3.201169E-03
       237    5.740032E-04
       238   -6.719131E-04
       239    9.790991E-05
       240   -1.511531E-03
       241   -4.424243E-03
       242   -5.443606E-03
       243    7.468417E-03
       244   -5.818727E-03
       245   -1.649690E-03
       246    7.948304E-03
       247    3.205516E-03
       248    1.099705E-02
       249   -1.422210E-05
       250   -7.265742E-06
       251    9.103067E-04
       252   -1.595503E-05
       253   -1.636655E-05
       254   -2.325992E-04
       255    3.503598E-05
       256    2.611456E-05
       257   -9.887054E-04
       258   -3.789124E-04
       259   -2.912493E-04
       260   -1.382508E-04
       261   -1.539418E-02
       262   -1.046663E-05
       263    5.536301E-06
       264    1.058722E-03
       265   -4.848141E-03
       266   -1.273320E-04
       267   -6.068695E-03
       268   -2.930132E-04
       269   -1.321518E-04
       270   -1.537859E-02
       271   -9.559120E-06
       272   -6.461752E-06
       273    1.058982E-03
       274   -4.944346E-03
       275    9.529468E-05
       276   -6.072643E-03
       277   -3.688601E-04
       278   -2.104911E-03
       279    3.081770E-02
       280   -6.880983E-06
       281    8.814094E-05
       282   -6.437630E-03
       283   -1.304095E-03
       284   -2.537746E-03
       285    6.611151E-04
       286   -3.726587E-04
       287   -2.115873E-03
       288    3.111569E-02
       289   -6.261825E-06
       290   -8.884029E-05
       291   -6.438768E-03
       292   -1.285629E-03
       293    2.591026E-03
       294    6.504220E-04
       295   -3.890192E-05
       296   -9.006936E-05
       297    7.449595E-05
       298    3.584197E-04
       299   -5.607883E-03
       300    1.476800E-03
       301    4.319766E-04
       302   -1.563324E-07
       303    2.568785E-02
       304    1.585294E-04
       305    1.198956E-06
       306    2.777289E-02
       307   -2.599855E-03
       308    2.943950E-05
       309    1.128983E-02
       310    2.306315E-05
       311   -8.244951E-06
       312   -1.481820E-05
       313    3.018953E-08
       314    4.493251E-03
       315    5.210141E-08
       316    1.687076E-05
       317    4.840103E-05
       318   -6.527180E-05
       319   -5.281943E-07
       320    1.360740E-02
       321   -3.645271E-08
       322   -9.830207E-04
       323    2.585169E-03
       324   -1.602148E-03
       325    2.224488E-05
       326    3.516377E-03
       327    4.827606E-06
       328    6.556028E-06
       329    5.405811E-09
       330   -3.030843E-05
       331   -4.340126E-06
       332    1.656128E-08
       333    7.310432E-04
       334   -4.455709E-06
       335   -2.381393E-08
       336   -6.903802E-04
       337   -2.234060E-09
       338   -9.377982E-06
       339   -1.971994E-05
       340   -1.041613E-05
       341    4.480194E-04
       342   -5.253122E-03
       343   -8.539951E-04
       344   -2.749385E-04
       345    8.223040E-05
       346   -7.737367E-02
       347   -3.395532E-04
       348    2.015362E-04
       349   -7.183644E-02
       350   -1.407380E-03
       351    4.040517E-04
       352   -5.944201E-02
       353   -1.433060E-04
       354    2.071564E-04
       355   -7.435431E-03
       356    3.161931E-06
       357   -3.788178E-06
       358    6.262474E-07
       359    1.017063E-06
       360    4.817397E-05
       361    4.166054E-04
       362   -1.205869E-05
       363   -8.331140E-06
       364    2.038983E-05
       365    1.204831E-05
       366   -4.085670E-04
       367    1.424030E-03
       368   -7.722928E-05
       369    5.782581E-05
       370    1.940347E-05
       371    8.992164E-05
       372   -2.077073E-04
       373    1.728238E-04
       374    8.187600E-07
       375    1.252531E-06
       376    5.211706E-05
       377   -1.415578E-06
       378   -3.781551E-08
       379    8.568847E-05
       380    3.170961E-07
       381   -1.642632E-06
       382   -1.556108E-04
       383    1.205427E-04
       384   -9.261594E-06
       385   -1.947932E-05
       386   -1.024064E-05
       387    4.431243E-04
       388   -5.243523E-03
       389   -8.278260E-04
       390   -2.726391E-04
       391   -8.239813E-05
       392   -7.737519E-02
       393   -3.370801E-04
       394   -2.010856E-04
       395   -7.183871E-02
       396   -1.380646E-03
       397   -3.970968E-04
       398   -5.943449E-02
       399   -1.283488E-04
       400   -2.130697E-04
       401   -7.435810E-03
       402    3.163202E-06
       403   -3.802296E-06
       404    6.390947E-07
       405   -1.067320E-06
       406    4.814126E-05
       407   -4.166181E-04
       408   -1.189875E-05
       409   -8.166591E-06
       410    2.006534E-05
       411   -1.157581E-05
       412   -4.085147E-04
       413   -1.424100E-03
       414   -7.640288E-05
       415    5.898619E-05
       416    1.741669E-05
       417   -8.923614E-05
       418   -2.076419E-04
       419   -1.715611E-04
       420    8.184476E-07
       421   -1.245636E-06
       422    5.212336E-05
       423   -1.395325E-06
       424    3.780115E-08
       425    8.568645E-05
       426    2.972621E-07
       427    1.633396E-06
       428   -1.556173E-04
       429   -1.205513E-04
       430    4.188377E-03
       431    9.965998E-03
       432   -1.561370E-02
       433   -2.423360E-02
       434   -2.074074E-02
       435   -6.536621E-02
       436   -1.485541E-02
       437    6.635876E-06
       438    2.277208E-01
       439   -1.714134E-02
       440    3.373500E-07
       441    2.255190E-01
       442   -1.527332E-02
       443   -1.004904E-04
       444    1.884930E-01
       445   -9.115774E-05
       446    1.579766E-05
       447    7.536008E-05
       448    2.211337E-07
       449    1.043018E-03
       450    2.001048E-07
       451   -2.194004E-04
       452   -1.298808E-03
       453    1.518209E-03
       454   -3.458199E-06
       455    4.233910E-03
       456    1.344985E-06
       457   -1.924283E-03
       458   -2.466601E-03
       459    4.390884E-03
       460   -2.649795E-06
       461    2.358580E-03
       462    7.097114E-06
       463   -1.340006E-04
       464    2.588612E-08
       465   -8.583939E-04
       466   -6.943443E-05
       467   -5.030361E-09
       468    4.055340E-04
       469    2.492151E-04
       470   -2.969951E-08
       471    7.461223E-04
       472    8.898054E-10
       473    9.044547E-03
       474    1.670046E-02
       475    2.755209E-02
       476   -2.016613E-03
       477   -1.744333E-03
       478    1.168515E-02
       479    1.612102E-03
       480   -3.246895E-03
       481    1.444743E-02
       482    9.039891E-03
       483    1.664001E-02
       484    2.737847E-02
       485   -2.013692E-03
       486    1.738517E-03
       487    1.168814E-02
       488    1.628678E-03
       489    3.213966E-03
       490    1.445413E-02
 Sym= X
 Ene= 0.940596
 Spin= Alpha
 Occup= 0.940596
         1    4.661210E-03
         2    9.787967E-03
         3    5.736707E-03
         4   -2.708469E-01
         5   -7.049842E+00
         6   -1.097181E-02
         7    1.628755E-02
         8    3.986697E-02
         9   -5.443838E-03
        10    1.021568E-01
        11    1.370257E-02
        12   -6.963378E-03
        13    3.657585E+00
        14   -4.053555E+00
        15    1.297005E-02
        16   -8.826361E-04
        17   -1.802324E-04
        18    1.062868E-03
        19    1.101371E-03
        20    1.496770E-04
        21    1.024431E-05
        22    2.159418E-02
        23   -2.672351E-02
        24    5.129335E-03
        25    1.334901E-02
        26    3.833690E-04
        27    4.043310E-05
        28    1.318047E+00
        29   -1.223212E+00
        30   -9.483476E-02
        31    1.260653E+00
        32   -9.811792E-03
        33    9.436943E-03
        34    1.126007E-04
        35   -3.642581E-05
        36    1.490610E-05
        37    8.420503E-04
        38    3.148001E-04
        39   -4.939671E-06
        40   -9.931201E-04
        41   -2.659297E-04
        42   -1.505896E-05
        43   -6.385975E-06
        44   -3.411924E-06
        45   -7.951137E-06
        46   -1.056137E-06
        47   -1.673463E-04
        48    1.025418E-02
        49    7.246386E-04
        50    1.214937E-05
        51    1.055813E-02
        52    1.425198E-04
        53    1.819201E-05
        54   -9.356826E-02
        55    1.285925E-04
        56    8.067043E-03
        57   -8.812401E+00
        58    7.454750E-04
        59    1.527851E-06
        60   -3.122936E-06
        61    1.595085E-06
        62   -1.784523E-03