[Molden Format]
[Title]
ADC(2) - opt by CAM-B3LYP gaussian                                              
[Atoms] AU
 c     1    6 -.12589065566052E+01 -.22830902054421E+01 -.26005390588660E-01
 c     2    6 -.25569912224779E+01 0.86573078000000E-06 -.24733756079320E-01
 c     3    6 -.12589060841737E+01 0.22830907841707E+01 -.26008073999770E-01
 c     4    6 0.13324295737882E+01 0.22846183820847E+01 -.28114684000920E-01
 c     5    6 0.26867573459717E+01 0.39329925000000E-06 -.27723246129760E-01
 c     6    6 0.13324281942881E+01 -.22846180679178E+01 -.28111244699360E-01
 h     7    1 -.22982509786098E+01 -.40377481062879E+01 -.23319125993500E-01
 h     8    1 -.22982490510892E+01 0.40377494409070E+01 -.23324322740370E-01
 h     9    1 0.23514918675648E+01 0.40568894753521E+01 -.30529017005560E-01
 h    10    1 0.23514910360853E+01 -.40568888210345E+01 -.30521911635300E-01
 n    11    7 -.52742123095903E+01 0.14763485000000E-06 -.18925267070140E-01
 o    12    8 -.63809534361791E+01 0.20269762391752E+01 -.16457057973460E-01
 o    13    8 -.63809510362269E+01 -.20269772478165E+01 -.16464881439650E-01
 n    14    7 0.52454603626942E+01 -.57046108000000E-06 -.73989411041200E-01
 h    15    1 0.62036818842731E+01 0.16164996606794E+01 0.19711589672944E+00
 h    16    1 0.62036804102867E+01 -.16165023700742E+01 0.19711149366755E+00
[GTO]
    1 0
 s    6 1.00
 0.13575349682000E+05 0.60645503603591E-03
 0.20352333680000E+04 0.46979088884982E-02
 0.46322562359000E+03 0.24332477647552E-01
 0.13120019598000E+03 0.97399968307759E-01
 0.42853015891000E+02 0.30195584253780E+00
 0.15584185766000E+02 0.66233609137875E+00
 s    2 1.00
 0.62067138508000E+01 0.65595308539952E+00
 0.25764896527000E+01 0.37585633285142E+00
 s    1 1.00
 0.57696339419000E+00 0.10000000000000E+01
 s    1 1.00
 0.22972831358000E+00 0.10000000000000E+01
 s    1 1.00
 0.95164440028000E-01 0.10000000000000E+01
 s    1 1.00
 0.48475401370000E-01 0.10000000000000E+01
 p    4 1.00
 0.34697232244000E+02 0.11327220003114E-01
 0.79582622826000E+01 0.76169659202087E-01
 0.23780826883000E+01 0.30192252202676E+00
 0.81433208183000E+00 0.72785027349547E+00
 p    1 1.00
 0.28887547253000E+00 0.10000000000000E+01
 p    1 1.00
 0.10056823671000E+00 0.10000000000000E+01
 d    1 1.00
 0.10970000000000E+01 0.10000000000000E+01
 d    1 1.00
 0.31800000000000E+00 0.10000000000000E+01
 d    1 1.00
 0.90985336424000E-01 0.10000000000000E+01
 f    1 1.00
 0.76100000000000E+00 0.10000000000000E+01
 
    2 0
 s    6 1.00
 0.13575349682000E+05 0.60645503603591E-03
 0.20352333680000E+04 0.46979088884982E-02
 0.46322562359000E+03 0.24332477647552E-01
 0.13120019598000E+03 0.97399968307759E-01
 0.42853015891000E+02 0.30195584253780E+00
 0.15584185766000E+02 0.66233609137875E+00
 s    2 1.00
 0.62067138508000E+01 0.65595308539952E+00
 0.25764896527000E+01 0.37585633285142E+00
 s    1 1.00
 0.57696339419000E+00 0.10000000000000E+01
 s    1 1.00
 0.22972831358000E+00 0.10000000000000E+01
 s    1 1.00
 0.95164440028000E-01 0.10000000000000E+01
 s    1 1.00
 0.48475401370000E-01 0.10000000000000E+01
 p    4 1.00
 0.34697232244000E+02 0.11327220003114E-01
 0.79582622826000E+01 0.76169659202087E-01
 0.23780826883000E+01 0.30192252202676E+00
 0.81433208183000E+00 0.72785027349547E+00
 p    1 1.00
 0.28887547253000E+00 0.10000000000000E+01
 p    1 1.00
 0.10056823671000E+00 0.10000000000000E+01
 d    1 1.00
 0.10970000000000E+01 0.10000000000000E+01
 d    1 1.00
 0.31800000000000E+00 0.10000000000000E+01
 d    1 1.00
 0.90985336424000E-01 0.10000000000000E+01
 f    1 1.00
 0.76100000000000E+00 0.10000000000000E+01
 
    3 0
 s    6 1.00
 0.13575349682000E+05 0.60645503603591E-03
 0.20352333680000E+04 0.46979088884982E-02
 0.46322562359000E+03 0.24332477647552E-01
 0.13120019598000E+03 0.97399968307759E-01
 0.42853015891000E+02 0.30195584253780E+00
 0.15584185766000E+02 0.66233609137875E+00
 s    2 1.00
 0.62067138508000E+01 0.65595308539952E+00
 0.25764896527000E+01 0.37585633285142E+00
 s    1 1.00
 0.57696339419000E+00 0.10000000000000E+01
 s    1 1.00
 0.22972831358000E+00 0.10000000000000E+01
 s    1 1.00
 0.95164440028000E-01 0.10000000000000E+01
 s    1 1.00
 0.48475401370000E-01 0.10000000000000E+01
 p    4 1.00
 0.34697232244000E+02 0.11327220003114E-01
 0.79582622826000E+01 0.76169659202087E-01
 0.23780826883000E+01 0.30192252202676E+00
 0.81433208183000E+00 0.72785027349547E+00
 p    1 1.00
 0.28887547253000E+00 0.10000000000000E+01
 p    1 1.00
 0.10056823671000E+00 0.10000000000000E+01
 d    1 1.00
 0.10970000000000E+01 0.10000000000000E+01
 d    1 1.00
 0.31800000000000E+00 0.10000000000000E+01
 d    1 1.00
 0.90985336424000E-01 0.10000000000000E+01
 f    1 1.00
 0.76100000000000E+00 0.10000000000000E+01
 
    4 0
 s    6 1.00
 0.13575349682000E+05 0.60645503603591E-03
 0.20352333680000E+04 0.46979088884982E-02
 0.46322562359000E+03 0.24332477647552E-01
 0.13120019598000E+03 0.97399968307759E-01
 0.42853015891000E+02 0.30195584253780E+00
 0.15584185766000E+02 0.66233609137875E+00
 s    2 1.00
 0.62067138508000E+01 0.65595308539952E+00
 0.25764896527000E+01 0.37585633285142E+00
 s    1 1.00
 0.57696339419000E+00 0.10000000000000E+01
 s    1 1.00
 0.22972831358000E+00 0.10000000000000E+01
 s    1 1.00
 0.95164440028000E-01 0.10000000000000E+01
 s    1 1.00
 0.48475401370000E-01 0.10000000000000E+01
 p    4 1.00
 0.34697232244000E+02 0.11327220003114E-01
 0.79582622826000E+01 0.76169659202087E-01
 0.23780826883000E+01 0.30192252202676E+00
 0.81433208183000E+00 0.72785027349547E+00
 p    1 1.00
 0.28887547253000E+00 0.10000000000000E+01
 p    1 1.00
 0.10056823671000E+00 0.10000000000000E+01
 d    1 1.00
 0.10970000000000E+01 0.10000000000000E+01
 d    1 1.00
 0.31800000000000E+00 0.10000000000000E+01
 d    1 1.00
 0.90985336424000E-01 0.10000000000000E+01
 f    1 1.00
 0.76100000000000E+00 0.10000000000000E+01
 
    5 0
 s    6 1.00
 0.13575349682000E+05 0.60645503603591E-03
 0.20352333680000E+04 0.46979088884982E-02
 0.46322562359000E+03 0.24332477647552E-01
 0.13120019598000E+03 0.97399968307759E-01
 0.42853015891000E+02 0.30195584253780E+00
 0.15584185766000E+02 0.66233609137875E+00
 s    2 1.00
 0.62067138508000E+01 0.65595308539952E+00
 0.25764896527000E+01 0.37585633285142E+00
 s    1 1.00
 0.57696339419000E+00 0.10000000000000E+01
 s    1 1.00
 0.22972831358000E+00 0.10000000000000E+01
 s    1 1.00
 0.95164440028000E-01 0.10000000000000E+01
 s    1 1.00
 0.48475401370000E-01 0.10000000000000E+01
 p    4 1.00
 0.34697232244000E+02 0.11327220003114E-01
 0.79582622826000E+01 0.76169659202087E-01
 0.23780826883000E+01 0.30192252202676E+00
 0.81433208183000E+00 0.72785027349547E+00
 p    1 1.00
 0.28887547253000E+00 0.10000000000000E+01
 p    1 1.00
 0.10056823671000E+00 0.10000000000000E+01
 d    1 1.00
 0.10970000000000E+01 0.10000000000000E+01
 d    1 1.00
 0.31800000000000E+00 0.10000000000000E+01
 d    1 1.00
 0.90985336424000E-01 0.10000000000000E+01
 f    1 1.00
 0.76100000000000E+00 0.10000000000000E+01
 
    6 0
 s    6 1.00
 0.13575349682000E+05 0.60645503603591E-03
 0.20352333680000E+04 0.46979088884982E-02
 0.46322562359000E+03 0.24332477647552E-01
 0.13120019598000E+03 0.97399968307759E-01
 0.42853015891000E+02 0.30195584253780E+00
 0.15584185766000E+02 0.66233609137875E+00
 s    2 1.00
 0.62067138508000E+01 0.65595308539952E+00
 0.25764896527000E+01 0.37585633285142E+00
 s    1 1.00
 0.57696339419000E+00 0.10000000000000E+01
 s    1 1.00
 0.22972831358000E+00 0.10000000000000E+01
 s    1 1.00
 0.95164440028000E-01 0.10000000000000E+01
 s    1 1.00
 0.48475401370000E-01 0.10000000000000E+01
 p    4 1.00
 0.34697232244000E+02 0.11327220003114E-01
 0.79582622826000E+01 0.76169659202087E-01
 0.23780826883000E+01 0.30192252202676E+00
 0.81433208183000E+00 0.72785027349547E+00
 p    1 1.00
 0.28887547253000E+00 0.10000000000000E+01
 p    1 1.00
 0.10056823671000E+00 0.10000000000000E+01
 d    1 1.00
 0.10970000000000E+01 0.10000000000000E+01
 d    1 1.00
 0.31800000000000E+00 0.10000000000000E+01
 d    1 1.00
 0.90985336424000E-01 0.10000000000000E+01
 f    1 1.00
 0.76100000000000E+00 0.10000000000000E+01
 
    7 0
 s    3 1.00
 0.34061341000000E+02 0.25439307208879E-01
 0.51235746000000E+01 0.19008594890375E+00
 0.11646626000000E+01 0.85244113011042E+00
 s    1 1.00
 0.32723041000000E+00 0.10000000000000E+01
 s    1 1.00
 0.10307241000000E+00 0.10000000000000E+01
 p    1 1.00
 0.80000000000000E+00 0.10000000000000E+01
 p    1 1.00
 0.95774129632000E-01 0.10000000000000E+01
 
    8 0
 s    3 1.00
 0.34061341000000E+02 0.25439307208879E-01
 0.51235746000000E+01 0.19008594890375E+00
 0.11646626000000E+01 0.85244113011042E+00
 s    1 1.00
 0.32723041000000E+00 0.10000000000000E+01
 s    1 1.00
 0.10307241000000E+00 0.10000000000000E+01
 p    1 1.00
 0.80000000000000E+00 0.10000000000000E+01
 p    1 1.00
 0.95774129632000E-01 0.10000000000000E+01
 
    9 0
 s    3 1.00
 0.34061341000000E+02 0.25439307208879E-01
 0.51235746000000E+01 0.19008594890375E+00
 0.11646626000000E+01 0.85244113011042E+00
 s    1 1.00
 0.32723041000000E+00 0.10000000000000E+01
 s    1 1.00
 0.10307241000000E+00 0.10000000000000E+01
 p    1 1.00
 0.80000000000000E+00 0.10000000000000E+01
 p    1 1.00
 0.95774129632000E-01 0.10000000000000E+01
 
   10 0
 s    3 1.00
 0.34061341000000E+02 0.25439307208879E-01
 0.51235746000000E+01 0.19008594890375E+00
 0.11646626000000E+01 0.85244113011042E+00
 s    1 1.00
 0.32723041000000E+00 0.10000000000000E+01
 s    1 1.00
 0.10307241000000E+00 0.10000000000000E+01
 p    1 1.00
 0.80000000000000E+00 0.10000000000000E+01
 p    1 1.00
 0.95774129632000E-01 0.10000000000000E+01
 
   11 0
 s    6 1.00
 0.19730800647000E+05 0.58626402628763E-03
 0.29578958745000E+04 0.45428820586397E-02
 0.67322133595000E+03 0.23558413450084E-01
 0.19068249494000E+03 0.94709193292923E-01
 0.62295441898000E+02 0.29719784913376E+00
 0.22654161182000E+02 0.66916246895232E+00
 s    2 1.00
 0.89791477428000E+01 0.64596683630063E+00
 0.36863002370000E+01 0.38700574393705E+00
 s    1 1.00
 0.84660076805000E+00 0.10000000000000E+01
 s    1 1.00
 0.33647133771000E+00 0.10000000000000E+01
 s    1 1.00
 0.13647653675000E+00 0.10000000000000E+01
 s    1 1.00
 0.68441605847000E-01 0.10000000000000E+01
 p    4 1.00
 0.49200380510000E+02 0.11448825101764E-01
 0.11346790537000E+02 0.78422337970864E-01
 0.34273972411000E+01 0.30818094738830E+00
 0.11785525134000E+01 0.72027196368413E+00
 p    1 1.00
 0.41642204972000E+00 0.10000000000000E+01
 p    1 1.00
 0.14260826011000E+00 0.10000000000000E+01
 d    1 1.00
 0.16540000000000E+01 0.10000000000000E+01
 d    1 1.00
 0.46900000000000E+00 0.10000000000000E+01
 d    1 1.00
 0.12829642058000E+00 0.10000000000000E+01
 f    1 1.00
 0.10930000000000E+01 0.10000000000000E+01
 
   12 0
 s    6 1.00
 0.27032382631000E+05 0.57227335211155E-03
 0.40523871392000E+04 0.44353233492995E-02
 0.92232722710000E+03 0.23020107706038E-01
 0.26124070989000E+03 0.92822490667928E-01
 0.85354641351000E+02 0.29378500009671E+00
 0.31035035245000E+02 0.67401604501641E+00
 s    2 1.00
 0.12260860728000E+02 0.63839937025506E+00
 0.49987076005000E+01 0.39534587125718E+00
 s    1 1.00
 0.11703108158000E+01 0.10000000000000E+01
 s    1 1.00
 0.46474740994000E+00 0.10000000000000E+01
 s    1 1.00
 0.18504536357000E+00 0.10000000000000E+01
 s    1 1.00
 0.70288026270000E-01 0.10000000000000E+01
 p    4 1.00
 0.63274954801000E+02 0.12018332222616E-01
 0.14627049379000E+02 0.83005421790056E-01
 0.44501223456000E+01 0.31991743925964E+00
 0.15275799647000E+01 0.70715542916104E+00
 p    1 1.00
 0.52935117943000E+00 0.10000000000000E+01
 p    1 1.00
 0.17478421270000E+00 0.10000000000000E+01
 p    1 1.00
 0.51112745706000E-01 0.10000000000000E+01
 d    1 1.00
 0.23140000000000E+01 0.10000000000000E+01
 d    1 1.00
 0.64500000000000E+00 0.10000000000000E+01
 d    1 1.00
 0.14696477366000E+00 0.10000000000000E+01
 f    1 1.00
 0.14280000000000E+01 0.10000000000000E+01
 
   13 0
 s    6 1.00
 0.27032382631000E+05 0.57227335211155E-03
 0.40523871392000E+04 0.44353233492995E-02
 0.92232722710000E+03 0.23020107706038E-01
 0.26124070989000E+03 0.92822490667928E-01
 0.85354641351000E+02 0.29378500009671E+00
 0.31035035245000E+02 0.67401604501641E+00
 s    2 1.00
 0.12260860728000E+02 0.63839937025506E+00
 0.49987076005000E+01 0.39534587125718E+00
 s    1 1.00
 0.11703108158000E+01 0.10000000000000E+01
 s    1 1.00
 0.46474740994000E+00 0.10000000000000E+01
 s    1 1.00
 0.18504536357000E+00 0.10000000000000E+01
 s    1 1.00
 0.70288026270000E-01 0.10000000000000E+01
 p    4 1.00
 0.63274954801000E+02 0.12018332222616E-01
 0.14627049379000E+02 0.83005421790056E-01
 0.44501223456000E+01 0.31991743925964E+00
 0.15275799647000E+01 0.70715542916104E+00
 p    1 1.00
 0.52935117943000E+00 0.10000000000000E+01
 p    1 1.00
 0.17478421270000E+00 0.10000000000000E+01
 p    1 1.00
 0.51112745706000E-01 0.10000000000000E+01
 d    1 1.00
 0.23140000000000E+01 0.10000000000000E+01
 d    1 1.00
 0.64500000000000E+00 0.10000000000000E+01
 d    1 1.00
 0.14696477366000E+00 0.10000000000000E+01
 f    1 1.00
 0.14280000000000E+01 0.10000000000000E+01
 
   14 0
 s    6 1.00
 0.19730800647000E+05 0.58626402628763E-03
 0.29578958745000E+04 0.45428820586397E-02
 0.67322133595000E+03 0.23558413450084E-01
 0.19068249494000E+03 0.94709193292923E-01
 0.62295441898000E+02 0.29719784913376E+00
 0.22654161182000E+02 0.66916246895232E+00
 s    2 1.00
 0.89791477428000E+01 0.64596683630063E+00
 0.36863002370000E+01 0.38700574393705E+00
 s    1 1.00
 0.84660076805000E+00 0.10000000000000E+01
 s    1 1.00
 0.33647133771000E+00 0.10000000000000E+01
 s    1 1.00
 0.13647653675000E+00 0.10000000000000E+01
 s    1 1.00
 0.68441605847000E-01 0.10000000000000E+01
 p    4 1.00
 0.49200380510000E+02 0.11448825101764E-01
 0.11346790537000E+02 0.78422337970864E-01
 0.34273972411000E+01 0.30818094738830E+00
 0.11785525134000E+01 0.72027196368413E+00
 p    1 1.00
 0.41642204972000E+00 0.10000000000000E+01
 p    1 1.00
 0.14260826011000E+00 0.10000000000000E+01
 d    1 1.00
 0.16540000000000E+01 0.10000000000000E+01
 d    1 1.00
 0.46900000000000E+00 0.10000000000000E+01
 d    1 1.00
 0.12829642058000E+00 0.10000000000000E+01
 f    1 1.00
 0.10930000000000E+01 0.10000000000000E+01
 
   15 0
 s    3 1.00
 0.34061341000000E+02 0.25439307208879E-01
 0.51235746000000E+01 0.19008594890375E+00
 0.11646626000000E+01 0.85244113011042E+00
 s    1 1.00
 0.32723041000000E+00 0.10000000000000E+01
 s    1 1.00
 0.10307241000000E+00 0.10000000000000E+01
 p    1 1.00
 0.80000000000000E+00 0.10000000000000E+01
 p    1 1.00
 0.95774129632000E-01 0.10000000000000E+01
 
   16 0
 s    3 1.00
 0.34061341000000E+02 0.25439307208879E-01
 0.51235746000000E+01 0.19008594890375E+00
 0.11646626000000E+01 0.85244113011042E+00
 s    1 1.00
 0.32723041000000E+00 0.10000000000000E+01
 s    1 1.00
 0.10307241000000E+00 0.10000000000000E+01
 p    1 1.00
 0.80000000000000E+00 0.10000000000000E+01
 p    1 1.00
 0.95774129632000E-01 0.10000000000000E+01
 
[MO]
 Sym= X
 Ene= -0.078087
 Spin= Alpha
 Occup= -0.078087
         1    3.583483E-04
         2    8.217023E-04
         3   -1.719860E-03
         4    1.083488E-03
         5   -6.642954E-03
         6    1.039189E-02
         7   -5.499269E-03
         8   -3.645878E-04
         9    1.326445E-01
        10   -8.217537E-04
        11   -6.826670E-04
        12    1.306678E-01
        13    2.069451E-02
        14   -7.576228E-04
        15    5.072010E-02
        16   -1.524196E-04
        17    1.422402E-04
        18    1.017939E-05
        19    6.366885E-05
        20   -1.197172E-03
        21    4.497892E-03
        22    3.651705E-04
        23   -2.161531E-04
        24   -1.490174E-04
        25    8.065401E-04
        26   -3.124035E-03
        27    7.577981E-03
        28    1.838234E-03
        29   -1.599290E-03
        30   -2.389443E-04
        31   -1.806391E-03
        32   -6.796969E-03
        33    5.226520E-03
        34    3.961803E-06
        35   -9.450784E-06
        36   -1.095384E-03
        37   -6.247935E-08
        38    8.419076E-06
        39    5.098604E-04
        40   -5.252837E-06
        41    4.260482E-06
        42    9.597518E-04
        43   -5.549396E-04
        44   -7.357932E-05
        45   -1.614573E-04
        46   -1.260354E-04
        47    4.266686E-03
        48    1.135983E-02
        49   -9.554066E-03
        50    2.029950E-03
        51   -2.647185E-06
        52    2.174429E-01
        53    2.578748E-03
        54    1.496766E-05
        55    2.201295E-01
        56    7.786594E-03
        57    5.618936E-04
        58    7.841815E-02
        59   -2.043269E-04
        60    2.028627E-04
        61    1.464229E-06
        62   -1.017565E-07
        63    2.537517E-03
        64   -3.313278E-07
        65   -6.242742E-04
        66    8.831908E-04
        67   -2.589167E-04
        68    2.716319E-06
        69    3.624341E-03
        70   -5.649458E-08
        71   -1.138031E-02
        72    1.178396E-02
        73   -4.036541E-04
        74    3.580791E-05
        75    7.858005E-03
        76    1.038554E-05
        77    9.813779E-06
        78    1.388032E-07
        79   -1.670637E-03
        80    4.663998E-06
        81   -8.012683E-08
        82    8.757253E-04
        83   -1.783056E-05
        84   -1.060972E-07
        85    1.365669E-03
        86   -9.250919E-09
        87    3.572714E-04
        88    8.192374E-04
        89   -1.713280E-03
        90    1.089620E-03
        91   -8.522091E-03
        92    1.044248E-02
        93   -5.504464E-03
        94    3.748149E-04
        95    1.326303E-01
        96   -8.188180E-04
        97    7.106022E-04
        98    1.306558E-01
        99    2.054533E-02
       100    1.408148E-03
       101    5.067896E-02
       102   -1.522300E-04
       103    1.423037E-04
       104    9.926314E-06
       105   -6.418843E-05
       106   -1.197557E-03
       107   -4.497994E-03
       108    3.625578E-04
       109   -2.151432E-04
       110   -1.474146E-04
       111   -8.125087E-04
       112   -3.122831E-03
       113   -7.576359E-03
       114    1.800671E-03
       115   -1.575055E-03
       116   -2.256160E-04
       117    1.785485E-03
       118   -6.784584E-03
       119   -5.192493E-03
       120    3.885672E-06
       121    9.514975E-06
       122   -1.095365E-03
       123    8.857137E-09
       124   -8.314499E-06
       125    5.098804E-04
       126   -5.222033E-06
       127   -4.451180E-06
       128    9.597053E-04
       129    5.548354E-04
       130   -2.817303E-04
       131   -6.277481E-04
       132   -6.453274E-07
       133    1.087126E-02
       134    3.233508E-03
       135   -1.211414E-02
       136    5.571116E-03
       137   -1.798721E-03
       138    2.905305E-02
       139    1.190244E-02
       140   -6.680913E-03
       141    2.888809E-02
       142    1.063876E-02
       143    1.004088E-02
       144    3.257984E-03
       145   -3.445593E-04
       146    3.942690E-04
       147   -4.970971E-05
       148   -4.004481E-06
       149   -4.033378E-03
       150    8.907906E-04
       151   -6.412414E-04
       152    8.697068E-04
       153   -2.284653E-04
       154   -1.682647E-03
       155   -7.140183E-03
       156    2.153188E-03
       157   -6.992177E-03
       158    5.824060E-03
       159    1.168117E-03
       160    8.070861E-03
       161   -3.309109E-03
       162    1.203678E-02
       163    1.733271E-05
       164   -2.355638E-05
       165   -2.539881E-04
       166    3.106945E-05
       167   -1.193697E-06
       168    5.085709E-04
       169   -5.432371E-05
       170    3.279790E-05
       171   -1.678101E-04
       172    3.925815E-04
       173    1.258318E-03
       174    2.856783E-03
       175   -3.461541E-03
       176   -1.588111E-02
       177    5.052331E-02
       178   -5.728637E-04
       179   -1.604832E-02
       180    4.435812E-06
       181   -9.421811E-02
       182   -4.136866E-03
       183    1.528142E-05
       184   -9.103515E-02
       185    3.811091E-02
       186   -7.469643E-05
       187    1.439031E-02
       188   -8.042138E-04
       189    5.729015E-04
       190    2.313123E-04
       191   -2.885365E-07
       192   -6.391943E-03
       193   -2.009756E-07
       194    1.760170E-03
       195   -3.661170E-03
       196    1.901000E-03
       197   -3.994690E-06
       198   -1.297507E-02
       199   -2.120351E-06
       200    7.590642E-03
       201   -7.806316E-03
       202    2.156736E-04
       203    3.218704E-05
       204   -4.151363E-03
       205   -2.776403E-05
       206   -1.430740E-04
       207    7.421456E-08
       208    9.002467E-04
       209    8.436355E-05
       210    1.982883E-08
       211   -1.349400E-03
       212    1.075903E-04
       213   -1.193981E-07
       214    1.415928E-04
       215    1.134295E-07
       216   -2.816623E-04
       217   -6.274639E-04
       218   -5.374442E-06
       219    1.091123E-02
       220    2.119369E-03
       221   -1.206108E-02
       222    5.568456E-03
       223    1.790298E-03
       224    2.906528E-02
       225    1.191673E-02
       226    6.693743E-03
       227    2.890048E-02
       228    1.103277E-02
       229   -1.038545E-02
       230    3.192438E-03
       231   -3.447807E-04
       232    3.944764E-04
       233   -4.969570E-05
       234    3.455635E-06
       235   -4.033738E-03
       236   -8.906372E-04
       237   -6.424863E-04
       238    8.723156E-04
       239   -2.298293E-04
       240    1.684907E-03
       241   -7.142032E-03
       242   -2.154961E-03
       243   -6.979155E-03
       244    5.807345E-03
       245    1.171810E-03
       246   -8.019851E-03
       247   -3.335049E-03
       248   -1.206676E-02
       249    1.723143E-05
       250    2.355423E-05
       251   -2.540178E-04
       252    3.122686E-05
       253    1.196471E-06
       254    5.086936E-04
       255   -5.434525E-05
       256   -3.279779E-05
       257   -1.678930E-04
       258   -3.926322E-04
       259    1.450980E-03
       260    1.978102E-03
       261    1.812812E-02
       262    1.467552E-05
       263    1.809464E-04
       264    4.766188E-03
       265    4.190187E-03
       266    1.487557E-03
       267    2.306000E-03
       268    1.458204E-03
       269    1.979470E-03
       270    1.792680E-02
       271    1.475096E-05
       272   -1.808892E-04
       273    4.765652E-03
       274    4.154854E-03
       275   -1.484104E-03
       276    2.288061E-03
       277    1.462790E-03
       278    3.826116E-03
       279   -3.345223E-02
       280    3.985807E-05
       281   -2.672443E-04
       282    5.682739E-04
       283    4.934723E-03
       284    2.110511E-03
       285   -1.002330E-02
       286    1.466892E-03
       287    3.824847E-03
       288   -3.353746E-02
       289    3.882536E-05
       290    2.667594E-04
       291    5.687883E-04
       292    4.948967E-03
       293   -2.134087E-03
       294   -1.003363E-02
       295    1.968113E-04
       296    4.653741E-04
       297   -6.142600E-04
       298   -1.617734E-03
       299    8.455128E-03
       300    5.782808E-03
       301   -2.737119E-03
       302    2.131586E-06
       303   -1.758951E-02
       304   -2.231023E-03
       305    5.345801E-06
       306   -1.675910E-02
       307    3.053646E-03
       308   -4.660463E-05
       309    7.789838E-03
       310   -7.513407E-05
       311    1.091056E-04
       312   -3.397152E-05
       313   -5.328060E-07
       314    4.294126E-03
       315   -4.141763E-07
       316   -1.653090E-04
       317    2.158305E-04
       318   -5.052151E-05
       319   -2.011212E-06
       320    1.229571E-02
       321   -1.355072E-06
       322    2.943690E-04
       323   -2.145709E-03
       324    1.851340E-03
       325   -1.957393E-05
       326    5.916181E-03
       327    3.591578E-06
       328   -3.161413E-06
       329   -1.073472E-07
       330    1.211849E-04
       331   -1.801341E-06
       332    1.811097E-07
       333    6.157923E-04
       334    6.042822E-06
       335   -3.708826E-08
       336   -7.783789E-04
       337    6.471223E-08
       338    4.662179E-05
       339    1.106410E-04
       340   -1.388667E-04
       341   -8.041555E-04
       342    5.165068E-03
       343    3.892235E-04
       344    1.939962E-03
       345   -2.768756E-04
       346   -7.932246E-02
       347    1.824507E-03
       348   -3.125537E-04
       349   -7.305017E-02
       350    2.061583E-03
       351   -6.771487E-04
       352   -5.230675E-02
       353    3.771433E-04
       354    4.645925E-05
       355   -4.567087E-03
       356   -6.789087E-06
       357    1.751231E-05
       358   -1.072323E-05
       359   -1.397668E-05
       360   -2.346001E-04
       361    8.409166E-04
       362    8.750358E-06
       363    3.915850E-05
       364   -4.790886E-05
       365   -2.850460E-05
       366   -1.133492E-03
       367    2.591181E-03
       368    3.190317E-05
       369    3.809460E-05
       370   -6.999777E-05
       371    9.822445E-06
       372   -1.641696E-03
       373    4.205464E-04
       374   -2.646349E-06
       375   -3.247555E-06
       376    1.301890E-04
       377    6.017379E-06
       378    9.607593E-08
       379    7.676532E-05
       380   -2.466929E-06
       381    4.260977E-06
       382   -2.514322E-04
       383    2.191229E-04
       384    4.670702E-05
       385    1.108282E-04
       386   -1.388804E-04
       387   -8.054667E-04
       388    5.172836E-03
       389    4.058476E-04
       390    1.966598E-03
       391    2.527629E-04
       392   -7.929934E-02
       393    1.849497E-03
       394    2.934135E-04
       395   -7.302993E-02
       396    2.065569E-03
       397    6.622423E-04
       398   -5.228239E-02
       399    3.852112E-04
       400   -5.087174E-05
       401   -4.562635E-03
       402   -6.524029E-06
       403    1.716585E-05
       404   -1.064182E-05
       405    1.394461E-05
       406   -2.345003E-04
       407   -8.407201E-04
       408    9.117226E-06
       409    3.899954E-05
       410   -4.811677E-05
       411    2.889310E-05
       412   -1.132959E-03
       413   -2.590607E-03
       414    3.487608E-05
       415    3.525498E-05
       416   -7.013107E-05
       417   -1.385087E-05
       418   -1.641182E-03
       419   -4.182611E-04
       420   -2.614615E-06
       421    3.178776E-06
       422    1.301539E-04
       423    6.002847E-06
       424   -1.177420E-08
       425    7.676075E-05
       426   -2.494973E-06
       427   -4.253002E-06
       428   -2.513805E-04
       429   -2.190630E-04
       430   -4.319362E-03
       431   -1.024785E-02
       432    1.589807E-02
       433    2.536552E-02
       434    4.451276E-03
       435    2.976214E-02
       436    2.188695E-02
       437   -1.050763E-05
       438   -2.379166E-01
       439    2.418306E-02
       440   -4.931559E-06
       441   -2.310941E-01
       442    3.053526E-02
       443    6.641369E-05
       444   -1.575536E-01
       445    4.058527E-05
       446    2.003844E-04
       447   -2.409697E-04
       448   -3.634249E-07
       449    1.952016E-03
       450   -3.051672E-07
       451   -1.984543E-04
       452    2.140631E-03
       453   -1.942177E-03
       454    2.799722E-06
       455    4.114743E-03
       456   -1.162059E-06
       457   -1.447181E-03
       458    5.806355E-03
       459   -4.359174E-03
       460    4.718972E-06
       461    4.626030E-04
       462   -5.717864E-06
       463    9.818944E-05
       464   -6.876581E-08
       465    1.278397E-03
       466    1.110187E-04
       467    1.039118E-08
       468   -1.101702E-03
       469   -2.427536E-04
       470    8.186784E-08
       471   -6.134475E-04
       472   -1.537807E-08
       473   -5.403290E-03
       474   -1.317382E-02
       475   -2.445833E-02
       476    2.391779E-03
       477    1.640627E-03
       478   -1.092709E-02
       479    3.057865E-03
       480    2.194403E-03
       481   -4.527574E-03
       482   -5.394665E-03
       483   -1.311526E-02
       484   -2.434601E-02
       485    2.388367E-03
       486   -1.635291E-03
       487   -1.092947E-02
       488    3.051520E-03
       489   -2.168754E-03
       490   -4.543262E-03
 Sym= X
 Ene= -0.841895
 Spin= Alpha
 Occup= -0.841895
         1   -1.787444E-04
         2   -4.161208E-04
         3    1.171445E-03
         4   -2.591626E-03
         5   -9.654660E-03
         6   -1.095990E-02
         7    1.820489E-03
         8    1.816884E-04
         9    1.690981E-02
        10   -2.212996E-03
        11    3.809168E-04
        12    1.520776E-02
        13   -3.455409E-02
        14    1.011262E-02
        15    2.032684E-03
        16    1.121843E-05
        17   -2.243598E-05
        18    1.121755E-05
        19   -1.242458E-05
        20   -6.407116E-03
        21    3.635353E-03
        22   -6.388554E-04
        23    3.806146E-04
        24    2.582408E-04
        25   -6.882084E-04
        26   -1.438123E-02
        27    6.913265E-03
        28   -5.025244E-03
        29    4.720653E-03
        30    3.045914E-04
        31    1.022450E-03
        32    1.893978E-03
        33   -9.996722E-03
        34   -1.871804E-05
        35    6.366934E-06
        36   -3.759842E-05
        37    7.996304E-06
        38   -6.349903E-06
        39   -7.509896E-04
        40    1.711658E-05
        41   -2.192235E-06
        42    8.014331E-04
        43   -6.829943E-04
        44    2.971934E-05
        45    6.523366E-05
        46    1.164629E-04
        47   -2.688094E-03
        48   -4.941712E-02
        49    5.433911E-03
        50    1.970859E-04
        51    1.764533E-06
        52    1.942925E-01
        53   -5.465132E-04
        54    1.913432E-05
        55    2.019083E-01
        56   -1.610130E-02
        57   -6.828248E-04
        58    1.968265E-01
        59    4.928850E-05
        60   -4.687256E-05
        61   -2.415939E-06
        62    9.431323E-08