[Molden Format]
[Title]
ADC(2) - opt by CAM-B3LYP gaussian                                              
[Atoms] AU
 c     1    6 -.12589065566052E+01 -.22830902054421E+01 -.26005390588660E-01
 c     2    6 -.25569912224779E+01 0.86573078000000E-06 -.24733756079320E-01
 c     3    6 -.12589060841737E+01 0.22830907841707E+01 -.26008073999770E-01
 c     4    6 0.13324295737882E+01 0.22846183820847E+01 -.28114684000920E-01
 c     5    6 0.26867573459717E+01 0.39329925000000E-06 -.27723246129760E-01
 c     6    6 0.13324281942881E+01 -.22846180679178E+01 -.28111244699360E-01
 h     7    1 -.22982509786098E+01 -.40377481062879E+01 -.23319125993500E-01
 h     8    1 -.22982490510892E+01 0.40377494409070E+01 -.23324322740370E-01
 h     9    1 0.23514918675648E+01 0.40568894753521E+01 -.30529017005560E-01
 h    10    1 0.23514910360853E+01 -.40568888210345E+01 -.30521911635300E-01
 n    11    7 -.52742123095903E+01 0.14763485000000E-06 -.18925267070140E-01
 o    12    8 -.63809534361791E+01 0.20269762391752E+01 -.16457057973460E-01
 o    13    8 -.63809510362269E+01 -.20269772478165E+01 -.16464881439650E-01
 n    14    7 0.52454603626942E+01 -.57046108000000E-06 -.73989411041200E-01
 h    15    1 0.62036818842731E+01 0.16164996606794E+01 0.19711589672944E+00
 h    16    1 0.62036804102867E+01 -.16165023700742E+01 0.19711149366755E+00
[GTO]
    1 0
 s    6 1.00
 0.13575349682000E+05 0.60645503603591E-03
 0.20352333680000E+04 0.46979088884982E-02
 0.46322562359000E+03 0.24332477647552E-01
 0.13120019598000E+03 0.97399968307759E-01
 0.42853015891000E+02 0.30195584253780E+00
 0.15584185766000E+02 0.66233609137875E+00
 s    2 1.00
 0.62067138508000E+01 0.65595308539952E+00
 0.25764896527000E+01 0.37585633285142E+00
 s    1 1.00
 0.57696339419000E+00 0.10000000000000E+01
 s    1 1.00
 0.22972831358000E+00 0.10000000000000E+01
 s    1 1.00
 0.95164440028000E-01 0.10000000000000E+01
 s    1 1.00
 0.48475401370000E-01 0.10000000000000E+01
 p    4 1.00
 0.34697232244000E+02 0.11327220003114E-01
 0.79582622826000E+01 0.76169659202087E-01
 0.23780826883000E+01 0.30192252202676E+00
 0.81433208183000E+00 0.72785027349547E+00
 p    1 1.00
 0.28887547253000E+00 0.10000000000000E+01
 p    1 1.00
 0.10056823671000E+00 0.10000000000000E+01
 d    1 1.00
 0.10970000000000E+01 0.10000000000000E+01
 d    1 1.00
 0.31800000000000E+00 0.10000000000000E+01
 d    1 1.00
 0.90985336424000E-01 0.10000000000000E+01
 f    1 1.00
 0.76100000000000E+00 0.10000000000000E+01
 
    2 0
 s    6 1.00
 0.13575349682000E+05 0.60645503603591E-03
 0.20352333680000E+04 0.46979088884982E-02
 0.46322562359000E+03 0.24332477647552E-01
 0.13120019598000E+03 0.97399968307759E-01
 0.42853015891000E+02 0.30195584253780E+00
 0.15584185766000E+02 0.66233609137875E+00
 s    2 1.00
 0.62067138508000E+01 0.65595308539952E+00
 0.25764896527000E+01 0.37585633285142E+00
 s    1 1.00
 0.57696339419000E+00 0.10000000000000E+01
 s    1 1.00
 0.22972831358000E+00 0.10000000000000E+01
 s    1 1.00
 0.95164440028000E-01 0.10000000000000E+01
 s    1 1.00
 0.48475401370000E-01 0.10000000000000E+01
 p    4 1.00
 0.34697232244000E+02 0.11327220003114E-01
 0.79582622826000E+01 0.76169659202087E-01
 0.23780826883000E+01 0.30192252202676E+00
 0.81433208183000E+00 0.72785027349547E+00
 p    1 1.00
 0.28887547253000E+00 0.10000000000000E+01
 p    1 1.00
 0.10056823671000E+00 0.10000000000000E+01
 d    1 1.00
 0.10970000000000E+01 0.10000000000000E+01
 d    1 1.00
 0.31800000000000E+00 0.10000000000000E+01
 d    1 1.00
 0.90985336424000E-01 0.10000000000000E+01
 f    1 1.00
 0.76100000000000E+00 0.10000000000000E+01
 
    3 0
 s    6 1.00
 0.13575349682000E+05 0.60645503603591E-03
 0.20352333680000E+04 0.46979088884982E-02
 0.46322562359000E+03 0.24332477647552E-01
 0.13120019598000E+03 0.97399968307759E-01
 0.42853015891000E+02 0.30195584253780E+00
 0.15584185766000E+02 0.66233609137875E+00
 s    2 1.00
 0.62067138508000E+01 0.65595308539952E+00
 0.25764896527000E+01 0.37585633285142E+00
 s    1 1.00
 0.57696339419000E+00 0.10000000000000E+01
 s    1 1.00
 0.22972831358000E+00 0.10000000000000E+01
 s    1 1.00
 0.95164440028000E-01 0.10000000000000E+01
 s    1 1.00
 0.48475401370000E-01 0.10000000000000E+01
 p    4 1.00
 0.34697232244000E+02 0.11327220003114E-01
 0.79582622826000E+01 0.76169659202087E-01
 0.23780826883000E+01 0.30192252202676E+00
 0.81433208183000E+00 0.72785027349547E+00
 p    1 1.00
 0.28887547253000E+00 0.10000000000000E+01
 p    1 1.00
 0.10056823671000E+00 0.10000000000000E+01
 d    1 1.00
 0.10970000000000E+01 0.10000000000000E+01
 d    1 1.00
 0.31800000000000E+00 0.10000000000000E+01
 d    1 1.00
 0.90985336424000E-01 0.10000000000000E+01
 f    1 1.00
 0.76100000000000E+00 0.10000000000000E+01
 
    4 0
 s    6 1.00
 0.13575349682000E+05 0.60645503603591E-03
 0.20352333680000E+04 0.46979088884982E-02
 0.46322562359000E+03 0.24332477647552E-01
 0.13120019598000E+03 0.97399968307759E-01
 0.42853015891000E+02 0.30195584253780E+00
 0.15584185766000E+02 0.66233609137875E+00
 s    2 1.00
 0.62067138508000E+01 0.65595308539952E+00
 0.25764896527000E+01 0.37585633285142E+00
 s    1 1.00
 0.57696339419000E+00 0.10000000000000E+01
 s    1 1.00
 0.22972831358000E+00 0.10000000000000E+01
 s    1 1.00
 0.95164440028000E-01 0.10000000000000E+01
 s    1 1.00
 0.48475401370000E-01 0.10000000000000E+01
 p    4 1.00
 0.34697232244000E+02 0.11327220003114E-01
 0.79582622826000E+01 0.76169659202087E-01
 0.23780826883000E+01 0.30192252202676E+00
 0.81433208183000E+00 0.72785027349547E+00
 p    1 1.00
 0.28887547253000E+00 0.10000000000000E+01
 p    1 1.00
 0.10056823671000E+00 0.10000000000000E+01
 d    1 1.00
 0.10970000000000E+01 0.10000000000000E+01
 d    1 1.00
 0.31800000000000E+00 0.10000000000000E+01
 d    1 1.00
 0.90985336424000E-01 0.10000000000000E+01
 f    1 1.00
 0.76100000000000E+00 0.10000000000000E+01
 
    5 0
 s    6 1.00
 0.13575349682000E+05 0.60645503603591E-03
 0.20352333680000E+04 0.46979088884982E-02
 0.46322562359000E+03 0.24332477647552E-01
 0.13120019598000E+03 0.97399968307759E-01
 0.42853015891000E+02 0.30195584253780E+00
 0.15584185766000E+02 0.66233609137875E+00
 s    2 1.00
 0.62067138508000E+01 0.65595308539952E+00
 0.25764896527000E+01 0.37585633285142E+00
 s    1 1.00
 0.57696339419000E+00 0.10000000000000E+01
 s    1 1.00
 0.22972831358000E+00 0.10000000000000E+01
 s    1 1.00
 0.95164440028000E-01 0.10000000000000E+01
 s    1 1.00
 0.48475401370000E-01 0.10000000000000E+01
 p    4 1.00
 0.34697232244000E+02 0.11327220003114E-01
 0.79582622826000E+01 0.76169659202087E-01
 0.23780826883000E+01 0.30192252202676E+00
 0.81433208183000E+00 0.72785027349547E+00
 p    1 1.00
 0.28887547253000E+00 0.10000000000000E+01
 p    1 1.00
 0.10056823671000E+00 0.10000000000000E+01
 d    1 1.00
 0.10970000000000E+01 0.10000000000000E+01
 d    1 1.00
 0.31800000000000E+00 0.10000000000000E+01
 d    1 1.00
 0.90985336424000E-01 0.10000000000000E+01
 f    1 1.00
 0.76100000000000E+00 0.10000000000000E+01
 
    6 0
 s    6 1.00
 0.13575349682000E+05 0.60645503603591E-03
 0.20352333680000E+04 0.46979088884982E-02
 0.46322562359000E+03 0.24332477647552E-01
 0.13120019598000E+03 0.97399968307759E-01
 0.42853015891000E+02 0.30195584253780E+00
 0.15584185766000E+02 0.66233609137875E+00
 s    2 1.00
 0.62067138508000E+01 0.65595308539952E+00
 0.25764896527000E+01 0.37585633285142E+00
 s    1 1.00
 0.57696339419000E+00 0.10000000000000E+01
 s    1 1.00
 0.22972831358000E+00 0.10000000000000E+01
 s    1 1.00
 0.95164440028000E-01 0.10000000000000E+01
 s    1 1.00
 0.48475401370000E-01 0.10000000000000E+01
 p    4 1.00
 0.34697232244000E+02 0.11327220003114E-01
 0.79582622826000E+01 0.76169659202087E-01
 0.23780826883000E+01 0.30192252202676E+00
 0.81433208183000E+00 0.72785027349547E+00
 p    1 1.00
 0.28887547253000E+00 0.10000000000000E+01
 p    1 1.00
 0.10056823671000E+00 0.10000000000000E+01
 d    1 1.00
 0.10970000000000E+01 0.10000000000000E+01
 d    1 1.00
 0.31800000000000E+00 0.10000000000000E+01
 d    1 1.00
 0.90985336424000E-01 0.10000000000000E+01
 f    1 1.00
 0.76100000000000E+00 0.10000000000000E+01
 
    7 0
 s    3 1.00
 0.34061341000000E+02 0.25439307208879E-01
 0.51235746000000E+01 0.19008594890375E+00
 0.11646626000000E+01 0.85244113011042E+00
 s    1 1.00
 0.32723041000000E+00 0.10000000000000E+01
 s    1 1.00
 0.10307241000000E+00 0.10000000000000E+01
 p    1 1.00
 0.80000000000000E+00 0.10000000000000E+01
 p    1 1.00
 0.95774129632000E-01 0.10000000000000E+01
 
    8 0
 s    3 1.00
 0.34061341000000E+02 0.25439307208879E-01
 0.51235746000000E+01 0.19008594890375E+00
 0.11646626000000E+01 0.85244113011042E+00
 s    1 1.00
 0.32723041000000E+00 0.10000000000000E+01
 s    1 1.00
 0.10307241000000E+00 0.10000000000000E+01
 p    1 1.00
 0.80000000000000E+00 0.10000000000000E+01
 p    1 1.00
 0.95774129632000E-01 0.10000000000000E+01
 
    9 0
 s    3 1.00
 0.34061341000000E+02 0.25439307208879E-01
 0.51235746000000E+01 0.19008594890375E+00
 0.11646626000000E+01 0.85244113011042E+00
 s    1 1.00
 0.32723041000000E+00 0.10000000000000E+01
 s    1 1.00
 0.10307241000000E+00 0.10000000000000E+01
 p    1 1.00
 0.80000000000000E+00 0.10000000000000E+01
 p    1 1.00
 0.95774129632000E-01 0.10000000000000E+01
 
   10 0
 s    3 1.00
 0.34061341000000E+02 0.25439307208879E-01
 0.51235746000000E+01 0.19008594890375E+00
 0.11646626000000E+01 0.85244113011042E+00
 s    1 1.00
 0.32723041000000E+00 0.10000000000000E+01
 s    1 1.00
 0.10307241000000E+00 0.10000000000000E+01
 p    1 1.00
 0.80000000000000E+00 0.10000000000000E+01
 p    1 1.00
 0.95774129632000E-01 0.10000000000000E+01
 
   11 0
 s    6 1.00
 0.19730800647000E+05 0.58626402628763E-03
 0.29578958745000E+04 0.45428820586397E-02
 0.67322133595000E+03 0.23558413450084E-01
 0.19068249494000E+03 0.94709193292923E-01
 0.62295441898000E+02 0.29719784913376E+00
 0.22654161182000E+02 0.66916246895232E+00
 s    2 1.00
 0.89791477428000E+01 0.64596683630063E+00
 0.36863002370000E+01 0.38700574393705E+00
 s    1 1.00
 0.84660076805000E+00 0.10000000000000E+01
 s    1 1.00
 0.33647133771000E+00 0.10000000000000E+01
 s    1 1.00
 0.13647653675000E+00 0.10000000000000E+01
 s    1 1.00
 0.68441605847000E-01 0.10000000000000E+01
 p    4 1.00
 0.49200380510000E+02 0.11448825101764E-01
 0.11346790537000E+02 0.78422337970864E-01
 0.34273972411000E+01 0.30818094738830E+00
 0.11785525134000E+01 0.72027196368413E+00
 p    1 1.00
 0.41642204972000E+00 0.10000000000000E+01
 p    1 1.00
 0.14260826011000E+00 0.10000000000000E+01
 d    1 1.00
 0.16540000000000E+01 0.10000000000000E+01
 d    1 1.00
 0.46900000000000E+00 0.10000000000000E+01
 d    1 1.00
 0.12829642058000E+00 0.10000000000000E+01
 f    1 1.00
 0.10930000000000E+01 0.10000000000000E+01
 
   12 0
 s    6 1.00
 0.27032382631000E+05 0.57227335211155E-03
 0.40523871392000E+04 0.44353233492995E-02
 0.92232722710000E+03 0.23020107706038E-01
 0.26124070989000E+03 0.92822490667928E-01
 0.85354641351000E+02 0.29378500009671E+00
 0.31035035245000E+02 0.67401604501641E+00
 s    2 1.00
 0.12260860728000E+02 0.63839937025506E+00
 0.49987076005000E+01 0.39534587125718E+00
 s    1 1.00
 0.11703108158000E+01 0.10000000000000E+01
 s    1 1.00
 0.46474740994000E+00 0.10000000000000E+01
 s    1 1.00
 0.18504536357000E+00 0.10000000000000E+01
 s    1 1.00
 0.70288026270000E-01 0.10000000000000E+01
 p    4 1.00
 0.63274954801000E+02 0.12018332222616E-01
 0.14627049379000E+02 0.83005421790056E-01
 0.44501223456000E+01 0.31991743925964E+00
 0.15275799647000E+01 0.70715542916104E+00
 p    1 1.00
 0.52935117943000E+00 0.10000000000000E+01
 p    1 1.00
 0.17478421270000E+00 0.10000000000000E+01
 p    1 1.00
 0.51112745706000E-01 0.10000000000000E+01
 d    1 1.00
 0.23140000000000E+01 0.10000000000000E+01
 d    1 1.00
 0.64500000000000E+00 0.10000000000000E+01
 d    1 1.00
 0.14696477366000E+00 0.10000000000000E+01
 f    1 1.00
 0.14280000000000E+01 0.10000000000000E+01
 
   13 0
 s    6 1.00
 0.27032382631000E+05 0.57227335211155E-03
 0.40523871392000E+04 0.44353233492995E-02
 0.92232722710000E+03 0.23020107706038E-01
 0.26124070989000E+03 0.92822490667928E-01
 0.85354641351000E+02 0.29378500009671E+00
 0.31035035245000E+02 0.67401604501641E+00
 s    2 1.00
 0.12260860728000E+02 0.63839937025506E+00
 0.49987076005000E+01 0.39534587125718E+00
 s    1 1.00
 0.11703108158000E+01 0.10000000000000E+01
 s    1 1.00
 0.46474740994000E+00 0.10000000000000E+01
 s    1 1.00
 0.18504536357000E+00 0.10000000000000E+01
 s    1 1.00
 0.70288026270000E-01 0.10000000000000E+01
 p    4 1.00
 0.63274954801000E+02 0.12018332222616E-01
 0.14627049379000E+02 0.83005421790056E-01
 0.44501223456000E+01 0.31991743925964E+00
 0.15275799647000E+01 0.70715542916104E+00
 p    1 1.00
 0.52935117943000E+00 0.10000000000000E+01
 p    1 1.00
 0.17478421270000E+00 0.10000000000000E+01
 p    1 1.00
 0.51112745706000E-01 0.10000000000000E+01
 d    1 1.00
 0.23140000000000E+01 0.10000000000000E+01
 d    1 1.00
 0.64500000000000E+00 0.10000000000000E+01
 d    1 1.00
 0.14696477366000E+00 0.10000000000000E+01
 f    1 1.00
 0.14280000000000E+01 0.10000000000000E+01
 
   14 0
 s    6 1.00
 0.19730800647000E+05 0.58626402628763E-03
 0.29578958745000E+04 0.45428820586397E-02
 0.67322133595000E+03 0.23558413450084E-01
 0.19068249494000E+03 0.94709193292923E-01
 0.62295441898000E+02 0.29719784913376E+00
 0.22654161182000E+02 0.66916246895232E+00
 s    2 1.00
 0.89791477428000E+01 0.64596683630063E+00
 0.36863002370000E+01 0.38700574393705E+00
 s    1 1.00
 0.84660076805000E+00 0.10000000000000E+01
 s    1 1.00
 0.33647133771000E+00 0.10000000000000E+01
 s    1 1.00
 0.13647653675000E+00 0.10000000000000E+01
 s    1 1.00
 0.68441605847000E-01 0.10000000000000E+01
 p    4 1.00
 0.49200380510000E+02 0.11448825101764E-01
 0.11346790537000E+02 0.78422337970864E-01
 0.34273972411000E+01 0.30818094738830E+00
 0.11785525134000E+01 0.72027196368413E+00
 p    1 1.00
 0.41642204972000E+00 0.10000000000000E+01
 p    1 1.00
 0.14260826011000E+00 0.10000000000000E+01
 d    1 1.00
 0.16540000000000E+01 0.10000000000000E+01
 d    1 1.00
 0.46900000000000E+00 0.10000000000000E+01
 d    1 1.00
 0.12829642058000E+00 0.10000000000000E+01
 f    1 1.00
 0.10930000000000E+01 0.10000000000000E+01
 
   15 0
 s    3 1.00
 0.34061341000000E+02 0.25439307208879E-01
 0.51235746000000E+01 0.19008594890375E+00
 0.11646626000000E+01 0.85244113011042E+00
 s    1 1.00
 0.32723041000000E+00 0.10000000000000E+01
 s    1 1.00
 0.10307241000000E+00 0.10000000000000E+01
 p    1 1.00
 0.80000000000000E+00 0.10000000000000E+01
 p    1 1.00
 0.95774129632000E-01 0.10000000000000E+01
 
   16 0
 s    3 1.00
 0.34061341000000E+02 0.25439307208879E-01
 0.51235746000000E+01 0.19008594890375E+00
 0.11646626000000E+01 0.85244113011042E+00
 s    1 1.00
 0.32723041000000E+00 0.10000000000000E+01
 s    1 1.00
 0.10307241000000E+00 0.10000000000000E+01
 p    1 1.00
 0.80000000000000E+00 0.10000000000000E+01
 p    1 1.00
 0.95774129632000E-01 0.10000000000000E+01
 
[MO]
 Sym= X
 Ene= -0.136129
 Spin= Alpha
 Occup= -0.136129
         1   -1.342303E-04
         2   -3.140033E-04
         3    9.555159E-04
         4   -2.442068E-03
         5   -1.038523E-02
         6   -9.626871E-03
         7    1.144101E-03
         8    1.364005E-04
         9    3.278077E-02
        10   -2.295937E-03
        11    2.958211E-04
        12    3.085279E-02
        13   -3.180661E-02
        14    9.947477E-03
        15    8.133710E-03
        16   -7.242266E-06
        17   -5.120869E-06
        18    1.236314E-05
        19   -4.656700E-06
        20   -6.504723E-03
        21    4.151186E-03
        22   -5.901616E-04
        23    3.517736E-04
        24    2.383879E-04
        25   -5.859339E-04
        26   -1.465300E-02
        27    7.776580E-03
        28   -4.766922E-03
        29    4.493366E-03
        30    2.735569E-04
        31    7.971745E-04
        32    1.060576E-03
        33   -9.293564E-03
        34   -1.810375E-05
        35    5.180897E-06
        36   -1.694061E-04
        37    7.930426E-06
        38   -5.288394E-06
        39   -6.840308E-04
        40    1.635830E-05
        41   -1.662508E-06
        42    9.113129E-04
        43   -7.449258E-04
        44    2.063026E-05
        45    4.528907E-05
        46    1.004157E-04
        47   -2.154001E-03
        48   -4.768677E-02
        49    4.242228E-03
        50    4.404204E-04
        51    1.432459E-06
        52    2.190942E-01
        53   -2.315787E-04
        54    2.079952E-05
        55    2.269784E-01
        56   -1.504490E-02
        57   -6.100891E-04
        58    2.048460E-01
        59    2.429102E-05
        60   -2.206926E-05
        61   -2.221754E-06
        62    8.135522E-08
        63   -6.910741E-04
        64    1.409849E-07
        65    3.015098E-04
        66   -5.098027E-04
        67    2.082929E-04
        68    4.537351E-06
        69   -3.410057E-03
        70    3.488804E-07
        71    7.274478E-03
        72   -8.312790E-03
        73    1.038312E-03
        74   -1.027027E-04
        75    5.522457E-03
        76   -1.391655E-05
        77    7.553985E-06
        78    5.207793E-08
        79   -1.265727E-03
        80   -5.490774E-06
        81    2.354029E-08
        82    7.699151E-04
        83   -4.643961E-06
        84   -9.341016E-08
        85    9.282363E-04
        86    5.515486E-08
        87   -1.344667E-04
        88   -3.145351E-04
        89    9.580587E-04
        90   -2.459454E-03
        91   -9.025565E-03
        92   -9.593166E-03
        93    1.144542E-03
        94   -1.379495E-04
        95    3.278973E-02
        96   -2.259497E-03
        97   -2.865234E-04
        98    3.085767E-02
        99   -3.211853E-02
       100   -1.048441E-02
       101    8.132898E-03
       102   -7.123628E-06
       103   -5.139447E-06
       104    1.226308E-05
       105    4.931514E-06
       106   -6.504545E-03
       107   -4.151329E-03
       108   -5.830713E-04
       109    3.442885E-04
       110    2.387828E-04
       111    5.818624E-04
       112   -1.465321E-02
       113   -7.775327E-03
       114   -4.878285E-03
       115    4.612230E-03
       116    2.660543E-04
       117   -6.949085E-04
       118    1.046516E-03
       119    9.292408E-03
       120   -1.811653E-05
       121   -5.136558E-06
       122   -1.693535E-04
       123    8.116860E-06
       124    5.239329E-06
       125   -6.841082E-04
       126    1.618901E-05
       127    1.652086E-06
       128    9.113198E-04
       129    7.448438E-04
       130    8.030539E-05
       131    1.708023E-04
       132    5.482906E-04
       133   -8.653643E-03
       134    2.957885E-02
       135    1.082659E-02
       136   -8.326979E-04
       137    4.063873E-04
       138   -1.562828E-01
       139   -7.500896E-03
       140    5.098058E-03
       141   -1.589315E-01
       142   -2.238628E-02
       143   -6.497159E-03
       144   -9.661201E-02
       145    1.064693E-04
       146   -1.284468E-04
       147    2.197754E-05
       148   -4.323271E-06
       149   -1.215545E-03
       150    3.227557E-03
       151    5.370114E-04
       152   -6.266941E-04
       153    8.968263E-05
       154    1.424381E-03
       155   -4.734074E-03
       156    5.517484E-03
       157    7.192887E-03
       158   -5.607192E-03
       159   -1.585695E-03
       160   -7.412704E-03
       161    3.017721E-03
       162   -1.039567E-02
       163   -1.316535E-05
       164    6.117630E-06
       165    8.943883E-04
       166   -1.454858E-05
       167    1.627846E-05
       168   -2.080186E-04
       169    3.221175E-05
       170   -2.448612E-05
       171   -9.919293E-04
       172    3.951315E-04
       173   -8.943462E-04
       174   -2.041883E-03
       175    2.030166E-03
       176    1.886652E-02
       177   -1.050441E-02
       178    8.665892E-03
       179    6.798282E-03
       180   -1.396291E-06
       181   -1.313128E-01
       182   -4.426162E-05
       183   -8.710197E-06
       184   -1.333307E-01
       185   -2.014783E-02
       186    9.119416E-04
       187   -1.301553E-01
       188    3.756532E-04
       189   -1.999233E-04
       190   -1.757299E-04
       191    2.909741E-07
       192    9.097191E-03
       193    4.069755E-07
       194   -1.567142E-03
       195    3.471209E-03
       196   -1.904068E-03
       197   -2.872191E-08
       198    2.294631E-02
       199   -2.051319E-06
       200   -4.520176E-03
       201    5.661636E-03
       202   -1.141460E-03
       203   -1.225664E-04
       204    1.848053E-02
       205    2.336396E-07
       206    9.290150E-05
       207    1.925925E-08
       208    5.134880E-04
       209   -6.698338E-05
       210   -2.596518E-08
       211    8.086955E-04
       212   -5.765705E-05
       213    1.261879E-10
       214   -1.497612E-03
       215    4.910782E-08
       216    8.072850E-05
       217    1.715496E-04
       218    5.471723E-04
       219   -8.656357E-03
       220    3.132662E-02
       221    1.085020E-02
       222   -8.325275E-04
       223   -3.991255E-04
       224   -1.562919E-01
       225   -7.518208E-03
       226   -5.097589E-03
       227   -1.589449E-01
       228   -2.191483E-02
       229    7.349936E-03
       230   -9.663539E-02
       231    1.063957E-04
       232   -1.287488E-04
       233    2.235312E-05
       234    4.691768E-06
       235   -1.215594E-03
       236   -3.227569E-03
       237    5.420433E-04
       238   -6.290018E-04
       239    8.695847E-05
       240   -1.427689E-03
       241   -4.731115E-03
       242   -5.517794E-03
       243    7.115722E-03
       244   -5.527022E-03
       245   -1.588700E-03
       246    7.545856E-03
       247    3.038605E-03
       248    1.039583E-02
       249   -1.337019E-05
       250   -6.155777E-06
       251    8.946098E-04
       252   -1.445518E-05
       253   -1.623850E-05
       254   -2.082887E-04
       255    3.239318E-05
       256    2.449735E-05
       257   -9.919563E-04
       258   -3.951748E-04
       259   -2.235739E-04
       260   -4.714916E-05
       261   -1.449601E-02
       262   -9.748453E-06
       263    1.378835E-05
       264    1.271995E-03
       265   -4.634757E-03
       266   -5.871777E-05
       267   -5.936029E-03
       268   -2.249995E-04
       269   -4.101494E-05
       270   -1.448970E-02
       271   -8.841562E-06
       272   -1.470704E-05
       273    1.272229E-03
       274   -4.732146E-03
       275    2.698193E-05
       276   -5.940780E-03
       277   -3.002969E-04
       278   -1.920468E-03
       279    2.914948E-02
       280   -5.026972E-06
       281    7.552182E-05
       282   -6.382799E-03
       283   -1.072529E-03
       284   -2.429839E-03
       285    1.996679E-04
       286   -3.038908E-04
       287   -1.931439E-03
       288    2.944223E-02
       289   -4.457826E-06
       290   -7.624022E-05
       291   -6.383908E-03
       292   -1.053494E-03
       293    2.481802E-03
       294    1.885502E-04
       295   -2.972511E-05
       296   -6.837876E-05
       297    4.606477E-05
       298    2.828158E-04
       299   -5.196008E-03
       300    1.734702E-03
       301    3.048403E-04
       302   -5.812910E-08
       303    2.476820E-02
       304    5.576778E-05
       305    1.438113E-06
       306    2.688189E-02
       307   -2.448529E-03
       308    2.717584E-05
       309    1.159558E-02
       310    1.952306E-05
       311   -3.217310E-06
       312   -1.630575E-05
       313    5.682685E-09
       314    4.669546E-03
       315    3.292277E-08
       316    9.233626E-06
       317    5.805674E-05
       318   -6.729037E-05
       319   -6.178252E-07
       320    1.410888E-02
       321   -9.827315E-08
       322   -9.651523E-04
       323    2.475440E-03
       324   -1.510287E-03
       325    2.124988E-05
       326    3.771244E-03
       327    4.970266E-06
       328    6.382051E-06
       329    4.713180E-10
       330   -2.462943E-05
       331   -4.403081E-06
       332    2.477141E-08
       333    7.559361E-04
       334   -4.159339E-06
       335   -2.540375E-08
       336   -7.228923E-04
       337    7.360143E-10
       338   -7.203399E-06
       339   -1.457066E-05
       340   -1.672152E-05
       341    4.092289E-04
       342   -4.993330E-03
       343   -8.323658E-04
       344   -1.849691E-04
       345    6.919721E-05
       346   -8.065545E-02
       347   -2.545755E-04
       348    1.863366E-04
       349   -7.485611E-02
       350   -1.306774E-03
       351    3.712676E-04
       352   -6.156835E-02
       353   -1.254127E-04
       354    2.083536E-04
       355   -7.611032E-03
       356    2.837220E-06
       357   -2.970161E-06
       358    1.329402E-07
       359    3.731856E-07
       360    3.722710E-05
       361    4.532044E-04
       362   -1.160441E-05
       363   -6.502633E-06
       364    1.810704E-05
       365    1.069048E-05
       366   -4.585850E-04
       367    1.536177E-03
       368   -7.542402E-05
       369    5.930931E-05
       370    1.611472E-05
       371    8.996814E-05
       372   -2.818714E-04
       373    1.912863E-04
       374    6.940431E-07
       375    1.098371E-06
       376    5.783871E-05
       377   -1.133990E-06
       378   -3.325141E-08
       379    8.881603E-05
       380    2.028334E-07
       381   -1.440368E-06
       382   -1.664148E-04
       383    1.300258E-04
       384   -7.083635E-06
       385   -1.432256E-05
       386   -1.654744E-05
       387    4.042956E-04
       388   -4.983419E-03
       389   -8.055535E-04
       390   -1.814617E-04
       391   -7.046715E-05
       392   -8.065590E-02
       393   -2.509705E-04
       394   -1.867636E-04
       395   -7.485745E-02
       396   -1.279978E-03
       397   -3.650257E-04
       398   -6.155975E-02
       399   -1.101536E-04
       400   -2.144423E-04
       401   -7.611206E-03
       402    2.850610E-06
       403   -3.000064E-06
       404    1.494537E-07
       405   -4.246846E-07
       406    3.719910E-05
       407   -4.532081E-04
       408   -1.142841E-05
       409   -6.346092E-06
       410    1.777450E-05
       411   -1.020233E-05
       412   -4.585086E-04
       413   -1.536220E-03
       414   -7.446533E-05
       415    6.033460E-05
       416    1.413073E-05
       417   -8.946997E-05
       418   -2.817827E-04
       419   -1.899247E-04
       420    6.951836E-07
       421   -1.094653E-06
       422    5.784338E-05
       423   -1.114492E-06
       424    3.709325E-08
       425    8.881381E-05
       426    1.818054E-07
       427    1.431538E-06
       428   -1.664188E-04
       429   -1.300317E-04
       430    3.972039E-03
       431    9.452599E-03
       432   -1.481655E-02
       433   -2.296478E-02
       434   -2.044422E-02
       435   -6.371202E-02
       436   -1.378771E-02
       437    6.125511E-06
       438    2.158180E-01
       439   -1.595838E-02
       440    1.102594E-07
       441    2.139381E-01
       442   -1.380816E-02
       443   -9.700232E-05
       444    1.804418E-01
       445   -8.889295E-05
       446    2.489288E-05
       447    6.400007E-05
       448    2.035193E-07
       449    1.127635E-03
       450    1.852494E-07
       451   -2.274953E-04
       452   -1.195073E-03
       453    1.422569E-03
       454   -3.314643E-06
       455    4.403161E-03
       456    1.285805E-06
       457   -1.981860E-03
       458   -2.189957E-03
       459    4.171818E-03
       460   -2.422070E-06
       461    2.369175E-03
       462    6.803776E-06
       463   -1.289089E-04
       464    2.262467E-08
       465   -7.960723E-04
       466   -6.404518E-05
       467   -4.532515E-09
       468    3.533234E-04
       469    2.369947E-04
       470   -2.582167E-08
       471    7.147198E-04
       472    1.823959E-10
       473    8.756875E-03
       474    1.602305E-02
       475    2.630990E-02
       476   -1.898175E-03
       477   -1.661474E-03
       478    1.113298E-02
       479    1.744753E-03
       480   -3.131974E-03
       481    1.417562E-02
       482    8.752635E-03
       483    1.596555E-02
       484    2.614219E-02
       485   -1.895423E-03
       486    1.655928E-03
       487    1.113585E-02
       488    1.760965E-03
       489    3.100366E-03
       490    1.418157E-02
 Sym= X
 Ene= -0.814765
 Spin= Alpha
 Occup= -0.814765
         1   -2.386582E-05
         2   -5.449080E-05
         3    1.438037E-04
         4   -2.569299E-04
         5   -9.751268E-03
         6   -5.518808E-04
         7   -1.409246E-04
         8   -1.668018E-04
         9   -1.894621E-01
        10   -6.204467E-04
        11   -4.352336E-05
        12   -1.899584E-01
        13    3.672051E-03
        14   -6.304353E-03
        15   -1.111980E-01
        16   -8.339186E-06
        17    2.748916E-06
        18    5.590270E-06
        19    1.451000E-06
        20   -4.979471E-03
        21   -5.498174E-04
        22   -1.093006E-04
        23    6.454964E-05
        24    4.475096E-05
        25    1.790074E-05
        26   -9.489197E-03
        27    3.954409E-04
        28    8.306145E-04
        29   -9.694753E-04
        30    1.388609E-04
        31    4.727414E-04
        32   -2.696217E-03
        33   -5.391849E-04
        34   -4.782349E-06
        35   -8.236597E-07
        36    1.174706E-03
        37    1.254151E-06
        38    5.028047E-08
        39   -1.419286E-03
        40    5.162044E-06
        41    1.054775E-06
        42   -1.567480E-04
        43    7.123880E-07
        44    1.545236E-07
        45    4.154755E-07
        46   -3.619042E-06
        47   -5.920046E-06
        48    2.403451E-03
        49    1.745933E-04
        50   -1.604086E-06
        51    1.028779E-04
        52    7.223954E-06
        53    5.982917E-06
        54    2.117140E-04
        55    1.080019E-05
        56    1.079547E-03
        57   -9.405944E-03
        58   -1.386311E-05
        59   -3.308981E-08
        60    5.804741E-10
        61    3.250934E-08
        62    1.013480E-05