[Molden Format]
[Title]
ADC(2) - opt by CAM-B3LYP gaussian                                              
[Atoms] AU
 c     1    6 -.12589065566052E+01 -.22830902054421E+01 -.26005390588660E-01
 c     2    6 -.25569912224779E+01 0.86573078000000E-06 -.24733756079320E-01
 c     3    6 -.12589060841737E+01 0.22830907841707E+01 -.26008073999770E-01
 c     4    6 0.13324295737882E+01 0.22846183820847E+01 -.28114684000920E-01
 c     5    6 0.26867573459717E+01 0.39329925000000E-06 -.27723246129760E-01
 c     6    6 0.13324281942881E+01 -.22846180679178E+01 -.28111244699360E-01
 h     7    1 -.22982509786098E+01 -.40377481062879E+01 -.23319125993500E-01
 h     8    1 -.22982490510892E+01 0.40377494409070E+01 -.23324322740370E-01
 h     9    1 0.23514918675648E+01 0.40568894753521E+01 -.30529017005560E-01
 h    10    1 0.23514910360853E+01 -.40568888210345E+01 -.30521911635300E-01
 n    11    7 -.52742123095903E+01 0.14763485000000E-06 -.18925267070140E-01
 o    12    8 -.63809534361791E+01 0.20269762391752E+01 -.16457057973460E-01
 o    13    8 -.63809510362269E+01 -.20269772478165E+01 -.16464881439650E-01
 n    14    7 0.52454603626942E+01 -.57046108000000E-06 -.73989411041200E-01
 h    15    1 0.62036818842731E+01 0.16164996606794E+01 0.19711589672944E+00
 h    16    1 0.62036804102867E+01 -.16165023700742E+01 0.19711149366755E+00
[GTO]
    1 0
 s    6 1.00
 0.13575349682000E+05 0.60645503603591E-03
 0.20352333680000E+04 0.46979088884982E-02
 0.46322562359000E+03 0.24332477647552E-01
 0.13120019598000E+03 0.97399968307759E-01
 0.42853015891000E+02 0.30195584253780E+00
 0.15584185766000E+02 0.66233609137875E+00
 s    2 1.00
 0.62067138508000E+01 0.65595308539952E+00
 0.25764896527000E+01 0.37585633285142E+00
 s    1 1.00
 0.57696339419000E+00 0.10000000000000E+01
 s    1 1.00
 0.22972831358000E+00 0.10000000000000E+01
 s    1 1.00
 0.95164440028000E-01 0.10000000000000E+01
 s    1 1.00
 0.48475401370000E-01 0.10000000000000E+01
 p    4 1.00
 0.34697232244000E+02 0.11327220003114E-01
 0.79582622826000E+01 0.76169659202087E-01
 0.23780826883000E+01 0.30192252202676E+00
 0.81433208183000E+00 0.72785027349547E+00
 p    1 1.00
 0.28887547253000E+00 0.10000000000000E+01
 p    1 1.00
 0.10056823671000E+00 0.10000000000000E+01
 d    1 1.00
 0.10970000000000E+01 0.10000000000000E+01
 d    1 1.00
 0.31800000000000E+00 0.10000000000000E+01
 d    1 1.00
 0.90985336424000E-01 0.10000000000000E+01
 f    1 1.00
 0.76100000000000E+00 0.10000000000000E+01
 
    2 0
 s    6 1.00
 0.13575349682000E+05 0.60645503603591E-03
 0.20352333680000E+04 0.46979088884982E-02
 0.46322562359000E+03 0.24332477647552E-01
 0.13120019598000E+03 0.97399968307759E-01
 0.42853015891000E+02 0.30195584253780E+00
 0.15584185766000E+02 0.66233609137875E+00
 s    2 1.00
 0.62067138508000E+01 0.65595308539952E+00
 0.25764896527000E+01 0.37585633285142E+00
 s    1 1.00
 0.57696339419000E+00 0.10000000000000E+01
 s    1 1.00
 0.22972831358000E+00 0.10000000000000E+01
 s    1 1.00
 0.95164440028000E-01 0.10000000000000E+01
 s    1 1.00
 0.48475401370000E-01 0.10000000000000E+01
 p    4 1.00
 0.34697232244000E+02 0.11327220003114E-01
 0.79582622826000E+01 0.76169659202087E-01
 0.23780826883000E+01 0.30192252202676E+00
 0.81433208183000E+00 0.72785027349547E+00
 p    1 1.00
 0.28887547253000E+00 0.10000000000000E+01
 p    1 1.00
 0.10056823671000E+00 0.10000000000000E+01
 d    1 1.00
 0.10970000000000E+01 0.10000000000000E+01
 d    1 1.00
 0.31800000000000E+00 0.10000000000000E+01
 d    1 1.00
 0.90985336424000E-01 0.10000000000000E+01
 f    1 1.00
 0.76100000000000E+00 0.10000000000000E+01
 
    3 0
 s    6 1.00
 0.13575349682000E+05 0.60645503603591E-03
 0.20352333680000E+04 0.46979088884982E-02
 0.46322562359000E+03 0.24332477647552E-01
 0.13120019598000E+03 0.97399968307759E-01
 0.42853015891000E+02 0.30195584253780E+00
 0.15584185766000E+02 0.66233609137875E+00
 s    2 1.00
 0.62067138508000E+01 0.65595308539952E+00
 0.25764896527000E+01 0.37585633285142E+00
 s    1 1.00
 0.57696339419000E+00 0.10000000000000E+01
 s    1 1.00
 0.22972831358000E+00 0.10000000000000E+01
 s    1 1.00
 0.95164440028000E-01 0.10000000000000E+01
 s    1 1.00
 0.48475401370000E-01 0.10000000000000E+01
 p    4 1.00
 0.34697232244000E+02 0.11327220003114E-01
 0.79582622826000E+01 0.76169659202087E-01
 0.23780826883000E+01 0.30192252202676E+00
 0.81433208183000E+00 0.72785027349547E+00
 p    1 1.00
 0.28887547253000E+00 0.10000000000000E+01
 p    1 1.00
 0.10056823671000E+00 0.10000000000000E+01
 d    1 1.00
 0.10970000000000E+01 0.10000000000000E+01
 d    1 1.00
 0.31800000000000E+00 0.10000000000000E+01
 d    1 1.00
 0.90985336424000E-01 0.10000000000000E+01
 f    1 1.00
 0.76100000000000E+00 0.10000000000000E+01
 
    4 0
 s    6 1.00
 0.13575349682000E+05 0.60645503603591E-03
 0.20352333680000E+04 0.46979088884982E-02
 0.46322562359000E+03 0.24332477647552E-01
 0.13120019598000E+03 0.97399968307759E-01
 0.42853015891000E+02 0.30195584253780E+00
 0.15584185766000E+02 0.66233609137875E+00
 s    2 1.00
 0.62067138508000E+01 0.65595308539952E+00
 0.25764896527000E+01 0.37585633285142E+00
 s    1 1.00
 0.57696339419000E+00 0.10000000000000E+01
 s    1 1.00
 0.22972831358000E+00 0.10000000000000E+01
 s    1 1.00
 0.95164440028000E-01 0.10000000000000E+01
 s    1 1.00
 0.48475401370000E-01 0.10000000000000E+01
 p    4 1.00
 0.34697232244000E+02 0.11327220003114E-01
 0.79582622826000E+01 0.76169659202087E-01
 0.23780826883000E+01 0.30192252202676E+00
 0.81433208183000E+00 0.72785027349547E+00
 p    1 1.00
 0.28887547253000E+00 0.10000000000000E+01
 p    1 1.00
 0.10056823671000E+00 0.10000000000000E+01
 d    1 1.00
 0.10970000000000E+01 0.10000000000000E+01
 d    1 1.00
 0.31800000000000E+00 0.10000000000000E+01
 d    1 1.00
 0.90985336424000E-01 0.10000000000000E+01
 f    1 1.00
 0.76100000000000E+00 0.10000000000000E+01
 
    5 0
 s    6 1.00
 0.13575349682000E+05 0.60645503603591E-03
 0.20352333680000E+04 0.46979088884982E-02
 0.46322562359000E+03 0.24332477647552E-01
 0.13120019598000E+03 0.97399968307759E-01
 0.42853015891000E+02 0.30195584253780E+00
 0.15584185766000E+02 0.66233609137875E+00
 s    2 1.00
 0.62067138508000E+01 0.65595308539952E+00
 0.25764896527000E+01 0.37585633285142E+00
 s    1 1.00
 0.57696339419000E+00 0.10000000000000E+01
 s    1 1.00
 0.22972831358000E+00 0.10000000000000E+01
 s    1 1.00
 0.95164440028000E-01 0.10000000000000E+01
 s    1 1.00
 0.48475401370000E-01 0.10000000000000E+01
 p    4 1.00
 0.34697232244000E+02 0.11327220003114E-01
 0.79582622826000E+01 0.76169659202087E-01
 0.23780826883000E+01 0.30192252202676E+00
 0.81433208183000E+00 0.72785027349547E+00
 p    1 1.00
 0.28887547253000E+00 0.10000000000000E+01
 p    1 1.00
 0.10056823671000E+00 0.10000000000000E+01
 d    1 1.00
 0.10970000000000E+01 0.10000000000000E+01
 d    1 1.00
 0.31800000000000E+00 0.10000000000000E+01
 d    1 1.00
 0.90985336424000E-01 0.10000000000000E+01
 f    1 1.00
 0.76100000000000E+00 0.10000000000000E+01
 
    6 0
 s    6 1.00
 0.13575349682000E+05 0.60645503603591E-03
 0.20352333680000E+04 0.46979088884982E-02
 0.46322562359000E+03 0.24332477647552E-01
 0.13120019598000E+03 0.97399968307759E-01
 0.42853015891000E+02 0.30195584253780E+00
 0.15584185766000E+02 0.66233609137875E+00
 s    2 1.00
 0.62067138508000E+01 0.65595308539952E+00
 0.25764896527000E+01 0.37585633285142E+00
 s    1 1.00
 0.57696339419000E+00 0.10000000000000E+01
 s    1 1.00
 0.22972831358000E+00 0.10000000000000E+01
 s    1 1.00
 0.95164440028000E-01 0.10000000000000E+01
 s    1 1.00
 0.48475401370000E-01 0.10000000000000E+01
 p    4 1.00
 0.34697232244000E+02 0.11327220003114E-01
 0.79582622826000E+01 0.76169659202087E-01
 0.23780826883000E+01 0.30192252202676E+00
 0.81433208183000E+00 0.72785027349547E+00
 p    1 1.00
 0.28887547253000E+00 0.10000000000000E+01
 p    1 1.00
 0.10056823671000E+00 0.10000000000000E+01
 d    1 1.00
 0.10970000000000E+01 0.10000000000000E+01
 d    1 1.00
 0.31800000000000E+00 0.10000000000000E+01
 d    1 1.00
 0.90985336424000E-01 0.10000000000000E+01
 f    1 1.00
 0.76100000000000E+00 0.10000000000000E+01
 
    7 0
 s    3 1.00
 0.34061341000000E+02 0.25439307208879E-01
 0.51235746000000E+01 0.19008594890375E+00
 0.11646626000000E+01 0.85244113011042E+00
 s    1 1.00
 0.32723041000000E+00 0.10000000000000E+01
 s    1 1.00
 0.10307241000000E+00 0.10000000000000E+01
 p    1 1.00
 0.80000000000000E+00 0.10000000000000E+01
 p    1 1.00
 0.95774129632000E-01 0.10000000000000E+01
 
    8 0
 s    3 1.00
 0.34061341000000E+02 0.25439307208879E-01
 0.51235746000000E+01 0.19008594890375E+00
 0.11646626000000E+01 0.85244113011042E+00
 s    1 1.00
 0.32723041000000E+00 0.10000000000000E+01
 s    1 1.00
 0.10307241000000E+00 0.10000000000000E+01
 p    1 1.00
 0.80000000000000E+00 0.10000000000000E+01
 p    1 1.00
 0.95774129632000E-01 0.10000000000000E+01
 
    9 0
 s    3 1.00
 0.34061341000000E+02 0.25439307208879E-01
 0.51235746000000E+01 0.19008594890375E+00
 0.11646626000000E+01 0.85244113011042E+00
 s    1 1.00
 0.32723041000000E+00 0.10000000000000E+01
 s    1 1.00
 0.10307241000000E+00 0.10000000000000E+01
 p    1 1.00
 0.80000000000000E+00 0.10000000000000E+01
 p    1 1.00
 0.95774129632000E-01 0.10000000000000E+01
 
   10 0
 s    3 1.00
 0.34061341000000E+02 0.25439307208879E-01
 0.51235746000000E+01 0.19008594890375E+00
 0.11646626000000E+01 0.85244113011042E+00
 s    1 1.00
 0.32723041000000E+00 0.10000000000000E+01
 s    1 1.00
 0.10307241000000E+00 0.10000000000000E+01
 p    1 1.00
 0.80000000000000E+00 0.10000000000000E+01
 p    1 1.00
 0.95774129632000E-01 0.10000000000000E+01
 
   11 0
 s    6 1.00
 0.19730800647000E+05 0.58626402628763E-03
 0.29578958745000E+04 0.45428820586397E-02
 0.67322133595000E+03 0.23558413450084E-01
 0.19068249494000E+03 0.94709193292923E-01
 0.62295441898000E+02 0.29719784913376E+00
 0.22654161182000E+02 0.66916246895232E+00
 s    2 1.00
 0.89791477428000E+01 0.64596683630063E+00
 0.36863002370000E+01 0.38700574393705E+00
 s    1 1.00
 0.84660076805000E+00 0.10000000000000E+01
 s    1 1.00
 0.33647133771000E+00 0.10000000000000E+01
 s    1 1.00
 0.13647653675000E+00 0.10000000000000E+01
 s    1 1.00
 0.68441605847000E-01 0.10000000000000E+01
 p    4 1.00
 0.49200380510000E+02 0.11448825101764E-01
 0.11346790537000E+02 0.78422337970864E-01
 0.34273972411000E+01 0.30818094738830E+00
 0.11785525134000E+01 0.72027196368413E+00
 p    1 1.00
 0.41642204972000E+00 0.10000000000000E+01
 p    1 1.00
 0.14260826011000E+00 0.10000000000000E+01
 d    1 1.00
 0.16540000000000E+01 0.10000000000000E+01
 d    1 1.00
 0.46900000000000E+00 0.10000000000000E+01
 d    1 1.00
 0.12829642058000E+00 0.10000000000000E+01
 f    1 1.00
 0.10930000000000E+01 0.10000000000000E+01
 
   12 0
 s    6 1.00
 0.27032382631000E+05 0.57227335211155E-03
 0.40523871392000E+04 0.44353233492995E-02
 0.92232722710000E+03 0.23020107706038E-01
 0.26124070989000E+03 0.92822490667928E-01
 0.85354641351000E+02 0.29378500009671E+00
 0.31035035245000E+02 0.67401604501641E+00
 s    2 1.00
 0.12260860728000E+02 0.63839937025506E+00
 0.49987076005000E+01 0.39534587125718E+00
 s    1 1.00
 0.11703108158000E+01 0.10000000000000E+01
 s    1 1.00
 0.46474740994000E+00 0.10000000000000E+01
 s    1 1.00
 0.18504536357000E+00 0.10000000000000E+01
 s    1 1.00
 0.70288026270000E-01 0.10000000000000E+01
 p    4 1.00
 0.63274954801000E+02 0.12018332222616E-01
 0.14627049379000E+02 0.83005421790056E-01
 0.44501223456000E+01 0.31991743925964E+00
 0.15275799647000E+01 0.70715542916104E+00
 p    1 1.00
 0.52935117943000E+00 0.10000000000000E+01
 p    1 1.00
 0.17478421270000E+00 0.10000000000000E+01
 p    1 1.00
 0.51112745706000E-01 0.10000000000000E+01
 d    1 1.00
 0.23140000000000E+01 0.10000000000000E+01
 d    1 1.00
 0.64500000000000E+00 0.10000000000000E+01
 d    1 1.00
 0.14696477366000E+00 0.10000000000000E+01
 f    1 1.00
 0.14280000000000E+01 0.10000000000000E+01
 
   13 0
 s    6 1.00
 0.27032382631000E+05 0.57227335211155E-03
 0.40523871392000E+04 0.44353233492995E-02
 0.92232722710000E+03 0.23020107706038E-01
 0.26124070989000E+03 0.92822490667928E-01
 0.85354641351000E+02 0.29378500009671E+00
 0.31035035245000E+02 0.67401604501641E+00
 s    2 1.00
 0.12260860728000E+02 0.63839937025506E+00
 0.49987076005000E+01 0.39534587125718E+00
 s    1 1.00
 0.11703108158000E+01 0.10000000000000E+01
 s    1 1.00
 0.46474740994000E+00 0.10000000000000E+01
 s    1 1.00
 0.18504536357000E+00 0.10000000000000E+01
 s    1 1.00
 0.70288026270000E-01 0.10000000000000E+01
 p    4 1.00
 0.63274954801000E+02 0.12018332222616E-01
 0.14627049379000E+02 0.83005421790056E-01
 0.44501223456000E+01 0.31991743925964E+00
 0.15275799647000E+01 0.70715542916104E+00
 p    1 1.00
 0.52935117943000E+00 0.10000000000000E+01
 p    1 1.00
 0.17478421270000E+00 0.10000000000000E+01
 p    1 1.00
 0.51112745706000E-01 0.10000000000000E+01
 d    1 1.00
 0.23140000000000E+01 0.10000000000000E+01
 d    1 1.00
 0.64500000000000E+00 0.10000000000000E+01
 d    1 1.00
 0.14696477366000E+00 0.10000000000000E+01
 f    1 1.00
 0.14280000000000E+01 0.10000000000000E+01
 
   14 0
 s    6 1.00
 0.19730800647000E+05 0.58626402628763E-03
 0.29578958745000E+04 0.45428820586397E-02
 0.67322133595000E+03 0.23558413450084E-01
 0.19068249494000E+03 0.94709193292923E-01
 0.62295441898000E+02 0.29719784913376E+00
 0.22654161182000E+02 0.66916246895232E+00
 s    2 1.00
 0.89791477428000E+01 0.64596683630063E+00
 0.36863002370000E+01 0.38700574393705E+00
 s    1 1.00
 0.84660076805000E+00 0.10000000000000E+01
 s    1 1.00
 0.33647133771000E+00 0.10000000000000E+01
 s    1 1.00
 0.13647653675000E+00 0.10000000000000E+01
 s    1 1.00
 0.68441605847000E-01 0.10000000000000E+01
 p    4 1.00
 0.49200380510000E+02 0.11448825101764E-01
 0.11346790537000E+02 0.78422337970864E-01
 0.34273972411000E+01 0.30818094738830E+00
 0.11785525134000E+01 0.72027196368413E+00
 p    1 1.00
 0.41642204972000E+00 0.10000000000000E+01
 p    1 1.00
 0.14260826011000E+00 0.10000000000000E+01
 d    1 1.00
 0.16540000000000E+01 0.10000000000000E+01
 d    1 1.00
 0.46900000000000E+00 0.10000000000000E+01
 d    1 1.00
 0.12829642058000E+00 0.10000000000000E+01
 f    1 1.00
 0.10930000000000E+01 0.10000000000000E+01
 
   15 0
 s    3 1.00
 0.34061341000000E+02 0.25439307208879E-01
 0.51235746000000E+01 0.19008594890375E+00
 0.11646626000000E+01 0.85244113011042E+00
 s    1 1.00
 0.32723041000000E+00 0.10000000000000E+01
 s    1 1.00
 0.10307241000000E+00 0.10000000000000E+01
 p    1 1.00
 0.80000000000000E+00 0.10000000000000E+01
 p    1 1.00
 0.95774129632000E-01 0.10000000000000E+01
 
   16 0
 s    3 1.00
 0.34061341000000E+02 0.25439307208879E-01
 0.51235746000000E+01 0.19008594890375E+00
 0.11646626000000E+01 0.85244113011042E+00
 s    1 1.00
 0.32723041000000E+00 0.10000000000000E+01
 s    1 1.00
 0.10307241000000E+00 0.10000000000000E+01
 p    1 1.00
 0.80000000000000E+00 0.10000000000000E+01
 p    1 1.00
 0.95774129632000E-01 0.10000000000000E+01
 
[MO]
 Sym= X
 Ene= -0.948182
 Spin= Alpha
 Occup= -0.948182
         1   -1.619514E-04
         2   -3.776073E-04
         3    1.090512E-03
         4   -2.538649E-03
         5   -9.952040E-03
         6   -1.046671E-02
         7    1.563771E-03
         8    1.646032E-04
         9    2.303663E-02
        10   -2.248689E-03
        11    3.488822E-04
        12    2.124484E-02
        13   -3.355828E-02
        14    1.006666E-02
        15    4.380195E-03
        16    4.145292E-06
        17   -1.582237E-05
        18    1.167708E-05
        19   -9.461676E-06
        20   -6.455698E-03
        21    3.839822E-03
        22   -6.212524E-04
        23    3.701923E-04
        24    2.510600E-04
        25   -6.501052E-04
        26   -1.451052E-02
        27    7.256905E-03
        28   -4.934690E-03
        29    4.641495E-03
        30    2.931949E-04
        31    9.376686E-04
        32    1.577063E-03
        33   -9.743861E-03
        34   -1.851440E-05
        35    5.922274E-06
        36   -8.830355E-05
        37    7.984825E-06
        38   -5.953057E-06
        39   -7.265631E-04
        40    1.685486E-05
        41   -1.992507E-06
        42    8.450348E-04
        43   -7.079695E-04
        44    2.627875E-05
        45    5.768384E-05
        46    1.104990E-04
        47   -2.487546E-03
        48   -4.883780E-02
        49    4.985468E-03
        50    2.909152E-04
        51    1.640003E-06
        52    2.041573E-01
        53   -4.264616E-04
        54    1.980718E-05
        55    2.118893E-01
        56   -1.572328E-02
        57   -6.560610E-04
        58    2.002480E-01
        59    3.976979E-05
        60   -3.742428E-05
        61   -2.345513E-06
        62    8.949793E-08
        63   -8.857446E-04
        64    1.667215E-07
        65    3.502265E-04
        66   -5.792463E-04
        67    2.290199E-04
        68    4.362043E-06
        69   -3.703294E-03
        70    3.553050E-07
        71    8.173712E-03
        72   -9.248811E-03
        73    1.075099E-03
        74   -1.060324E-04
        75    4.967647E-03
        76   -1.478281E-05
        77    6.865209E-06
        78    4.199279E-08
        79   -1.148348E-03
        80   -5.875038E-06
        81    2.969814E-08
        82    7.090534E-04
        83   -3.335606E-06
        84   -8.603738E-08
        85    8.316165E-04
        86    5.619451E-08
        87   -1.621085E-04
        88   -3.779575E-04
        89    1.092577E-03
        90   -2.556604E-03
        91   -8.442902E-03
        92   -1.043659E-02
        93    1.564605E-03
        94   -1.669290E-04
        95    2.304671E-02
        96   -2.212241E-03
        97   -3.416216E-04
        98    2.125065E-02
        99   -3.386097E-02
       100   -1.065576E-02
       101    4.382463E-03
       102    4.250454E-06
       103   -1.584583E-05
       104    1.159538E-05
       105    9.777185E-06
       106   -6.455491E-03
       107   -3.839958E-03
       108   -6.139217E-04
       109    3.625845E-04
       110    2.513372E-04
       111    6.464559E-04
       112   -1.451083E-02
       113   -7.255766E-03
       114   -5.043932E-03
       115    4.759287E-03
       116    2.846454E-04
       117   -8.331934E-04
       118    1.561986E-03
       119    9.740145E-03
       120   -1.852155E-05
       121   -5.882472E-06
       122   -8.825211E-05
       123    8.167076E-06
       124    5.895840E-06
       125   -7.266425E-04
       126    1.668220E-05
       127    1.996324E-06
       128    8.450452E-04
       129    7.078948E-04
       130    1.019413E-04
       131    2.189602E-04
       132    5.517760E-04
       133   -9.523339E-03
       134    2.952172E-02
       135    1.180313E-02
       136   -1.255806E-03
       137    5.438564E-04
       138   -1.594417E-01
       139   -8.440715E-03
       140    5.631148E-03
       141   -1.620947E-01
       142   -2.332462E-02
       143   -7.291050E-03
       144   -9.746200E-02
       145    1.329820E-04
       146   -1.588260E-04
       147    2.584402E-05
       148   -4.049996E-06
       149   -9.206221E-04
       150    3.180971E-03
       151    5.884771E-04
       152   -6.958590E-04
       153    1.073819E-04
       154    1.559525E-03
       155   -4.228166E-03
       156    5.390560E-03
       157    7.762457E-03
       158   -6.079202E-03
       159   -1.683255E-03
       160   -8.064564E-03
       161    3.284853E-03
       162   -1.136371E-02
       163   -1.454800E-05
       164    7.922936E-06
       165    9.190464E-04
       166   -1.697029E-05
       167    1.647004E-05
       168   -2.474703E-04
       169    3.648848E-05
       170   -2.709977E-05
       171   -9.855598E-04
       172    3.681609E-04
       173   -9.943386E-04
       174   -2.268969E-03
       175    2.302542E-03
       176    2.017602E-02
       177   -1.436000E-02
       178    8.763185E-03
       179    8.044678E-03
       180   -1.737772E-06
       181   -1.250686E-01
       182    2.657662E-04
       183   -9.911053E-06
       184   -1.273380E-01
       185   -2.313281E-02
       186    9.232611E-04
       187   -1.320506E-01
       188    4.383319E-04
       189   -2.441498E-04
       190   -1.941821E-04
       191    3.144412E-07
       192    9.633675E-03
       193    4.246018E-07
       194   -1.708995E-03
       195    3.767592E-03
       196   -2.058597E-03
       197    2.707387E-07
       198    2.406341E-02
       199   -1.905131E-06
       200   -5.117883E-03
       201    6.282676E-03
       202   -1.164793E-03
       203   -1.257491E-04
       204    1.890777E-02
       205    2.317677E-06
       206    1.042158E-04
       207    1.381316E-08
       208    4.491796E-04
       209   -7.373136E-05
       210   -2.761530E-08
       211    9.149831E-04
       212   -6.608880E-05
       213    9.083001E-09
       214   -1.517621E-03
       215    4.090734E-08
       216    1.023620E-04
       217    2.196909E-04
       218    5.510054E-04
       219   -9.529069E-03
       220    3.136402E-02
       221    1.182291E-02
       222   -1.255435E-03
       223   -5.359173E-04
       224   -1.594518E-01
       225   -8.459207E-03
       226   -5.631640E-03
       227   -1.621091E-01
       228   -2.287977E-02
       229    8.175020E-03
       230   -9.748062E-02
       231    1.329246E-04
       232   -1.591455E-04
       233    2.622090E-05
       234    4.461972E-06
       235   -9.206442E-04
       236   -3.180995E-03
       237    5.936339E-04
       238   -6.983769E-04
       239    1.047430E-04
       240   -1.563023E-03
       241   -4.225051E-03
       242   -5.390739E-03
       243    7.683832E-03
       244   -5.997276E-03
       245   -1.686556E-03
       246    8.194724E-03
       247    3.307814E-03
       248    1.136612E-02
       249   -1.474653E-05
       250   -7.961162E-06
       251    9.192715E-04
       252   -1.688811E-05
       253   -1.643004E-05
       254   -2.477513E-04
       255    3.667266E-05
       256    2.711106E-05
       257   -9.855808E-04
       258   -3.682008E-04
       259   -3.338130E-04
       260   -1.958216E-04
       261   -1.594666E-02
       262   -1.091037E-05
       263    3.020417E-07
       264    9.224579E-04
       265   -4.978115E-03
       266   -1.706671E-04
       267   -6.146212E-03
       268   -3.357894E-04
       269   -1.897516E-04
       270   -1.592521E-02
       271   -1.000345E-05
       272   -1.230779E-06
       273    9.227332E-04
       274   -5.073464E-03
       275    1.384733E-04
       276   -6.149647E-03
       277   -4.119028E-04
       278   -2.219503E-03
       279    3.184145E-02
       280   -8.048227E-06
       281    9.604116E-05
       282   -6.465436E-03
       283   -1.449404E-03
       284   -2.603380E-03
       285    9.527646E-04
       286   -4.158270E-04
       287   -2.230447E-03
       288    3.214243E-02
       289   -7.398050E-06
       290   -9.672769E-05
       291   -6.466590E-03
       292   -1.431319E-03
       293    2.657437E-03
       294    9.423520E-04
       295   -4.467421E-05
       296   -1.037150E-04
       297    9.242901E-05
       298    4.059344E-04
       299   -5.862797E-03
       300    1.311810E-03
       301    5.120618E-04
       302   -2.183832E-07
       303    2.624284E-02
       304    2.234658E-04
       305    1.046140E-06
       306    2.830750E-02
       307   -2.692931E-03
       308    3.084200E-05
       309    1.108395E-02
       310    2.528123E-05
       311   -1.142146E-05
       312   -1.385977E-05
       313    4.568395E-08
       314    4.376715E-03
       315    6.419640E-08
       316    2.169129E-05
       317    4.223128E-05
       318   -6.392258E-05
       319   -4.708375E-07
       320    1.327502E-02
       321    2.754457E-09
       322   -9.932829E-04
       323    2.651906E-03
       324   -1.658623E-03
       325    2.285132E-05
       326    3.351113E-03
       327    4.732019E-06
       328    6.659194E-06
       329    8.526361E-09
       330   -3.387386E-05
       331   -4.295564E-06
       332    1.134170E-08
       333    7.144843E-04
       334   -4.638683E-06
       335   -2.278101E-08
       336   -6.690377E-04
       337   -4.113420E-09
       338   -1.074564E-05
       339   -2.296115E-05
       340   -6.409980E-06
       341    4.721136E-04
       342   -5.412062E-03
       343   -8.667791E-04
       344   -3.316447E-04
       345    9.039934E-05
       346   -7.521108E-02
       347   -3.930272E-04
       348    2.109492E-04
       349   -6.984588E-02
       350   -1.469605E-03
       351    4.243877E-04
       352   -5.803078E-02
       353   -1.544883E-04
       354    2.061748E-04
       355   -7.316166E-03
       356    3.364253E-06
       357   -4.302373E-06
       358    9.381201E-07
       359    1.423912E-06
       360    5.505775E-05
       361    3.929684E-04
       362   -1.233351E-05
       363   -9.480664E-06
       364    2.181418E-05
       365    1.289562E-05
       366   -3.764367E-04
       367    1.351443E-03
       368   -7.828987E-05
       369    5.682362E-05
       370    2.146625E-05
       371    8.979533E-05
       372   -1.604951E-04
       373    1.609403E-04
       374    8.968957E-07
       375    1.348854E-06
       376    4.843583E-05
       377   -1.592460E-06
       378   -4.066648E-08
       379    8.361463E-05
       380    3.891486E-07
       381   -1.769012E-06
       382   -1.485981E-04
       383    1.144045E-04
       384   -1.063152E-05
       385   -2.272554E-05
       386   -6.233784E-06
       387    4.672478E-04
       388   -5.402671E-03
       389   -8.410456E-04
       390   -3.301132E-04
       391   -8.986856E-05
       392   -7.521327E-02
       393   -3.912740E-04
       394   -2.099432E-04
       395   -6.984874E-02
       396   -1.442940E-03
       397   -4.169885E-04
       398   -5.802395E-02
       399   -1.397387E-04
       400   -2.119706E-04
       401   -7.316675E-03
       402    3.357845E-06
       403   -4.306476E-06
       404    9.486307E-07
       405   -1.473328E-06
       406    5.502209E-05
       407   -3.929869E-04
       408   -1.218393E-05
       409   -9.311218E-06
       410    2.149514E-05
       411   -1.243354E-05
       412   -3.763998E-04
       413   -1.351529E-03
       414   -7.754817E-05
       415    5.806834E-05
       416    1.947983E-05
       417   -8.899187E-05
       418   -1.604444E-04
       419   -1.597415E-04
       420    8.956630E-07
       421   -1.339954E-06
       422    4.844316E-05
       423   -1.571750E-06
       424    3.820895E-08
       425    8.361274E-05
       426    3.700923E-07
       427    1.759528E-06
       428   -1.486061E-04
       429   -1.144149E-04
       430    4.320932E-03
       431    1.028054E-02
       432   -1.610194E-02
       433   -2.501140E-02
       434   -2.090626E-02
       435   -6.634386E-02
       436   -1.551588E-02
       437    6.952084E-06
       438    2.350169E-01
       439   -1.787238E-02
       440    4.808656E-07
       441    2.326135E-01
       442   -1.618516E-02
       443   -1.025921E-04
       444    1.933910E-01
       445   -9.249447E-05
       446    1.001814E-05
       447    8.247633E-05
       448    2.320555E-07
       449    9.882834E-04
       450    2.093012E-07
       451   -2.140353E-04
       452   -1.363133E-03
       453    1.577168E-03
       454   -3.545427E-06
       455    4.122117E-03
       456    1.381031E-06
       457   -1.885731E-03
       458   -2.639218E-03
       459    4.524949E-03
       460   -2.791222E-06
       461    2.349327E-03
       462    7.275321E-06
       463   -1.370822E-04
       464    2.792460E-08
       465   -8.969548E-04
       466   -7.277413E-05
       467   -5.340367E-09
       468    4.381765E-04
       469    2.566892E-04
       470   -3.212442E-08
       471    7.652145E-04
       472    1.337044E-09
       473    9.217067E-03
       474    1.711166E-02
       475    2.830944E-02
       476   -2.089481E-03
       477   -1.794952E-03
       478    1.202240E-02
       479    1.526321E-03
       480   -3.316209E-03
       481    1.460409E-02
       482    9.212153E-03
       483    1.704940E-02
       484    2.813225E-02
       485   -2.086455E-03
       486    1.788971E-03
       487    1.202547E-02
       488    1.543110E-03
       489    3.282478E-03
       490    1.461126E-02
 Sym= X
 Ene= 0.948182
 Spin= Alpha
 Occup= 0.948182
         1   -1.477698E-03
         2   -3.694706E-03
         3    2.219671E-02
         4   -7.561810E-02
         5   -5.718644E-01
         6   -1.958546E+00
         7    1.610557E-02
         8    7.903971E-03
         9   -3.232753E-03
        10   -4.040946E-02
        11    6.601380E-03
        12    7.374459E-06
        13   -1.774252E-01
        14   -2.221544E+00
        15   -1.557007E-01
        16    1.717163E-04
        17    1.139571E-04
        18   -2.856734E-04
        19    8.999724E-04
        20   -1.156574E-05
        21   -9.946883E-05
        22   -1.636288E-02
        23    6.981235E-03
        24    9.381648E-03
        25   -8.994855E-03
        26   -2.425149E-04
        27   -1.231621E-04
        28   -8.046600E-01
        29    7.057760E-01
        30    9.888399E-02
        31    6.565713E-02
        32   -1.362984E-02
        33   -2.516810E-02
        34   -3.594020E-04
        35    2.764628E-04
        36   -3.674542E-05
        37    3.854204E-04
        38   -6.035776E-06
        39    4.338057E-05
        40    9.676792E-05
        41   -3.648780E-04
        42    5.918583E-06
        43   -1.959920E-05
        44    5.261236E-03
        45    1.117158E-02
        46    7.872146E-03
        47   -3.171986E-01
        48    2.690089E+00
        49    7.576101E+00
        50    2.558518E-02
        51    1.602002E-05
        52    6.814559E-04
        53    4.345569E-02
        54   -1.921690E-04
        55   -2.860837E-03
        56   -2.459647E-01
        57   -1.905985E-02
        58    1.269495E-01
        59   -1.788035E-04
        60   -5.151461E-04
        61    6.939495E-04
        62    2.092807E-07