[Molden Format]
[Title]
ADC(2) - opt by CAM-B3LYP gaussian                                              
[Atoms] AU
 c     1    6 -.12589065566052E+01 -.22830902054421E+01 -.26005390588660E-01
 c     2    6 -.25569912224779E+01 0.86573078000000E-06 -.24733756079320E-01
 c     3    6 -.12589060841737E+01 0.22830907841707E+01 -.26008073999770E-01
 c     4    6 0.13324295737882E+01 0.22846183820847E+01 -.28114684000920E-01
 c     5    6 0.26867573459717E+01 0.39329925000000E-06 -.27723246129760E-01
 c     6    6 0.13324281942881E+01 -.22846180679178E+01 -.28111244699360E-01
 h     7    1 -.22982509786098E+01 -.40377481062879E+01 -.23319125993500E-01
 h     8    1 -.22982490510892E+01 0.40377494409070E+01 -.23324322740370E-01
 h     9    1 0.23514918675648E+01 0.40568894753521E+01 -.30529017005560E-01
 h    10    1 0.23514910360853E+01 -.40568888210345E+01 -.30521911635300E-01
 n    11    7 -.52742123095903E+01 0.14763485000000E-06 -.18925267070140E-01
 o    12    8 -.63809534361791E+01 0.20269762391752E+01 -.16457057973460E-01
 o    13    8 -.63809510362269E+01 -.20269772478165E+01 -.16464881439650E-01
 n    14    7 0.52454603626942E+01 -.57046108000000E-06 -.73989411041200E-01
 h    15    1 0.62036818842731E+01 0.16164996606794E+01 0.19711589672944E+00
 h    16    1 0.62036804102867E+01 -.16165023700742E+01 0.19711149366755E+00
[GTO]
    1 0
 s    6 1.00
 0.13575349682000E+05 0.60645503603591E-03
 0.20352333680000E+04 0.46979088884982E-02
 0.46322562359000E+03 0.24332477647552E-01
 0.13120019598000E+03 0.97399968307759E-01
 0.42853015891000E+02 0.30195584253780E+00
 0.15584185766000E+02 0.66233609137875E+00
 s    2 1.00
 0.62067138508000E+01 0.65595308539952E+00
 0.25764896527000E+01 0.37585633285142E+00
 s    1 1.00
 0.57696339419000E+00 0.10000000000000E+01
 s    1 1.00
 0.22972831358000E+00 0.10000000000000E+01
 s    1 1.00
 0.95164440028000E-01 0.10000000000000E+01
 s    1 1.00
 0.48475401370000E-01 0.10000000000000E+01
 p    4 1.00
 0.34697232244000E+02 0.11327220003114E-01
 0.79582622826000E+01 0.76169659202087E-01
 0.23780826883000E+01 0.30192252202676E+00
 0.81433208183000E+00 0.72785027349547E+00
 p    1 1.00
 0.28887547253000E+00 0.10000000000000E+01
 p    1 1.00
 0.10056823671000E+00 0.10000000000000E+01
 d    1 1.00
 0.10970000000000E+01 0.10000000000000E+01
 d    1 1.00
 0.31800000000000E+00 0.10000000000000E+01
 d    1 1.00
 0.90985336424000E-01 0.10000000000000E+01
 f    1 1.00
 0.76100000000000E+00 0.10000000000000E+01
 
    2 0
 s    6 1.00
 0.13575349682000E+05 0.60645503603591E-03
 0.20352333680000E+04 0.46979088884982E-02
 0.46322562359000E+03 0.24332477647552E-01
 0.13120019598000E+03 0.97399968307759E-01
 0.42853015891000E+02 0.30195584253780E+00
 0.15584185766000E+02 0.66233609137875E+00
 s    2 1.00
 0.62067138508000E+01 0.65595308539952E+00
 0.25764896527000E+01 0.37585633285142E+00
 s    1 1.00
 0.57696339419000E+00 0.10000000000000E+01
 s    1 1.00
 0.22972831358000E+00 0.10000000000000E+01
 s    1 1.00
 0.95164440028000E-01 0.10000000000000E+01
 s    1 1.00
 0.48475401370000E-01 0.10000000000000E+01
 p    4 1.00
 0.34697232244000E+02 0.11327220003114E-01
 0.79582622826000E+01 0.76169659202087E-01
 0.23780826883000E+01 0.30192252202676E+00
 0.81433208183000E+00 0.72785027349547E+00
 p    1 1.00
 0.28887547253000E+00 0.10000000000000E+01
 p    1 1.00
 0.10056823671000E+00 0.10000000000000E+01
 d    1 1.00
 0.10970000000000E+01 0.10000000000000E+01
 d    1 1.00
 0.31800000000000E+00 0.10000000000000E+01
 d    1 1.00
 0.90985336424000E-01 0.10000000000000E+01
 f    1 1.00
 0.76100000000000E+00 0.10000000000000E+01
 
    3 0
 s    6 1.00
 0.13575349682000E+05 0.60645503603591E-03
 0.20352333680000E+04 0.46979088884982E-02
 0.46322562359000E+03 0.24332477647552E-01
 0.13120019598000E+03 0.97399968307759E-01
 0.42853015891000E+02 0.30195584253780E+00
 0.15584185766000E+02 0.66233609137875E+00
 s    2 1.00
 0.62067138508000E+01 0.65595308539952E+00
 0.25764896527000E+01 0.37585633285142E+00
 s    1 1.00
 0.57696339419000E+00 0.10000000000000E+01
 s    1 1.00
 0.22972831358000E+00 0.10000000000000E+01
 s    1 1.00
 0.95164440028000E-01 0.10000000000000E+01
 s    1 1.00
 0.48475401370000E-01 0.10000000000000E+01
 p    4 1.00
 0.34697232244000E+02 0.11327220003114E-01
 0.79582622826000E+01 0.76169659202087E-01
 0.23780826883000E+01 0.30192252202676E+00
 0.81433208183000E+00 0.72785027349547E+00
 p    1 1.00
 0.28887547253000E+00 0.10000000000000E+01
 p    1 1.00
 0.10056823671000E+00 0.10000000000000E+01
 d    1 1.00
 0.10970000000000E+01 0.10000000000000E+01
 d    1 1.00
 0.31800000000000E+00 0.10000000000000E+01
 d    1 1.00
 0.90985336424000E-01 0.10000000000000E+01
 f    1 1.00
 0.76100000000000E+00 0.10000000000000E+01
 
    4 0
 s    6 1.00
 0.13575349682000E+05 0.60645503603591E-03
 0.20352333680000E+04 0.46979088884982E-02
 0.46322562359000E+03 0.24332477647552E-01
 0.13120019598000E+03 0.97399968307759E-01
 0.42853015891000E+02 0.30195584253780E+00
 0.15584185766000E+02 0.66233609137875E+00
 s    2 1.00
 0.62067138508000E+01 0.65595308539952E+00
 0.25764896527000E+01 0.37585633285142E+00
 s    1 1.00
 0.57696339419000E+00 0.10000000000000E+01
 s    1 1.00
 0.22972831358000E+00 0.10000000000000E+01
 s    1 1.00
 0.95164440028000E-01 0.10000000000000E+01
 s    1 1.00
 0.48475401370000E-01 0.10000000000000E+01
 p    4 1.00
 0.34697232244000E+02 0.11327220003114E-01
 0.79582622826000E+01 0.76169659202087E-01
 0.23780826883000E+01 0.30192252202676E+00
 0.81433208183000E+00 0.72785027349547E+00
 p    1 1.00
 0.28887547253000E+00 0.10000000000000E+01
 p    1 1.00
 0.10056823671000E+00 0.10000000000000E+01
 d    1 1.00
 0.10970000000000E+01 0.10000000000000E+01
 d    1 1.00
 0.31800000000000E+00 0.10000000000000E+01
 d    1 1.00
 0.90985336424000E-01 0.10000000000000E+01
 f    1 1.00
 0.76100000000000E+00 0.10000000000000E+01
 
    5 0
 s    6 1.00
 0.13575349682000E+05 0.60645503603591E-03
 0.20352333680000E+04 0.46979088884982E-02
 0.46322562359000E+03 0.24332477647552E-01
 0.13120019598000E+03 0.97399968307759E-01
 0.42853015891000E+02 0.30195584253780E+00
 0.15584185766000E+02 0.66233609137875E+00
 s    2 1.00
 0.62067138508000E+01 0.65595308539952E+00
 0.25764896527000E+01 0.37585633285142E+00
 s    1 1.00
 0.57696339419000E+00 0.10000000000000E+01
 s    1 1.00
 0.22972831358000E+00 0.10000000000000E+01
 s    1 1.00
 0.95164440028000E-01 0.10000000000000E+01
 s    1 1.00
 0.48475401370000E-01 0.10000000000000E+01
 p    4 1.00
 0.34697232244000E+02 0.11327220003114E-01
 0.79582622826000E+01 0.76169659202087E-01
 0.23780826883000E+01 0.30192252202676E+00
 0.81433208183000E+00 0.72785027349547E+00
 p    1 1.00
 0.28887547253000E+00 0.10000000000000E+01
 p    1 1.00
 0.10056823671000E+00 0.10000000000000E+01
 d    1 1.00
 0.10970000000000E+01 0.10000000000000E+01
 d    1 1.00
 0.31800000000000E+00 0.10000000000000E+01
 d    1 1.00
 0.90985336424000E-01 0.10000000000000E+01
 f    1 1.00
 0.76100000000000E+00 0.10000000000000E+01
 
    6 0
 s    6 1.00
 0.13575349682000E+05 0.60645503603591E-03
 0.20352333680000E+04 0.46979088884982E-02
 0.46322562359000E+03 0.24332477647552E-01
 0.13120019598000E+03 0.97399968307759E-01
 0.42853015891000E+02 0.30195584253780E+00
 0.15584185766000E+02 0.66233609137875E+00
 s    2 1.00
 0.62067138508000E+01 0.65595308539952E+00
 0.25764896527000E+01 0.37585633285142E+00
 s    1 1.00
 0.57696339419000E+00 0.10000000000000E+01
 s    1 1.00
 0.22972831358000E+00 0.10000000000000E+01
 s    1 1.00
 0.95164440028000E-01 0.10000000000000E+01
 s    1 1.00
 0.48475401370000E-01 0.10000000000000E+01
 p    4 1.00
 0.34697232244000E+02 0.11327220003114E-01
 0.79582622826000E+01 0.76169659202087E-01
 0.23780826883000E+01 0.30192252202676E+00
 0.81433208183000E+00 0.72785027349547E+00
 p    1 1.00
 0.28887547253000E+00 0.10000000000000E+01
 p    1 1.00
 0.10056823671000E+00 0.10000000000000E+01
 d    1 1.00
 0.10970000000000E+01 0.10000000000000E+01
 d    1 1.00
 0.31800000000000E+00 0.10000000000000E+01
 d    1 1.00
 0.90985336424000E-01 0.10000000000000E+01
 f    1 1.00
 0.76100000000000E+00 0.10000000000000E+01
 
    7 0
 s    3 1.00
 0.34061341000000E+02 0.25439307208879E-01
 0.51235746000000E+01 0.19008594890375E+00
 0.11646626000000E+01 0.85244113011042E+00
 s    1 1.00
 0.32723041000000E+00 0.10000000000000E+01
 s    1 1.00
 0.10307241000000E+00 0.10000000000000E+01
 p    1 1.00
 0.80000000000000E+00 0.10000000000000E+01
 p    1 1.00
 0.95774129632000E-01 0.10000000000000E+01
 
    8 0
 s    3 1.00
 0.34061341000000E+02 0.25439307208879E-01
 0.51235746000000E+01 0.19008594890375E+00
 0.11646626000000E+01 0.85244113011042E+00
 s    1 1.00
 0.32723041000000E+00 0.10000000000000E+01
 s    1 1.00
 0.10307241000000E+00 0.10000000000000E+01
 p    1 1.00
 0.80000000000000E+00 0.10000000000000E+01
 p    1 1.00
 0.95774129632000E-01 0.10000000000000E+01
 
    9 0
 s    3 1.00
 0.34061341000000E+02 0.25439307208879E-01
 0.51235746000000E+01 0.19008594890375E+00
 0.11646626000000E+01 0.85244113011042E+00
 s    1 1.00
 0.32723041000000E+00 0.10000000000000E+01
 s    1 1.00
 0.10307241000000E+00 0.10000000000000E+01
 p    1 1.00
 0.80000000000000E+00 0.10000000000000E+01
 p    1 1.00
 0.95774129632000E-01 0.10000000000000E+01
 
   10 0
 s    3 1.00
 0.34061341000000E+02 0.25439307208879E-01
 0.51235746000000E+01 0.19008594890375E+00
 0.11646626000000E+01 0.85244113011042E+00
 s    1 1.00
 0.32723041000000E+00 0.10000000000000E+01
 s    1 1.00
 0.10307241000000E+00 0.10000000000000E+01
 p    1 1.00
 0.80000000000000E+00 0.10000000000000E+01
 p    1 1.00
 0.95774129632000E-01 0.10000000000000E+01
 
   11 0
 s    6 1.00
 0.19730800647000E+05 0.58626402628763E-03
 0.29578958745000E+04 0.45428820586397E-02
 0.67322133595000E+03 0.23558413450084E-01
 0.19068249494000E+03 0.94709193292923E-01
 0.62295441898000E+02 0.29719784913376E+00
 0.22654161182000E+02 0.66916246895232E+00
 s    2 1.00
 0.89791477428000E+01 0.64596683630063E+00
 0.36863002370000E+01 0.38700574393705E+00
 s    1 1.00
 0.84660076805000E+00 0.10000000000000E+01
 s    1 1.00
 0.33647133771000E+00 0.10000000000000E+01
 s    1 1.00
 0.13647653675000E+00 0.10000000000000E+01
 s    1 1.00
 0.68441605847000E-01 0.10000000000000E+01
 p    4 1.00
 0.49200380510000E+02 0.11448825101764E-01
 0.11346790537000E+02 0.78422337970864E-01
 0.34273972411000E+01 0.30818094738830E+00
 0.11785525134000E+01 0.72027196368413E+00
 p    1 1.00
 0.41642204972000E+00 0.10000000000000E+01
 p    1 1.00
 0.14260826011000E+00 0.10000000000000E+01
 d    1 1.00
 0.16540000000000E+01 0.10000000000000E+01
 d    1 1.00
 0.46900000000000E+00 0.10000000000000E+01
 d    1 1.00
 0.12829642058000E+00 0.10000000000000E+01
 f    1 1.00
 0.10930000000000E+01 0.10000000000000E+01
 
   12 0
 s    6 1.00
 0.27032382631000E+05 0.57227335211155E-03
 0.40523871392000E+04 0.44353233492995E-02
 0.92232722710000E+03 0.23020107706038E-01
 0.26124070989000E+03 0.92822490667928E-01
 0.85354641351000E+02 0.29378500009671E+00
 0.31035035245000E+02 0.67401604501641E+00
 s    2 1.00
 0.12260860728000E+02 0.63839937025506E+00
 0.49987076005000E+01 0.39534587125718E+00
 s    1 1.00
 0.11703108158000E+01 0.10000000000000E+01
 s    1 1.00
 0.46474740994000E+00 0.10000000000000E+01
 s    1 1.00
 0.18504536357000E+00 0.10000000000000E+01
 s    1 1.00
 0.70288026270000E-01 0.10000000000000E+01
 p    4 1.00
 0.63274954801000E+02 0.12018332222616E-01
 0.14627049379000E+02 0.83005421790056E-01
 0.44501223456000E+01 0.31991743925964E+00
 0.15275799647000E+01 0.70715542916104E+00
 p    1 1.00
 0.52935117943000E+00 0.10000000000000E+01
 p    1 1.00
 0.17478421270000E+00 0.10000000000000E+01
 p    1 1.00
 0.51112745706000E-01 0.10000000000000E+01
 d    1 1.00
 0.23140000000000E+01 0.10000000000000E+01
 d    1 1.00
 0.64500000000000E+00 0.10000000000000E+01
 d    1 1.00
 0.14696477366000E+00 0.10000000000000E+01
 f    1 1.00
 0.14280000000000E+01 0.10000000000000E+01
 
   13 0
 s    6 1.00
 0.27032382631000E+05 0.57227335211155E-03
 0.40523871392000E+04 0.44353233492995E-02
 0.92232722710000E+03 0.23020107706038E-01
 0.26124070989000E+03 0.92822490667928E-01
 0.85354641351000E+02 0.29378500009671E+00
 0.31035035245000E+02 0.67401604501641E+00
 s    2 1.00
 0.12260860728000E+02 0.63839937025506E+00
 0.49987076005000E+01 0.39534587125718E+00
 s    1 1.00
 0.11703108158000E+01 0.10000000000000E+01
 s    1 1.00
 0.46474740994000E+00 0.10000000000000E+01
 s    1 1.00
 0.18504536357000E+00 0.10000000000000E+01
 s    1 1.00
 0.70288026270000E-01 0.10000000000000E+01
 p    4 1.00
 0.63274954801000E+02 0.12018332222616E-01
 0.14627049379000E+02 0.83005421790056E-01
 0.44501223456000E+01 0.31991743925964E+00
 0.15275799647000E+01 0.70715542916104E+00
 p    1 1.00
 0.52935117943000E+00 0.10000000000000E+01
 p    1 1.00
 0.17478421270000E+00 0.10000000000000E+01
 p    1 1.00
 0.51112745706000E-01 0.10000000000000E+01
 d    1 1.00
 0.23140000000000E+01 0.10000000000000E+01
 d    1 1.00
 0.64500000000000E+00 0.10000000000000E+01
 d    1 1.00
 0.14696477366000E+00 0.10000000000000E+01
 f    1 1.00
 0.14280000000000E+01 0.10000000000000E+01
 
   14 0
 s    6 1.00
 0.19730800647000E+05 0.58626402628763E-03
 0.29578958745000E+04 0.45428820586397E-02
 0.67322133595000E+03 0.23558413450084E-01
 0.19068249494000E+03 0.94709193292923E-01
 0.62295441898000E+02 0.29719784913376E+00
 0.22654161182000E+02 0.66916246895232E+00
 s    2 1.00
 0.89791477428000E+01 0.64596683630063E+00
 0.36863002370000E+01 0.38700574393705E+00
 s    1 1.00
 0.84660076805000E+00 0.10000000000000E+01
 s    1 1.00
 0.33647133771000E+00 0.10000000000000E+01
 s    1 1.00
 0.13647653675000E+00 0.10000000000000E+01
 s    1 1.00
 0.68441605847000E-01 0.10000000000000E+01
 p    4 1.00
 0.49200380510000E+02 0.11448825101764E-01
 0.11346790537000E+02 0.78422337970864E-01
 0.34273972411000E+01 0.30818094738830E+00
 0.11785525134000E+01 0.72027196368413E+00
 p    1 1.00
 0.41642204972000E+00 0.10000000000000E+01
 p    1 1.00
 0.14260826011000E+00 0.10000000000000E+01
 d    1 1.00
 0.16540000000000E+01 0.10000000000000E+01
 d    1 1.00
 0.46900000000000E+00 0.10000000000000E+01
 d    1 1.00
 0.12829642058000E+00 0.10000000000000E+01
 f    1 1.00
 0.10930000000000E+01 0.10000000000000E+01
 
   15 0
 s    3 1.00
 0.34061341000000E+02 0.25439307208879E-01
 0.51235746000000E+01 0.19008594890375E+00
 0.11646626000000E+01 0.85244113011042E+00
 s    1 1.00
 0.32723041000000E+00 0.10000000000000E+01
 s    1 1.00
 0.10307241000000E+00 0.10000000000000E+01
 p    1 1.00
 0.80000000000000E+00 0.10000000000000E+01
 p    1 1.00
 0.95774129632000E-01 0.10000000000000E+01
 
   16 0
 s    3 1.00
 0.34061341000000E+02 0.25439307208879E-01
 0.51235746000000E+01 0.19008594890375E+00
 0.11646626000000E+01 0.85244113011042E+00
 s    1 1.00
 0.32723041000000E+00 0.10000000000000E+01
 s    1 1.00
 0.10307241000000E+00 0.10000000000000E+01
 p    1 1.00
 0.80000000000000E+00 0.10000000000000E+01
 p    1 1.00
 0.95774129632000E-01 0.10000000000000E+01
 
[MO]
 Sym= X
 Ene= -0.052724
 Spin= Alpha
 Occup= -0.052724
         1   -2.834199E-04
         2   -6.558198E-04
         3    1.657548E-03
         4   -2.801645E-03
         5   -7.041060E-03
         6   -1.369558E-02
         7    3.474743E-03
         8    2.881952E-04
         9   -2.614854E-02
        10   -1.836808E-03
        11    5.782303E-04
        12   -2.713366E-02
        13   -3.934124E-02
        14    9.828610E-03
        15   -1.420168E-02
        16    5.910513E-05
        17   -6.650337E-05
        18    7.398241E-06
        19   -3.202617E-05
        20   -5.693836E-03
        21    2.016330E-03
        22   -7.218167E-04
        23    4.295936E-04
        24    2.922230E-04
        25   -9.089622E-04
        26   -1.264129E-02
        27    4.144631E-03
        28   -5.348945E-03
        29    4.984181E-03
        30    3.647642E-04
        31    1.543804E-03
        32    3.957082E-03
        33   -1.113983E-02
        34   -1.900626E-05
        35    9.041760E-06
        36    3.126825E-04
        37    7.601097E-06
        38   -8.697533E-06
        39   -8.741411E-04
        40    1.789847E-05
        41   -3.433262E-06
        42    4.546335E-04
        43   -4.710719E-04
        44    5.157468E-05
        45    1.131905E-04
        46    1.504964E-04
        47   -3.905354E-03
        48   -5.046435E-02
        49    8.190013E-03
        50   -4.586633E-04
        51    2.514736E-06
        52    1.150609E-01
        53   -1.338179E-03
        54    1.338141E-05
        55    1.214269E-01
        56   -1.774162E-02
        57   -8.260611E-04
        58    1.616728E-01
        59    1.117054E-04
        60   -1.089493E-04
        61   -2.756153E-06
        62    1.217759E-07
        63   -1.759166E-03
        64    2.781667E-07
        65    5.583700E-04
        66   -8.694543E-04
        67    3.110843E-04
        68    3.156845E-06
        69   -4.826725E-03
        70    3.576729E-07
        71    1.187705E-02
        72   -1.304354E-02
        73    1.166497E-03
        74   -1.135977E-04
        75    1.870513E-03
        76   -1.778974E-05
        77    2.963584E-06
        78   -1.038628E-08
        79   -4.851944E-04
        80   -7.264272E-06
        81    5.719005E-08
        82    3.559870E-04
        83    3.288207E-06
        84   -4.325539E-08
        85    2.949697E-04
        86    5.668333E-08
        87   -2.831792E-04
        88   -6.552599E-04
        89    1.657126E-03
        90   -2.820905E-03
        91   -4.928537E-03
        92   -1.368531E-02
        93    3.477415E-03
        94   -2.941045E-04
        95   -2.613385E-02
        96   -1.803277E-03
        97   -5.814508E-04
        98   -2.712380E-02
        99   -3.957452E-02
       100   -1.062319E-02
       101   -1.418464E-02
       102    5.913632E-05
       103   -6.654862E-05
       104    7.412303E-06
       105    3.251369E-05
       106   -5.693500E-03
       107   -2.016422E-03
       108   -7.139134E-04
       109    4.220074E-04
       110    2.919059E-04
       111    9.076591E-04
       112   -1.264202E-02
       113   -4.144137E-03
       114   -5.439032E-03
       115    5.087207E-03
       116    3.518254E-04
       117   -1.437078E-03
       118    3.938289E-03
       119    1.112398E-02
       120   -1.898549E-05
       121   -9.027219E-06
       122    3.127242E-04
       123    7.748253E-06
       124    8.605375E-06
       125   -8.742238E-04
       126    1.772345E-05
       127    3.505910E-06
       128    4.546602E-04
       129    4.710387E-04
       130    1.987305E-04
       131    4.350412E-04
       132    5.239300E-04
       133   -1.297373E-02
       134    2.684896E-02
       135    1.558739E-02
       136   -3.208456E-03
       137    1.167257E-03
       138   -1.618441E-01
       139   -1.231946E-02
       140    7.762849E-03
       141   -1.643023E-01
       142   -2.598852E-02
       143   -1.055447E-02
       144   -9.368150E-02
       145    2.509335E-04
       146   -2.934556E-04
       147    4.252208E-05
       148   -2.394407E-06
       149    5.861753E-04
       150    2.696657E-03
       151    7.906377E-04
       152   -9.752518E-04
       153    1.846141E-04
       154    2.089223E-03
       155   -1.428491E-03
       156    4.336856E-03
       157    9.898364E-03
       158   -7.877950E-03
       159   -2.020415E-03
       160   -1.057554E-02
       161    4.315475E-03
       162   -1.514233E-02
       163   -2.008152E-05
       164    1.604636E-05
       165    9.642119E-04
       166   -2.735278E-05
       167    1.606397E-05
       168   -4.189623E-04
       169    5.429496E-05
       170   -3.759242E-05
       171   -8.746637E-04
       172    2.073241E-04
       173   -1.399206E-03
       174   -3.187562E-03
       175    3.438328E-03
       176    2.489770E-02
       177   -3.191697E-02
       178    8.524589E-03
       179    1.344424E-02
       180   -3.254953E-06
       181   -8.460019E-02
       182    1.749648E-03
       183   -1.493805E-05
       184   -8.790615E-02
       185   -3.575047E-02
       186    9.033145E-04
       187   -1.305394E-01
       188    7.071239E-04
       189   -4.390963E-04
       190   -2.680276E-04
       191    4.028800E-07
       192    1.145709E-02
       193    4.757405E-07
       194   -2.259148E-03
       195    4.901082E-03
       196   -2.641934E-03
       197    1.702905E-06
       198    2.753537E-02
       199   -1.040684E-06
       200   -7.604995E-03
       201    8.788579E-03
       202   -1.183584E-03
       203   -1.310004E-04
       204    1.944822E-02
       205    1.224938E-05
       206    1.507003E-04
       207   -1.375296E-08
       208    1.004620E-04
       209   -1.005160E-04
       210   -3.338735E-08
       211    1.356858E-03
       212   -1.016697E-04
       213    5.183888E-08
       214   -1.491642E-03
       215   -2.232098E-09
       216    1.991051E-04
       217    4.356318E-04
       218    5.249105E-04
       219   -1.299364E-02
       220    2.900079E-02
       221    1.558696E-02
       222   -3.207141E-03
       223   -1.156673E-03
       224   -1.618580E-01
       225   -1.234218E-02
       226   -7.767960E-03
       227   -1.643204E-01
       228   -2.570893E-02
       229    1.151818E-02
       230   -9.367545E-02
       231    2.509592E-04
       232   -2.938339E-04
       233    4.287471E-05
       234    2.984081E-06
       235    5.862845E-04
       236   -2.696735E-03
       237    7.959827E-04
       238   -9.785859E-04
       239    1.826032E-04
       240   -2.093361E-03
       241   -1.424864E-03
       242   -4.336385E-03
       243    9.819026E-03
       244   -7.794142E-03
       245   -2.024884E-03
       246    1.068062E-02
       247    4.346657E-03
       248    1.515547E-02
       249   -2.023329E-05
       250   -1.608186E-05
       251    9.644363E-04
       252   -2.733176E-05
       253   -1.602701E-05
       254   -4.192734E-04
       255    5.447757E-05
       256    3.760310E-05
       257   -8.746536E-04
       258   -2.073436E-04
       259   -8.420317E-04
       260   -9.018628E-04
       261   -2.169692E-02
       262   -1.566719E-05
       263   -6.520987E-05
       264   -8.496854E-04
       265   -6.241489E-03
       266   -7.004277E-04
       267   -6.668129E-03
       268   -8.465223E-04
       269   -8.965970E-04
       270   -2.160369E-02
       271   -1.483373E-05
       272    6.430769E-05
       273   -8.492302E-04
       274   -6.319197E-03
       275    6.686223E-04
       276   -6.664897E-03
       277   -9.204220E-04
       278   -3.491479E-03
       279    4.232964E-02
       280   -2.206594E-05
       281    1.878872E-04
       282   -6.342110E-03
       283   -3.161849E-03
       284   -3.234830E-03
       285    4.532377E-03
       286   -9.256316E-04
       287   -3.501408E-03
       288    4.264616E-02
       289   -2.107505E-05
       290   -1.883632E-04
       291   -6.343392E-03
       292   -3.149840E-03
       293    3.294669E-03
       294    4.526233E-03
       295   -1.136399E-04
       296   -2.668868E-04
       297    3.100669E-04
       298    9.708420E-04
       299   -8.624915E-03
       300   -8.481301E-04
       301    1.476748E-03
       302   -9.788323E-07
       303    3.127418E-02
       304    1.019649E-03
       305   -9.420979E-07
       306    3.293318E-02
       307   -3.661207E-03
       308    4.614178E-05
       309    7.700239E-03
       310    5.119070E-05
       311   -5.033279E-05
       312   -8.579031E-07
       313    2.362170E-07
       314    2.599657E-03
       315    2.108474E-07
       316    8.042375E-05
       317   -3.804124E-05
       318   -4.238251E-05
       319    2.811144E-07
       320    8.148831E-03
       321    4.931050E-07
       322   -1.049287E-03
       323    3.293627E-03
       324   -2.244340E-03
       325    2.877354E-05
       326    1.039118E-03
       327    3.191179E-06
       328    7.464638E-06
       329    4.694855E-08
       330   -7.601490E-05
       331   -3.424941E-06
       332   -5.479110E-08
       333    4.552285E-04
       334   -6.589922E-06
       335   -8.196997E-09
       336   -3.532438E-04
       337   -2.732775E-08
       338   -2.707433E-05
       339   -6.184101E-05
       340    4.418132E-05
       341    7.391654E-04
       342   -7.006227E-03
       343   -9.635551E-04
       344   -1.016969E-03
       345    1.860186E-04
       346   -4.267157E-02
       347   -1.033437E-03
       348    3.133481E-04
       349   -3.984975E-02
       350   -2.141041E-03
       351    6.478960E-04
       352   -3.614434E-02
       353   -2.831397E-04
       354    1.788660E-04
       355   -5.290718E-03
       356    5.650471E-06
       357   -1.042230E-05
       358    4.771828E-06
       359    6.410539E-06
       360    1.371733E-04
       361    6.858692E-05
       362   -1.487321E-05
       363   -2.317226E-05
       364    3.804547E-05
       365    2.255708E-05
       366    5.300616E-05
       367    3.447478E-04
       368   -8.585362E-05
       369    4.014294E-05
       370    4.571069E-05
       371    8.167031E-05
       372    4.419115E-04
       373    5.264267E-07
       374    1.809143E-06
       375    2.455718E-06
       376   -1.153095E-06
       377   -3.689510E-06
       378   -7.337325E-08
       379    5.157306E-05
       380    1.262291E-06
       381   -3.221318E-06
       382   -5.002602E-05
       383    2.926742E-05
       384   -2.699686E-05
       385   -6.168514E-05
       386    4.435349E-05
       387    7.350218E-04
       388   -7.000125E-03
       389   -9.451486E-04
       390   -1.025157E-03
       391   -1.767869E-04
       392   -4.268201E-02
       393   -1.040818E-03
       394   -3.054651E-04
       395   -3.985980E-02
       396   -2.117176E-03
       397   -6.354777E-04
       398   -3.614668E-02
       399   -2.720610E-04
       400   -1.827697E-04
       401   -5.292813E-03
       402    5.548446E-06
       403   -1.030078E-05
       404    4.752337E-06
       405   -6.445832E-06
       406    1.371033E-04
       407   -6.867552E-05
       408   -1.486402E-05
       409   -2.295390E-05
       410    3.781793E-05
       411   -2.225914E-05
       412    5.284811E-05
       413   -3.450377E-04
       414   -8.622576E-05
       415    4.235216E-05
       416    4.387360E-05
       417   -7.944958E-05
       418    4.417732E-04
       419   -2.159070E-07
       420    1.796486E-06
       421   -2.422375E-06
       422   -1.133433E-06
       423   -3.664594E-06
       424    4.052638E-08
       425    5.157292E-05
       426    1.254355E-06
       427    3.209431E-06
       428   -5.005226E-05
       429   -2.929895E-05
       430    5.664507E-03
       431    1.346675E-02
       432   -2.103709E-02
       433   -3.292005E-02
       434   -2.145357E-02
       435   -7.374056E-02
       436   -2.264863E-02
       437    1.040171E-05
       438    3.091749E-01
       439   -2.571632E-02
       440    2.241454E-06
       441    3.044242E-01
       442   -2.641424E-02
       443   -1.214107E-04
       444    2.405786E-01
       445   -1.024780E-04
       446   -6.302412E-05
       447    1.655021E-04
       448    3.517940E-07
       449    2.314259E-04
       450    3.091103E-07
       451   -1.313094E-04
       452   -2.068601E-03
       453    2.199910E-03
       454   -4.378408E-06
       455    2.422946E-03
       456    1.731378E-06
       457   -1.265936E-03
       458   -4.606616E-03
       459    5.872552E-03
       460   -4.357288E-06
       461    2.062324E-03
       462    8.974760E-06
       463   -1.656474E-04
       464    5.139446E-08
       465   -1.314046E-03
       466   -1.092557E-04
       467   -8.829856E-09
       468    8.146571E-04
       469    3.314951E-04
       470   -6.012304E-08
       471    9.483207E-04
       472    6.835347E-09
       473    1.070383E-02
       474    2.100934E-02
       475    3.572189E-02
       476   -2.848892E-03
       477   -2.297460E-03
       478    1.536583E-02
       479    3.418025E-04
       480   -3.941749E-03
       481    1.549973E-02
       482    1.069604E-02
       483    2.092906E-02
       484    3.551306E-02
       485   -2.844785E-03
       486    2.289852E-03
       487    1.536960E-02
       488    3.600341E-04
       489    3.900451E-03
       490    1.551221E-02
 Sym= X
 Ene= -0.891637
 Spin= Alpha
 Occup= -0.891637
         1   -1.104645E-05
         2   -2.524563E-05
         3    6.090449E-05
         4   -6.558608E-05
         5   -2.331786E-03
         6   -3.242936E-04
         7   -7.596330E-05
         8   -9.923996E-05
         9   -7.370387E-02
        10   -1.775410E-04
        11   -6.900366E-05
        12   -7.386634E-02
        13    4.828730E-04
        14   -1.504052E-03
        15   -5.205251E-02
        16   -3.481221E-06
        17    1.891896E-06
        18    1.589325E-06
        19    2.314913E-06
        20   -1.707325E-03
        21   -2.553766E-04
        22   -2.496479E-05
        23    1.452318E-05
        24    1.044161E-05
        25    1.138430E-05
        26   -2.109420E-03
        27   -1.819991E-04
        28   -5.183355E-05
        29    4.383627E-05
        30    7.997283E-06
        31    6.311261E-05
        32    2.070176E-03
        33   -3.077254E-03
        34   -1.915860E-06
        35   -3.097638E-07
        36    5.217507E-04
        37    4.338840E-07
        38   -9.741189E-08
        39   -6.112152E-04
        40    2.136512E-06
        41    5.130037E-07
        42   -8.878685E-05
        43    5.558806E-05
        44    5.779848E-07
        45    1.339833E-06
        46   -4.228078E-06
        47   -4.022230E-06
        48    9.380151E-04
        49    1.108758E-04
        50    6.280874E-06
        51    6.022008E-05
        52    9.506538E-06
        53    6.515813E-06
        54    4.786428E-05
        55    1.162116E-05
        56    3.685875E-04
        57   -1.882752E-03
        58    1.006352E-05
        59   -2.836998E-07
        60    2.189551E-07
        61    6.474464E-08
        62    6.165459E-06