[Molden Format]
[Title]
ADC(2) - opt by CAM-B3LYP gaussian                                              
[Atoms] AU
 c     1    6 -.12589065566052E+01 -.22830902054421E+01 -.26005390588660E-01
 c     2    6 -.25569912224779E+01 0.86573078000000E-06 -.24733756079320E-01
 c     3    6 -.12589060841737E+01 0.22830907841707E+01 -.26008073999770E-01
 c     4    6 0.13324295737882E+01 0.22846183820847E+01 -.28114684000920E-01
 c     5    6 0.26867573459717E+01 0.39329925000000E-06 -.27723246129760E-01
 c     6    6 0.13324281942881E+01 -.22846180679178E+01 -.28111244699360E-01
 h     7    1 -.22982509786098E+01 -.40377481062879E+01 -.23319125993500E-01
 h     8    1 -.22982490510892E+01 0.40377494409070E+01 -.23324322740370E-01
 h     9    1 0.23514918675648E+01 0.40568894753521E+01 -.30529017005560E-01
 h    10    1 0.23514910360853E+01 -.40568888210345E+01 -.30521911635300E-01
 n    11    7 -.52742123095903E+01 0.14763485000000E-06 -.18925267070140E-01
 o    12    8 -.63809534361791E+01 0.20269762391752E+01 -.16457057973460E-01
 o    13    8 -.63809510362269E+01 -.20269772478165E+01 -.16464881439650E-01
 n    14    7 0.52454603626942E+01 -.57046108000000E-06 -.73989411041200E-01
 h    15    1 0.62036818842731E+01 0.16164996606794E+01 0.19711589672944E+00
 h    16    1 0.62036804102867E+01 -.16165023700742E+01 0.19711149366755E+00
[GTO]
    1 0
 s    6 1.00
 0.13575349682000E+05 0.60645503603591E-03
 0.20352333680000E+04 0.46979088884982E-02
 0.46322562359000E+03 0.24332477647552E-01
 0.13120019598000E+03 0.97399968307759E-01
 0.42853015891000E+02 0.30195584253780E+00
 0.15584185766000E+02 0.66233609137875E+00
 s    2 1.00
 0.62067138508000E+01 0.65595308539952E+00
 0.25764896527000E+01 0.37585633285142E+00
 s    1 1.00
 0.57696339419000E+00 0.10000000000000E+01
 s    1 1.00
 0.22972831358000E+00 0.10000000000000E+01
 s    1 1.00
 0.95164440028000E-01 0.10000000000000E+01
 s    1 1.00
 0.48475401370000E-01 0.10000000000000E+01
 p    4 1.00
 0.34697232244000E+02 0.11327220003114E-01
 0.79582622826000E+01 0.76169659202087E-01
 0.23780826883000E+01 0.30192252202676E+00
 0.81433208183000E+00 0.72785027349547E+00
 p    1 1.00
 0.28887547253000E+00 0.10000000000000E+01
 p    1 1.00
 0.10056823671000E+00 0.10000000000000E+01
 d    1 1.00
 0.10970000000000E+01 0.10000000000000E+01
 d    1 1.00
 0.31800000000000E+00 0.10000000000000E+01
 d    1 1.00
 0.90985336424000E-01 0.10000000000000E+01
 f    1 1.00
 0.76100000000000E+00 0.10000000000000E+01
 
    2 0
 s    6 1.00
 0.13575349682000E+05 0.60645503603591E-03
 0.20352333680000E+04 0.46979088884982E-02
 0.46322562359000E+03 0.24332477647552E-01
 0.13120019598000E+03 0.97399968307759E-01
 0.42853015891000E+02 0.30195584253780E+00
 0.15584185766000E+02 0.66233609137875E+00
 s    2 1.00
 0.62067138508000E+01 0.65595308539952E+00
 0.25764896527000E+01 0.37585633285142E+00
 s    1 1.00
 0.57696339419000E+00 0.10000000000000E+01
 s    1 1.00
 0.22972831358000E+00 0.10000000000000E+01
 s    1 1.00
 0.95164440028000E-01 0.10000000000000E+01
 s    1 1.00
 0.48475401370000E-01 0.10000000000000E+01
 p    4 1.00
 0.34697232244000E+02 0.11327220003114E-01
 0.79582622826000E+01 0.76169659202087E-01
 0.23780826883000E+01 0.30192252202676E+00
 0.81433208183000E+00 0.72785027349547E+00
 p    1 1.00
 0.28887547253000E+00 0.10000000000000E+01
 p    1 1.00
 0.10056823671000E+00 0.10000000000000E+01
 d    1 1.00
 0.10970000000000E+01 0.10000000000000E+01
 d    1 1.00
 0.31800000000000E+00 0.10000000000000E+01
 d    1 1.00
 0.90985336424000E-01 0.10000000000000E+01
 f    1 1.00
 0.76100000000000E+00 0.10000000000000E+01
 
    3 0
 s    6 1.00
 0.13575349682000E+05 0.60645503603591E-03
 0.20352333680000E+04 0.46979088884982E-02
 0.46322562359000E+03 0.24332477647552E-01
 0.13120019598000E+03 0.97399968307759E-01
 0.42853015891000E+02 0.30195584253780E+00
 0.15584185766000E+02 0.66233609137875E+00
 s    2 1.00
 0.62067138508000E+01 0.65595308539952E+00
 0.25764896527000E+01 0.37585633285142E+00
 s    1 1.00
 0.57696339419000E+00 0.10000000000000E+01
 s    1 1.00
 0.22972831358000E+00 0.10000000000000E+01
 s    1 1.00
 0.95164440028000E-01 0.10000000000000E+01
 s    1 1.00
 0.48475401370000E-01 0.10000000000000E+01
 p    4 1.00
 0.34697232244000E+02 0.11327220003114E-01
 0.79582622826000E+01 0.76169659202087E-01
 0.23780826883000E+01 0.30192252202676E+00
 0.81433208183000E+00 0.72785027349547E+00
 p    1 1.00
 0.28887547253000E+00 0.10000000000000E+01
 p    1 1.00
 0.10056823671000E+00 0.10000000000000E+01
 d    1 1.00
 0.10970000000000E+01 0.10000000000000E+01
 d    1 1.00
 0.31800000000000E+00 0.10000000000000E+01
 d    1 1.00
 0.90985336424000E-01 0.10000000000000E+01
 f    1 1.00
 0.76100000000000E+00 0.10000000000000E+01
 
    4 0
 s    6 1.00
 0.13575349682000E+05 0.60645503603591E-03
 0.20352333680000E+04 0.46979088884982E-02
 0.46322562359000E+03 0.24332477647552E-01
 0.13120019598000E+03 0.97399968307759E-01
 0.42853015891000E+02 0.30195584253780E+00
 0.15584185766000E+02 0.66233609137875E+00
 s    2 1.00
 0.62067138508000E+01 0.65595308539952E+00
 0.25764896527000E+01 0.37585633285142E+00
 s    1 1.00
 0.57696339419000E+00 0.10000000000000E+01
 s    1 1.00
 0.22972831358000E+00 0.10000000000000E+01
 s    1 1.00
 0.95164440028000E-01 0.10000000000000E+01
 s    1 1.00
 0.48475401370000E-01 0.10000000000000E+01
 p    4 1.00
 0.34697232244000E+02 0.11327220003114E-01
 0.79582622826000E+01 0.76169659202087E-01
 0.23780826883000E+01 0.30192252202676E+00
 0.81433208183000E+00 0.72785027349547E+00
 p    1 1.00
 0.28887547253000E+00 0.10000000000000E+01
 p    1 1.00
 0.10056823671000E+00 0.10000000000000E+01
 d    1 1.00
 0.10970000000000E+01 0.10000000000000E+01
 d    1 1.00
 0.31800000000000E+00 0.10000000000000E+01
 d    1 1.00
 0.90985336424000E-01 0.10000000000000E+01
 f    1 1.00
 0.76100000000000E+00 0.10000000000000E+01
 
    5 0
 s    6 1.00
 0.13575349682000E+05 0.60645503603591E-03
 0.20352333680000E+04 0.46979088884982E-02
 0.46322562359000E+03 0.24332477647552E-01
 0.13120019598000E+03 0.97399968307759E-01
 0.42853015891000E+02 0.30195584253780E+00
 0.15584185766000E+02 0.66233609137875E+00
 s    2 1.00
 0.62067138508000E+01 0.65595308539952E+00
 0.25764896527000E+01 0.37585633285142E+00
 s    1 1.00
 0.57696339419000E+00 0.10000000000000E+01
 s    1 1.00
 0.22972831358000E+00 0.10000000000000E+01
 s    1 1.00
 0.95164440028000E-01 0.10000000000000E+01
 s    1 1.00
 0.48475401370000E-01 0.10000000000000E+01
 p    4 1.00
 0.34697232244000E+02 0.11327220003114E-01
 0.79582622826000E+01 0.76169659202087E-01
 0.23780826883000E+01 0.30192252202676E+00
 0.81433208183000E+00 0.72785027349547E+00
 p    1 1.00
 0.28887547253000E+00 0.10000000000000E+01
 p    1 1.00
 0.10056823671000E+00 0.10000000000000E+01
 d    1 1.00
 0.10970000000000E+01 0.10000000000000E+01
 d    1 1.00
 0.31800000000000E+00 0.10000000000000E+01
 d    1 1.00
 0.90985336424000E-01 0.10000000000000E+01
 f    1 1.00
 0.76100000000000E+00 0.10000000000000E+01
 
    6 0
 s    6 1.00
 0.13575349682000E+05 0.60645503603591E-03
 0.20352333680000E+04 0.46979088884982E-02
 0.46322562359000E+03 0.24332477647552E-01
 0.13120019598000E+03 0.97399968307759E-01
 0.42853015891000E+02 0.30195584253780E+00
 0.15584185766000E+02 0.66233609137875E+00
 s    2 1.00
 0.62067138508000E+01 0.65595308539952E+00
 0.25764896527000E+01 0.37585633285142E+00
 s    1 1.00
 0.57696339419000E+00 0.10000000000000E+01
 s    1 1.00
 0.22972831358000E+00 0.10000000000000E+01
 s    1 1.00
 0.95164440028000E-01 0.10000000000000E+01
 s    1 1.00
 0.48475401370000E-01 0.10000000000000E+01
 p    4 1.00
 0.34697232244000E+02 0.11327220003114E-01
 0.79582622826000E+01 0.76169659202087E-01
 0.23780826883000E+01 0.30192252202676E+00
 0.81433208183000E+00 0.72785027349547E+00
 p    1 1.00
 0.28887547253000E+00 0.10000000000000E+01
 p    1 1.00
 0.10056823671000E+00 0.10000000000000E+01
 d    1 1.00
 0.10970000000000E+01 0.10000000000000E+01
 d    1 1.00
 0.31800000000000E+00 0.10000000000000E+01
 d    1 1.00
 0.90985336424000E-01 0.10000000000000E+01
 f    1 1.00
 0.76100000000000E+00 0.10000000000000E+01
 
    7 0
 s    3 1.00
 0.34061341000000E+02 0.25439307208879E-01
 0.51235746000000E+01 0.19008594890375E+00
 0.11646626000000E+01 0.85244113011042E+00
 s    1 1.00
 0.32723041000000E+00 0.10000000000000E+01
 s    1 1.00
 0.10307241000000E+00 0.10000000000000E+01
 p    1 1.00
 0.80000000000000E+00 0.10000000000000E+01
 p    1 1.00
 0.95774129632000E-01 0.10000000000000E+01
 
    8 0
 s    3 1.00
 0.34061341000000E+02 0.25439307208879E-01
 0.51235746000000E+01 0.19008594890375E+00
 0.11646626000000E+01 0.85244113011042E+00
 s    1 1.00
 0.32723041000000E+00 0.10000000000000E+01
 s    1 1.00
 0.10307241000000E+00 0.10000000000000E+01
 p    1 1.00
 0.80000000000000E+00 0.10000000000000E+01
 p    1 1.00
 0.95774129632000E-01 0.10000000000000E+01
 
    9 0
 s    3 1.00
 0.34061341000000E+02 0.25439307208879E-01
 0.51235746000000E+01 0.19008594890375E+00
 0.11646626000000E+01 0.85244113011042E+00
 s    1 1.00
 0.32723041000000E+00 0.10000000000000E+01
 s    1 1.00
 0.10307241000000E+00 0.10000000000000E+01
 p    1 1.00
 0.80000000000000E+00 0.10000000000000E+01
 p    1 1.00
 0.95774129632000E-01 0.10000000000000E+01
 
   10 0
 s    3 1.00
 0.34061341000000E+02 0.25439307208879E-01
 0.51235746000000E+01 0.19008594890375E+00
 0.11646626000000E+01 0.85244113011042E+00
 s    1 1.00
 0.32723041000000E+00 0.10000000000000E+01
 s    1 1.00
 0.10307241000000E+00 0.10000000000000E+01
 p    1 1.00
 0.80000000000000E+00 0.10000000000000E+01
 p    1 1.00
 0.95774129632000E-01 0.10000000000000E+01
 
   11 0
 s    6 1.00
 0.19730800647000E+05 0.58626402628763E-03
 0.29578958745000E+04 0.45428820586397E-02
 0.67322133595000E+03 0.23558413450084E-01
 0.19068249494000E+03 0.94709193292923E-01
 0.62295441898000E+02 0.29719784913376E+00
 0.22654161182000E+02 0.66916246895232E+00
 s    2 1.00
 0.89791477428000E+01 0.64596683630063E+00
 0.36863002370000E+01 0.38700574393705E+00
 s    1 1.00
 0.84660076805000E+00 0.10000000000000E+01
 s    1 1.00
 0.33647133771000E+00 0.10000000000000E+01
 s    1 1.00
 0.13647653675000E+00 0.10000000000000E+01
 s    1 1.00
 0.68441605847000E-01 0.10000000000000E+01
 p    4 1.00
 0.49200380510000E+02 0.11448825101764E-01
 0.11346790537000E+02 0.78422337970864E-01
 0.34273972411000E+01 0.30818094738830E+00
 0.11785525134000E+01 0.72027196368413E+00
 p    1 1.00
 0.41642204972000E+00 0.10000000000000E+01
 p    1 1.00
 0.14260826011000E+00 0.10000000000000E+01
 d    1 1.00
 0.16540000000000E+01 0.10000000000000E+01
 d    1 1.00
 0.46900000000000E+00 0.10000000000000E+01
 d    1 1.00
 0.12829642058000E+00 0.10000000000000E+01
 f    1 1.00
 0.10930000000000E+01 0.10000000000000E+01
 
   12 0
 s    6 1.00
 0.27032382631000E+05 0.57227335211155E-03
 0.40523871392000E+04 0.44353233492995E-02
 0.92232722710000E+03 0.23020107706038E-01
 0.26124070989000E+03 0.92822490667928E-01
 0.85354641351000E+02 0.29378500009671E+00
 0.31035035245000E+02 0.67401604501641E+00
 s    2 1.00
 0.12260860728000E+02 0.63839937025506E+00
 0.49987076005000E+01 0.39534587125718E+00
 s    1 1.00
 0.11703108158000E+01 0.10000000000000E+01
 s    1 1.00
 0.46474740994000E+00 0.10000000000000E+01
 s    1 1.00
 0.18504536357000E+00 0.10000000000000E+01
 s    1 1.00
 0.70288026270000E-01 0.10000000000000E+01
 p    4 1.00
 0.63274954801000E+02 0.12018332222616E-01
 0.14627049379000E+02 0.83005421790056E-01
 0.44501223456000E+01 0.31991743925964E+00
 0.15275799647000E+01 0.70715542916104E+00
 p    1 1.00
 0.52935117943000E+00 0.10000000000000E+01
 p    1 1.00
 0.17478421270000E+00 0.10000000000000E+01
 p    1 1.00
 0.51112745706000E-01 0.10000000000000E+01
 d    1 1.00
 0.23140000000000E+01 0.10000000000000E+01
 d    1 1.00
 0.64500000000000E+00 0.10000000000000E+01
 d    1 1.00
 0.14696477366000E+00 0.10000000000000E+01
 f    1 1.00
 0.14280000000000E+01 0.10000000000000E+01
 
   13 0
 s    6 1.00
 0.27032382631000E+05 0.57227335211155E-03
 0.40523871392000E+04 0.44353233492995E-02
 0.92232722710000E+03 0.23020107706038E-01
 0.26124070989000E+03 0.92822490667928E-01
 0.85354641351000E+02 0.29378500009671E+00
 0.31035035245000E+02 0.67401604501641E+00
 s    2 1.00
 0.12260860728000E+02 0.63839937025506E+00
 0.49987076005000E+01 0.39534587125718E+00
 s    1 1.00
 0.11703108158000E+01 0.10000000000000E+01
 s    1 1.00
 0.46474740994000E+00 0.10000000000000E+01
 s    1 1.00
 0.18504536357000E+00 0.10000000000000E+01
 s    1 1.00
 0.70288026270000E-01 0.10000000000000E+01
 p    4 1.00
 0.63274954801000E+02 0.12018332222616E-01
 0.14627049379000E+02 0.83005421790056E-01
 0.44501223456000E+01 0.31991743925964E+00
 0.15275799647000E+01 0.70715542916104E+00
 p    1 1.00
 0.52935117943000E+00 0.10000000000000E+01
 p    1 1.00
 0.17478421270000E+00 0.10000000000000E+01
 p    1 1.00
 0.51112745706000E-01 0.10000000000000E+01
 d    1 1.00
 0.23140000000000E+01 0.10000000000000E+01
 d    1 1.00
 0.64500000000000E+00 0.10000000000000E+01
 d    1 1.00
 0.14696477366000E+00 0.10000000000000E+01
 f    1 1.00
 0.14280000000000E+01 0.10000000000000E+01
 
   14 0
 s    6 1.00
 0.19730800647000E+05 0.58626402628763E-03
 0.29578958745000E+04 0.45428820586397E-02
 0.67322133595000E+03 0.23558413450084E-01
 0.19068249494000E+03 0.94709193292923E-01
 0.62295441898000E+02 0.29719784913376E+00
 0.22654161182000E+02 0.66916246895232E+00
 s    2 1.00
 0.89791477428000E+01 0.64596683630063E+00
 0.36863002370000E+01 0.38700574393705E+00
 s    1 1.00
 0.84660076805000E+00 0.10000000000000E+01
 s    1 1.00
 0.33647133771000E+00 0.10000000000000E+01
 s    1 1.00
 0.13647653675000E+00 0.10000000000000E+01
 s    1 1.00
 0.68441605847000E-01 0.10000000000000E+01
 p    4 1.00
 0.49200380510000E+02 0.11448825101764E-01
 0.11346790537000E+02 0.78422337970864E-01
 0.34273972411000E+01 0.30818094738830E+00
 0.11785525134000E+01 0.72027196368413E+00
 p    1 1.00
 0.41642204972000E+00 0.10000000000000E+01
 p    1 1.00
 0.14260826011000E+00 0.10000000000000E+01
 d    1 1.00
 0.16540000000000E+01 0.10000000000000E+01
 d    1 1.00
 0.46900000000000E+00 0.10000000000000E+01
 d    1 1.00
 0.12829642058000E+00 0.10000000000000E+01
 f    1 1.00
 0.10930000000000E+01 0.10000000000000E+01
 
   15 0
 s    3 1.00
 0.34061341000000E+02 0.25439307208879E-01
 0.51235746000000E+01 0.19008594890375E+00
 0.11646626000000E+01 0.85244113011042E+00
 s    1 1.00
 0.32723041000000E+00 0.10000000000000E+01
 s    1 1.00
 0.10307241000000E+00 0.10000000000000E+01
 p    1 1.00
 0.80000000000000E+00 0.10000000000000E+01
 p    1 1.00
 0.95774129632000E-01 0.10000000000000E+01
 
   16 0
 s    3 1.00
 0.34061341000000E+02 0.25439307208879E-01
 0.51235746000000E+01 0.19008594890375E+00
 0.11646626000000E+01 0.85244113011042E+00
 s    1 1.00
 0.32723041000000E+00 0.10000000000000E+01
 s    1 1.00
 0.10307241000000E+00 0.10000000000000E+01
 p    1 1.00
 0.80000000000000E+00 0.10000000000000E+01
 p    1 1.00
 0.95774129632000E-01 0.10000000000000E+01
 
[MO]
 Sym= X
 Ene= -0.948563
 Spin= Alpha
 Occup= -0.948563
         1   -1.862134E-04
         2   -4.332460E-04
         3    1.207223E-03
         4   -2.613758E-03
         5   -9.513355E-03
         6   -1.117523E-02
         7    1.935312E-03
         8    1.892875E-04
         9    1.412688E-02
        10   -2.195293E-03
        11    3.951367E-04
        12    1.246663E-02
        13   -3.498010E-02
        14    1.012627E-02
        15    9.695335E-04
        16    1.440951E-05
        17   -2.541131E-05
        18    1.100180E-05
        19   -1.375586E-05
        20   -6.380626E-03
        21    3.540314E-03
        22   -6.463663E-04
        23    3.850600E-04
        24    2.613063E-04
        25   -7.049562E-04
        26   -1.431262E-02
        27    6.752971E-03
        28   -5.062656E-03
        29    4.753125E-03
        30    3.095310E-04
        31    1.060074E-03
        32    2.035974E-03
        33   -1.010403E-02
        34   -1.879694E-05
        35    6.563552E-06
        36   -1.463932E-05
        37    7.995858E-06
        38   -6.524908E-06
        39   -7.615075E-04
        40    1.722288E-05
        41   -2.281021E-06
        42    7.811482E-04
        43   -6.712171E-04
        44    3.125447E-05
        45    6.860225E-05
        46    1.190780E-04
        47   -2.776901E-03
        48   -4.964428E-02
        49    5.632898E-03
        50    1.545105E-04
        51    1.819610E-06
        52    1.896939E-01
        53   -6.004240E-04
        54    1.881651E-05
        55    1.972517E-01
        56   -1.626091E-02
        57   -6.944478E-04
        58    1.951402E-01
        59    5.355880E-05
        60   -5.111271E-05
        61   -2.446088E-06
        62    9.642456E-08
        63   -1.057324E-03
        64    1.891686E-07
        65    3.925512E-04
        66   -6.391968E-04
        67    2.466456E-04
        68    4.182914E-06
        69   -3.950446E-03
        70    3.594119E-07
        71    8.946807E-03
        72   -1.005000E-02
        73    1.103192E-03
        74   -1.085336E-04
        75    4.442905E-03
        76   -1.549459E-05
        77    6.210429E-06
        78    3.268466E-08
        79   -1.036865E-03
        80   -6.194035E-06
        81    3.511756E-08
        82    6.507071E-04
        83   -2.138129E-06
        84   -7.896864E-08
        85    7.403926E-04
        86    5.686532E-08
        87   -1.862981E-04
        88   -4.334306E-04
        89    1.208847E-03
        90   -2.632141E-03
        91   -7.876426E-03
        92   -1.114849E-02
        93    1.936496E-03
        94   -1.923038E-04
        95    1.413793E-02
        96   -2.159011E-03
        97   -3.897504E-04
        98    1.247325E-02
        99   -3.527301E-02
       100   -1.075966E-02
       101    9.745734E-04
       102    1.450200E-05
       103   -2.543907E-05
       104    1.093707E-05
       105    1.410662E-05
       106   -6.380393E-03
       107   -3.540443E-03
       108   -6.388535E-04
       109    3.773777E-04
       110    2.614758E-04
       111    7.017056E-04
       112   -1.431301E-02
       113   -6.751940E-03
       114   -5.169464E-03
       115    4.869387E-03
       116    3.000770E-04
       117   -9.541021E-04
       118    2.020050E-03
       119    1.009802E-02
       120   -1.879897E-05
       121   -6.528037E-06
       122   -1.458916E-05
       123    8.173463E-06
       124    6.460602E-06
       125   -7.615883E-04
       126    1.704800E-05
       127    2.297678E-06
       128    7.811617E-04
       129    6.711494E-04
       130    1.209942E-04
       131    2.614065E-04
       132    5.522912E-04
       133   -1.026332E-02
       134    2.932929E-02
       135    1.262873E-02
       136   -1.631919E-03
       137    6.654088E-04
       138   -1.615339E-01
       139   -9.249188E-03
       140    6.085713E-03
       141   -1.641780E-01
       142   -2.406075E-02
       143   -7.973222E-03
       144   -9.776466E-02
       145    1.562909E-04
       146   -1.855034E-04
       147    2.921250E-05
       148   -3.783883E-06
       149   -6.498879E-04
       150    3.123724E-03
       151    6.321477E-04
       152   -7.550014E-04
       153    1.228537E-04
       154    1.674132E-03
       155   -3.751114E-03
       156    5.250220E-03
       157    8.239798E-03
       158   -6.476468E-03
       159   -1.763331E-03
       160   -8.614779E-03
       161    3.510426E-03
       162   -1.218372E-02
       163   -1.572725E-05
       164    9.515494E-06
       165    9.369304E-04
       166   -1.907636E-05
       167    1.656448E-05
       168   -2.819182E-04
       169    4.017667E-05
       170   -2.933085E-05
       171   -9.751058E-04
       172    3.420477E-04
       173   -1.079897E-03
       174   -2.463224E-03
       175    2.537536E-03
       176    2.126236E-02
       177   -1.777343E-02
       178    8.809242E-03
       179    9.131907E-03
       180   -2.037871E-06
       181   -1.188330E-01
       182    5.444815E-04
       183   -1.094825E-05
       184   -1.213185E-01
       185   -2.571817E-02
       186    9.290790E-04
       187   -1.331322E-01
       188    4.928453E-04
       189   -2.829255E-04
       190   -2.099198E-04
       191    3.341339E-07
       192    1.007221E-02
       193    4.384943E-07
       194   -1.828949E-03
       195    4.017278E-03
       196   -2.188330E-03
       197    5.398872E-07
       198    2.495745E-02
       199   -1.764021E-06
       200   -5.633250E-03
       201    6.813558E-03
       202   -1.180308E-03
       203   -1.280234E-04
       204    1.920340E-02
       205    4.188695E-06
       206    1.139364E-04
       207    8.828953E-09
       208    3.889603E-04
       209   -7.947364E-05
       210   -2.897376E-08
       211    1.006605E-03
       212   -7.338814E-05
       213    1.712848E-08
       214   -1.528450E-03
       215    3.330640E-08
       216    1.214106E-04
       217    2.621187E-04
       218    5.518384E-04
       219   -1.027175E-02
       220    3.124817E-02
       221    1.264495E-02
       222   -1.631369E-03
       223   -6.568959E-04
       224   -1.615448E-01
       225   -9.268657E-03
       226   -6.087069E-03
       227   -1.641932E-01
       228   -2.364205E-02
       229    8.881144E-03
       230   -9.777888E-02
       231    1.562484E-04
       232   -1.858371E-04
       233    2.958876E-05
       234    4.233159E-06
       235   -6.498858E-04
       236   -3.123758E-03
       237    6.373928E-04
       238   -7.576971E-04
       239    1.203044E-04
       240   -1.677785E-03
       241   -3.747872E-03
       242   -5.250280E-03
       243    8.160229E-03
       244   -6.393346E-03
       245   -1.766882E-03
       246    8.741616E-03
       247    3.535153E-03
       248    1.218816E-02
       249   -1.591914E-05
       250   -9.553607E-06
       251    9.371576E-04
       252   -1.900470E-05
       253   -1.652464E-05
       254   -2.822077E-04
       255    4.036246E-05
       256    2.934214E-05
       257   -9.751212E-04
       258   -3.420841E-04
       259   -4.317764E-04
       260   -3.291521E-04
       261   -1.718066E-02
       262   -1.190763E-05
       263   -1.187876E-05
       264    6.023935E-04
       265   -5.264449E-03
       266   -2.709533E-04
       267   -6.306704E-03
       268   -4.342408E-04
       269   -3.231690E-04
       270   -1.714563E-02
       271   -1.100502E-05
       272    1.094538E-05
       273    6.027052E-04
       274   -5.357501E-03
       275    2.384995E-04
       276   -6.308935E-03
       277   -5.107279E-04
       278   -2.478969E-03
       279    3.412063E-02
       280   -1.073830E-05
       281    1.141138E-04
       282   -6.509219E-03
       283   -1.782842E-03
       284   -2.747682E-03
       285    1.628334E-03
       286   -5.149317E-04
       287   -2.489838E-03
       288    3.442761E-02
       289   -1.001805E-05
       290   -1.147683E-04
       291   -6.510410E-03
       292   -1.765700E-03
       293    2.803373E-03
       294    1.618608E-03
       295   -5.796148E-05
       296   -1.351320E-04
       297    1.338592E-04
       298    5.151851E-04
       299   -6.436997E-03
       300    9.236406E-04
       301    6.967586E-04
       302   -3.620653E-07
       303    2.744938E-02
       304    3.738463E-04
       305    6.871629E-07
       306    2.945990E-02
       307   -2.900801E-03
       308    3.400573E-05
       309    1.056903E-02
       310    3.036077E-05
       311   -1.877606E-05
       312   -1.158470E-05
       313    8.159077E-08
       314    4.091383E-03
       315    9.213307E-08
       316    3.283821E-05
       317    2.773798E-05
       318   -6.057620E-05
       319   -3.358481E-07
       320    1.245864E-02
       321    9.397840E-08
       322   -1.013949E-03
       323    2.798620E-03
       324   -1.784671E-03
       325    2.418855E-05
       326    2.955709E-03
       327    4.494286E-06
       328    6.877710E-06
       329    1.576012E-08
       330   -4.206082E-05
       331   -4.177973E-06
       332   -8.406536E-10
       333    6.736409E-04
       334   -5.049443E-06
       335   -2.030376E-08
       336   -6.172104E-04
       337   -8.473274E-09
       338   -1.389334E-05
       339   -3.042898E-05
       340    2.932854E-06
       341    5.266519E-04
       342   -5.764395E-03
       343   -8.937222E-04
       344   -4.625238E-04
       345    1.091155E-04
       346   -6.993551E-02
       347   -5.161865E-04
       348    2.321702E-04
       349   -6.498796E-02
       350   -1.609644E-03
       351    4.703352E-04
       352   -5.455918E-02
       353   -1.800092E-04
       354    2.032235E-04
       355   -7.014971E-03
       356    3.824162E-06
       357   -5.484957E-06
       358    1.660795E-06
       359    2.366020E-06
       360    7.089778E-05
       361    3.366951E-04
       362   -1.293312E-05
       363   -1.212487E-05
       364    2.505799E-05
       365    1.482553E-05
       366   -3.004534E-04
       367    1.178163E-03
       368   -8.050449E-05
       369    5.430774E-05
       370    2.619675E-05
       371    8.921088E-05
       372   -5.011557E-05
       373    1.327673E-04
       374    1.075811E-06
       375    1.568629E-06
       376    3.971310E-05
       377   -1.998904E-06
       378   -4.716895E-08
       379    7.851839E-05
       380    5.555515E-07
       381   -2.057367E-06
       382   -1.317991E-04
       383    9.975132E-05
       384   -1.378486E-05
       385   -3.020577E-05
       386    3.110120E-06
       387    5.218702E-04
       388   -5.755519E-03
       389   -8.690859E-04
       390   -4.627841E-04
       391   -1.069610E-04
       392   -6.993926E-02
       393   -5.161142E-04
       394   -2.298749E-04
       395   -6.499219E-02
       396   -1.583225E-03
       397   -4.619263E-04
       398   -5.455399E-02
       399   -1.657900E-04
       400   -2.087273E-04
       401   -7.015781E-03
       402    3.799904E-06
       403   -5.465739E-06
       404    1.665834E-06
       405   -2.413320E-06
       406    7.085537E-05
       407   -3.367268E-04
       408   -1.280810E-05
       409   -1.194457E-05
       410    2.475268E-05
       411   -1.438922E-05
       412   -3.004524E-04
       413   -1.178289E-03
       414   -7.996228E-05
       415    5.574467E-05
       416    2.421761E-05
       417   -8.813554E-05
       418   -5.009954E-05
       419   -1.317214E-04
       420    1.072441E-06
       421   -1.555091E-06
       422    3.972280E-05
       423   -1.977198E-06
       424    3.903424E-08
       425    7.851681E-05
       426    5.383669E-07
       427    2.047339E-06
       428   -1.318105E-04
       429   -9.976574E-05
       430    4.615400E-03
       431    1.097920E-02
       432   -1.718594E-02
       433   -2.674036E-02
       434   -2.122379E-02
       435   -6.840413E-02
       436   -1.700254E-02
       437    7.665387E-06
       438    2.512341E-01
       439   -1.951563E-02
       440    8.132624E-07
       441    2.483693E-01
       442   -1.825459E-02
       443   -1.071507E-04
       444    2.041626E-01
       445   -9.530570E-05
       446   -3.462897E-06
       447    9.876860E-05
       448    2.567192E-07
       449    8.577214E-04
       450    2.300236E-07
       451   -2.008587E-04
       452   -1.508403E-03
       453    1.709261E-03
       454   -3.736932E-06
       455    3.848643E-03
       456    1.460440E-06
       457   -1.789921E-03
       458   -3.032351E-03
       459    4.822272E-03
       460   -3.111283E-06
       461    2.320194E-03
       462    7.666461E-06
       463   -1.438094E-04
       464    3.257770E-08
       465   -9.837816E-04
       466   -8.030998E-05
       467   -6.044452E-09
       468    5.127162E-04
       469    2.732505E-04
       470   -3.766312E-08
       471    8.071653E-04
       472    2.373417E-09
       473    9.588690E-03
       474    1.801313E-02
       475    2.998015E-02
       476   -2.252278E-03
       477   -1.906931E-03
       478    1.276828E-02
       479    1.321775E-03
       480   -3.466768E-03
       481    1.492137E-02
       482    9.583191E-03
       483    1.794688E-02
       484    2.979525E-02
       485   -2.249021E-03
       486    1.900586E-03
       487    1.277151E-02
       488    1.339005E-03
       489    3.431282E-03
       490    1.492960E-02
 Sym= X
 Ene= 0.948563
 Spin= Alpha
 Occup= 0.948563
         1   -7.969980E-03
         2   -1.790939E-02
         3    2.780604E-02
         4    5.634399E-02
         5   -2.573368E+00
         6    2.838380E+00
         7   -1.448101E-02
         8   -9.497878E-03
         9   -3.662329E-04
        10   -1.597204E-01
        11   -1.353820E-02
        12    1.749368E-03
        13    7.437783E-02
        14   -3.271340E-03
        15    4.398403E-02
        16    1.235708E-03
        17    4.590600E-04
        18   -1.694768E-03
        19   -1.311371E-03
        20   -5.602555E-05
        21   -1.622531E-05
        22   -2.155972E-02
        23    2.580194E-02
        24   -4.242216E-03
        25    3.890319E-03
        26    1.058095E-03
        27   -1.178849E-04
        28   -6.090020E-01
        29    4.535545E-01
        30    1.554475E-01
        31   -8.286566E-01
        32   -1.325619E-02
        33    3.438679E-02
        34   -2.292248E-04
        35   -2.112027E-04
        36    1.835935E-05
        37   -5.920579E-04
        38    1.109571E-06
        39    1.719383E-05
        40    8.995953E-04
        41    2.822485E-04
        42   -4.182549E-05
        43    2.145279E-05
        44   -5.246197E-03
        45   -1.127765E-02
        46    2.303768E-03
        47    2.138126E-01
        48   -3.197530E+00
        49   -4.790833E+00
        50   -1.745041E-03
        51   -1.367802E-06
        52   -1.129709E-03
        53   -8.111681E-02
        54   -2.448342E-06
        55    3.095694E-03
        56   -1.301968E+00
        57   -8.906644E-04
        58   -1.320636E-01
        59   -1.064388E-03
        60    3.541368E-03
        61   -2.476980E-03
        62   -1.053482E-07