[Molden Format]
[Title]
ADC(2) - opt by CAM-B3LYP gaussian                                              
[Atoms] AU
 c     1    6 -.12589065566052E+01 -.22830902054421E+01 -.26005390588660E-01
 c     2    6 -.25569912224779E+01 0.86573078000000E-06 -.24733756079320E-01
 c     3    6 -.12589060841737E+01 0.22830907841707E+01 -.26008073999770E-01
 c     4    6 0.13324295737882E+01 0.22846183820847E+01 -.28114684000920E-01
 c     5    6 0.26867573459717E+01 0.39329925000000E-06 -.27723246129760E-01
 c     6    6 0.13324281942881E+01 -.22846180679178E+01 -.28111244699360E-01
 h     7    1 -.22982509786098E+01 -.40377481062879E+01 -.23319125993500E-01
 h     8    1 -.22982490510892E+01 0.40377494409070E+01 -.23324322740370E-01
 h     9    1 0.23514918675648E+01 0.40568894753521E+01 -.30529017005560E-01
 h    10    1 0.23514910360853E+01 -.40568888210345E+01 -.30521911635300E-01
 n    11    7 -.52742123095903E+01 0.14763485000000E-06 -.18925267070140E-01
 o    12    8 -.63809534361791E+01 0.20269762391752E+01 -.16457057973460E-01
 o    13    8 -.63809510362269E+01 -.20269772478165E+01 -.16464881439650E-01
 n    14    7 0.52454603626942E+01 -.57046108000000E-06 -.73989411041200E-01
 h    15    1 0.62036818842731E+01 0.16164996606794E+01 0.19711589672944E+00
 h    16    1 0.62036804102867E+01 -.16165023700742E+01 0.19711149366755E+00
[GTO]
    1 0
 s    6 1.00
 0.13575349682000E+05 0.60645503603591E-03
 0.20352333680000E+04 0.46979088884982E-02
 0.46322562359000E+03 0.24332477647552E-01
 0.13120019598000E+03 0.97399968307759E-01
 0.42853015891000E+02 0.30195584253780E+00
 0.15584185766000E+02 0.66233609137875E+00
 s    2 1.00
 0.62067138508000E+01 0.65595308539952E+00
 0.25764896527000E+01 0.37585633285142E+00
 s    1 1.00
 0.57696339419000E+00 0.10000000000000E+01
 s    1 1.00
 0.22972831358000E+00 0.10000000000000E+01
 s    1 1.00
 0.95164440028000E-01 0.10000000000000E+01
 s    1 1.00
 0.48475401370000E-01 0.10000000000000E+01
 p    4 1.00
 0.34697232244000E+02 0.11327220003114E-01
 0.79582622826000E+01 0.76169659202087E-01
 0.23780826883000E+01 0.30192252202676E+00
 0.81433208183000E+00 0.72785027349547E+00
 p    1 1.00
 0.28887547253000E+00 0.10000000000000E+01
 p    1 1.00
 0.10056823671000E+00 0.10000000000000E+01
 d    1 1.00
 0.10970000000000E+01 0.10000000000000E+01
 d    1 1.00
 0.31800000000000E+00 0.10000000000000E+01
 d    1 1.00
 0.90985336424000E-01 0.10000000000000E+01
 f    1 1.00
 0.76100000000000E+00 0.10000000000000E+01
 
    2 0
 s    6 1.00
 0.13575349682000E+05 0.60645503603591E-03
 0.20352333680000E+04 0.46979088884982E-02
 0.46322562359000E+03 0.24332477647552E-01
 0.13120019598000E+03 0.97399968307759E-01
 0.42853015891000E+02 0.30195584253780E+00
 0.15584185766000E+02 0.66233609137875E+00
 s    2 1.00
 0.62067138508000E+01 0.65595308539952E+00
 0.25764896527000E+01 0.37585633285142E+00
 s    1 1.00
 0.57696339419000E+00 0.10000000000000E+01
 s    1 1.00
 0.22972831358000E+00 0.10000000000000E+01
 s    1 1.00
 0.95164440028000E-01 0.10000000000000E+01
 s    1 1.00
 0.48475401370000E-01 0.10000000000000E+01
 p    4 1.00
 0.34697232244000E+02 0.11327220003114E-01
 0.79582622826000E+01 0.76169659202087E-01
 0.23780826883000E+01 0.30192252202676E+00
 0.81433208183000E+00 0.72785027349547E+00
 p    1 1.00
 0.28887547253000E+00 0.10000000000000E+01
 p    1 1.00
 0.10056823671000E+00 0.10000000000000E+01
 d    1 1.00
 0.10970000000000E+01 0.10000000000000E+01
 d    1 1.00
 0.31800000000000E+00 0.10000000000000E+01
 d    1 1.00
 0.90985336424000E-01 0.10000000000000E+01
 f    1 1.00
 0.76100000000000E+00 0.10000000000000E+01
 
    3 0
 s    6 1.00
 0.13575349682000E+05 0.60645503603591E-03
 0.20352333680000E+04 0.46979088884982E-02
 0.46322562359000E+03 0.24332477647552E-01
 0.13120019598000E+03 0.97399968307759E-01
 0.42853015891000E+02 0.30195584253780E+00
 0.15584185766000E+02 0.66233609137875E+00
 s    2 1.00
 0.62067138508000E+01 0.65595308539952E+00
 0.25764896527000E+01 0.37585633285142E+00
 s    1 1.00
 0.57696339419000E+00 0.10000000000000E+01
 s    1 1.00
 0.22972831358000E+00 0.10000000000000E+01
 s    1 1.00
 0.95164440028000E-01 0.10000000000000E+01
 s    1 1.00
 0.48475401370000E-01 0.10000000000000E+01
 p    4 1.00
 0.34697232244000E+02 0.11327220003114E-01
 0.79582622826000E+01 0.76169659202087E-01
 0.23780826883000E+01 0.30192252202676E+00
 0.81433208183000E+00 0.72785027349547E+00
 p    1 1.00
 0.28887547253000E+00 0.10000000000000E+01
 p    1 1.00
 0.10056823671000E+00 0.10000000000000E+01
 d    1 1.00
 0.10970000000000E+01 0.10000000000000E+01
 d    1 1.00
 0.31800000000000E+00 0.10000000000000E+01
 d    1 1.00
 0.90985336424000E-01 0.10000000000000E+01
 f    1 1.00
 0.76100000000000E+00 0.10000000000000E+01
 
    4 0
 s    6 1.00
 0.13575349682000E+05 0.60645503603591E-03
 0.20352333680000E+04 0.46979088884982E-02
 0.46322562359000E+03 0.24332477647552E-01
 0.13120019598000E+03 0.97399968307759E-01
 0.42853015891000E+02 0.30195584253780E+00
 0.15584185766000E+02 0.66233609137875E+00
 s    2 1.00
 0.62067138508000E+01 0.65595308539952E+00
 0.25764896527000E+01 0.37585633285142E+00
 s    1 1.00
 0.57696339419000E+00 0.10000000000000E+01
 s    1 1.00
 0.22972831358000E+00 0.10000000000000E+01
 s    1 1.00
 0.95164440028000E-01 0.10000000000000E+01
 s    1 1.00
 0.48475401370000E-01 0.10000000000000E+01
 p    4 1.00
 0.34697232244000E+02 0.11327220003114E-01
 0.79582622826000E+01 0.76169659202087E-01
 0.23780826883000E+01 0.30192252202676E+00
 0.81433208183000E+00 0.72785027349547E+00
 p    1 1.00
 0.28887547253000E+00 0.10000000000000E+01
 p    1 1.00
 0.10056823671000E+00 0.10000000000000E+01
 d    1 1.00
 0.10970000000000E+01 0.10000000000000E+01
 d    1 1.00
 0.31800000000000E+00 0.10000000000000E+01
 d    1 1.00
 0.90985336424000E-01 0.10000000000000E+01
 f    1 1.00
 0.76100000000000E+00 0.10000000000000E+01
 
    5 0
 s    6 1.00
 0.13575349682000E+05 0.60645503603591E-03
 0.20352333680000E+04 0.46979088884982E-02
 0.46322562359000E+03 0.24332477647552E-01
 0.13120019598000E+03 0.97399968307759E-01
 0.42853015891000E+02 0.30195584253780E+00
 0.15584185766000E+02 0.66233609137875E+00
 s    2 1.00
 0.62067138508000E+01 0.65595308539952E+00
 0.25764896527000E+01 0.37585633285142E+00
 s    1 1.00
 0.57696339419000E+00 0.10000000000000E+01
 s    1 1.00
 0.22972831358000E+00 0.10000000000000E+01
 s    1 1.00
 0.95164440028000E-01 0.10000000000000E+01
 s    1 1.00
 0.48475401370000E-01 0.10000000000000E+01
 p    4 1.00
 0.34697232244000E+02 0.11327220003114E-01
 0.79582622826000E+01 0.76169659202087E-01
 0.23780826883000E+01 0.30192252202676E+00
 0.81433208183000E+00 0.72785027349547E+00
 p    1 1.00
 0.28887547253000E+00 0.10000000000000E+01
 p    1 1.00
 0.10056823671000E+00 0.10000000000000E+01
 d    1 1.00
 0.10970000000000E+01 0.10000000000000E+01
 d    1 1.00
 0.31800000000000E+00 0.10000000000000E+01
 d    1 1.00
 0.90985336424000E-01 0.10000000000000E+01
 f    1 1.00
 0.76100000000000E+00 0.10000000000000E+01
 
    6 0
 s    6 1.00
 0.13575349682000E+05 0.60645503603591E-03
 0.20352333680000E+04 0.46979088884982E-02
 0.46322562359000E+03 0.24332477647552E-01
 0.13120019598000E+03 0.97399968307759E-01
 0.42853015891000E+02 0.30195584253780E+00
 0.15584185766000E+02 0.66233609137875E+00
 s    2 1.00
 0.62067138508000E+01 0.65595308539952E+00
 0.25764896527000E+01 0.37585633285142E+00
 s    1 1.00
 0.57696339419000E+00 0.10000000000000E+01
 s    1 1.00
 0.22972831358000E+00 0.10000000000000E+01
 s    1 1.00
 0.95164440028000E-01 0.10000000000000E+01
 s    1 1.00
 0.48475401370000E-01 0.10000000000000E+01
 p    4 1.00
 0.34697232244000E+02 0.11327220003114E-01
 0.79582622826000E+01 0.76169659202087E-01
 0.23780826883000E+01 0.30192252202676E+00
 0.81433208183000E+00 0.72785027349547E+00
 p    1 1.00
 0.28887547253000E+00 0.10000000000000E+01
 p    1 1.00
 0.10056823671000E+00 0.10000000000000E+01
 d    1 1.00
 0.10970000000000E+01 0.10000000000000E+01
 d    1 1.00
 0.31800000000000E+00 0.10000000000000E+01
 d    1 1.00
 0.90985336424000E-01 0.10000000000000E+01
 f    1 1.00
 0.76100000000000E+00 0.10000000000000E+01
 
    7 0
 s    3 1.00
 0.34061341000000E+02 0.25439307208879E-01
 0.51235746000000E+01 0.19008594890375E+00
 0.11646626000000E+01 0.85244113011042E+00
 s    1 1.00
 0.32723041000000E+00 0.10000000000000E+01
 s    1 1.00
 0.10307241000000E+00 0.10000000000000E+01
 p    1 1.00
 0.80000000000000E+00 0.10000000000000E+01
 p    1 1.00
 0.95774129632000E-01 0.10000000000000E+01
 
    8 0
 s    3 1.00
 0.34061341000000E+02 0.25439307208879E-01
 0.51235746000000E+01 0.19008594890375E+00
 0.11646626000000E+01 0.85244113011042E+00
 s    1 1.00
 0.32723041000000E+00 0.10000000000000E+01
 s    1 1.00
 0.10307241000000E+00 0.10000000000000E+01
 p    1 1.00
 0.80000000000000E+00 0.10000000000000E+01
 p    1 1.00
 0.95774129632000E-01 0.10000000000000E+01
 
    9 0
 s    3 1.00
 0.34061341000000E+02 0.25439307208879E-01
 0.51235746000000E+01 0.19008594890375E+00
 0.11646626000000E+01 0.85244113011042E+00
 s    1 1.00
 0.32723041000000E+00 0.10000000000000E+01
 s    1 1.00
 0.10307241000000E+00 0.10000000000000E+01
 p    1 1.00
 0.80000000000000E+00 0.10000000000000E+01
 p    1 1.00
 0.95774129632000E-01 0.10000000000000E+01
 
   10 0
 s    3 1.00
 0.34061341000000E+02 0.25439307208879E-01
 0.51235746000000E+01 0.19008594890375E+00
 0.11646626000000E+01 0.85244113011042E+00
 s    1 1.00
 0.32723041000000E+00 0.10000000000000E+01
 s    1 1.00
 0.10307241000000E+00 0.10000000000000E+01
 p    1 1.00
 0.80000000000000E+00 0.10000000000000E+01
 p    1 1.00
 0.95774129632000E-01 0.10000000000000E+01
 
   11 0
 s    6 1.00
 0.19730800647000E+05 0.58626402628763E-03
 0.29578958745000E+04 0.45428820586397E-02
 0.67322133595000E+03 0.23558413450084E-01
 0.19068249494000E+03 0.94709193292923E-01
 0.62295441898000E+02 0.29719784913376E+00
 0.22654161182000E+02 0.66916246895232E+00
 s    2 1.00
 0.89791477428000E+01 0.64596683630063E+00
 0.36863002370000E+01 0.38700574393705E+00
 s    1 1.00
 0.84660076805000E+00 0.10000000000000E+01
 s    1 1.00
 0.33647133771000E+00 0.10000000000000E+01
 s    1 1.00
 0.13647653675000E+00 0.10000000000000E+01
 s    1 1.00
 0.68441605847000E-01 0.10000000000000E+01
 p    4 1.00
 0.49200380510000E+02 0.11448825101764E-01
 0.11346790537000E+02 0.78422337970864E-01
 0.34273972411000E+01 0.30818094738830E+00
 0.11785525134000E+01 0.72027196368413E+00
 p    1 1.00
 0.41642204972000E+00 0.10000000000000E+01
 p    1 1.00
 0.14260826011000E+00 0.10000000000000E+01
 d    1 1.00
 0.16540000000000E+01 0.10000000000000E+01
 d    1 1.00
 0.46900000000000E+00 0.10000000000000E+01
 d    1 1.00
 0.12829642058000E+00 0.10000000000000E+01
 f    1 1.00
 0.10930000000000E+01 0.10000000000000E+01
 
   12 0
 s    6 1.00
 0.27032382631000E+05 0.57227335211155E-03
 0.40523871392000E+04 0.44353233492995E-02
 0.92232722710000E+03 0.23020107706038E-01
 0.26124070989000E+03 0.92822490667928E-01
 0.85354641351000E+02 0.29378500009671E+00
 0.31035035245000E+02 0.67401604501641E+00
 s    2 1.00
 0.12260860728000E+02 0.63839937025506E+00
 0.49987076005000E+01 0.39534587125718E+00
 s    1 1.00
 0.11703108158000E+01 0.10000000000000E+01
 s    1 1.00
 0.46474740994000E+00 0.10000000000000E+01
 s    1 1.00
 0.18504536357000E+00 0.10000000000000E+01
 s    1 1.00
 0.70288026270000E-01 0.10000000000000E+01
 p    4 1.00
 0.63274954801000E+02 0.12018332222616E-01
 0.14627049379000E+02 0.83005421790056E-01
 0.44501223456000E+01 0.31991743925964E+00
 0.15275799647000E+01 0.70715542916104E+00
 p    1 1.00
 0.52935117943000E+00 0.10000000000000E+01
 p    1 1.00
 0.17478421270000E+00 0.10000000000000E+01
 p    1 1.00
 0.51112745706000E-01 0.10000000000000E+01
 d    1 1.00
 0.23140000000000E+01 0.10000000000000E+01
 d    1 1.00
 0.64500000000000E+00 0.10000000000000E+01
 d    1 1.00
 0.14696477366000E+00 0.10000000000000E+01
 f    1 1.00
 0.14280000000000E+01 0.10000000000000E+01
 
   13 0
 s    6 1.00
 0.27032382631000E+05 0.57227335211155E-03
 0.40523871392000E+04 0.44353233492995E-02
 0.92232722710000E+03 0.23020107706038E-01
 0.26124070989000E+03 0.92822490667928E-01
 0.85354641351000E+02 0.29378500009671E+00
 0.31035035245000E+02 0.67401604501641E+00
 s    2 1.00
 0.12260860728000E+02 0.63839937025506E+00
 0.49987076005000E+01 0.39534587125718E+00
 s    1 1.00
 0.11703108158000E+01 0.10000000000000E+01
 s    1 1.00
 0.46474740994000E+00 0.10000000000000E+01
 s    1 1.00
 0.18504536357000E+00 0.10000000000000E+01
 s    1 1.00
 0.70288026270000E-01 0.10000000000000E+01
 p    4 1.00
 0.63274954801000E+02 0.12018332222616E-01
 0.14627049379000E+02 0.83005421790056E-01
 0.44501223456000E+01 0.31991743925964E+00
 0.15275799647000E+01 0.70715542916104E+00
 p    1 1.00
 0.52935117943000E+00 0.10000000000000E+01
 p    1 1.00
 0.17478421270000E+00 0.10000000000000E+01
 p    1 1.00
 0.51112745706000E-01 0.10000000000000E+01
 d    1 1.00
 0.23140000000000E+01 0.10000000000000E+01
 d    1 1.00
 0.64500000000000E+00 0.10000000000000E+01
 d    1 1.00
 0.14696477366000E+00 0.10000000000000E+01
 f    1 1.00
 0.14280000000000E+01 0.10000000000000E+01
 
   14 0
 s    6 1.00
 0.19730800647000E+05 0.58626402628763E-03
 0.29578958745000E+04 0.45428820586397E-02
 0.67322133595000E+03 0.23558413450084E-01
 0.19068249494000E+03 0.94709193292923E-01
 0.62295441898000E+02 0.29719784913376E+00
 0.22654161182000E+02 0.66916246895232E+00
 s    2 1.00
 0.89791477428000E+01 0.64596683630063E+00
 0.36863002370000E+01 0.38700574393705E+00
 s    1 1.00
 0.84660076805000E+00 0.10000000000000E+01
 s    1 1.00
 0.33647133771000E+00 0.10000000000000E+01
 s    1 1.00
 0.13647653675000E+00 0.10000000000000E+01
 s    1 1.00
 0.68441605847000E-01 0.10000000000000E+01
 p    4 1.00
 0.49200380510000E+02 0.11448825101764E-01
 0.11346790537000E+02 0.78422337970864E-01
 0.34273972411000E+01 0.30818094738830E+00
 0.11785525134000E+01 0.72027196368413E+00
 p    1 1.00
 0.41642204972000E+00 0.10000000000000E+01
 p    1 1.00
 0.14260826011000E+00 0.10000000000000E+01
 d    1 1.00
 0.16540000000000E+01 0.10000000000000E+01
 d    1 1.00
 0.46900000000000E+00 0.10000000000000E+01
 d    1 1.00
 0.12829642058000E+00 0.10000000000000E+01
 f    1 1.00
 0.10930000000000E+01 0.10000000000000E+01
 
   15 0
 s    3 1.00
 0.34061341000000E+02 0.25439307208879E-01
 0.51235746000000E+01 0.19008594890375E+00
 0.11646626000000E+01 0.85244113011042E+00
 s    1 1.00
 0.32723041000000E+00 0.10000000000000E+01
 s    1 1.00
 0.10307241000000E+00 0.10000000000000E+01
 p    1 1.00
 0.80000000000000E+00 0.10000000000000E+01
 p    1 1.00
 0.95774129632000E-01 0.10000000000000E+01
 
   16 0
 s    3 1.00
 0.34061341000000E+02 0.25439307208879E-01
 0.51235746000000E+01 0.19008594890375E+00
 0.11646626000000E+01 0.85244113011042E+00
 s    1 1.00
 0.32723041000000E+00 0.10000000000000E+01
 s    1 1.00
 0.10307241000000E+00 0.10000000000000E+01
 p    1 1.00
 0.80000000000000E+00 0.10000000000000E+01
 p    1 1.00
 0.95774129632000E-01 0.10000000000000E+01
 
[MO]
 Sym= X
 Ene= -0.080851
 Spin= Alpha
 Occup= -0.080851
         1    1.188441E-04
         2    2.791838E-04
         3   -9.114957E-04
         4    2.566645E-03
         5    1.004924E-02
         6    9.695192E-03
         7   -5.065388E-04
         8    6.171453E-05
         9   -2.719803E-02
        10    2.819901E-03
        11   -1.148522E-04
        12   -2.538860E-02
        13    3.144563E-02
        14   -9.719025E-03
        15   -6.393135E-03
        16    2.469016E-05
        17   -1.084308E-05
        18   -1.384708E-05
        19   -1.545033E-06
        20    6.550585E-03
        21   -3.999037E-03
        22    6.150084E-04
        23   -3.678372E-04
        24   -2.471712E-04
        25    5.794047E-04
        26    1.471708E-02
        27   -7.526176E-03
        28    4.754786E-03
        29   -4.511114E-03
        30   -2.436724E-04
        31   -7.887231E-04
        32   -1.205436E-03
        33    9.135413E-03
        34    2.024051E-05
        35   -3.577633E-06
        36    1.202339E-04
        37   -8.144954E-06
        38    3.961977E-06
        39    7.179082E-04
        40   -1.901055E-05
        41    8.379210E-07
        42   -8.792189E-04
        43    7.324364E-04
        44    2.209259E-05
        45    5.086103E-05
        46   -2.311393E-04
        47    1.878059E-03
        48    4.717152E-02
        49   -4.346552E-03
        50   -3.798906E-04
        51   -1.432942E-06
        52   -2.121166E-01
        53    2.908942E-04
        54   -2.048783E-05
        55   -2.200277E-01
        56    1.507713E-02
        57    6.428490E-04
        58   -2.018439E-01
        59   -6.024106E-06
        60    3.268198E-06
        61    2.755908E-06
        62   -7.933797E-08
        63    8.140930E-04
        64   -1.523305E-07
        65   -2.782255E-04
        66    4.778334E-04
        67   -1.996079E-04
        68   -4.509962E-06
        69    3.607116E-03
        70   -3.407022E-07
        71   -7.143932E-03
        72    8.182473E-03
        73   -1.038542E-03
        74    1.058895E-04
        75   -5.255849E-03
        76    1.345085E-05
        77   -6.551477E-06
        78   -4.899172E-08
        79    1.206281E-03
        80    4.641361E-06
        81   -2.400212E-08
        82   -7.403179E-04
        83    4.148367E-06
        84    8.973140E-08
        85   -8.780782E-04
        86   -5.537876E-08
        87    1.190292E-04
        88    2.795976E-04
        89   -9.134694E-04
        90    2.582116E-03
        91    8.588991E-03
        92    9.662273E-03
        93   -5.068710E-04
        94   -6.010090E-05
        95   -2.720744E-02
        96    2.781446E-03
        97    1.061498E-04
        98   -2.539379E-02
        99    3.175943E-02
       100    1.029083E-02
       101   -6.394304E-03
       102    2.457364E-05
       103   -1.082549E-05
       104   -1.374815E-05
       105    1.268271E-06
       106    6.550398E-03
       107    3.999176E-03
       108    6.073641E-04
       109   -3.600145E-04
       110   -2.473496E-04
       111   -5.755094E-04
       112    1.471734E-02
       113    7.524979E-03
       114    4.866523E-03
       115   -4.631096E-03
       116   -2.354272E-04
       117    6.848989E-04
       118   -1.192367E-03
       119   -9.133518E-03
       120    2.023899E-05
       121    3.535271E-06
       122    1.201808E-04
       123   -8.324591E-06
       124   -3.909205E-06
       125    7.179875E-04
       126   -1.882886E-05
       127   -8.338578E-07
       128   -8.792270E-04
       129   -7.323582E-04
       130   -7.772017E-05
       131   -1.649704E-04
       132   -5.439345E-04
       133    8.554465E-03
       134   -2.975652E-02
       135   -1.107310E-02
       136    2.287665E-04
       137   -2.866624E-04
       138    1.607809E-01
       139    7.083433E-03
       140   -5.012155E-03
       141    1.633281E-01
       142    2.150764E-02
       143    6.992095E-03
       144    9.870868E-02
       145   -8.144192E-05
       146    1.028388E-04
       147   -2.139693E-05
       148    1.167928E-05
       149    1.110361E-03
       150   -3.312339E-03
       151   -5.138254E-04
       152    5.963141E-04
       153   -8.248867E-05
       154   -1.413060E-03
       155    4.550017E-03
       156   -5.652288E-03
       157   -7.212400E-03
       158    5.640918E-03
       159    1.571482E-03
       160    7.461938E-03
       161   -2.995316E-03
       162    1.035247E-02
       163    1.247970E-05
       164   -4.100957E-06
       165   -9.357845E-04
       166    1.326033E-05
       167   -1.856907E-05
       168    2.447227E-04
       169   -3.000361E-05
       170    2.407108E-05
       171    1.010764E-03
       172   -3.969989E-04
       173    9.281230E-04
       174    2.118290E-03
       175   -2.162171E-03
       176   -1.895820E-02
       177    1.277564E-02
       178   -8.119745E-03
       179   -6.082981E-03
       180    1.288999E-06
       181    1.347456E-01
       182    6.115372E-04
       183    8.281869E-06
       184    1.366350E-01
       185    2.019792E-02
       186   -9.436338E-04
       187    1.303605E-01
       188   -3.336136E-04
       189    1.606307E-04
       190    1.729829E-04
       191   -2.885785E-07
       192   -9.208671E-03
       193   -4.121308E-07
       194    1.628460E-03
       195   -3.527637E-03
       196    1.899177E-03
       197    1.440300E-07
       198   -2.326000E-02
       199    2.062470E-06
       200    4.294105E-03
       201   -5.386177E-03
       202    1.092072E-03
       203    1.261192E-04
       204   -1.866269E-02
       205    1.500683E-07
       206   -8.941735E-05
       207   -2.306215E-08
       208   -5.491899E-04
       209    6.621822E-05
       210    2.627194E-08
       211   -7.911529E-04
       212    5.374774E-05
       213    4.669182E-09
       214    1.527968E-03
       215   -4.892220E-08
       216   -7.816597E-05
       217   -1.657684E-04
       218   -5.423414E-04
       219    8.555070E-03
       220   -3.160089E-02
       221   -1.109669E-02
       222    2.288507E-04
       223    2.793918E-04
       224    1.607903E-01
       225    7.102949E-03
       226    5.011400E-03
       227    1.633420E-01
       228    2.103419E-02
       229   -7.881661E-03
       230    9.873074E-02
       231   -8.137574E-05
       232    1.031522E-04
       233   -2.177651E-05
       234   -1.205230E-05
       235    1.110394E-03
       236    3.312356E-03
       237   -5.194360E-04
       238    5.988503E-04
       239   -7.941426E-05
       240    1.416283E-03
       241    4.547018E-03
       242    5.652556E-03
       243   -7.135023E-03
       244    5.559672E-03
       245    1.575350E-03
       246   -7.596493E-03
       247   -3.015390E-03
       248   -1.035318E-02
       249    1.270506E-05
       250    4.136951E-06
       251   -9.360106E-04
       252    1.315104E-05
       253    1.852848E-05
       254    2.449999E-04
       255   -3.019667E-05
       256   -2.407879E-05
       257    1.010790E-03
       258    3.970434E-04
       259   -5.951415E-06
       260   -2.949107E-04
       261    1.445461E-02
       262    3.165996E-06
       263   -4.878252E-05
       264   -1.080800E-03
       265    4.675333E-03
       266    3.505345E-05
       267    5.815411E-03
       268   -4.470902E-06
       269   -3.015041E-04
       270    1.444319E-02
       271    2.224858E-06
       272    4.974561E-05
       273   -1.081045E-03
       274    4.772178E-03
       275   -3.386470E-06
       276    5.819282E-03
       277    1.857440E-04
       278    1.758772E-03
       279   -2.957137E-02
       280   -4.981472E-07
       281   -5.543791E-05
       282    6.536736E-03
       283    1.141161E-03
       284    2.479842E-03
       285   -1.671060E-04
       286    1.894306E-04
       287    1.769798E-03
       288   -2.987334E-02
       289   -1.055988E-06
       290    5.616781E-05
       291    6.537858E-03
       292    1.123477E-03
       293   -2.532816E-03
       294   -1.567796E-04
       295    8.380973E-06
       296    1.737215E-05
       297    3.531383E-05
       298   -1.452616E-04
       299    5.115124E-03
       300   -1.862087E-03
       301   -1.772846E-04
       302    9.110367E-08
       303   -2.599691E-02
       304    7.232625E-05
       305   -1.311325E-06
       306   -2.805783E-02
       307    2.490074E-03
       308   -2.951321E-05
       309   -1.169153E-02
       310   -3.122860E-05
       311    1.563652E-05
       312    1.559209E-05
       313   -1.611147E-08
       314   -4.531132E-03
       315   -4.259324E-08
       316   -3.695353E-05
       317   -2.818441E-05
       318    6.513794E-05
       319    5.667386E-07
       320   -1.372330E-02
       321    6.605155E-08
       322    9.652723E-04
       323   -2.474865E-03
       324    1.509593E-03
       325   -2.219837E-05
       326   -3.616029E-03
       327   -4.717369E-06
       328   -5.627502E-06
       329   -2.835836E-09
       330    3.196842E-05
       331    4.065507E-06
       332   -2.089239E-08
       333   -7.381032E-04
       334    3.484579E-06
       335    2.469707E-08
       336    6.952130E-04
       337    5.279124E-10
       338   -1.009140E-06
       339   -5.705984E-06
       340    4.782087E-05
       341   -3.697901E-04
       342    5.047506E-03
       343    8.898613E-04
       344    5.314198E-04
       345    9.556217E-05
       346    7.790050E-02
       347    5.613312E-04
       348   -4.027517E-05
       349    7.232227E-02
       350    1.509233E-03
       351   -2.864797E-04
       352    5.989419E-02
       353    1.475365E-04
       354   -2.056513E-04
       355    7.485928E-03
       356   -1.980891E-07
       357    2.539660E-07
       358   -5.587691E-08
       359   -3.565017E-06
       360   -4.921048E-05
       361   -4.185066E-04
       362    1.840472E-05
       363   -1.009865E-06
       364   -1.739486E-05
       365   -1.995097E-05
       366    4.086327E-04
       367   -1.433210E-03
       368    7.597630E-05
       369   -5.888696E-05
       370   -1.708934E-05
       371   -9.124735E-05
       372    2.327828E-04
       373   -1.719729E-04
       374   -8.991303E-07
       375    3.555412E-07
       376   -5.220791E-05
       377    1.590089E-06
       378   -1.862511E-06
       379   -8.638441E-05
       380   -3.837791E-07
       381    1.385502E-06
       382    1.564287E-04
       383   -1.211025E-04
       384   -1.122896E-06
       385   -5.939701E-06
       386    4.762657E-05
       387   -3.648852E-04
       388    5.037431E-03
       389    8.632593E-04
       390    5.284977E-04
       391   -9.477322E-05
       392    7.790150E-02
       393    5.582926E-04
       394    4.032863E-05
       395    7.232406E-02
       396    1.481952E-03
       397    2.798647E-04
       398    5.988649E-02
       399    1.322654E-04
       400    2.117435E-04
       401    7.486313E-03
       402   -2.049900E-07
       403    2.763483E-07
       404   -7.135828E-08
       405    3.617068E-06
       406   -4.918033E-05
       407    4.185142E-04
       408    1.823210E-05
       409   -1.163461E-06
       410   -1.706864E-05
       411    1.946785E-05
       412    4.085692E-04
       413    1.433271E-03
       414    7.509216E-05
       415   -5.997518E-05
       416   -1.511699E-05
       417    9.056970E-05
       418    2.327486E-04
       419    1.706884E-04
       420   -8.994821E-07
       421   -3.604445E-07
       422   -5.221355E-05
       423    1.570752E-06
       424    1.860185E-06
       425   -8.638214E-05
       426   -3.639705E-07
       427   -1.376598E-06
       428    1.564340E-04
       429    1.211097E-04
       430   -3.999392E-03
       431   -9.517887E-03
       432    1.491228E-02
       433    2.311501E-02
       434    2.040214E-02
       435    6.346618E-02
       436    1.309317E-02
       437   -5.879548E-06
       438   -2.158121E-01
       439    1.536663E-02
       440    7.183388E-08
       441   -2.139897E-01
       442    1.369109E-02
       443    9.892555E-05
       444   -1.806482E-01
       445    1.022630E-04
       446   -3.913081E-05
       447   -6.313222E-05
       448   -1.964641E-07
       449   -1.166334E-03
       450   -1.827140E-07
       451    2.428424E-04
       452    1.176384E-03
       453   -1.419227E-03
       454    3.324305E-06
       455   -4.512124E-03
       456   -1.285133E-06
       457    1.925352E-03
       458    2.210706E-03
       459   -4.136058E-03
       460    1.951607E-06
       461   -2.446427E-03
       462   -6.801985E-06
       463    1.274504E-04
       464   -2.134746E-08
       465    7.915407E-04
       466    6.357719E-05
       467    4.350872E-09
       468   -3.454626E-04
       469   -2.345699E-04
       470    2.428975E-08
       471   -7.165008E-04
       472    4.667048E-10
       473   -8.931863E-03
       474   -1.627393E-02
       475   -2.631109E-02
       476    1.893743E-03
       477    1.687654E-03
       478   -1.114265E-02
       479   -1.710790E-03
       480    3.077822E-03
       481   -1.423480E-02
       482   -8.927843E-03
       483   -1.621649E-02
       484   -2.614250E-02
       485    1.891001E-03
       486   -1.682129E-03
       487   -1.114553E-02
       488   -1.727574E-03
       489   -3.046456E-03
       490   -1.424074E-02
 Sym= X
 Ene= -0.875327
 Spin= Alpha
 Occup= -0.875327
         1   -2.837306E-04
         2   -6.528787E-04
         3    1.500897E-03
         4   -1.678382E-03
         5    6.443957E-03
         6   -1.066093E-02
         7    2.771035E-03
         8   -3.940386E-04
         9   -1.399190E-01
        10   -1.408388E-03
        11   -2.337196E-05
        12   -1.378291E-01
        13   -2.048959E-02
        14    7.226047E-04
        15   -5.241676E-02
        16    7.418771E-05
        17   -7.147746E-05
        18   -2.710242E-06
        19   -3.573574E-05
        20    3.528539E-04
        21   -4.336353E-03
        22   -4.809144E-04
        23    2.899551E-04
        24    1.909593E-04
        25   -7.688732E-04
        26    1.334356E-03
        27   -7.214300E-03
        28   -2.066542E-03
        29    1.934482E-03
        30    1.320601E-04
        31    1.699503E-03
        32    6.884056E-03
        33   -5.035775E-03
        34   -1.324005E-05
        35    3.147702E-06
        36    1.175914E-03
        37    1.562418E-06
        38   -3.244670E-06
        39   -6.560225E-04
        40    1.620098E-05
        41   -9.784158E-07
        42   -9.216320E-04
        43    4.908901E-04
        44   -9.038660E-05
        45   -2.073239E-04
        46    6.138654E-04
        47   -3.080451E-03
        48   -1.273773E-02
        49    9.548617E-03
        50   -2.053511E-03
        51    2.562095E-06
        52   -2.065897E-01
        53   -2.612961E-03
        54   -1.308329E-05
        55   -2.082602E-01
        56   -8.610756E-03
        57   -6.931247E-04
        58   -6.517793E-02
        59    1.216317E-04
        60   -1.180904E-04
        61   -3.541338E-06
        62    9.319681E-08