[Molden Format]
[Title]
ADC(2) - opt by CAM-B3LYP gaussian                                              
[Atoms] AU
 c     1    6 -.12589065566052E+01 -.22830902054421E+01 -.26005390588660E-01
 c     2    6 -.25569912224779E+01 0.86573078000000E-06 -.24733756079320E-01
 c     3    6 -.12589060841737E+01 0.22830907841707E+01 -.26008073999770E-01
 c     4    6 0.13324295737882E+01 0.22846183820847E+01 -.28114684000920E-01
 c     5    6 0.26867573459717E+01 0.39329925000000E-06 -.27723246129760E-01
 c     6    6 0.13324281942881E+01 -.22846180679178E+01 -.28111244699360E-01
 h     7    1 -.22982509786098E+01 -.40377481062879E+01 -.23319125993500E-01
 h     8    1 -.22982490510892E+01 0.40377494409070E+01 -.23324322740370E-01
 h     9    1 0.23514918675648E+01 0.40568894753521E+01 -.30529017005560E-01
 h    10    1 0.23514910360853E+01 -.40568888210345E+01 -.30521911635300E-01
 n    11    7 -.52742123095903E+01 0.14763485000000E-06 -.18925267070140E-01
 o    12    8 -.63809534361791E+01 0.20269762391752E+01 -.16457057973460E-01
 o    13    8 -.63809510362269E+01 -.20269772478165E+01 -.16464881439650E-01
 n    14    7 0.52454603626942E+01 -.57046108000000E-06 -.73989411041200E-01
 h    15    1 0.62036818842731E+01 0.16164996606794E+01 0.19711589672944E+00
 h    16    1 0.62036804102867E+01 -.16165023700742E+01 0.19711149366755E+00
[GTO]
    1 0
 s    6 1.00
 0.13575349682000E+05 0.60645503603591E-03
 0.20352333680000E+04 0.46979088884982E-02
 0.46322562359000E+03 0.24332477647552E-01
 0.13120019598000E+03 0.97399968307759E-01
 0.42853015891000E+02 0.30195584253780E+00
 0.15584185766000E+02 0.66233609137875E+00
 s    2 1.00
 0.62067138508000E+01 0.65595308539952E+00
 0.25764896527000E+01 0.37585633285142E+00
 s    1 1.00
 0.57696339419000E+00 0.10000000000000E+01
 s    1 1.00
 0.22972831358000E+00 0.10000000000000E+01
 s    1 1.00
 0.95164440028000E-01 0.10000000000000E+01
 s    1 1.00
 0.48475401370000E-01 0.10000000000000E+01
 p    4 1.00
 0.34697232244000E+02 0.11327220003114E-01
 0.79582622826000E+01 0.76169659202087E-01
 0.23780826883000E+01 0.30192252202676E+00
 0.81433208183000E+00 0.72785027349547E+00
 p    1 1.00
 0.28887547253000E+00 0.10000000000000E+01
 p    1 1.00
 0.10056823671000E+00 0.10000000000000E+01
 d    1 1.00
 0.10970000000000E+01 0.10000000000000E+01
 d    1 1.00
 0.31800000000000E+00 0.10000000000000E+01
 d    1 1.00
 0.90985336424000E-01 0.10000000000000E+01
 f    1 1.00
 0.76100000000000E+00 0.10000000000000E+01
 
    2 0
 s    6 1.00
 0.13575349682000E+05 0.60645503603591E-03
 0.20352333680000E+04 0.46979088884982E-02
 0.46322562359000E+03 0.24332477647552E-01
 0.13120019598000E+03 0.97399968307759E-01
 0.42853015891000E+02 0.30195584253780E+00
 0.15584185766000E+02 0.66233609137875E+00
 s    2 1.00
 0.62067138508000E+01 0.65595308539952E+00
 0.25764896527000E+01 0.37585633285142E+00
 s    1 1.00
 0.57696339419000E+00 0.10000000000000E+01
 s    1 1.00
 0.22972831358000E+00 0.10000000000000E+01
 s    1 1.00
 0.95164440028000E-01 0.10000000000000E+01
 s    1 1.00
 0.48475401370000E-01 0.10000000000000E+01
 p    4 1.00
 0.34697232244000E+02 0.11327220003114E-01
 0.79582622826000E+01 0.76169659202087E-01
 0.23780826883000E+01 0.30192252202676E+00
 0.81433208183000E+00 0.72785027349547E+00
 p    1 1.00
 0.28887547253000E+00 0.10000000000000E+01
 p    1 1.00
 0.10056823671000E+00 0.10000000000000E+01
 d    1 1.00
 0.10970000000000E+01 0.10000000000000E+01
 d    1 1.00
 0.31800000000000E+00 0.10000000000000E+01
 d    1 1.00
 0.90985336424000E-01 0.10000000000000E+01
 f    1 1.00
 0.76100000000000E+00 0.10000000000000E+01
 
    3 0
 s    6 1.00
 0.13575349682000E+05 0.60645503603591E-03
 0.20352333680000E+04 0.46979088884982E-02
 0.46322562359000E+03 0.24332477647552E-01
 0.13120019598000E+03 0.97399968307759E-01
 0.42853015891000E+02 0.30195584253780E+00
 0.15584185766000E+02 0.66233609137875E+00
 s    2 1.00
 0.62067138508000E+01 0.65595308539952E+00
 0.25764896527000E+01 0.37585633285142E+00
 s    1 1.00
 0.57696339419000E+00 0.10000000000000E+01
 s    1 1.00
 0.22972831358000E+00 0.10000000000000E+01
 s    1 1.00
 0.95164440028000E-01 0.10000000000000E+01
 s    1 1.00
 0.48475401370000E-01 0.10000000000000E+01
 p    4 1.00
 0.34697232244000E+02 0.11327220003114E-01
 0.79582622826000E+01 0.76169659202087E-01
 0.23780826883000E+01 0.30192252202676E+00
 0.81433208183000E+00 0.72785027349547E+00
 p    1 1.00
 0.28887547253000E+00 0.10000000000000E+01
 p    1 1.00
 0.10056823671000E+00 0.10000000000000E+01
 d    1 1.00
 0.10970000000000E+01 0.10000000000000E+01
 d    1 1.00
 0.31800000000000E+00 0.10000000000000E+01
 d    1 1.00
 0.90985336424000E-01 0.10000000000000E+01
 f    1 1.00
 0.76100000000000E+00 0.10000000000000E+01
 
    4 0
 s    6 1.00
 0.13575349682000E+05 0.60645503603591E-03
 0.20352333680000E+04 0.46979088884982E-02
 0.46322562359000E+03 0.24332477647552E-01
 0.13120019598000E+03 0.97399968307759E-01
 0.42853015891000E+02 0.30195584253780E+00
 0.15584185766000E+02 0.66233609137875E+00
 s    2 1.00
 0.62067138508000E+01 0.65595308539952E+00
 0.25764896527000E+01 0.37585633285142E+00
 s    1 1.00
 0.57696339419000E+00 0.10000000000000E+01
 s    1 1.00
 0.22972831358000E+00 0.10000000000000E+01
 s    1 1.00
 0.95164440028000E-01 0.10000000000000E+01
 s    1 1.00
 0.48475401370000E-01 0.10000000000000E+01
 p    4 1.00
 0.34697232244000E+02 0.11327220003114E-01
 0.79582622826000E+01 0.76169659202087E-01
 0.23780826883000E+01 0.30192252202676E+00
 0.81433208183000E+00 0.72785027349547E+00
 p    1 1.00
 0.28887547253000E+00 0.10000000000000E+01
 p    1 1.00
 0.10056823671000E+00 0.10000000000000E+01
 d    1 1.00
 0.10970000000000E+01 0.10000000000000E+01
 d    1 1.00
 0.31800000000000E+00 0.10000000000000E+01
 d    1 1.00
 0.90985336424000E-01 0.10000000000000E+01
 f    1 1.00
 0.76100000000000E+00 0.10000000000000E+01
 
    5 0
 s    6 1.00
 0.13575349682000E+05 0.60645503603591E-03
 0.20352333680000E+04 0.46979088884982E-02
 0.46322562359000E+03 0.24332477647552E-01
 0.13120019598000E+03 0.97399968307759E-01
 0.42853015891000E+02 0.30195584253780E+00
 0.15584185766000E+02 0.66233609137875E+00
 s    2 1.00
 0.62067138508000E+01 0.65595308539952E+00
 0.25764896527000E+01 0.37585633285142E+00
 s    1 1.00
 0.57696339419000E+00 0.10000000000000E+01
 s    1 1.00
 0.22972831358000E+00 0.10000000000000E+01
 s    1 1.00
 0.95164440028000E-01 0.10000000000000E+01
 s    1 1.00
 0.48475401370000E-01 0.10000000000000E+01
 p    4 1.00
 0.34697232244000E+02 0.11327220003114E-01
 0.79582622826000E+01 0.76169659202087E-01
 0.23780826883000E+01 0.30192252202676E+00
 0.81433208183000E+00 0.72785027349547E+00
 p    1 1.00
 0.28887547253000E+00 0.10000000000000E+01
 p    1 1.00
 0.10056823671000E+00 0.10000000000000E+01
 d    1 1.00
 0.10970000000000E+01 0.10000000000000E+01
 d    1 1.00
 0.31800000000000E+00 0.10000000000000E+01
 d    1 1.00
 0.90985336424000E-01 0.10000000000000E+01
 f    1 1.00
 0.76100000000000E+00 0.10000000000000E+01
 
    6 0
 s    6 1.00
 0.13575349682000E+05 0.60645503603591E-03
 0.20352333680000E+04 0.46979088884982E-02
 0.46322562359000E+03 0.24332477647552E-01
 0.13120019598000E+03 0.97399968307759E-01
 0.42853015891000E+02 0.30195584253780E+00
 0.15584185766000E+02 0.66233609137875E+00
 s    2 1.00
 0.62067138508000E+01 0.65595308539952E+00
 0.25764896527000E+01 0.37585633285142E+00
 s    1 1.00
 0.57696339419000E+00 0.10000000000000E+01
 s    1 1.00
 0.22972831358000E+00 0.10000000000000E+01
 s    1 1.00
 0.95164440028000E-01 0.10000000000000E+01
 s    1 1.00
 0.48475401370000E-01 0.10000000000000E+01
 p    4 1.00
 0.34697232244000E+02 0.11327220003114E-01
 0.79582622826000E+01 0.76169659202087E-01
 0.23780826883000E+01 0.30192252202676E+00
 0.81433208183000E+00 0.72785027349547E+00
 p    1 1.00
 0.28887547253000E+00 0.10000000000000E+01
 p    1 1.00
 0.10056823671000E+00 0.10000000000000E+01
 d    1 1.00
 0.10970000000000E+01 0.10000000000000E+01
 d    1 1.00
 0.31800000000000E+00 0.10000000000000E+01
 d    1 1.00
 0.90985336424000E-01 0.10000000000000E+01
 f    1 1.00
 0.76100000000000E+00 0.10000000000000E+01
 
    7 0
 s    3 1.00
 0.34061341000000E+02 0.25439307208879E-01
 0.51235746000000E+01 0.19008594890375E+00
 0.11646626000000E+01 0.85244113011042E+00
 s    1 1.00
 0.32723041000000E+00 0.10000000000000E+01
 s    1 1.00
 0.10307241000000E+00 0.10000000000000E+01
 p    1 1.00
 0.80000000000000E+00 0.10000000000000E+01
 p    1 1.00
 0.95774129632000E-01 0.10000000000000E+01
 
    8 0
 s    3 1.00
 0.34061341000000E+02 0.25439307208879E-01
 0.51235746000000E+01 0.19008594890375E+00
 0.11646626000000E+01 0.85244113011042E+00
 s    1 1.00
 0.32723041000000E+00 0.10000000000000E+01
 s    1 1.00
 0.10307241000000E+00 0.10000000000000E+01
 p    1 1.00
 0.80000000000000E+00 0.10000000000000E+01
 p    1 1.00
 0.95774129632000E-01 0.10000000000000E+01
 
    9 0
 s    3 1.00
 0.34061341000000E+02 0.25439307208879E-01
 0.51235746000000E+01 0.19008594890375E+00
 0.11646626000000E+01 0.85244113011042E+00
 s    1 1.00
 0.32723041000000E+00 0.10000000000000E+01
 s    1 1.00
 0.10307241000000E+00 0.10000000000000E+01
 p    1 1.00
 0.80000000000000E+00 0.10000000000000E+01
 p    1 1.00
 0.95774129632000E-01 0.10000000000000E+01
 
   10 0
 s    3 1.00
 0.34061341000000E+02 0.25439307208879E-01
 0.51235746000000E+01 0.19008594890375E+00
 0.11646626000000E+01 0.85244113011042E+00
 s    1 1.00
 0.32723041000000E+00 0.10000000000000E+01
 s    1 1.00
 0.10307241000000E+00 0.10000000000000E+01
 p    1 1.00
 0.80000000000000E+00 0.10000000000000E+01
 p    1 1.00
 0.95774129632000E-01 0.10000000000000E+01
 
   11 0
 s    6 1.00
 0.19730800647000E+05 0.58626402628763E-03
 0.29578958745000E+04 0.45428820586397E-02
 0.67322133595000E+03 0.23558413450084E-01
 0.19068249494000E+03 0.94709193292923E-01
 0.62295441898000E+02 0.29719784913376E+00
 0.22654161182000E+02 0.66916246895232E+00
 s    2 1.00
 0.89791477428000E+01 0.64596683630063E+00
 0.36863002370000E+01 0.38700574393705E+00
 s    1 1.00
 0.84660076805000E+00 0.10000000000000E+01
 s    1 1.00
 0.33647133771000E+00 0.10000000000000E+01
 s    1 1.00
 0.13647653675000E+00 0.10000000000000E+01
 s    1 1.00
 0.68441605847000E-01 0.10000000000000E+01
 p    4 1.00
 0.49200380510000E+02 0.11448825101764E-01
 0.11346790537000E+02 0.78422337970864E-01
 0.34273972411000E+01 0.30818094738830E+00
 0.11785525134000E+01 0.72027196368413E+00
 p    1 1.00
 0.41642204972000E+00 0.10000000000000E+01
 p    1 1.00
 0.14260826011000E+00 0.10000000000000E+01
 d    1 1.00
 0.16540000000000E+01 0.10000000000000E+01
 d    1 1.00
 0.46900000000000E+00 0.10000000000000E+01
 d    1 1.00
 0.12829642058000E+00 0.10000000000000E+01
 f    1 1.00
 0.10930000000000E+01 0.10000000000000E+01
 
   12 0
 s    6 1.00
 0.27032382631000E+05 0.57227335211155E-03
 0.40523871392000E+04 0.44353233492995E-02
 0.92232722710000E+03 0.23020107706038E-01
 0.26124070989000E+03 0.92822490667928E-01
 0.85354641351000E+02 0.29378500009671E+00
 0.31035035245000E+02 0.67401604501641E+00
 s    2 1.00
 0.12260860728000E+02 0.63839937025506E+00
 0.49987076005000E+01 0.39534587125718E+00
 s    1 1.00
 0.11703108158000E+01 0.10000000000000E+01
 s    1 1.00
 0.46474740994000E+00 0.10000000000000E+01
 s    1 1.00
 0.18504536357000E+00 0.10000000000000E+01
 s    1 1.00
 0.70288026270000E-01 0.10000000000000E+01
 p    4 1.00
 0.63274954801000E+02 0.12018332222616E-01
 0.14627049379000E+02 0.83005421790056E-01
 0.44501223456000E+01 0.31991743925964E+00
 0.15275799647000E+01 0.70715542916104E+00
 p    1 1.00
 0.52935117943000E+00 0.10000000000000E+01
 p    1 1.00
 0.17478421270000E+00 0.10000000000000E+01
 p    1 1.00
 0.51112745706000E-01 0.10000000000000E+01
 d    1 1.00
 0.23140000000000E+01 0.10000000000000E+01
 d    1 1.00
 0.64500000000000E+00 0.10000000000000E+01
 d    1 1.00
 0.14696477366000E+00 0.10000000000000E+01
 f    1 1.00
 0.14280000000000E+01 0.10000000000000E+01
 
   13 0
 s    6 1.00
 0.27032382631000E+05 0.57227335211155E-03
 0.40523871392000E+04 0.44353233492995E-02
 0.92232722710000E+03 0.23020107706038E-01
 0.26124070989000E+03 0.92822490667928E-01
 0.85354641351000E+02 0.29378500009671E+00
 0.31035035245000E+02 0.67401604501641E+00
 s    2 1.00
 0.12260860728000E+02 0.63839937025506E+00
 0.49987076005000E+01 0.39534587125718E+00
 s    1 1.00
 0.11703108158000E+01 0.10000000000000E+01
 s    1 1.00
 0.46474740994000E+00 0.10000000000000E+01
 s    1 1.00
 0.18504536357000E+00 0.10000000000000E+01
 s    1 1.00
 0.70288026270000E-01 0.10000000000000E+01
 p    4 1.00
 0.63274954801000E+02 0.12018332222616E-01
 0.14627049379000E+02 0.83005421790056E-01
 0.44501223456000E+01 0.31991743925964E+00
 0.15275799647000E+01 0.70715542916104E+00
 p    1 1.00
 0.52935117943000E+00 0.10000000000000E+01
 p    1 1.00
 0.17478421270000E+00 0.10000000000000E+01
 p    1 1.00
 0.51112745706000E-01 0.10000000000000E+01
 d    1 1.00
 0.23140000000000E+01 0.10000000000000E+01
 d    1 1.00
 0.64500000000000E+00 0.10000000000000E+01
 d    1 1.00
 0.14696477366000E+00 0.10000000000000E+01
 f    1 1.00
 0.14280000000000E+01 0.10000000000000E+01
 
   14 0
 s    6 1.00
 0.19730800647000E+05 0.58626402628763E-03
 0.29578958745000E+04 0.45428820586397E-02
 0.67322133595000E+03 0.23558413450084E-01
 0.19068249494000E+03 0.94709193292923E-01
 0.62295441898000E+02 0.29719784913376E+00
 0.22654161182000E+02 0.66916246895232E+00
 s    2 1.00
 0.89791477428000E+01 0.64596683630063E+00
 0.36863002370000E+01 0.38700574393705E+00
 s    1 1.00
 0.84660076805000E+00 0.10000000000000E+01
 s    1 1.00
 0.33647133771000E+00 0.10000000000000E+01
 s    1 1.00
 0.13647653675000E+00 0.10000000000000E+01
 s    1 1.00
 0.68441605847000E-01 0.10000000000000E+01
 p    4 1.00
 0.49200380510000E+02 0.11448825101764E-01
 0.11346790537000E+02 0.78422337970864E-01
 0.34273972411000E+01 0.30818094738830E+00
 0.11785525134000E+01 0.72027196368413E+00
 p    1 1.00
 0.41642204972000E+00 0.10000000000000E+01
 p    1 1.00
 0.14260826011000E+00 0.10000000000000E+01
 d    1 1.00
 0.16540000000000E+01 0.10000000000000E+01
 d    1 1.00
 0.46900000000000E+00 0.10000000000000E+01
 d    1 1.00
 0.12829642058000E+00 0.10000000000000E+01
 f    1 1.00
 0.10930000000000E+01 0.10000000000000E+01
 
   15 0
 s    3 1.00
 0.34061341000000E+02 0.25439307208879E-01
 0.51235746000000E+01 0.19008594890375E+00
 0.11646626000000E+01 0.85244113011042E+00
 s    1 1.00
 0.32723041000000E+00 0.10000000000000E+01
 s    1 1.00
 0.10307241000000E+00 0.10000000000000E+01
 p    1 1.00
 0.80000000000000E+00 0.10000000000000E+01
 p    1 1.00
 0.95774129632000E-01 0.10000000000000E+01
 
   16 0
 s    3 1.00
 0.34061341000000E+02 0.25439307208879E-01
 0.51235746000000E+01 0.19008594890375E+00
 0.11646626000000E+01 0.85244113011042E+00
 s    1 1.00
 0.32723041000000E+00 0.10000000000000E+01
 s    1 1.00
 0.10307241000000E+00 0.10000000000000E+01
 p    1 1.00
 0.80000000000000E+00 0.10000000000000E+01
 p    1 1.00
 0.95774129632000E-01 0.10000000000000E+01
 
[MO]
 Sym= X
 Ene= -0.966732
 Spin= Alpha
 Occup= -0.966732
         1   -5.286498E-03
         2   -1.212379E-02
         3    2.504140E-02
         4   -7.591859E-03
         5    2.194160E-01
         6    3.268554E-02
         7   -5.266524E-02
         8   -1.039973E-02
         9    6.933776E-05
        10   -5.894956E-02
        11   -1.015421E-02
        12    6.462107E-05
        13   -8.572660E-02
        14    9.742262E-02
        15    5.017765E-05
        16   -1.712754E-03
        17    1.938178E-03
        18   -2.254239E-04
        19   -7.422657E-05
        20    5.458783E-07
        21   -1.540367E-06
        22   -9.869976E-03
        23    6.934200E-03
        24    2.935775E-03
        25    1.193675E-03
        26    1.357516E-05
        27   -2.038206E-06
        28   -1.550811E-03
        29    5.510359E-03
        30   -3.959548E-03
        31   -1.692247E-02
        32    9.386485E-05
        33   -4.624483E-05
        34   -7.619450E-05
        35    1.240821E-04
        36   -2.881684E-07
        37   -6.750341E-05
        38   -2.176190E-04
        39    2.435352E-08
        40    1.697290E-04
        41    5.114536E-05
        42    3.622649E-07
        43    5.928197E-07
        44    2.474600E-07
        45    5.604312E-07
        46   -9.556648E-07
        47   -1.056979E-06
        48   -5.701155E-05
        49    4.183828E-06
        50    2.312500E-06
        51   -3.118923E-02
        52    1.000010E-05
        53    1.273286E-06
        54   -3.971111E-02
        55    1.049776E-05
        56   -2.550326E-05
        57    2.334603E-01
        58    2.054837E-05
        59   -1.139288E-07
        60    9.756911E-08
        61    1.635974E-08
        62   -1.612822E-03
        63    6.436738E-08
        64    2.146224E-06
        65    2.462438E-07
        66   -1.532270E-07
        67   -9.301677E-08
        68    3.393932E-03
        69   -1.014835E-07
        70   -5.485459E-06
        71   -5.677646E-06
        72    4.579943E-06
        73    1.097703E-06
        74    4.275132E-02
        75    2.618402E-08
        76   -1.974728E-04
        77    1.439555E-08
        78   -6.102725E-04
        79   -1.059049E-07
        80   -1.009323E-08
        81    5.885122E-04
        82    7.663480E-08
        83   -9.220430E-09
        84    2.302543E-04
        85    6.545150E-08
        86   -4.420834E-07
        87    5.286416E-03
        88    1.212358E-02
        89   -2.504079E-02
        90    7.590074E-03
        91   -2.193765E-01
        92   -3.269408E-02
        93    5.266380E-02
        94   -1.040059E-02
        95   -5.736274E-05
        96    5.894829E-02
        97   -1.015534E-02
        98   -5.346120E-05
        99    8.573552E-02
       100    9.736262E-02
       101   -3.743385E-05
       102    1.712656E-03
       103   -1.938081E-03
       104    2.254244E-04
       105   -7.424557E-05
       106   -6.888930E-07
       107   -1.968335E-06
       108    9.869974E-03
       109   -6.934454E-03
       110   -2.935520E-03
       111    1.193891E-03
       112   -1.391918E-05
       113   -2.276228E-06
       114    1.546828E-03
       115   -5.504134E-03
       116    3.957305E-03
       117   -1.692701E-02
       118   -8.522652E-05
       119   -4.196917E-05
       120    7.619097E-05
       121    1.240677E-04
       122    2.082843E-07
       123    6.751889E-05
       124   -2.176104E-04
       125   -7.515251E-09
       126   -1.697398E-04
       127    5.115611E-05
       128   -2.719274E-07
       129    6.456187E-07
       130   -3.234382E-03
       131   -7.343409E-03
       132    1.411685E-02
       133   -1.183764E-02
       134    6.817081E-02
       135    1.049494E-02
       136   -3.772261E-02
       137   -2.520224E-03
       138    4.049161E-05
       139   -5.628939E-03
       140   -8.336115E-03
       141    5.291744E-05
       142    4.103180E-02
       143   -2.849297E-02
       144   -1.390846E-04
       145    1.067737E-03
       146   -9.359793E-04
       147   -1.317581E-04
       148    2.516714E-04
       149   -9.649147E-07
       150    2.879271E-07
       151   -4.463927E-03
       152    2.803435E-03
       153    1.660492E-03
       154    1.254958E-04
       155    1.737126E-05
       156   -1.277614E-05
       157   -1.284660E-02
       158    1.367642E-02
       159   -8.298215E-04
       160   -3.327425E-03
       161   -1.131034E-04
       162    5.305612E-05
       163   -3.679497E-05
       164   -1.298135E-05
       165   -9.187757E-07
       166   -1.548299E-05
       167   -5.501033E-06
       168    5.959102E-07
       169    6.484862E-05
       170    2.291734E-05
       171    6.367568E-07
       172   -9.548068E-07
       173    5.896171E-08
       174    1.247681E-07
       175    2.799668E-07
       176   -3.489101E-06
       177    7.678239E-05
       178   -4.547301E-06
       179   -9.019179E-07
       180   -1.748202E-02
       181   -5.430178E-06
       182    1.987030E-06
       183   -2.209129E-02
       184   -5.238935E-06
       185   -3.588742E-05
       186   -7.439748E-02
       187    3.714869E-06
       188   -4.562655E-08
       189    4.148944E-08
       190    4.137111E-09
       191   -2.893629E-05
       192   -3.883815E-07
       193    7.493320E-06
       194    5.392831E-07
       195   -8.688046E-07
       196    3.295215E-07
       197    3.160170E-03
       198   -5.607041E-07
       199   -2.718365E-05
       200    6.839541E-06
       201   -5.107709E-06
       202   -1.731832E-06
       203    1.330633E-02
       204   -1.139598E-06
       205    1.935107E-04
       206   -7.820065E-09
       207   -2.541816E-04
       208    6.130194E-08
       209    1.643140E-08
       210    2.533490E-04
       211   -8.584171E-08
       212   -5.939680E-09
       213    8.767137E-05
       214    3.596526E-09
       215    1.453818E-07
       216    3.234474E-03
       217    7.343628E-03
       218   -1.411818E-02
       219    1.184547E-02
       220   -6.824682E-02
       221   -1.048739E-02
       222    3.772404E-02
       223   -2.519943E-03
       224   -3.824420E-05
       225    5.632410E-03
       226   -8.333315E-03
       227   -4.923086E-05
       228   -4.102543E-02
       229   -2.854921E-02
       230    1.172908E-04
       231   -1.067790E-03
       232    9.360590E-04
       233    1.317306E-04
       234    2.516183E-04
       235    5.460646E-07
       236    1.590024E-07
       237    4.464030E-03
       238   -2.803053E-03
       239   -1.660976E-03
       240    1.260573E-04
       241   -1.792351E-05
       242   -1.272693E-05
       243    1.285440E-02
       244   -1.368751E-02
       245    8.331103E-04
       246   -3.320101E-03
       247    1.175052E-04
       248    5.212441E-05
       249    3.678069E-05
       250   -1.298936E-05
       251    9.056156E-07
       252    1.551993E-05
       253   -5.479726E-06
       254   -5.681938E-07
       255   -6.486640E-05
       256    2.290678E-05
       257   -6.468170E-07
       258   -1.000812E-06
       259    2.001801E-02
       260    2.796946E-02
       261    3.622971E-02
       262    2.001010E-03
       263    3.254014E-03
       264   -4.707269E-06
       265    3.812141E-03
       266    1.237405E-03
       267   -1.616135E-05
       268   -2.001777E-02
       269   -2.796792E-02
       270   -3.621855E-02
       271   -2.000956E-03
       272    3.253874E-03
       273    5.426222E-06
       274   -3.809325E-03
       275    1.234236E-03
       276    1.454496E-05
       277   -6.824889E-03
       278   -1.092880E-02
       279   -2.181702E-02
       280   -1.735578E-04
       281    1.032998E-03
       282   -7.042316E-07
       283    3.200291E-03
       284   -3.637518E-04
       285    3.735340E-06
       286    6.825367E-03
       287    1.092888E-02
       288    2.183031E-02
       289    1.736795E-04
       290    1.032912E-03
       291    5.480447E-07
       292   -3.201170E-03
       293   -3.671211E-04
       294   -6.886254E-06
       295    3.052206E-08
       296    7.211469E-08
       297   -7.394944E-08
       298    5.511506E-08
       299   -6.330770E-07
       300    4.821234E-07
       301   -2.135589E-06
       302   -4.501119E-02
       303    2.416759E-06
       304   -2.268085E-06
       305   -3.400160E-02
       306    3.415310E-06
       307   -2.072664E-06
       308    4.622114E-03
       309    6.054529E-06
       310   -1.947497E-07
       311    2.313949E-07
       312   -3.664520E-08
       313    9.564464E-03
       314    2.735322E-07
       315   -2.205329E-05
       316   -6.411915E-07
       317    5.880765E-07
       318    5.311497E-08
       319    2.585573E-02
       320    1.473972E-07
       321   -6.044368E-05
       322    1.295903E-07
       323   -4.509844E-07
       324    3.213941E-07
       325   -8.056625E-03
       326   -4.216138E-06
       327    3.271079E-05
       328    2.515439E-09
       329    2.168496E-03
       330   -2.126405E-08
       331   -1.017764E-08
       332   -3.101513E-03
       333    2.828857E-08
       334    6.802821E-09
       335    1.921701E-04
       336    2.401523E-10
       337    8.574428E-06
       338    3.482152E-04
       339    9.547292E-04
       340   -1.007178E-03
       341    7.302790E-03
       342   -6.069161E-03
       343    1.757962E-02
       344    2.537496E-01
       345    2.325878E-01
       346   -5.885966E-04
       347    2.307370E-01
       348    2.038077E-01
       349   -5.341769E-04
       350    1.761192E-01
       351    1.475550E-01
       352   -4.246062E-04
       353    2.935006E-02
       354    1.502964E-02
       355   -6.915969E-05
       356    2.074220E-03
       357   -2.792433E-03
       358    7.182125E-04
       359    2.063030E-04
       360   -3.522357E-06
       361   -2.869955E-07
       362    6.302228E-03
       363   -7.254850E-03
       364    9.526222E-04
       365   -7.745500E-04
       366   -1.353540E-05
       367    3.059049E-06
       368    6.975461E-03
       369   -6.390529E-03
       370   -5.849323E-04
       371   -1.349197E-03
       372   -1.686183E-05
       373    7.331063E-06
       374    2.736001E-04
       375    7.838670E-04
       376   -6.242599E-07
       377   -5.049413E-04
       378   -8.559794E-04
       379   -2.415716E-07
       380    1.378683E-04
       381   -1.956885E-04
       382    1.079104E-06
       383    1.727125E-06
       384   -3.482341E-04
       385   -9.547806E-04
       386    1.007261E-03
       387   -7.303127E-03
       388    6.071051E-03
       389   -1.757847E-02
       390   -2.537403E-01
       391    2.325861E-01
       392    5.831258E-04
       393   -2.307286E-01
       394    2.038061E-01
       395    5.296666E-04
       396   -1.761127E-01
       397    1.475527E-01
       398    4.077277E-04
       399   -2.934910E-02
       400    1.502898E-02
       401    6.855064E-05
       402   -2.074204E-03
       403    2.792449E-03
       404   -7.182458E-04
       405    2.063880E-04
       406    3.630618E-06
       407   -2.670087E-07
       408   -6.302113E-03
       409    7.254840E-03
       410   -9.527273E-04
       411   -7.743822E-04
       412    1.413272E-05
       413    2.405149E-06
       414   -6.975372E-03
       415    6.390463E-03
       416    5.849090E-04
       417   -1.349338E-03
       418    2.268162E-05
       419    2.518857E-06
       420   -2.736077E-04
       421    7.838554E-04
       422    6.989854E-07
       423    5.049607E-04
       424   -8.559528E-04
       425    1.770546E-07
       426   -1.378774E-04
       427   -1.956996E-04
       428   -1.114842E-06
       429    1.793089E-06
       430   -2.237029E-07
       431   -5.284647E-07
       432    8.197290E-07
       433    6.493329E-07
       434    2.716028E-06
       435    2.822990E-06
       436    1.072059E-06
       437    1.049962E-02
       438   -1.445154E-05
       439    1.643438E-06
       440    8.325658E-03
       441   -1.408837E-05
       442    4.581038E-06
       443    5.720472E-03
       444   -9.627263E-06
       445    1.392575E-08
       446   -8.545502E-10
       447   -1.307120E-08
       448    4.862594E-04
       449    1.059521E-07
       450    9.647303E-05
       451   -1.886787E-07
       452    3.110220E-07
       453   -1.223433E-07
       454    1.486921E-03
       455    2.815351E-07
       456    1.495668E-04
       457   -1.009615E-06
       458    1.489171E-06
       459   -4.795563E-07
       460   -8.828668E-04
       461    3.875009E-07
       462   -2.671738E-06
       463    5.391692E-09
       464    8.239591E-05
       465    7.607771E-08
       466    7.809315E-09
       467   -8.304136E-05
       468   -6.619156E-08
       469   -1.504303E-08
       470   -2.750435E-05
       471   -3.587740E-08
       472    2.038833E-05
       473    5.298920E-03
       474    7.567162E-03
       475    5.271674E-03
       476   -4.245030E-04
       477   -5.122902E-04
       478   -1.267130E-04
       479   -7.786197E-04
       480   -2.741683E-04
       481   -1.529924E-04
       482   -5.299696E-03
       483   -7.570382E-03
       484   -5.285380E-03
       485    4.249069E-04
       486   -5.125777E-04
       487    1.251070E-04
       488    7.819435E-04
       489   -2.747464E-04
       490    1.517514E-04
 Sym= X
 Ene= 0.966732
 Spin= Alpha
 Occup= 0.966732
         1   -7.844544E-05
         2   -1.966516E-04
         3    6.408002E-04
         4   -2.584933E-03
         5   -3.969632E-01
         6   -5.822914E-02
         7   -1.645092E-04
         8   -2.636361E-04
         9    9.859612E-02
        10    1.973229E-03
        11   -1.722954E-03
        12    1.036055E-01
        13   -1.627003E-01
        14    1.321682E-01
        15    3.140761E-02
        16    6.861566E-05
        17   -5.201535E-05
        18   -1.660031E-05
        19   -5.074065E-05
        20    7.104327E-05
        21    9.487440E-04
        22   -5.958703E-04
        23    3.702239E-04
        24    2.256464E-04
        25    8.458761E-04
        26   -3.968286E-03
        27   -1.099895E-03
        28   -3.458149E-02
        29    4.152679E-02
        30   -6.945298E-03
        31   -6.394803E-03
        32   -4.942744E-02
        33   -3.253069E-02
        34    2.674324E-06
        35    1.111526E-05
        36   -1.208407E-04
        37   -2.643314E-06
        38   -2.006743E-05
        39   -2.285298E-04
        40   -9.446686E-07
        41    5.154737E-06
        42    3.906546E-04
        43    1.628654E-04
        44   -1.008691E-04
        45   -2.435099E-04
        46    4.389476E-04
        47    4.537227E-03
        48   -4.267380E-01
        49    1.002097E-01
        50   -3.925084E-04
        51    1.818732E-06
        52   -1.073029E-02
        53    2.100074E-03
        54   -3.264334E-05
        55   -6.290586E-03
        56   -1.243077E-01
        57   -8.169115E-04
        58   -8.512373E-03
        59    3.411596E-06
        60    2.838080E-05
        61   -3.179239E-05
        62   -7.288307E-08