[Molden Format]
[Title]
ADC(2) - opt by CAM-B3LYP gaussian                                              
[Atoms] AU
 c     1    6 -.12589065566052E+01 -.22830902054421E+01 -.26005390588660E-01
 c     2    6 -.25569912224779E+01 0.86573078000000E-06 -.24733756079320E-01
 c     3    6 -.12589060841737E+01 0.22830907841707E+01 -.26008073999770E-01
 c     4    6 0.13324295737882E+01 0.22846183820847E+01 -.28114684000920E-01
 c     5    6 0.26867573459717E+01 0.39329925000000E-06 -.27723246129760E-01
 c     6    6 0.13324281942881E+01 -.22846180679178E+01 -.28111244699360E-01
 h     7    1 -.22982509786098E+01 -.40377481062879E+01 -.23319125993500E-01
 h     8    1 -.22982490510892E+01 0.40377494409070E+01 -.23324322740370E-01
 h     9    1 0.23514918675648E+01 0.40568894753521E+01 -.30529017005560E-01
 h    10    1 0.23514910360853E+01 -.40568888210345E+01 -.30521911635300E-01
 n    11    7 -.52742123095903E+01 0.14763485000000E-06 -.18925267070140E-01
 o    12    8 -.63809534361791E+01 0.20269762391752E+01 -.16457057973460E-01
 o    13    8 -.63809510362269E+01 -.20269772478165E+01 -.16464881439650E-01
 n    14    7 0.52454603626942E+01 -.57046108000000E-06 -.73989411041200E-01
 h    15    1 0.62036818842731E+01 0.16164996606794E+01 0.19711589672944E+00
 h    16    1 0.62036804102867E+01 -.16165023700742E+01 0.19711149366755E+00
[GTO]
    1 0
 s    6 1.00
 0.13575349682000E+05 0.60645503603591E-03
 0.20352333680000E+04 0.46979088884982E-02
 0.46322562359000E+03 0.24332477647552E-01
 0.13120019598000E+03 0.97399968307759E-01
 0.42853015891000E+02 0.30195584253780E+00
 0.15584185766000E+02 0.66233609137875E+00
 s    2 1.00
 0.62067138508000E+01 0.65595308539952E+00
 0.25764896527000E+01 0.37585633285142E+00
 s    1 1.00
 0.57696339419000E+00 0.10000000000000E+01
 s    1 1.00
 0.22972831358000E+00 0.10000000000000E+01
 s    1 1.00
 0.95164440028000E-01 0.10000000000000E+01
 s    1 1.00
 0.48475401370000E-01 0.10000000000000E+01
 p    4 1.00
 0.34697232244000E+02 0.11327220003114E-01
 0.79582622826000E+01 0.76169659202087E-01
 0.23780826883000E+01 0.30192252202676E+00
 0.81433208183000E+00 0.72785027349547E+00
 p    1 1.00
 0.28887547253000E+00 0.10000000000000E+01
 p    1 1.00
 0.10056823671000E+00 0.10000000000000E+01
 d    1 1.00
 0.10970000000000E+01 0.10000000000000E+01
 d    1 1.00
 0.31800000000000E+00 0.10000000000000E+01
 d    1 1.00
 0.90985336424000E-01 0.10000000000000E+01
 f    1 1.00
 0.76100000000000E+00 0.10000000000000E+01
 
    2 0
 s    6 1.00
 0.13575349682000E+05 0.60645503603591E-03
 0.20352333680000E+04 0.46979088884982E-02
 0.46322562359000E+03 0.24332477647552E-01
 0.13120019598000E+03 0.97399968307759E-01
 0.42853015891000E+02 0.30195584253780E+00
 0.15584185766000E+02 0.66233609137875E+00
 s    2 1.00
 0.62067138508000E+01 0.65595308539952E+00
 0.25764896527000E+01 0.37585633285142E+00
 s    1 1.00
 0.57696339419000E+00 0.10000000000000E+01
 s    1 1.00
 0.22972831358000E+00 0.10000000000000E+01
 s    1 1.00
 0.95164440028000E-01 0.10000000000000E+01
 s    1 1.00
 0.48475401370000E-01 0.10000000000000E+01
 p    4 1.00
 0.34697232244000E+02 0.11327220003114E-01
 0.79582622826000E+01 0.76169659202087E-01
 0.23780826883000E+01 0.30192252202676E+00
 0.81433208183000E+00 0.72785027349547E+00
 p    1 1.00
 0.28887547253000E+00 0.10000000000000E+01
 p    1 1.00
 0.10056823671000E+00 0.10000000000000E+01
 d    1 1.00
 0.10970000000000E+01 0.10000000000000E+01
 d    1 1.00
 0.31800000000000E+00 0.10000000000000E+01
 d    1 1.00
 0.90985336424000E-01 0.10000000000000E+01
 f    1 1.00
 0.76100000000000E+00 0.10000000000000E+01
 
    3 0
 s    6 1.00
 0.13575349682000E+05 0.60645503603591E-03
 0.20352333680000E+04 0.46979088884982E-02
 0.46322562359000E+03 0.24332477647552E-01
 0.13120019598000E+03 0.97399968307759E-01
 0.42853015891000E+02 0.30195584253780E+00
 0.15584185766000E+02 0.66233609137875E+00
 s    2 1.00
 0.62067138508000E+01 0.65595308539952E+00
 0.25764896527000E+01 0.37585633285142E+00
 s    1 1.00
 0.57696339419000E+00 0.10000000000000E+01
 s    1 1.00
 0.22972831358000E+00 0.10000000000000E+01
 s    1 1.00
 0.95164440028000E-01 0.10000000000000E+01
 s    1 1.00
 0.48475401370000E-01 0.10000000000000E+01
 p    4 1.00
 0.34697232244000E+02 0.11327220003114E-01
 0.79582622826000E+01 0.76169659202087E-01
 0.23780826883000E+01 0.30192252202676E+00
 0.81433208183000E+00 0.72785027349547E+00
 p    1 1.00
 0.28887547253000E+00 0.10000000000000E+01
 p    1 1.00
 0.10056823671000E+00 0.10000000000000E+01
 d    1 1.00
 0.10970000000000E+01 0.10000000000000E+01
 d    1 1.00
 0.31800000000000E+00 0.10000000000000E+01
 d    1 1.00
 0.90985336424000E-01 0.10000000000000E+01
 f    1 1.00
 0.76100000000000E+00 0.10000000000000E+01
 
    4 0
 s    6 1.00
 0.13575349682000E+05 0.60645503603591E-03
 0.20352333680000E+04 0.46979088884982E-02
 0.46322562359000E+03 0.24332477647552E-01
 0.13120019598000E+03 0.97399968307759E-01
 0.42853015891000E+02 0.30195584253780E+00
 0.15584185766000E+02 0.66233609137875E+00
 s    2 1.00
 0.62067138508000E+01 0.65595308539952E+00
 0.25764896527000E+01 0.37585633285142E+00
 s    1 1.00
 0.57696339419000E+00 0.10000000000000E+01
 s    1 1.00
 0.22972831358000E+00 0.10000000000000E+01
 s    1 1.00
 0.95164440028000E-01 0.10000000000000E+01
 s    1 1.00
 0.48475401370000E-01 0.10000000000000E+01
 p    4 1.00
 0.34697232244000E+02 0.11327220003114E-01
 0.79582622826000E+01 0.76169659202087E-01
 0.23780826883000E+01 0.30192252202676E+00
 0.81433208183000E+00 0.72785027349547E+00
 p    1 1.00
 0.28887547253000E+00 0.10000000000000E+01
 p    1 1.00
 0.10056823671000E+00 0.10000000000000E+01
 d    1 1.00
 0.10970000000000E+01 0.10000000000000E+01
 d    1 1.00
 0.31800000000000E+00 0.10000000000000E+01
 d    1 1.00
 0.90985336424000E-01 0.10000000000000E+01
 f    1 1.00
 0.76100000000000E+00 0.10000000000000E+01
 
    5 0
 s    6 1.00
 0.13575349682000E+05 0.60645503603591E-03
 0.20352333680000E+04 0.46979088884982E-02
 0.46322562359000E+03 0.24332477647552E-01
 0.13120019598000E+03 0.97399968307759E-01
 0.42853015891000E+02 0.30195584253780E+00
 0.15584185766000E+02 0.66233609137875E+00
 s    2 1.00
 0.62067138508000E+01 0.65595308539952E+00
 0.25764896527000E+01 0.37585633285142E+00
 s    1 1.00
 0.57696339419000E+00 0.10000000000000E+01
 s    1 1.00
 0.22972831358000E+00 0.10000000000000E+01
 s    1 1.00
 0.95164440028000E-01 0.10000000000000E+01
 s    1 1.00
 0.48475401370000E-01 0.10000000000000E+01
 p    4 1.00
 0.34697232244000E+02 0.11327220003114E-01
 0.79582622826000E+01 0.76169659202087E-01
 0.23780826883000E+01 0.30192252202676E+00
 0.81433208183000E+00 0.72785027349547E+00
 p    1 1.00
 0.28887547253000E+00 0.10000000000000E+01
 p    1 1.00
 0.10056823671000E+00 0.10000000000000E+01
 d    1 1.00
 0.10970000000000E+01 0.10000000000000E+01
 d    1 1.00
 0.31800000000000E+00 0.10000000000000E+01
 d    1 1.00
 0.90985336424000E-01 0.10000000000000E+01
 f    1 1.00
 0.76100000000000E+00 0.10000000000000E+01
 
    6 0
 s    6 1.00
 0.13575349682000E+05 0.60645503603591E-03
 0.20352333680000E+04 0.46979088884982E-02
 0.46322562359000E+03 0.24332477647552E-01
 0.13120019598000E+03 0.97399968307759E-01
 0.42853015891000E+02 0.30195584253780E+00
 0.15584185766000E+02 0.66233609137875E+00
 s    2 1.00
 0.62067138508000E+01 0.65595308539952E+00
 0.25764896527000E+01 0.37585633285142E+00
 s    1 1.00
 0.57696339419000E+00 0.10000000000000E+01
 s    1 1.00
 0.22972831358000E+00 0.10000000000000E+01
 s    1 1.00
 0.95164440028000E-01 0.10000000000000E+01
 s    1 1.00
 0.48475401370000E-01 0.10000000000000E+01
 p    4 1.00
 0.34697232244000E+02 0.11327220003114E-01
 0.79582622826000E+01 0.76169659202087E-01
 0.23780826883000E+01 0.30192252202676E+00
 0.81433208183000E+00 0.72785027349547E+00
 p    1 1.00
 0.28887547253000E+00 0.10000000000000E+01
 p    1 1.00
 0.10056823671000E+00 0.10000000000000E+01
 d    1 1.00
 0.10970000000000E+01 0.10000000000000E+01
 d    1 1.00
 0.31800000000000E+00 0.10000000000000E+01
 d    1 1.00
 0.90985336424000E-01 0.10000000000000E+01
 f    1 1.00
 0.76100000000000E+00 0.10000000000000E+01
 
    7 0
 s    3 1.00
 0.34061341000000E+02 0.25439307208879E-01
 0.51235746000000E+01 0.19008594890375E+00
 0.11646626000000E+01 0.85244113011042E+00
 s    1 1.00
 0.32723041000000E+00 0.10000000000000E+01
 s    1 1.00
 0.10307241000000E+00 0.10000000000000E+01
 p    1 1.00
 0.80000000000000E+00 0.10000000000000E+01
 p    1 1.00
 0.95774129632000E-01 0.10000000000000E+01
 
    8 0
 s    3 1.00
 0.34061341000000E+02 0.25439307208879E-01
 0.51235746000000E+01 0.19008594890375E+00
 0.11646626000000E+01 0.85244113011042E+00
 s    1 1.00
 0.32723041000000E+00 0.10000000000000E+01
 s    1 1.00
 0.10307241000000E+00 0.10000000000000E+01
 p    1 1.00
 0.80000000000000E+00 0.10000000000000E+01
 p    1 1.00
 0.95774129632000E-01 0.10000000000000E+01
 
    9 0
 s    3 1.00
 0.34061341000000E+02 0.25439307208879E-01
 0.51235746000000E+01 0.19008594890375E+00
 0.11646626000000E+01 0.85244113011042E+00
 s    1 1.00
 0.32723041000000E+00 0.10000000000000E+01
 s    1 1.00
 0.10307241000000E+00 0.10000000000000E+01
 p    1 1.00
 0.80000000000000E+00 0.10000000000000E+01
 p    1 1.00
 0.95774129632000E-01 0.10000000000000E+01
 
   10 0
 s    3 1.00
 0.34061341000000E+02 0.25439307208879E-01
 0.51235746000000E+01 0.19008594890375E+00
 0.11646626000000E+01 0.85244113011042E+00
 s    1 1.00
 0.32723041000000E+00 0.10000000000000E+01
 s    1 1.00
 0.10307241000000E+00 0.10000000000000E+01
 p    1 1.00
 0.80000000000000E+00 0.10000000000000E+01
 p    1 1.00
 0.95774129632000E-01 0.10000000000000E+01
 
   11 0
 s    6 1.00
 0.19730800647000E+05 0.58626402628763E-03
 0.29578958745000E+04 0.45428820586397E-02
 0.67322133595000E+03 0.23558413450084E-01
 0.19068249494000E+03 0.94709193292923E-01
 0.62295441898000E+02 0.29719784913376E+00
 0.22654161182000E+02 0.66916246895232E+00
 s    2 1.00
 0.89791477428000E+01 0.64596683630063E+00
 0.36863002370000E+01 0.38700574393705E+00
 s    1 1.00
 0.84660076805000E+00 0.10000000000000E+01
 s    1 1.00
 0.33647133771000E+00 0.10000000000000E+01
 s    1 1.00
 0.13647653675000E+00 0.10000000000000E+01
 s    1 1.00
 0.68441605847000E-01 0.10000000000000E+01
 p    4 1.00
 0.49200380510000E+02 0.11448825101764E-01
 0.11346790537000E+02 0.78422337970864E-01
 0.34273972411000E+01 0.30818094738830E+00
 0.11785525134000E+01 0.72027196368413E+00
 p    1 1.00
 0.41642204972000E+00 0.10000000000000E+01
 p    1 1.00
 0.14260826011000E+00 0.10000000000000E+01
 d    1 1.00
 0.16540000000000E+01 0.10000000000000E+01
 d    1 1.00
 0.46900000000000E+00 0.10000000000000E+01
 d    1 1.00
 0.12829642058000E+00 0.10000000000000E+01
 f    1 1.00
 0.10930000000000E+01 0.10000000000000E+01
 
   12 0
 s    6 1.00
 0.27032382631000E+05 0.57227335211155E-03
 0.40523871392000E+04 0.44353233492995E-02
 0.92232722710000E+03 0.23020107706038E-01
 0.26124070989000E+03 0.92822490667928E-01
 0.85354641351000E+02 0.29378500009671E+00
 0.31035035245000E+02 0.67401604501641E+00
 s    2 1.00
 0.12260860728000E+02 0.63839937025506E+00
 0.49987076005000E+01 0.39534587125718E+00
 s    1 1.00
 0.11703108158000E+01 0.10000000000000E+01
 s    1 1.00
 0.46474740994000E+00 0.10000000000000E+01
 s    1 1.00
 0.18504536357000E+00 0.10000000000000E+01
 s    1 1.00
 0.70288026270000E-01 0.10000000000000E+01
 p    4 1.00
 0.63274954801000E+02 0.12018332222616E-01
 0.14627049379000E+02 0.83005421790056E-01
 0.44501223456000E+01 0.31991743925964E+00
 0.15275799647000E+01 0.70715542916104E+00
 p    1 1.00
 0.52935117943000E+00 0.10000000000000E+01
 p    1 1.00
 0.17478421270000E+00 0.10000000000000E+01
 p    1 1.00
 0.51112745706000E-01 0.10000000000000E+01
 d    1 1.00
 0.23140000000000E+01 0.10000000000000E+01
 d    1 1.00
 0.64500000000000E+00 0.10000000000000E+01
 d    1 1.00
 0.14696477366000E+00 0.10000000000000E+01
 f    1 1.00
 0.14280000000000E+01 0.10000000000000E+01
 
   13 0
 s    6 1.00
 0.27032382631000E+05 0.57227335211155E-03
 0.40523871392000E+04 0.44353233492995E-02
 0.92232722710000E+03 0.23020107706038E-01
 0.26124070989000E+03 0.92822490667928E-01
 0.85354641351000E+02 0.29378500009671E+00
 0.31035035245000E+02 0.67401604501641E+00
 s    2 1.00
 0.12260860728000E+02 0.63839937025506E+00
 0.49987076005000E+01 0.39534587125718E+00
 s    1 1.00
 0.11703108158000E+01 0.10000000000000E+01
 s    1 1.00
 0.46474740994000E+00 0.10000000000000E+01
 s    1 1.00
 0.18504536357000E+00 0.10000000000000E+01
 s    1 1.00
 0.70288026270000E-01 0.10000000000000E+01
 p    4 1.00
 0.63274954801000E+02 0.12018332222616E-01
 0.14627049379000E+02 0.83005421790056E-01
 0.44501223456000E+01 0.31991743925964E+00
 0.15275799647000E+01 0.70715542916104E+00
 p    1 1.00
 0.52935117943000E+00 0.10000000000000E+01
 p    1 1.00
 0.17478421270000E+00 0.10000000000000E+01
 p    1 1.00
 0.51112745706000E-01 0.10000000000000E+01
 d    1 1.00
 0.23140000000000E+01 0.10000000000000E+01
 d    1 1.00
 0.64500000000000E+00 0.10000000000000E+01
 d    1 1.00
 0.14696477366000E+00 0.10000000000000E+01
 f    1 1.00
 0.14280000000000E+01 0.10000000000000E+01
 
   14 0
 s    6 1.00
 0.19730800647000E+05 0.58626402628763E-03
 0.29578958745000E+04 0.45428820586397E-02
 0.67322133595000E+03 0.23558413450084E-01
 0.19068249494000E+03 0.94709193292923E-01
 0.62295441898000E+02 0.29719784913376E+00
 0.22654161182000E+02 0.66916246895232E+00
 s    2 1.00
 0.89791477428000E+01 0.64596683630063E+00
 0.36863002370000E+01 0.38700574393705E+00
 s    1 1.00
 0.84660076805000E+00 0.10000000000000E+01
 s    1 1.00
 0.33647133771000E+00 0.10000000000000E+01
 s    1 1.00
 0.13647653675000E+00 0.10000000000000E+01
 s    1 1.00
 0.68441605847000E-01 0.10000000000000E+01
 p    4 1.00
 0.49200380510000E+02 0.11448825101764E-01
 0.11346790537000E+02 0.78422337970864E-01
 0.34273972411000E+01 0.30818094738830E+00
 0.11785525134000E+01 0.72027196368413E+00
 p    1 1.00
 0.41642204972000E+00 0.10000000000000E+01
 p    1 1.00
 0.14260826011000E+00 0.10000000000000E+01
 d    1 1.00
 0.16540000000000E+01 0.10000000000000E+01
 d    1 1.00
 0.46900000000000E+00 0.10000000000000E+01
 d    1 1.00
 0.12829642058000E+00 0.10000000000000E+01
 f    1 1.00
 0.10930000000000E+01 0.10000000000000E+01
 
   15 0
 s    3 1.00
 0.34061341000000E+02 0.25439307208879E-01
 0.51235746000000E+01 0.19008594890375E+00
 0.11646626000000E+01 0.85244113011042E+00
 s    1 1.00
 0.32723041000000E+00 0.10000000000000E+01
 s    1 1.00
 0.10307241000000E+00 0.10000000000000E+01
 p    1 1.00
 0.80000000000000E+00 0.10000000000000E+01
 p    1 1.00
 0.95774129632000E-01 0.10000000000000E+01
 
   16 0
 s    3 1.00
 0.34061341000000E+02 0.25439307208879E-01
 0.51235746000000E+01 0.19008594890375E+00
 0.11646626000000E+01 0.85244113011042E+00
 s    1 1.00
 0.32723041000000E+00 0.10000000000000E+01
 s    1 1.00
 0.10307241000000E+00 0.10000000000000E+01
 p    1 1.00
 0.80000000000000E+00 0.10000000000000E+01
 p    1 1.00
 0.95774129632000E-01 0.10000000000000E+01
 
[MO]
 Sym= X
 Ene= -0.953152
 Spin= Alpha
 Occup= -0.953152
         1   -3.756486E-04
         2   -8.947724E-04
         3   -2.530564E-03
         4    2.729370E-02
         5    2.444821E-01
         6   -3.485719E-02
         7   -2.516072E-02
         8    5.741112E-02
         9   -3.677433E-03
        10   -9.284238E-03
        11    4.970861E-02
        12   -3.582108E-03
        13   -3.613624E-02
        14    9.122246E-02
        15   -8.233945E-04
        16   -2.367635E-03
        17    2.585311E-03
        18   -2.176755E-04
        19   -1.039268E-03
        20   -5.047992E-05
        21   -9.161682E-05
        22    1.380975E-03
        23    1.427449E-03
        24   -2.808424E-03
        25   -2.004089E-03
        26   -8.035938E-05
        27   -1.440952E-04
        28    5.663038E-04
        29    2.091141E-04
        30   -7.754180E-04
        31    1.099696E-02
        32    1.299167E-04
        33    5.022324E-05
        34    1.595854E-04
        35    5.594904E-04
        36    3.290183E-05
        37   -1.920165E-04
        38   -5.827075E-04
        39   -2.472800E-05
        40   -2.208982E-05
        41   -1.679275E-04
        42   -1.941444E-05
        43    6.763637E-06
        44    9.289460E-03
        45    2.098485E-02
        46   -2.993840E-02
        47   -6.373797E-02
        48   -2.249476E-01
        49    3.140260E-02
        50    1.584760E-01
        51    6.329963E-06
        52   -4.371567E-03
        53    1.154477E-01
        54    7.833185E-06
        55   -4.269373E-03
        56   -7.788019E-02
        57   -7.240578E-05
        58   -1.229989E-03
        59   -5.966518E-03
        60    5.293474E-03
        61    6.730438E-04
        62    2.134737E-07
        63   -6.672887E-05
        64    3.106738E-08
        65   -1.582538E-03
        66    1.396448E-03
        67    1.860898E-04
        68    7.190848E-07
        69   -1.412967E-04
        70   -5.678127E-07
        71    4.524190E-02
        72   -4.644473E-02
        73    1.202827E-03
        74   -4.048388E-06
        75   -2.623940E-04
        76    1.873918E-05
        77    1.122955E-03
        78    2.365256E-08
        79    3.962996E-05
        80   -7.661148E-04
        81    2.856429E-09
        82   -2.345746E-05
        83   -7.404869E-04
        84   -3.458966E-08
        85   -2.971171E-05
        86   -6.522495E-09
        87   -3.757943E-04
        88   -8.951179E-04
        89   -2.529969E-03
        90    2.729600E-02
        91    2.446240E-01
        92   -3.486534E-02
        93   -2.516323E-02
        94   -5.742074E-02
        95   -3.676477E-03
        96   -9.280800E-03
        97   -4.971369E-02
        98   -3.579742E-03
        99   -3.618019E-02
       100   -9.127798E-02
       101   -8.009161E-04
       102   -2.367614E-03
       103    2.585341E-03
       104   -2.177268E-04
       105    1.039908E-03
       106   -5.041818E-05
       107    9.167788E-05
       108    1.381953E-03
       109    1.426293E-03
       110   -2.808246E-03
       111    2.004608E-03
       112   -8.011657E-05
       113    1.439078E-04
       114    5.694192E-04
       115    2.053187E-04
       116   -7.747379E-04
       117   -1.099186E-02
       118    1.707173E-04
       119   -2.521924E-05
       120    1.596008E-04
       121   -5.595402E-04
       122    3.284690E-05
       123   -1.920199E-04
       124    5.827353E-04
       125   -2.468681E-05
       126   -2.210707E-05
       127    1.679666E-04
       128   -1.938193E-05
       129   -6.718472E-06
       130    1.456592E-03
       131    3.319150E-03
       132   -2.627533E-03
       133   -2.563417E-02
       134   -7.794349E-02
       135    3.149618E-02
       136    3.023223E-02
       137    2.174742E-02
       138   -3.800795E-03
       139    3.776475E-02
       140    1.776088E-02
       141   -3.728555E-03
       142    2.526450E-02
       143    5.073339E-02
       144   -2.039791E-03
       145   -7.070354E-04
       146    5.956920E-04
       147    1.113435E-04
       148    2.142673E-03
       149    5.045197E-05
       150    8.564061E-05
       151   -2.938693E-03
       152    1.076663E-03
       153    1.862030E-03
       154    3.079398E-03
       155    1.065015E-04
       156    1.577976E-04
       157   -5.400270E-03
       158    6.372823E-03
       159   -9.725532E-04
       160   -1.846743E-02
       161    1.819956E-04
       162    9.774245E-05
       163    2.779920E-04
       164    3.521628E-04
       165    3.626686E-05
       166   -1.712939E-04
       167   -4.279292E-04
       168   -2.938459E-05
       169   -2.016715E-04
       170   -4.454680E-05
       171   -1.927252E-05
       172    6.459799E-06
       173    3.679156E-03
       174    8.384592E-03
       175   -1.511400E-02
       176   -7.562901E-03
       177   -4.668994E-02
       178   -3.642703E-02
       179    1.843333E-02
       180   -7.374378E-06
       181   -4.321242E-03
       182    1.127161E-02
       183   -6.839198E-06
       184   -4.182117E-03
       185   -1.175000E-02
       186    2.816473E-05
       187   -9.231635E-04
       188   -2.430406E-04
       189    1.966033E-04
       190    4.643727E-05
       191    3.275114E-07
       192    9.105459E-06
       193    3.976763E-08
       194    1.383886E-04
       195    4.724943E-04
       196   -6.108829E-04
       197    6.992311E-07
       198    7.674267E-05
       199   -1.334892E-07
       200   -1.640213E-02
       201    1.623126E-02
       202    1.708695E-04
       203    2.523491E-07
       204   -2.722173E-04
       205   -2.402172E-05
       206   -2.415832E-05
       207    8.004358E-09
       208    4.568359E-05
       209    8.611529E-05
       210   -2.929883E-08
       211   -3.692067E-05
       212   -5.370350E-05
       213    1.855986E-08
       214   -2.437030E-05
       215   -6.873816E-09
       216    1.456449E-03
       217    3.318816E-03
       218   -2.627416E-03
       219   -2.563147E-02
       220   -7.791929E-02
       221    3.149277E-02
       222    3.023163E-02
       223   -2.173351E-02
       224   -3.802036E-03
       225    3.775998E-02
       226   -1.775016E-02
       227   -3.729463E-03
       228    2.528613E-02
       229   -5.069552E-02
       230   -2.033208E-03
       231   -7.069317E-04
       232    5.956417E-04
       233    1.112900E-04
       234   -2.142006E-03
       235    5.055911E-05
       236   -8.565990E-05
       237   -2.937517E-03
       238    1.075772E-03
       239    1.861745E-03
       240   -3.078511E-03
       241    1.056913E-04
       242   -1.576015E-04
       243   -5.393467E-03
       244    6.365338E-03
       245   -9.718708E-04
       246    1.847234E-02
       247    1.403297E-04
       248   -1.185453E-04
       249    2.779485E-04
       250   -3.521351E-04
       251    3.626535E-05
       252   -1.712439E-04
       253    4.279471E-04
       254   -2.936364E-05
       255   -2.016631E-04
       256    4.449182E-05
       257   -1.929143E-05
       258   -6.462788E-06
       259   -1.170758E-02
       260   -1.641185E-02
       261   -1.403307E-02
       262   -2.866962E-03
       263   -1.430775E-03
       264   -1.176817E-04
       265   -6.502192E-03
       266    3.315823E-04
       267    4.445357E-05
       268   -1.171208E-02
       269   -1.641833E-02
       270   -1.402561E-02
       271   -2.867216E-03
       272    1.431179E-03
       273   -1.174079E-04
       274   -6.495040E-03
       275   -3.258980E-04
       276    3.611583E-05
       277    1.930056E-02
       278    3.045945E-02
       279    1.578643E-02
       280   -4.884134E-04
       281   -2.713621E-03
       282   -1.277621E-04
       283    8.606670E-03
       284   -3.181728E-03
       285   -1.688060E-04
       286    1.929383E-02
       287    3.045040E-02
       288    1.581687E-02
       289   -4.879962E-04
       290    2.712793E-03
       291   -1.285269E-04
       292    8.597478E-03
       293    3.178922E-03
       294   -1.677558E-04
       295    3.107295E-03
       296    7.209987E-03
       297   -6.398811E-03
       298   -3.915779E-02
       299   -1.657128E-01
       300    1.157212E-02
       301   -1.368181E-01
       302    2.714618E-07
       303    1.241477E-03
       304   -1.263957E-01
       305    5.340694E-07
       306    1.186311E-03
       307   -1.004897E-01
       308    5.240300E-06
       309    2.972727E-04
       310   -1.156217E-02
       311    1.291913E-02
       312   -1.356960E-03
       313   -1.012809E-07
       314   -5.539482E-05
       315   -5.179644E-07
       316   -3.342699E-02
       317    3.442658E-02
       318   -9.995906E-04
       319   -2.692977E-07
       320   -1.420342E-04
       321   -1.171152E-06
       322    1.430462E-02
       323   -4.665851E-03
       324   -9.638768E-03
       325    3.831617E-06
       326   -1.702203E-04
       327    8.089794E-07
       328    3.934389E-05
       329   -4.844679E-08
       330   -7.187374E-06
       331   -4.051296E-04
       332    6.658708E-08
       333   -8.526554E-06
       334    3.523443E-04
       335   -1.588895E-09
       336    1.816943E-05
       337    6.581889E-08
       338   -6.786601E-06
       339   -8.041774E-05
       340   -7.894472E-04
       341   -1.286969E-02
       342   -7.364002E-03
       343   -2.088498E-02
       344    2.989618E-01
       345    4.611390E-02
       346    1.021067E-03
       347    2.628843E-01
       348    4.580995E-02
       349    9.652499E-04
       350    2.003215E-01
       351    4.417552E-02
       352    5.360605E-04
       353    1.569066E-02
       354    8.718599E-03
       355    4.072719E-05
       356    6.928978E-04
       357    1.706901E-04
       358   -8.635879E-04
       359   -2.607991E-03
       360    4.595336E-06
       361   -1.698013E-05
       362    3.045979E-03
       363   -6.445178E-04
       364   -2.401461E-03
       365   -5.874103E-03
       366    2.000795E-05
       367   -5.359689E-05
       368    3.610254E-03
       369   -3.058520E-03
       370   -5.517333E-04
       371   -6.060859E-03
       372    3.000836E-05
       373    6.944995E-06
       374   -3.063075E-04
       375    4.016960E-04
       376   -2.571986E-06
       377    6.419250E-04
       378   -8.432502E-04
       379   -1.570280E-06
       380   -2.309703E-04
       381    3.043185E-04
       382    5.020961E-06
       383   -2.904880E-06
       384   -6.689722E-06
       385   -8.017531E-05
       386   -7.898441E-04
       387   -1.287037E-02
       388   -7.365997E-03
       389   -2.088815E-02
       390    2.989714E-01
       391   -4.611993E-02
       392    1.051280E-03
       393    2.628930E-01
       394   -4.581526E-02
       395    9.915417E-04
       396    2.003319E-01
       397   -4.417864E-02
       398    5.693224E-04
       399    1.569068E-02
       400   -8.718562E-03
       401    4.009785E-05
       402    6.929474E-04
       403    1.706194E-04
       404   -8.635668E-04
       405    2.607997E-03
       406    4.668044E-06
       407    1.721868E-05
       408    3.046233E-03
       409   -6.447256E-04
       410   -2.401508E-03
       411    5.874240E-03
       412    2.004409E-05
       413    5.491345E-05
       414    3.610674E-03
       415   -3.058726E-03
       416   -5.519476E-04
       417    6.061786E-03
       418    2.339210E-05
       419    4.059049E-07
       420   -3.063063E-04
       421   -4.017174E-04
       422   -2.704211E-06
       423    6.419192E-04
       424    8.432775E-04
       425   -1.469399E-06
       426   -2.309662E-04
       427   -3.043170E-04
       428    5.097478E-06
       429    2.933369E-06
       430    4.550091E-04
       431    1.084329E-03
       432   -1.596161E-03
       433   -5.234247E-03
       434    1.865158E-02
       435    2.552809E-02
       436   -7.320055E-03
       437    1.402442E-06
       438   -3.477839E-03
       439   -5.755890E-03
       440    8.442073E-07
       441   -3.260446E-03
       442   -2.495780E-03
       443   -1.259921E-06
       444   -1.400532E-03
       445    1.107448E-04
       446   -1.004311E-04
       447   -1.031373E-05
       448    9.531393E-08
       449    1.777267E-05
       450    1.181021E-08
       451    1.677048E-04
       452    1.650901E-04
       453   -3.327949E-04
       454    1.813276E-07
       455    8.098030E-05
       456    1.635452E-08
       457   -9.531678E-04
       458    9.718745E-04
       459   -1.870670E-05
       460   -6.881421E-07
       461   -1.111194E-04
       462    9.845590E-07
       463   -2.166214E-05
       464    1.178463E-08
       465    2.343778E-05
       466   -2.049828E-05
       467   -1.466234E-08
       468   -2.505711E-05
       469    4.956109E-05
       470   -1.148401E-09
       471   -6.387974E-06
       472    3.824485E-09
       473   -1.952437E-03
       474   -3.446418E-03
       475    4.194800E-04
       476    8.735930E-07
       477    6.216585E-04
       478   -3.721752E-05
       479   -1.697962E-03
       480   -1.188658E-03
       481    4.341907E-04
       482   -1.954139E-03
       483   -3.449203E-03
       484    4.107370E-04
       485    1.018673E-06
       486   -6.218562E-04
       487   -3.712869E-05
       488   -1.698005E-03
       489    1.185364E-03
       490    4.358039E-04
 Sym= X
 Ene= 0.953152
 Spin= Alpha
 Occup= 0.953152
         1   -7.695044E-05
         2   -1.925223E-04
         3    6.325396E-04
         4   -2.536614E-03
         5   -3.839554E-01
         6   -5.633248E-02
         7   -1.422650E-04
         8   -2.485880E-04
         9    9.960298E-02
        10    1.809300E-03
        11   -1.637049E-03
        12    1.049873E-01
        13   -1.590712E-01
        14    1.263695E-01
        15    2.657406E-02
        16    6.628403E-05
        17   -4.975400E-05
        18   -1.653003E-05
        19   -4.810377E-05
        20    1.349120E-04
        21    8.517226E-04
        22   -5.939970E-04
        23    3.692228E-04
        24    2.247742E-04
        25    7.997874E-04
        26   -3.816434E-03
        27   -1.326451E-03
        28   -3.390945E-02
        29    4.045599E-02
        30   -6.546549E-03
        31   -6.249407E-03
        32   -4.919488E-02
        33   -3.387948E-02
        34    1.891036E-06
        35    1.071120E-05
        36   -1.220622E-04
        37   -2.189542E-06
        38   -1.916491E-05
        39   -2.196137E-04
        40   -3.475482E-07
        41    4.794330E-06
        42    3.833773E-04
        43    1.632694E-04
        44   -9.746397E-05
        45   -2.345677E-04
        46    4.081997E-04
        47    4.467723E-03
        48   -4.117297E-01
        49    9.638981E-02
        50   -3.791089E-04
        51    1.722710E-06
        52   -1.338344E-02
        53    1.966590E-03
        54   -3.153772E-05
        55   -9.978158E-03
        56   -1.204616E-01
        57   -7.735325E-04
        58   -7.853135E-03
        59    4.605290E-06
        60    2.771574E-05
        61   -3.232103E-05
        62   -7.315651E-08