[Molden Format]
[Title]
ADC(2) - opt by CAM-B3LYP gaussian                                              
[Atoms] AU
 c     1    6 0.12589710753986E+01 0.22825551554713E+01 -.28105798744860E-01
 c     2    6 0.25558923691721E+01 0.80431469000000E-06 -.26811997747980E-01
 c     3    6 0.12589700738438E+01 -.22825573262942E+01 -.28139341383720E-01
 c     4    6 -.13331755585332E+01 -.22837561874501E+01 -.30470167390540E-01
 c     5    6 -.26866009864883E+01 0.27696298600000E-05 -.30311128039200E-01
 c     6    6 -.13331783742251E+01 0.22837572858534E+01 -.30432977580250E-01
 h     7    1 0.22993222678978E+01 0.40366379181686E+01 -.25216785432900E-01
 h     8    1 0.22993197734593E+01 -.40366408826765E+01 -.25273722881290E-01
 h     9    1 -.23520966897676E+01 -.40562070503646E+01 -.33235309154490E-01
 h    10    1 -.23520900190344E+01 0.40562136478709E+01 -.33159965773570E-01
 n    11    7 0.52762255328692E+01 0.25629411000000E-06 -.20783601308720E-01
 o    12    8 0.63803680214636E+01 -.20270720034092E+01 -.18188232540560E-01
 o    13    8 0.63803692875801E+01 0.20270718545932E+01 -.18282964511600E-01
 n    14    7 -.52484248103301E+01 -.66967170000000E-06 -.81289589624650E-01
 h    15    1 -.62019351690707E+01 -.16149791988436E+01 0.21484054874156E+00
 h    16    1 -.62019367942352E+01 0.16149736265137E+01 0.21486103337284E+00
[GTO]
    1 0
 s    6 1.00
 0.13575349682000E+05 0.60645503603591E-03
 0.20352333680000E+04 0.46979088884982E-02
 0.46322562359000E+03 0.24332477647552E-01
 0.13120019598000E+03 0.97399968307759E-01
 0.42853015891000E+02 0.30195584253780E+00
 0.15584185766000E+02 0.66233609137875E+00
 s    2 1.00
 0.62067138508000E+01 0.65595308539952E+00
 0.25764896527000E+01 0.37585633285142E+00
 s    1 1.00
 0.57696339419000E+00 0.10000000000000E+01
 s    1 1.00
 0.22972831358000E+00 0.10000000000000E+01
 s    1 1.00
 0.95164440028000E-01 0.10000000000000E+01
 s    1 1.00
 0.48475401370000E-01 0.10000000000000E+01
 p    4 1.00
 0.34697232244000E+02 0.11327220003114E-01
 0.79582622826000E+01 0.76169659202087E-01
 0.23780826883000E+01 0.30192252202676E+00
 0.81433208183000E+00 0.72785027349547E+00
 p    1 1.00
 0.28887547253000E+00 0.10000000000000E+01
 p    1 1.00
 0.10056823671000E+00 0.10000000000000E+01
 d    1 1.00
 0.10970000000000E+01 0.10000000000000E+01
 d    1 1.00
 0.31800000000000E+00 0.10000000000000E+01
 d    1 1.00
 0.90985336424000E-01 0.10000000000000E+01
 f    1 1.00
 0.76100000000000E+00 0.10000000000000E+01
 
    2 0
 s    6 1.00
 0.13575349682000E+05 0.60645503603591E-03
 0.20352333680000E+04 0.46979088884982E-02
 0.46322562359000E+03 0.24332477647552E-01
 0.13120019598000E+03 0.97399968307759E-01
 0.42853015891000E+02 0.30195584253780E+00
 0.15584185766000E+02 0.66233609137875E+00
 s    2 1.00
 0.62067138508000E+01 0.65595308539952E+00
 0.25764896527000E+01 0.37585633285142E+00
 s    1 1.00
 0.57696339419000E+00 0.10000000000000E+01
 s    1 1.00
 0.22972831358000E+00 0.10000000000000E+01
 s    1 1.00
 0.95164440028000E-01 0.10000000000000E+01
 s    1 1.00
 0.48475401370000E-01 0.10000000000000E+01
 p    4 1.00
 0.34697232244000E+02 0.11327220003114E-01
 0.79582622826000E+01 0.76169659202087E-01
 0.23780826883000E+01 0.30192252202676E+00
 0.81433208183000E+00 0.72785027349547E+00
 p    1 1.00
 0.28887547253000E+00 0.10000000000000E+01
 p    1 1.00
 0.10056823671000E+00 0.10000000000000E+01
 d    1 1.00
 0.10970000000000E+01 0.10000000000000E+01
 d    1 1.00
 0.31800000000000E+00 0.10000000000000E+01
 d    1 1.00
 0.90985336424000E-01 0.10000000000000E+01
 f    1 1.00
 0.76100000000000E+00 0.10000000000000E+01
 
    3 0
 s    6 1.00
 0.13575349682000E+05 0.60645503603591E-03
 0.20352333680000E+04 0.46979088884982E-02
 0.46322562359000E+03 0.24332477647552E-01
 0.13120019598000E+03 0.97399968307759E-01
 0.42853015891000E+02 0.30195584253780E+00
 0.15584185766000E+02 0.66233609137875E+00
 s    2 1.00
 0.62067138508000E+01 0.65595308539952E+00
 0.25764896527000E+01 0.37585633285142E+00
 s    1 1.00
 0.57696339419000E+00 0.10000000000000E+01
 s    1 1.00
 0.22972831358000E+00 0.10000000000000E+01
 s    1 1.00
 0.95164440028000E-01 0.10000000000000E+01
 s    1 1.00
 0.48475401370000E-01 0.10000000000000E+01
 p    4 1.00
 0.34697232244000E+02 0.11327220003114E-01
 0.79582622826000E+01 0.76169659202087E-01
 0.23780826883000E+01 0.30192252202676E+00
 0.81433208183000E+00 0.72785027349547E+00
 p    1 1.00
 0.28887547253000E+00 0.10000000000000E+01
 p    1 1.00
 0.10056823671000E+00 0.10000000000000E+01
 d    1 1.00
 0.10970000000000E+01 0.10000000000000E+01
 d    1 1.00
 0.31800000000000E+00 0.10000000000000E+01
 d    1 1.00
 0.90985336424000E-01 0.10000000000000E+01
 f    1 1.00
 0.76100000000000E+00 0.10000000000000E+01
 
    4 0
 s    6 1.00
 0.13575349682000E+05 0.60645503603591E-03
 0.20352333680000E+04 0.46979088884982E-02
 0.46322562359000E+03 0.24332477647552E-01
 0.13120019598000E+03 0.97399968307759E-01
 0.42853015891000E+02 0.30195584253780E+00
 0.15584185766000E+02 0.66233609137875E+00
 s    2 1.00
 0.62067138508000E+01 0.65595308539952E+00
 0.25764896527000E+01 0.37585633285142E+00
 s    1 1.00
 0.57696339419000E+00 0.10000000000000E+01
 s    1 1.00
 0.22972831358000E+00 0.10000000000000E+01
 s    1 1.00
 0.95164440028000E-01 0.10000000000000E+01
 s    1 1.00
 0.48475401370000E-01 0.10000000000000E+01
 p    4 1.00
 0.34697232244000E+02 0.11327220003114E-01
 0.79582622826000E+01 0.76169659202087E-01
 0.23780826883000E+01 0.30192252202676E+00
 0.81433208183000E+00 0.72785027349547E+00
 p    1 1.00
 0.28887547253000E+00 0.10000000000000E+01
 p    1 1.00
 0.10056823671000E+00 0.10000000000000E+01
 d    1 1.00
 0.10970000000000E+01 0.10000000000000E+01
 d    1 1.00
 0.31800000000000E+00 0.10000000000000E+01
 d    1 1.00
 0.90985336424000E-01 0.10000000000000E+01
 f    1 1.00
 0.76100000000000E+00 0.10000000000000E+01
 
    5 0
 s    6 1.00
 0.13575349682000E+05 0.60645503603591E-03
 0.20352333680000E+04 0.46979088884982E-02
 0.46322562359000E+03 0.24332477647552E-01
 0.13120019598000E+03 0.97399968307759E-01
 0.42853015891000E+02 0.30195584253780E+00
 0.15584185766000E+02 0.66233609137875E+00
 s    2 1.00
 0.62067138508000E+01 0.65595308539952E+00
 0.25764896527000E+01 0.37585633285142E+00
 s    1 1.00
 0.57696339419000E+00 0.10000000000000E+01
 s    1 1.00
 0.22972831358000E+00 0.10000000000000E+01
 s    1 1.00
 0.95164440028000E-01 0.10000000000000E+01
 s    1 1.00
 0.48475401370000E-01 0.10000000000000E+01
 p    4 1.00
 0.34697232244000E+02 0.11327220003114E-01
 0.79582622826000E+01 0.76169659202087E-01
 0.23780826883000E+01 0.30192252202676E+00
 0.81433208183000E+00 0.72785027349547E+00
 p    1 1.00
 0.28887547253000E+00 0.10000000000000E+01
 p    1 1.00
 0.10056823671000E+00 0.10000000000000E+01
 d    1 1.00
 0.10970000000000E+01 0.10000000000000E+01
 d    1 1.00
 0.31800000000000E+00 0.10000000000000E+01
 d    1 1.00
 0.90985336424000E-01 0.10000000000000E+01
 f    1 1.00
 0.76100000000000E+00 0.10000000000000E+01
 
    6 0
 s    6 1.00
 0.13575349682000E+05 0.60645503603591E-03
 0.20352333680000E+04 0.46979088884982E-02
 0.46322562359000E+03 0.24332477647552E-01
 0.13120019598000E+03 0.97399968307759E-01
 0.42853015891000E+02 0.30195584253780E+00
 0.15584185766000E+02 0.66233609137875E+00
 s    2 1.00
 0.62067138508000E+01 0.65595308539952E+00
 0.25764896527000E+01 0.37585633285142E+00
 s    1 1.00
 0.57696339419000E+00 0.10000000000000E+01
 s    1 1.00
 0.22972831358000E+00 0.10000000000000E+01
 s    1 1.00
 0.95164440028000E-01 0.10000000000000E+01
 s    1 1.00
 0.48475401370000E-01 0.10000000000000E+01
 p    4 1.00
 0.34697232244000E+02 0.11327220003114E-01
 0.79582622826000E+01 0.76169659202087E-01
 0.23780826883000E+01 0.30192252202676E+00
 0.81433208183000E+00 0.72785027349547E+00
 p    1 1.00
 0.28887547253000E+00 0.10000000000000E+01
 p    1 1.00
 0.10056823671000E+00 0.10000000000000E+01
 d    1 1.00
 0.10970000000000E+01 0.10000000000000E+01
 d    1 1.00
 0.31800000000000E+00 0.10000000000000E+01
 d    1 1.00
 0.90985336424000E-01 0.10000000000000E+01
 f    1 1.00
 0.76100000000000E+00 0.10000000000000E+01
 
    7 0
 s    3 1.00
 0.34061341000000E+02 0.25439307208879E-01
 0.51235746000000E+01 0.19008594890375E+00
 0.11646626000000E+01 0.85244113011042E+00
 s    1 1.00
 0.32723041000000E+00 0.10000000000000E+01
 s    1 1.00
 0.10307241000000E+00 0.10000000000000E+01
 p    1 1.00
 0.80000000000000E+00 0.10000000000000E+01
 p    1 1.00
 0.95774129632000E-01 0.10000000000000E+01
 
    8 0
 s    3 1.00
 0.34061341000000E+02 0.25439307208879E-01
 0.51235746000000E+01 0.19008594890375E+00
 0.11646626000000E+01 0.85244113011042E+00
 s    1 1.00
 0.32723041000000E+00 0.10000000000000E+01
 s    1 1.00
 0.10307241000000E+00 0.10000000000000E+01
 p    1 1.00
 0.80000000000000E+00 0.10000000000000E+01
 p    1 1.00
 0.95774129632000E-01 0.10000000000000E+01
 
    9 0
 s    3 1.00
 0.34061341000000E+02 0.25439307208879E-01
 0.51235746000000E+01 0.19008594890375E+00
 0.11646626000000E+01 0.85244113011042E+00
 s    1 1.00
 0.32723041000000E+00 0.10000000000000E+01
 s    1 1.00
 0.10307241000000E+00 0.10000000000000E+01
 p    1 1.00
 0.80000000000000E+00 0.10000000000000E+01
 p    1 1.00
 0.95774129632000E-01 0.10000000000000E+01
 
   10 0
 s    3 1.00
 0.34061341000000E+02 0.25439307208879E-01
 0.51235746000000E+01 0.19008594890375E+00
 0.11646626000000E+01 0.85244113011042E+00
 s    1 1.00
 0.32723041000000E+00 0.10000000000000E+01
 s    1 1.00
 0.10307241000000E+00 0.10000000000000E+01
 p    1 1.00
 0.80000000000000E+00 0.10000000000000E+01
 p    1 1.00
 0.95774129632000E-01 0.10000000000000E+01
 
   11 0
 s    6 1.00
 0.19730800647000E+05 0.58626402628763E-03
 0.29578958745000E+04 0.45428820586397E-02
 0.67322133595000E+03 0.23558413450084E-01
 0.19068249494000E+03 0.94709193292923E-01
 0.62295441898000E+02 0.29719784913376E+00
 0.22654161182000E+02 0.66916246895232E+00
 s    2 1.00
 0.89791477428000E+01 0.64596683630063E+00
 0.36863002370000E+01 0.38700574393705E+00
 s    1 1.00
 0.84660076805000E+00 0.10000000000000E+01
 s    1 1.00
 0.33647133771000E+00 0.10000000000000E+01
 s    1 1.00
 0.13647653675000E+00 0.10000000000000E+01
 s    1 1.00
 0.68441605847000E-01 0.10000000000000E+01
 p    4 1.00
 0.49200380510000E+02 0.11448825101764E-01
 0.11346790537000E+02 0.78422337970864E-01
 0.34273972411000E+01 0.30818094738830E+00
 0.11785525134000E+01 0.72027196368413E+00
 p    1 1.00
 0.41642204972000E+00 0.10000000000000E+01
 p    1 1.00
 0.14260826011000E+00 0.10000000000000E+01
 d    1 1.00
 0.16540000000000E+01 0.10000000000000E+01
 d    1 1.00
 0.46900000000000E+00 0.10000000000000E+01
 d    1 1.00
 0.12829642058000E+00 0.10000000000000E+01
 f    1 1.00
 0.10930000000000E+01 0.10000000000000E+01
 
   12 0
 s    6 1.00
 0.27032382631000E+05 0.57227335211155E-03
 0.40523871392000E+04 0.44353233492995E-02
 0.92232722710000E+03 0.23020107706038E-01
 0.26124070989000E+03 0.92822490667928E-01
 0.85354641351000E+02 0.29378500009671E+00
 0.31035035245000E+02 0.67401604501641E+00
 s    2 1.00
 0.12260860728000E+02 0.63839937025506E+00
 0.49987076005000E+01 0.39534587125718E+00
 s    1 1.00
 0.11703108158000E+01 0.10000000000000E+01
 s    1 1.00
 0.46474740994000E+00 0.10000000000000E+01
 s    1 1.00
 0.18504536357000E+00 0.10000000000000E+01
 s    1 1.00
 0.70288026270000E-01 0.10000000000000E+01
 p    4 1.00
 0.63274954801000E+02 0.12018332222616E-01
 0.14627049379000E+02 0.83005421790056E-01
 0.44501223456000E+01 0.31991743925964E+00
 0.15275799647000E+01 0.70715542916104E+00
 p    1 1.00
 0.52935117943000E+00 0.10000000000000E+01
 p    1 1.00
 0.17478421270000E+00 0.10000000000000E+01
 p    1 1.00
 0.51112745706000E-01 0.10000000000000E+01
 d    1 1.00
 0.23140000000000E+01 0.10000000000000E+01
 d    1 1.00
 0.64500000000000E+00 0.10000000000000E+01
 d    1 1.00
 0.14696477366000E+00 0.10000000000000E+01
 f    1 1.00
 0.14280000000000E+01 0.10000000000000E+01
 
   13 0
 s    6 1.00
 0.27032382631000E+05 0.57227335211155E-03
 0.40523871392000E+04 0.44353233492995E-02
 0.92232722710000E+03 0.23020107706038E-01
 0.26124070989000E+03 0.92822490667928E-01
 0.85354641351000E+02 0.29378500009671E+00
 0.31035035245000E+02 0.67401604501641E+00
 s    2 1.00
 0.12260860728000E+02 0.63839937025506E+00
 0.49987076005000E+01 0.39534587125718E+00
 s    1 1.00
 0.11703108158000E+01 0.10000000000000E+01
 s    1 1.00
 0.46474740994000E+00 0.10000000000000E+01
 s    1 1.00
 0.18504536357000E+00 0.10000000000000E+01
 s    1 1.00
 0.70288026270000E-01 0.10000000000000E+01
 p    4 1.00
 0.63274954801000E+02 0.12018332222616E-01
 0.14627049379000E+02 0.83005421790056E-01
 0.44501223456000E+01 0.31991743925964E+00
 0.15275799647000E+01 0.70715542916104E+00
 p    1 1.00
 0.52935117943000E+00 0.10000000000000E+01
 p    1 1.00
 0.17478421270000E+00 0.10000000000000E+01
 p    1 1.00
 0.51112745706000E-01 0.10000000000000E+01
 d    1 1.00
 0.23140000000000E+01 0.10000000000000E+01
 d    1 1.00
 0.64500000000000E+00 0.10000000000000E+01
 d    1 1.00
 0.14696477366000E+00 0.10000000000000E+01
 f    1 1.00
 0.14280000000000E+01 0.10000000000000E+01
 
   14 0
 s    6 1.00
 0.19730800647000E+05 0.58626402628763E-03
 0.29578958745000E+04 0.45428820586397E-02
 0.67322133595000E+03 0.23558413450084E-01
 0.19068249494000E+03 0.94709193292923E-01
 0.62295441898000E+02 0.29719784913376E+00
 0.22654161182000E+02 0.66916246895232E+00
 s    2 1.00
 0.89791477428000E+01 0.64596683630063E+00
 0.36863002370000E+01 0.38700574393705E+00
 s    1 1.00
 0.84660076805000E+00 0.10000000000000E+01
 s    1 1.00
 0.33647133771000E+00 0.10000000000000E+01
 s    1 1.00
 0.13647653675000E+00 0.10000000000000E+01
 s    1 1.00
 0.68441605847000E-01 0.10000000000000E+01
 p    4 1.00
 0.49200380510000E+02 0.11448825101764E-01
 0.11346790537000E+02 0.78422337970864E-01
 0.34273972411000E+01 0.30818094738830E+00
 0.11785525134000E+01 0.72027196368413E+00
 p    1 1.00
 0.41642204972000E+00 0.10000000000000E+01
 p    1 1.00
 0.14260826011000E+00 0.10000000000000E+01
 d    1 1.00
 0.16540000000000E+01 0.10000000000000E+01
 d    1 1.00
 0.46900000000000E+00 0.10000000000000E+01
 d    1 1.00
 0.12829642058000E+00 0.10000000000000E+01
 f    1 1.00
 0.10930000000000E+01 0.10000000000000E+01
 
   15 0
 s    3 1.00
 0.34061341000000E+02 0.25439307208879E-01
 0.51235746000000E+01 0.19008594890375E+00
 0.11646626000000E+01 0.85244113011042E+00
 s    1 1.00
 0.32723041000000E+00 0.10000000000000E+01
 s    1 1.00
 0.10307241000000E+00 0.10000000000000E+01
 p    1 1.00
 0.80000000000000E+00 0.10000000000000E+01
 p    1 1.00
 0.95774129632000E-01 0.10000000000000E+01
 
   16 0
 s    3 1.00
 0.34061341000000E+02 0.25439307208879E-01
 0.51235746000000E+01 0.19008594890375E+00
 0.11646626000000E+01 0.85244113011042E+00
 s    1 1.00
 0.32723041000000E+00 0.10000000000000E+01
 s    1 1.00
 0.10307241000000E+00 0.10000000000000E+01
 p    1 1.00
 0.80000000000000E+00 0.10000000000000E+01
 p    1 1.00
 0.95774129632000E-01 0.10000000000000E+01
 
[MO]
 Sym= X
 Ene= -0.853309
 Spin= Alpha
 Occup= -0.853309
         1   -1.778302E-04
         2   -4.134504E-04
         3    1.182668E-03
         4   -2.736881E-03
         5   -6.561721E-03
         6   -1.090436E-02
         7   -1.617989E-03
         8   -2.313675E-04
         9    4.092233E-02
        10    2.433045E-03
        11   -4.322841E-04
        12    3.886918E-02
        13    3.553470E-02
        14   -1.193369E-02
        15    1.102084E-02
        16    1.054278E-06
        17   -1.285165E-05
        18    1.179737E-05
        19   -1.256548E-05
        20    6.257614E-03
        21   -4.265766E-03
        22   -6.731789E-04
        23    4.028267E-04
        24    2.703523E-04
        25   -6.897656E-04
        26    1.420025E-02
        27   -7.941973E-03
        28   -5.094276E-03
        29    4.797343E-03
        30    2.969329E-04
        31    1.048466E-03
        32   -1.237489E-03
        33    1.015689E-02
        34    1.961002E-05
        35   -7.123440E-06
        36   -2.336471E-04
        37   -8.609472E-06
        38    7.131436E-06
        39   -6.279675E-04
        40   -1.770013E-05
        41    2.425662E-06
        42    9.414380E-04
        43   -7.366142E-04
        44    2.828472E-05
        45    6.196001E-05
        46    1.224080E-04
        47   -2.694457E-03
        48   -5.438737E-02
        49    4.898082E-03
        50   -4.398550E-04
        51    3.403014E-05
        52    2.219070E-01
        53    3.433532E-04
        54    3.278249E-05
        55    2.296950E-01
        56    1.681051E-02
        57    2.820630E-04
        58    2.078029E-01
        59    4.060742E-05
        60   -3.674966E-05
        61   -3.857766E-06
        62   -2.575455E-06
        63    2.285721E-04
        64   -3.760650E-07
        65    3.653488E-04
        66   -6.122972E-04
        67    2.469484E-04
        68    7.467052E-06
        69    2.514271E-03
        70   -6.797167E-07
        71    9.032458E-03
        72   -1.026657E-02
        73    1.234113E-03
        74   -4.247615E-05
        75   -5.681425E-03
        76    5.090933E-06
        77   -7.980135E-06
        78    6.660873E-07
        79   -1.277842E-03
        80    6.539750E-06
        81   -7.389668E-07
        82    7.267061E-04
        83    4.166725E-06
        84   -1.546830E-07
        85    9.876994E-04
        86    5.867342E-08
        87   -1.632191E-04
        88   -3.798913E-04
        89    1.113369E-03
        90   -2.722711E-03
        91   -5.365554E-03
        92   -1.097253E-02
        93   -1.718857E-03
        94    2.404992E-04
        95    4.094199E-02
        96    2.270941E-03
        97    4.366674E-04
        98    3.888841E-02
        99    3.542173E-02
       100    1.223176E-02
       101    1.104809E-02
       102    4.546127E-06
       103   -1.690020E-05
       104    1.235407E-05
       105    1.214678E-05
       106    6.257306E-03
       107    4.265910E-03
       108   -6.399031E-04
       109    3.781329E-04
       110    2.617701E-04
       111    6.902278E-04
       112    1.419885E-02
       113    7.941037E-03
       114   -5.175169E-03
       115    4.881265E-03
       116    2.939039E-04
       117   -1.012322E-03
       118   -1.238760E-03
       119   -1.016416E-02
       120    1.952790E-05
       121    6.710056E-06
       122   -2.337243E-04
       123   -8.917425E-06
       124   -6.530908E-06
       125   -6.278805E-04
       126   -1.728200E-05
       127   -2.471577E-06
       128    9.414546E-04
       129    7.365463E-04
       130    9.461533E-05
       131    2.013786E-04
       132    6.445670E-04
       133   -1.008724E-02
       134    2.814955E-02
       135    1.228604E-02
       136    1.320030E-03
       137   -6.760517E-04
       138   -1.459589E-01
       139    8.915885E-03
       140   -6.072244E-03
       141   -1.488304E-01
       142    2.361400E-02
       143    6.533031E-03
       144   -9.096780E-02
       145    1.403182E-04
       146   -1.676820E-04
       147    2.736382E-05
       148    1.615982E-06
       149    1.332788E-03
       150   -2.996713E-03
       151    6.255170E-04
       152   -7.428812E-04
       153    1.173642E-04
       154    1.651121E-03
       155    4.993175E-03
       156   -5.089364E-03
       157    8.063677E-03
       158   -6.265947E-03
       159   -1.797731E-03
       160   -8.892679E-03
       161   -3.272894E-03
       162    1.132945E-02
       163    1.525647E-05
       164   -9.222626E-06
       165    8.020409E-04
       166    1.790606E-05
       167   -1.719901E-05
       168   -1.346347E-04
       169   -3.837475E-05
       170    2.957246E-05
       171   -9.414161E-04
       172    3.730339E-04
       173   -1.041043E-03
       174   -2.371446E-03
       175    2.307603E-03
       176    2.187853E-02
       177   -1.383861E-02
       178    1.008314E-02
       179   -8.520247E-03
       180    1.702440E-05
       181   -1.193987E-01
       182   -5.229311E-04
       183    3.178364E-05
       184   -1.220167E-01
       185    2.634309E-02
       186   -7.282158E-04
       187   -1.324297E-01
       188    4.635862E-04
       189   -2.555800E-04
       190   -2.080062E-04
       191    1.749228E-07
       192   -9.118994E-03
       193   -5.006402E-07
       194   -1.747166E-03
       195    3.968309E-03
       196   -2.221143E-03
       197    5.284264E-06
       198   -2.272943E-02
       199    7.438809E-07
       200   -5.666081E-03
       201    7.013679E-03
       202   -1.347598E-03
       203   -9.953684E-05
       204   -1.779317E-02
       205    8.822176E-06
       206   -1.134009E-04
       207    1.523045E-07
       208    3.818029E-04
       209    8.051826E-05
       210   -1.111195E-07
       211    9.223696E-04
       212    7.162497E-05
       213   -9.321841E-08
       214   -1.434612E-03
       215   -6.974458E-09
       216    1.028168E-04
       217    2.198240E-04
       218    6.090766E-04
       219   -1.006765E-02
       220    2.996200E-02
       221    1.226766E-02
       222    1.257961E-03
       223    6.684935E-04
       224   -1.459766E-01
       225    8.948812E-03
       226    6.089277E-03
       227   -1.488510E-01
       228    2.353892E-02
       229   -7.286341E-03
       230   -9.097460E-02
       231    1.385794E-04
       232   -1.668071E-04
       233    2.822774E-05
       234   -8.156510E-07
       235    1.332521E-03
       236    2.996789E-03
       237    6.444017E-04
       238   -7.557513E-04
       239    1.113496E-04
       240   -1.653122E-03
       241    4.990460E-03
       242    5.089843E-03
       243    8.053794E-03
       244   -6.254470E-03
       245   -1.799324E-03
       246    8.987612E-03
       247   -3.268790E-03
       248   -1.132876E-02
       249    1.545841E-05
       250    9.377108E-06
       251    8.022809E-04
       252    1.784451E-05
       253    1.703674E-05
       254   -1.348984E-04
       255   -3.858414E-05
       256   -2.961745E-05
       257   -9.414744E-04
       258   -3.730276E-04
       259   -3.572850E-04
       260   -2.009436E-04
       261   -1.661285E-02
       262    9.880603E-06
       263   -3.052412E-06
       264    1.545073E-03
       265    5.208338E-03
       266    1.868875E-04
       267   -6.368913E-03
       268   -3.939554E-04
       269   -2.425193E-04
       270   -1.668817E-02
       271    1.378861E-05
       272   -2.195563E-06
       273    1.545852E-03
       274    5.301506E-03
       275   -1.601022E-04
       276   -6.375297E-03
       277   -3.690406E-04
       278   -2.252023E-03
       279    3.321077E-02
       280    1.462484E-05
       281   -9.326047E-05
       282   -6.004946E-03
       283    1.188645E-03
       284    2.711562E-03
       285    8.293142E-04
       286   -3.673208E-04
       287   -2.246183E-03
       288    3.357444E-02
       289    1.342222E-05
       290    9.259543E-05
       291   -6.006139E-03
       292    1.198212E-03
       293   -2.751825E-03
       294    8.276712E-04
       295   -4.106461E-05
       296   -9.467656E-05
       297    7.653166E-05
       298    3.612541E-04
       299   -6.378277E-03
       300    1.479631E-03
       301   -4.265578E-04
       302    4.673419E-05
       303    6.406664E-03
       304   -1.333745E-04
       305    3.429666E-05
       306    9.411992E-03
       307    2.807978E-03
       308   -3.738782E-05
       309    6.228360E-03
       310    2.093856E-05
       311   -3.905411E-06
       312   -1.703314E-05
       313    1.293062E-05
       314   -4.919962E-03
       315    2.721252E-08
       316    8.678431E-06
       317    6.385694E-05
       318   -7.253537E-05
       319    3.539179E-05
       320   -1.455413E-02
       321    1.696102E-07
       322   -1.012247E-03
       323    2.820080E-03
       324   -1.807833E-03
       325    8.969724E-06
       326   -3.418400E-03
       327   -3.461098E-06
       328   -7.098163E-06
       329   -3.047578E-06
       330    8.636264E-05
       331    5.027945E-06
       332    4.216448E-06
       333    7.345623E-04
       334    4.495240E-06
       335   -1.276928E-07
       336   -8.504300E-04
       337    2.031723E-08
       338   -1.457835E-05
       339   -3.186183E-05
       340    3.194236E-06
       341    5.263460E-04
       342   -5.785461E-03
       343   -9.474398E-04
       344   -1.600406E-04
       345   -4.603310E-04
       346   -9.219546E-02
       347   -4.210336E-05
       348   -5.443785E-04
       349   -8.528584E-02
       350    1.193960E-03
       351   -6.839815E-04
       352   -6.652642E-02
       353    1.198065E-04
       354   -2.509674E-04
       355   -7.668565E-03
       356    6.517556E-06
       357   -8.702516E-06
       358    2.184960E-06
       359    8.475788E-07
       360    9.626901E-05
       361   -7.039689E-04
       362   -3.602146E-06
       363   -2.106067E-05
       364    2.466282E-05
       365    1.021775E-05
       366    8.811884E-04
       367   -2.245938E-03
       368   -7.323804E-05
       369    5.067233E-05
       370    2.256571E-05
       371    8.626477E-05
       372    5.393012E-04
       373   -4.654811E-04
       374   -1.169357E-06
       375   -2.903044E-06
       376    1.052203E-04
       377    2.130504E-06
       378    1.596576E-06
       379    9.356974E-05
       380   -5.616468E-07
       381    2.298266E-06
       382   -2.347375E-04
       383    1.935556E-04
       384   -1.830528E-05
       385   -4.141715E-05
       386    1.787491E-05
       387    5.181977E-04
       388   -5.738818E-03
       389   -9.626785E-04
       390    5.503577E-04
       391   -1.620192E-04
       392   -9.219265E-02
       393    6.023978E-04
       394   -1.613051E-06
       395   -8.528383E-02
       396    1.655996E-03
       397    2.772239E-04
       398   -6.651830E-02
       399    1.854838E-04
       400    2.135399E-04
       401   -7.669592E-03
       402    7.373751E-07
       403   -1.227259E-06
       404    4.898838E-07
       405   -8.412991E-07
       406    9.628549E-05
       407    7.039592E-04
       408   -2.099753E-05
       409   -1.405122E-06
       410    2.240265E-05
       411   -1.301507E-05
       412    8.810543E-04
       413    2.245934E-03
       414   -9.308658E-05
       415    7.007394E-05
       416    2.301264E-05
       417   -8.954735E-05
       418    5.396268E-04
       419    4.642832E-04
       420   -5.005333E-07
       421    7.301467E-07
       422    1.052236E-04
       423    8.730305E-07
       424    8.156631E-07
       425    9.356534E-05
       426   -2.014946E-07
       427   -1.795258E-06
       428   -2.347376E-04
       429   -1.935515E-04
       430    4.878707E-03
       431    1.157308E-02
       432   -1.798405E-02
       433   -2.809155E-02
       434   -2.212625E-02
       435   -7.091478E-02
       436    1.692788E-02
       437   -1.396497E-05
       438    2.292833E-01
       439    1.925014E-02
       440   -5.840146E-06
       441    2.267320E-01
       442    1.722988E-02
       443    8.973178E-05
       444    1.889754E-01
       445   -1.026724E-04
       446   -5.405470E-06
       447    1.080779E-04
       448    5.489273E-07
       449   -9.659267E-04
       450   -2.905970E-07
       451   -2.786678E-04
       452   -1.455775E-03
       453    1.734443E-03
       454   -1.783478E-06
       455   -3.972631E-03
       456   -1.238587E-06
       457   -2.226332E-03
       458   -2.781934E-03
       459    5.008266E-03
       460   -1.478531E-06
       461   -2.245138E-03
       462   -6.562177E-06
       463    1.424477E-04
       464   -9.258393E-08
       465   -8.693654E-04
       466    8.345541E-05
       467    6.839515E-08
       468    4.238566E-04
       469   -2.745691E-04
       470    5.581923E-08
       471    7.425195E-04
       472    2.507373E-09
       473    9.541864E-03
       474    1.791038E-02
       475    3.052113E-02
       476    2.190028E-03
       477    1.859170E-03
       478    1.168534E-02
       479   -1.684999E-03
       480    3.652582E-03
       481    1.429330E-02
       482    9.530823E-03
       483    1.784304E-02
       484    3.034892E-02
       485    2.186384E-03
       486   -1.853322E-03
       487    1.168810E-02
       488   -1.704043E-03
       489   -3.622322E-03
       490    1.430223E-02
 Sym= X
 Ene= 0.853309
 Spin= Alpha
 Occup= 0.853309
         1   -3.625197E-05
         2   -8.890557E-05
         3    4.307511E-04
         4   -1.201705E-03
         5   -1.040311E-01
         6    4.991818E-03
         7   -2.923683E-04
         8   -8.017904E-05
         9    1.376655E-01
        10    9.959137E-05
        11    1.229195E-04
        12    1.407769E-01
        13    5.338384E-02
        14   -3.912434E-02
        15    9.285558E-02
        16    2.086184E-05
        17   -3.474784E-06
        18   -1.738705E-05
        19    4.252790E-06
        20   -1.508252E-03
        21    1.328767E-03
        22   -3.475330E-04
        23    1.488055E-04
        24    1.987274E-04
        25   -4.566486E-06
        26    1.188579E-03
        27    5.312070E-03
        28   -2.049740E-02
        29    2.146658E-02
        30   -9.691765E-04
        31   -3.860086E-03
        32    2.047067E-03
        33    1.862686E-02
        34    1.106100E-05
        35   -6.412100E-07
        36   -1.292657E-04
        37   -1.089902E-05
        38   -1.916585E-06
        39    7.774812E-06
        40   -3.940869E-06
        41    2.776859E-06
        42    1.656533E-04
        43    1.983611E-04
        44   -1.988237E-05
        45   -3.586022E-05
        46   -2.937767E-04
        47    5.307297E-03
        48   -1.683111E-01
        49   -2.303327E-02
        50    8.554731E-05
        51    2.194444E-06
        52   -7.532086E-02
        53   -4.048806E-04
        54   -2.822797E-05
        55   -8.216961E-02
        56    6.320627E-02
        57   -3.864116E-04
        58   -5.350399E-02
        59    4.181867E-05
        60    1.587120E-05
        61   -5.768986E-05
        62    1.552160E-07