[Molden Format]
[Title]
ADC(2) - opt by CAM-B3LYP gaussian                                              
[Atoms] AU
 c     1    6 0.12589710753986E+01 0.22825551554713E+01 -.28105798744860E-01
 c     2    6 0.25558923691721E+01 0.80431469000000E-06 -.26811997747980E-01
 c     3    6 0.12589700738438E+01 -.22825573262942E+01 -.28139341383720E-01
 c     4    6 -.13331755585332E+01 -.22837561874501E+01 -.30470167390540E-01
 c     5    6 -.26866009864883E+01 0.27696298600000E-05 -.30311128039200E-01
 c     6    6 -.13331783742251E+01 0.22837572858534E+01 -.30432977580250E-01
 h     7    1 0.22993222678978E+01 0.40366379181686E+01 -.25216785432900E-01
 h     8    1 0.22993197734593E+01 -.40366408826765E+01 -.25273722881290E-01
 h     9    1 -.23520966897676E+01 -.40562070503646E+01 -.33235309154490E-01
 h    10    1 -.23520900190344E+01 0.40562136478709E+01 -.33159965773570E-01
 n    11    7 0.52762255328692E+01 0.25629411000000E-06 -.20783601308720E-01
 o    12    8 0.63803680214636E+01 -.20270720034092E+01 -.18188232540560E-01
 o    13    8 0.63803692875801E+01 0.20270718545932E+01 -.18282964511600E-01
 n    14    7 -.52484248103301E+01 -.66967170000000E-06 -.81289589624650E-01
 h    15    1 -.62019351690707E+01 -.16149791988436E+01 0.21484054874156E+00
 h    16    1 -.62019367942352E+01 0.16149736265137E+01 0.21486103337284E+00
[GTO]
    1 0
 s    6 1.00
 0.13575349682000E+05 0.60645503603591E-03
 0.20352333680000E+04 0.46979088884982E-02
 0.46322562359000E+03 0.24332477647552E-01
 0.13120019598000E+03 0.97399968307759E-01
 0.42853015891000E+02 0.30195584253780E+00
 0.15584185766000E+02 0.66233609137875E+00
 s    2 1.00
 0.62067138508000E+01 0.65595308539952E+00
 0.25764896527000E+01 0.37585633285142E+00
 s    1 1.00
 0.57696339419000E+00 0.10000000000000E+01
 s    1 1.00
 0.22972831358000E+00 0.10000000000000E+01
 s    1 1.00
 0.95164440028000E-01 0.10000000000000E+01
 s    1 1.00
 0.48475401370000E-01 0.10000000000000E+01
 p    4 1.00
 0.34697232244000E+02 0.11327220003114E-01
 0.79582622826000E+01 0.76169659202087E-01
 0.23780826883000E+01 0.30192252202676E+00
 0.81433208183000E+00 0.72785027349547E+00
 p    1 1.00
 0.28887547253000E+00 0.10000000000000E+01
 p    1 1.00
 0.10056823671000E+00 0.10000000000000E+01
 d    1 1.00
 0.10970000000000E+01 0.10000000000000E+01
 d    1 1.00
 0.31800000000000E+00 0.10000000000000E+01
 d    1 1.00
 0.90985336424000E-01 0.10000000000000E+01
 f    1 1.00
 0.76100000000000E+00 0.10000000000000E+01
 
    2 0
 s    6 1.00
 0.13575349682000E+05 0.60645503603591E-03
 0.20352333680000E+04 0.46979088884982E-02
 0.46322562359000E+03 0.24332477647552E-01
 0.13120019598000E+03 0.97399968307759E-01
 0.42853015891000E+02 0.30195584253780E+00
 0.15584185766000E+02 0.66233609137875E+00
 s    2 1.00
 0.62067138508000E+01 0.65595308539952E+00
 0.25764896527000E+01 0.37585633285142E+00
 s    1 1.00
 0.57696339419000E+00 0.10000000000000E+01
 s    1 1.00
 0.22972831358000E+00 0.10000000000000E+01
 s    1 1.00
 0.95164440028000E-01 0.10000000000000E+01
 s    1 1.00
 0.48475401370000E-01 0.10000000000000E+01
 p    4 1.00
 0.34697232244000E+02 0.11327220003114E-01
 0.79582622826000E+01 0.76169659202087E-01
 0.23780826883000E+01 0.30192252202676E+00
 0.81433208183000E+00 0.72785027349547E+00
 p    1 1.00
 0.28887547253000E+00 0.10000000000000E+01
 p    1 1.00
 0.10056823671000E+00 0.10000000000000E+01
 d    1 1.00
 0.10970000000000E+01 0.10000000000000E+01
 d    1 1.00
 0.31800000000000E+00 0.10000000000000E+01
 d    1 1.00
 0.90985336424000E-01 0.10000000000000E+01
 f    1 1.00
 0.76100000000000E+00 0.10000000000000E+01
 
    3 0
 s    6 1.00
 0.13575349682000E+05 0.60645503603591E-03
 0.20352333680000E+04 0.46979088884982E-02
 0.46322562359000E+03 0.24332477647552E-01
 0.13120019598000E+03 0.97399968307759E-01
 0.42853015891000E+02 0.30195584253780E+00
 0.15584185766000E+02 0.66233609137875E+00
 s    2 1.00
 0.62067138508000E+01 0.65595308539952E+00
 0.25764896527000E+01 0.37585633285142E+00
 s    1 1.00
 0.57696339419000E+00 0.10000000000000E+01
 s    1 1.00
 0.22972831358000E+00 0.10000000000000E+01
 s    1 1.00
 0.95164440028000E-01 0.10000000000000E+01
 s    1 1.00
 0.48475401370000E-01 0.10000000000000E+01
 p    4 1.00
 0.34697232244000E+02 0.11327220003114E-01
 0.79582622826000E+01 0.76169659202087E-01
 0.23780826883000E+01 0.30192252202676E+00
 0.81433208183000E+00 0.72785027349547E+00
 p    1 1.00
 0.28887547253000E+00 0.10000000000000E+01
 p    1 1.00
 0.10056823671000E+00 0.10000000000000E+01
 d    1 1.00
 0.10970000000000E+01 0.10000000000000E+01
 d    1 1.00
 0.31800000000000E+00 0.10000000000000E+01
 d    1 1.00
 0.90985336424000E-01 0.10000000000000E+01
 f    1 1.00
 0.76100000000000E+00 0.10000000000000E+01
 
    4 0
 s    6 1.00
 0.13575349682000E+05 0.60645503603591E-03
 0.20352333680000E+04 0.46979088884982E-02
 0.46322562359000E+03 0.24332477647552E-01
 0.13120019598000E+03 0.97399968307759E-01
 0.42853015891000E+02 0.30195584253780E+00
 0.15584185766000E+02 0.66233609137875E+00
 s    2 1.00
 0.62067138508000E+01 0.65595308539952E+00
 0.25764896527000E+01 0.37585633285142E+00
 s    1 1.00
 0.57696339419000E+00 0.10000000000000E+01
 s    1 1.00
 0.22972831358000E+00 0.10000000000000E+01
 s    1 1.00
 0.95164440028000E-01 0.10000000000000E+01
 s    1 1.00
 0.48475401370000E-01 0.10000000000000E+01
 p    4 1.00
 0.34697232244000E+02 0.11327220003114E-01
 0.79582622826000E+01 0.76169659202087E-01
 0.23780826883000E+01 0.30192252202676E+00
 0.81433208183000E+00 0.72785027349547E+00
 p    1 1.00
 0.28887547253000E+00 0.10000000000000E+01
 p    1 1.00
 0.10056823671000E+00 0.10000000000000E+01
 d    1 1.00
 0.10970000000000E+01 0.10000000000000E+01
 d    1 1.00
 0.31800000000000E+00 0.10000000000000E+01
 d    1 1.00
 0.90985336424000E-01 0.10000000000000E+01
 f    1 1.00
 0.76100000000000E+00 0.10000000000000E+01
 
    5 0
 s    6 1.00
 0.13575349682000E+05 0.60645503603591E-03
 0.20352333680000E+04 0.46979088884982E-02
 0.46322562359000E+03 0.24332477647552E-01
 0.13120019598000E+03 0.97399968307759E-01
 0.42853015891000E+02 0.30195584253780E+00
 0.15584185766000E+02 0.66233609137875E+00
 s    2 1.00
 0.62067138508000E+01 0.65595308539952E+00
 0.25764896527000E+01 0.37585633285142E+00
 s    1 1.00
 0.57696339419000E+00 0.10000000000000E+01
 s    1 1.00
 0.22972831358000E+00 0.10000000000000E+01
 s    1 1.00
 0.95164440028000E-01 0.10000000000000E+01
 s    1 1.00
 0.48475401370000E-01 0.10000000000000E+01
 p    4 1.00
 0.34697232244000E+02 0.11327220003114E-01
 0.79582622826000E+01 0.76169659202087E-01
 0.23780826883000E+01 0.30192252202676E+00
 0.81433208183000E+00 0.72785027349547E+00
 p    1 1.00
 0.28887547253000E+00 0.10000000000000E+01
 p    1 1.00
 0.10056823671000E+00 0.10000000000000E+01
 d    1 1.00
 0.10970000000000E+01 0.10000000000000E+01
 d    1 1.00
 0.31800000000000E+00 0.10000000000000E+01
 d    1 1.00
 0.90985336424000E-01 0.10000000000000E+01
 f    1 1.00
 0.76100000000000E+00 0.10000000000000E+01
 
    6 0
 s    6 1.00
 0.13575349682000E+05 0.60645503603591E-03
 0.20352333680000E+04 0.46979088884982E-02
 0.46322562359000E+03 0.24332477647552E-01
 0.13120019598000E+03 0.97399968307759E-01
 0.42853015891000E+02 0.30195584253780E+00
 0.15584185766000E+02 0.66233609137875E+00
 s    2 1.00
 0.62067138508000E+01 0.65595308539952E+00
 0.25764896527000E+01 0.37585633285142E+00
 s    1 1.00
 0.57696339419000E+00 0.10000000000000E+01
 s    1 1.00
 0.22972831358000E+00 0.10000000000000E+01
 s    1 1.00
 0.95164440028000E-01 0.10000000000000E+01
 s    1 1.00
 0.48475401370000E-01 0.10000000000000E+01
 p    4 1.00
 0.34697232244000E+02 0.11327220003114E-01
 0.79582622826000E+01 0.76169659202087E-01
 0.23780826883000E+01 0.30192252202676E+00
 0.81433208183000E+00 0.72785027349547E+00
 p    1 1.00
 0.28887547253000E+00 0.10000000000000E+01
 p    1 1.00
 0.10056823671000E+00 0.10000000000000E+01
 d    1 1.00
 0.10970000000000E+01 0.10000000000000E+01
 d    1 1.00
 0.31800000000000E+00 0.10000000000000E+01
 d    1 1.00
 0.90985336424000E-01 0.10000000000000E+01
 f    1 1.00
 0.76100000000000E+00 0.10000000000000E+01
 
    7 0
 s    3 1.00
 0.34061341000000E+02 0.25439307208879E-01
 0.51235746000000E+01 0.19008594890375E+00
 0.11646626000000E+01 0.85244113011042E+00
 s    1 1.00
 0.32723041000000E+00 0.10000000000000E+01
 s    1 1.00
 0.10307241000000E+00 0.10000000000000E+01
 p    1 1.00
 0.80000000000000E+00 0.10000000000000E+01
 p    1 1.00
 0.95774129632000E-01 0.10000000000000E+01
 
    8 0
 s    3 1.00
 0.34061341000000E+02 0.25439307208879E-01
 0.51235746000000E+01 0.19008594890375E+00
 0.11646626000000E+01 0.85244113011042E+00
 s    1 1.00
 0.32723041000000E+00 0.10000000000000E+01
 s    1 1.00
 0.10307241000000E+00 0.10000000000000E+01
 p    1 1.00
 0.80000000000000E+00 0.10000000000000E+01
 p    1 1.00
 0.95774129632000E-01 0.10000000000000E+01
 
    9 0
 s    3 1.00
 0.34061341000000E+02 0.25439307208879E-01
 0.51235746000000E+01 0.19008594890375E+00
 0.11646626000000E+01 0.85244113011042E+00
 s    1 1.00
 0.32723041000000E+00 0.10000000000000E+01
 s    1 1.00
 0.10307241000000E+00 0.10000000000000E+01
 p    1 1.00
 0.80000000000000E+00 0.10000000000000E+01
 p    1 1.00
 0.95774129632000E-01 0.10000000000000E+01
 
   10 0
 s    3 1.00
 0.34061341000000E+02 0.25439307208879E-01
 0.51235746000000E+01 0.19008594890375E+00
 0.11646626000000E+01 0.85244113011042E+00
 s    1 1.00
 0.32723041000000E+00 0.10000000000000E+01
 s    1 1.00
 0.10307241000000E+00 0.10000000000000E+01
 p    1 1.00
 0.80000000000000E+00 0.10000000000000E+01
 p    1 1.00
 0.95774129632000E-01 0.10000000000000E+01
 
   11 0
 s    6 1.00
 0.19730800647000E+05 0.58626402628763E-03
 0.29578958745000E+04 0.45428820586397E-02
 0.67322133595000E+03 0.23558413450084E-01
 0.19068249494000E+03 0.94709193292923E-01
 0.62295441898000E+02 0.29719784913376E+00
 0.22654161182000E+02 0.66916246895232E+00
 s    2 1.00
 0.89791477428000E+01 0.64596683630063E+00
 0.36863002370000E+01 0.38700574393705E+00
 s    1 1.00
 0.84660076805000E+00 0.10000000000000E+01
 s    1 1.00
 0.33647133771000E+00 0.10000000000000E+01
 s    1 1.00
 0.13647653675000E+00 0.10000000000000E+01
 s    1 1.00
 0.68441605847000E-01 0.10000000000000E+01
 p    4 1.00
 0.49200380510000E+02 0.11448825101764E-01
 0.11346790537000E+02 0.78422337970864E-01
 0.34273972411000E+01 0.30818094738830E+00
 0.11785525134000E+01 0.72027196368413E+00
 p    1 1.00
 0.41642204972000E+00 0.10000000000000E+01
 p    1 1.00
 0.14260826011000E+00 0.10000000000000E+01
 d    1 1.00
 0.16540000000000E+01 0.10000000000000E+01
 d    1 1.00
 0.46900000000000E+00 0.10000000000000E+01
 d    1 1.00
 0.12829642058000E+00 0.10000000000000E+01
 f    1 1.00
 0.10930000000000E+01 0.10000000000000E+01
 
   12 0
 s    6 1.00
 0.27032382631000E+05 0.57227335211155E-03
 0.40523871392000E+04 0.44353233492995E-02
 0.92232722710000E+03 0.23020107706038E-01
 0.26124070989000E+03 0.92822490667928E-01
 0.85354641351000E+02 0.29378500009671E+00
 0.31035035245000E+02 0.67401604501641E+00
 s    2 1.00
 0.12260860728000E+02 0.63839937025506E+00
 0.49987076005000E+01 0.39534587125718E+00
 s    1 1.00
 0.11703108158000E+01 0.10000000000000E+01
 s    1 1.00
 0.46474740994000E+00 0.10000000000000E+01
 s    1 1.00
 0.18504536357000E+00 0.10000000000000E+01
 s    1 1.00
 0.70288026270000E-01 0.10000000000000E+01
 p    4 1.00
 0.63274954801000E+02 0.12018332222616E-01
 0.14627049379000E+02 0.83005421790056E-01
 0.44501223456000E+01 0.31991743925964E+00
 0.15275799647000E+01 0.70715542916104E+00
 p    1 1.00
 0.52935117943000E+00 0.10000000000000E+01
 p    1 1.00
 0.17478421270000E+00 0.10000000000000E+01
 p    1 1.00
 0.51112745706000E-01 0.10000000000000E+01
 d    1 1.00
 0.23140000000000E+01 0.10000000000000E+01
 d    1 1.00
 0.64500000000000E+00 0.10000000000000E+01
 d    1 1.00
 0.14696477366000E+00 0.10000000000000E+01
 f    1 1.00
 0.14280000000000E+01 0.10000000000000E+01
 
   13 0
 s    6 1.00
 0.27032382631000E+05 0.57227335211155E-03
 0.40523871392000E+04 0.44353233492995E-02
 0.92232722710000E+03 0.23020107706038E-01
 0.26124070989000E+03 0.92822490667928E-01
 0.85354641351000E+02 0.29378500009671E+00
 0.31035035245000E+02 0.67401604501641E+00
 s    2 1.00
 0.12260860728000E+02 0.63839937025506E+00
 0.49987076005000E+01 0.39534587125718E+00
 s    1 1.00
 0.11703108158000E+01 0.10000000000000E+01
 s    1 1.00
 0.46474740994000E+00 0.10000000000000E+01
 s    1 1.00
 0.18504536357000E+00 0.10000000000000E+01
 s    1 1.00
 0.70288026270000E-01 0.10000000000000E+01
 p    4 1.00
 0.63274954801000E+02 0.12018332222616E-01
 0.14627049379000E+02 0.83005421790056E-01
 0.44501223456000E+01 0.31991743925964E+00
 0.15275799647000E+01 0.70715542916104E+00
 p    1 1.00
 0.52935117943000E+00 0.10000000000000E+01
 p    1 1.00
 0.17478421270000E+00 0.10000000000000E+01
 p    1 1.00
 0.51112745706000E-01 0.10000000000000E+01
 d    1 1.00
 0.23140000000000E+01 0.10000000000000E+01
 d    1 1.00
 0.64500000000000E+00 0.10000000000000E+01
 d    1 1.00
 0.14696477366000E+00 0.10000000000000E+01
 f    1 1.00
 0.14280000000000E+01 0.10000000000000E+01
 
   14 0
 s    6 1.00
 0.19730800647000E+05 0.58626402628763E-03
 0.29578958745000E+04 0.45428820586397E-02
 0.67322133595000E+03 0.23558413450084E-01
 0.19068249494000E+03 0.94709193292923E-01
 0.62295441898000E+02 0.29719784913376E+00
 0.22654161182000E+02 0.66916246895232E+00
 s    2 1.00
 0.89791477428000E+01 0.64596683630063E+00
 0.36863002370000E+01 0.38700574393705E+00
 s    1 1.00
 0.84660076805000E+00 0.10000000000000E+01
 s    1 1.00
 0.33647133771000E+00 0.10000000000000E+01
 s    1 1.00
 0.13647653675000E+00 0.10000000000000E+01
 s    1 1.00
 0.68441605847000E-01 0.10000000000000E+01
 p    4 1.00
 0.49200380510000E+02 0.11448825101764E-01
 0.11346790537000E+02 0.78422337970864E-01
 0.34273972411000E+01 0.30818094738830E+00
 0.11785525134000E+01 0.72027196368413E+00
 p    1 1.00
 0.41642204972000E+00 0.10000000000000E+01
 p    1 1.00
 0.14260826011000E+00 0.10000000000000E+01
 d    1 1.00
 0.16540000000000E+01 0.10000000000000E+01
 d    1 1.00
 0.46900000000000E+00 0.10000000000000E+01
 d    1 1.00
 0.12829642058000E+00 0.10000000000000E+01
 f    1 1.00
 0.10930000000000E+01 0.10000000000000E+01
 
   15 0
 s    3 1.00
 0.34061341000000E+02 0.25439307208879E-01
 0.51235746000000E+01 0.19008594890375E+00
 0.11646626000000E+01 0.85244113011042E+00
 s    1 1.00
 0.32723041000000E+00 0.10000000000000E+01
 s    1 1.00
 0.10307241000000E+00 0.10000000000000E+01
 p    1 1.00
 0.80000000000000E+00 0.10000000000000E+01
 p    1 1.00
 0.95774129632000E-01 0.10000000000000E+01
 
   16 0
 s    3 1.00
 0.34061341000000E+02 0.25439307208879E-01
 0.51235746000000E+01 0.19008594890375E+00
 0.11646626000000E+01 0.85244113011042E+00
 s    1 1.00
 0.32723041000000E+00 0.10000000000000E+01
 s    1 1.00
 0.10307241000000E+00 0.10000000000000E+01
 p    1 1.00
 0.80000000000000E+00 0.10000000000000E+01
 p    1 1.00
 0.95774129632000E-01 0.10000000000000E+01
 
[MO]
 Sym= X
 Ene= -0.202722
 Spin= Alpha
 Occup= -0.202722
         1   -2.434874E-04
         2   -5.636168E-04
         3    1.501257E-03
         4   -2.965911E-03
         5   -4.134486E-03
         6   -1.340379E-02
         7   -2.425707E-03
         8   -3.093386E-04
         9    1.398916E-02
        10    2.548925E-03
        11   -5.854974E-04
        12    1.230125E-02
        13    4.018571E-02
        14   -1.220666E-02
        15    8.812715E-04
        16    1.995841E-05
        17   -3.003600E-05
        18    1.007759E-05
        19   -2.266357E-05
        20    6.056788E-03
        21   -3.375092E-03
        22   -7.543105E-04
        23    4.559714E-04
        24    2.983391E-04
        25   -8.715277E-04
        26    1.366108E-02
        27   -6.450748E-03
        28   -5.507691E-03
        29    5.167113E-03
        30    3.405779E-04
        31    1.518604E-03
        32   -2.659548E-03
        33    1.117847E-02
        34    2.144029E-05
        35   -9.149630E-06
        36   -1.226355E-05
        37   -8.446149E-06
        38    8.977496E-06
        39   -7.339815E-04
        40   -2.031902E-05
        41    3.298020E-06
        42    7.504348E-04
        43   -6.296904E-04
        44    4.709516E-05
        45    1.034558E-04
        46    1.406519E-04
        47   -3.668092E-03
        48   -5.777882E-02
        49    7.089452E-03
        50   -3.341531E-04
        51   -2.754125E-06
        52    1.794600E-01
        53    6.711840E-04
        54   -1.255311E-05
        55    1.866586E-01
        56    1.884678E-02
        57    6.992187E-04
        58    1.923609E-01
        59    6.010271E-05
        60   -5.757284E-05
        61   -2.529871E-06
        62    1.344993E-07
        63    8.298695E-04
        64    6.886464E-08
        65    4.836297E-04
        66   -7.874247E-04
        67    3.037950E-04
        68    2.756562E-06
        69    3.427453E-03
        70    1.796710E-07
        71    1.172142E-02
        72   -1.306812E-02
        73    1.346701E-03
        74   -1.045446E-04
        75   -4.093443E-03
        76    3.175100E-06
        77   -8.371717E-06
        78   -2.005682E-08
        79   -9.592590E-04
        80    9.152207E-06
        81   -3.514041E-08
        82    5.742309E-04
        83    2.079630E-06
        84    6.204947E-08
        85    7.127501E-04
        86    3.395831E-08
        87   -2.424634E-04
        88   -5.613155E-04
        89    1.497585E-03
        90   -2.978915E-03
        91   -1.937630E-03
        92   -1.338806E-02
        93   -2.427076E-03
        94    3.148643E-04
        95    1.399198E-02
        96    2.515193E-03
        97    5.872250E-04
        98    1.230338E-02
        99    4.022938E-02
       100    1.291843E-02
       101    9.042476E-04
       102    1.993067E-05
       103   -3.011604E-05
       104    1.018537E-05
       105    2.297111E-05
       106    6.056854E-03
       107    3.375137E-03
       108   -7.469124E-04
       109    4.492852E-04
       110    2.976272E-04
       111    8.702744E-04
       112    1.366011E-02
       113    6.450098E-03
       114   -5.579921E-03
       115    5.256716E-03
       116    3.232053E-04
       117   -1.438390E-03
       118   -2.664486E-03
       119   -1.118055E-02
       120    2.144262E-05
       121    9.127938E-06
       122   -1.220369E-05
       123   -8.589339E-06
       124   -8.905267E-06
       125   -7.340617E-04
       126   -2.017895E-05
       127   -3.341147E-06
       128    7.504346E-04
       129    6.296230E-04
       130    1.463735E-04
       131    3.166417E-04
       132    6.836738E-04
       133   -1.251818E-02
       134    2.694378E-02
       135    1.517287E-02
       136    2.037302E-03
       137   -9.731024E-04
       138   -1.527758E-01
       139    1.122930E-02
       140   -7.533627E-03
       141   -1.556165E-01
       142    2.561458E-02
       143    8.770935E-03
       144   -9.235300E-02
       145    1.975327E-04
       146   -2.346736E-04
       147    3.714090E-05
       148   -4.786179E-07
       149    5.124256E-04
       150   -2.831588E-03
       151    7.511287E-04
       152   -9.188388E-04
       153    1.677101E-04
       154    2.028650E-03
       155    3.553386E-03
       156   -4.675845E-03
       157    9.640310E-03
       158   -7.578825E-03
       159   -2.061485E-03
       160   -1.082363E-02
       161   -4.003792E-03
       162    1.376855E-02
       163    1.837039E-05
       164   -1.365748E-05
       165    8.591266E-04
       166    2.394379E-05
       167   -1.819743E-05
       168   -2.401999E-04
       169   -4.859026E-05
       170    3.652087E-05
       171   -9.124393E-04
       172    2.952158E-04
       173   -1.374085E-03
       174   -3.126102E-03
       175    3.239198E-03
       176    2.580004E-02
       177   -2.606670E-02
       178    1.006357E-02
       179   -1.159054E-02
       180    1.565973E-06
       181   -1.008584E-01
       182   -1.070989E-03
       183    8.636102E-06
       184   -1.041404E-01
       185    3.514532E-02
       186   -8.930885E-04
       187   -1.358747E-01
       188    6.128897E-04
       189   -3.521398E-04
       190   -2.607499E-04
       191    3.464148E-07
       192   -1.047633E-02
       193   -1.602084E-07
       194   -2.178362E-03
       195    4.843116E-03
       196   -2.664754E-03
       197    1.509737E-06
       198   -2.551596E-02
       199    1.097920E-06
       200   -7.398022E-03
       201    8.793581E-03
       202   -1.395560E-03
       203   -1.277203E-04
       204   -1.867659E-02
       205    6.704569E-06
       206   -1.444940E-04
       207   -1.722137E-08
       208    1.994752E-04
       209    1.004477E-04
       210    4.592038E-08
       211    1.203900E-03
       212    9.341138E-05
       213   -2.281549E-08
       214   -1.471524E-03
       215    3.278265E-08
       216    1.463777E-04
       217    3.165056E-04
       218    6.843313E-04
       219   -1.253744E-02
       220    2.933697E-02
       221    1.517411E-02
       222    2.038908E-03
       223    9.683466E-04
       224   -1.527758E-01
       225    1.124904E-02
       226    7.537571E-03
       227   -1.556188E-01
       228    2.550457E-02
       229   -9.717633E-03
       230   -9.233299E-02
       231    1.974701E-04
       232   -2.351668E-04
       233    3.769673E-05
       234    8.764792E-07
       235    5.125437E-04
       236    2.831639E-03
       237    7.569625E-04
       238   -9.231821E-04
       239    1.662196E-04
       240   -2.030374E-03
       241    3.551495E-03
       242    4.675945E-03
       243    9.600094E-03
       244   -7.532168E-03
       245   -2.067925E-03
       246    1.091790E-02
       247   -3.999090E-03
       248   -1.377201E-02
       249    1.853574E-05
       250    1.372008E-05
       251    8.592328E-04
       252    2.395294E-05
       253    1.813090E-05
       254   -2.403199E-04
       255   -4.882125E-05
       256   -3.653832E-05
       257   -9.124619E-04
       258   -2.951957E-04
       259   -5.655493E-04
       260   -4.611748E-04
       261   -2.080119E-02
       262    1.679084E-05
       263    1.914605E-05
       264    5.796864E-04
       265    6.199898E-03
       266    5.159464E-04
       267   -6.802088E-03
       268   -5.702193E-04
       269   -4.567781E-04
       270   -2.072883E-02
       271    1.629848E-05
       272   -1.835111E-05
       273    5.796880E-04
       274    6.268928E-03
       275   -4.836698E-04
       276   -6.803098E-03
       277   -5.835092E-04
       278   -2.944799E-03
       279    4.100406E-02
       280    1.900560E-05
       281   -1.327974E-04
       282   -6.157104E-03
       283    2.270533E-03
       284    3.223001E-03
       285    2.810002E-03
       286   -5.879333E-04
       287   -2.948453E-03
       288    4.134216E-02
       289    1.854400E-05
       290    1.327696E-04
       291   -6.157521E-03
       292    2.280151E-03
       293   -3.266959E-03
       294    2.811971E-03
       295   -6.459119E-05
       296   -1.504601E-04
       297    1.484388E-04
       298    5.478681E-04
       299   -8.670125E-03
       300    3.176503E-04
       301   -6.215184E-04
       302    2.388465E-07
       303    1.554237E-02
       304   -2.438783E-04
       305    4.457687E-08
       306    1.809006E-02
       307    3.732621E-03
       308   -4.011210E-05
       309    6.028864E-03
       310    1.833498E-05
       311   -5.651335E-06
       312   -1.268364E-05
       313   -1.028550E-07
       314   -4.001308E-03
       315    2.236957E-06
       316   -1.378124E-05
       317    7.799263E-05
       318   -6.421140E-05
       319   -7.767602E-07
       320   -1.201100E-02
       321    6.602646E-06
       322   -1.045796E-03
       323    3.308951E-03
       324   -2.263156E-03
       325    2.426768E-05
       326   -2.373925E-03
       327   -2.030399E-06
       328   -7.617183E-06
       329    5.522837E-09
       330    2.534674E-05
       331    5.480460E-06
       332   -5.512850E-08
       333    6.226110E-04
       334    4.739064E-06
       335    4.771884E-08
       336   -6.566173E-04
       337    3.929693E-07
       338   -2.157426E-05
       339   -4.837317E-05
       340    1.857377E-05
       341    6.482990E-04
       342   -7.017987E-03
       343   -1.148124E-03
       344    1.598828E-04
       345   -1.953830E-04
       346   -7.282916E-02
       347    2.789068E-04
       348   -3.412088E-04
       349   -6.751845E-02
       350    1.574016E-03
       351   -6.755463E-04
       352   -5.448019E-02
       353    2.236299E-04
       354   -2.395139E-04
       355   -6.689812E-03
       356    4.948354E-06
       357   -6.341833E-06
       358    1.393479E-06
       359   -2.978573E-07
       360    8.356912E-06
       361   -4.607941E-04
       362   -1.196344E-05
       363   -1.578688E-05
       364    2.775032E-05
       365    1.020548E-05
       366    5.263413E-04
       367   -1.513751E-03
       368   -8.434494E-05
       369    4.574881E-05
       370    3.859613E-05
       371    7.287168E-05
       372    1.426581E-04
       373   -2.971406E-04
       374   -8.080852E-07
       375   -2.445372E-06
       376    6.455035E-05
       377    1.555620E-06
       378    1.102390E-06
       379    7.718707E-05
       380   -4.714599E-07
       381    2.178420E-06
       382   -1.637905E-04
       383    1.304913E-04
       384   -2.126605E-05
       385   -4.766290E-05
       386    1.806604E-05
       387    6.428671E-04
       388   -7.005375E-03
       389   -1.120412E-03
       390    1.493055E-04
       391    1.971044E-04
       392   -7.270648E-02
       393    2.689509E-04
       394    3.425576E-04
       395   -6.740622E-02
       396    1.540382E-03
       397    6.686097E-04
       398   -5.439336E-02
       399    2.094126E-04
       400    2.429876E-04
       401   -6.680000E-03
       402    4.985027E-06
       403   -6.353876E-06
       404    1.368849E-06
       405    2.774088E-07
       406    7.721458E-06
       407    4.597814E-04
       408   -1.160808E-05
       409   -1.579213E-05
       410    2.740020E-05
       411   -9.717626E-06
       412    5.241548E-04
       413    1.510381E-03
       414   -8.446266E-05
       415    4.748503E-05
       416    3.697762E-05
       417   -7.155122E-05
       418    1.412250E-04
       419    2.936405E-04
       420   -8.074167E-07
       421    2.443394E-06
       422    6.436790E-05
       423    1.536883E-06
       424   -1.123896E-06
       425    7.715539E-05
       426   -4.536202E-07
       427   -2.154261E-06
       428   -1.635140E-04
       429   -1.301616E-04
       430    5.965980E-03
       431    1.414658E-02
       432   -2.194303E-02
       433   -3.442308E-02
       434   -2.327706E-02
       435   -7.777583E-02
       436    2.149889E-02
       437   -1.179822E-05
       438    2.795199E-01
       439    2.437650E-02
       440   -4.417057E-06
       441    2.755145E-01
       442    2.403287E-02
       443    1.103425E-04
       444    2.224004E-01
       445   -1.239358E-04
       446   -4.392126E-05
       447    1.678571E-04
       448    2.768101E-07
       449   -5.764104E-04
       450   -2.838897E-07
       451   -2.601588E-04
       452   -1.932607E-03
       453    2.192766E-03
       454   -3.778360E-06
       455   -3.156439E-03
       456   -1.360199E-06
       457   -1.914710E-03
       458   -4.108918E-03
       459    6.023627E-03
       460   -1.913528E-07
       461   -2.172557E-03
       462   -7.696846E-06
       463    1.626715E-04
       464   -4.119440E-08
       465   -1.134840E-03
       466    1.101529E-04
       467   -1.767129E-08
       468    6.507116E-04
       469   -3.283995E-04
       470    7.293938E-08
       471    8.718361E-04
       472   -7.221638E-09
       473    1.085400E-02
       474    2.104891E-02
       475    3.619744E-02
       476    2.729422E-03
       477    2.245292E-03
       478    1.398910E-02
       479   -9.932163E-04
       480    4.153621E-03
       481    1.528671E-02
       482    1.084690E-02
       483    2.097761E-02
       484    3.601190E-02
       485    2.725319E-03
       486   -2.238856E-03
       487    1.399226E-02
       488   -1.012864E-03
       489   -4.119778E-03
       490    1.529842E-02
 Sym= X
 Ene= -0.663024
 Spin= Alpha
 Occup= -0.663024
         1   -2.654195E-05
         2   -6.056912E-05
         3    1.543086E-04
         4   -2.415579E-04
         5   -9.890339E-03
         6   -4.946686E-04
         7    9.019855E-05
         8    1.851664E-04
         9   -1.599596E-01
        10    6.249807E-04
        11    3.511587E-05
        12   -1.604521E-01
        13   -4.020653E-03
        14    6.369686E-03
        15   -8.922909E-02
        16   -7.039932E-06
        17    2.248521E-06
        18    4.791412E-06
        19    1.969320E-06
        20    4.324822E-03
        21    4.452845E-04
        22   -1.198828E-04
        23    7.512091E-05
        24    4.476187E-05
        25    1.587180E-05
        26    8.862423E-03
        27   -5.089289E-04
        28    9.833528E-04
        29   -1.135435E-03
        30    1.520824E-04
        31    5.163793E-04
        32    4.098523E-03
        33   -1.286289E-03
        34    4.331446E-06
        35    6.956894E-07
        36    9.603863E-04
        37   -1.080630E-06
        38    1.519245E-07
        39   -1.169910E-03
        40   -4.730615E-06
        41   -1.085290E-06
        42   -1.185838E-04
        43   -2.808363E-05
        44    4.092100E-07
        45    1.028498E-06
        46   -7.796332E-06
        47    2.214750E-05
        48    2.494130E-03
        49    1.635788E-04
        50   -2.418494E-06
        51   -1.327792E-04
        52   -1.978044E-05
        53   -1.979751E-05
        54   -2.913334E-04
        55   -1.592079E-05
        56   -1.129485E-03
        57    9.855384E-03
        58   -5.535211E-06
        59   -2.451868E-07
        60    3.849072E-07
        61   -1.397204E-07
        62    9.318005E-06