[Molden Format]
[Title]
ADC(2) - opt by CAM-B3LYP gaussian                                              
[Atoms] AU
 c     1    6 0.12589710753986E+01 0.22825551554713E+01 -.28105798744860E-01
 c     2    6 0.25558923691721E+01 0.80431469000000E-06 -.26811997747980E-01
 c     3    6 0.12589700738438E+01 -.22825573262942E+01 -.28139341383720E-01
 c     4    6 -.13331755585332E+01 -.22837561874501E+01 -.30470167390540E-01
 c     5    6 -.26866009864883E+01 0.27696298600000E-05 -.30311128039200E-01
 c     6    6 -.13331783742251E+01 0.22837572858534E+01 -.30432977580250E-01
 h     7    1 0.22993222678978E+01 0.40366379181686E+01 -.25216785432900E-01
 h     8    1 0.22993197734593E+01 -.40366408826765E+01 -.25273722881290E-01
 h     9    1 -.23520966897676E+01 -.40562070503646E+01 -.33235309154490E-01
 h    10    1 -.23520900190344E+01 0.40562136478709E+01 -.33159965773570E-01
 n    11    7 0.52762255328692E+01 0.25629411000000E-06 -.20783601308720E-01
 o    12    8 0.63803680214636E+01 -.20270720034092E+01 -.18188232540560E-01
 o    13    8 0.63803692875801E+01 0.20270718545932E+01 -.18282964511600E-01
 n    14    7 -.52484248103301E+01 -.66967170000000E-06 -.81289589624650E-01
 h    15    1 -.62019351690707E+01 -.16149791988436E+01 0.21484054874156E+00
 h    16    1 -.62019367942352E+01 0.16149736265137E+01 0.21486103337284E+00
[GTO]
    1 0
 s    6 1.00
 0.13575349682000E+05 0.60645503603591E-03
 0.20352333680000E+04 0.46979088884982E-02
 0.46322562359000E+03 0.24332477647552E-01
 0.13120019598000E+03 0.97399968307759E-01
 0.42853015891000E+02 0.30195584253780E+00
 0.15584185766000E+02 0.66233609137875E+00
 s    2 1.00
 0.62067138508000E+01 0.65595308539952E+00
 0.25764896527000E+01 0.37585633285142E+00
 s    1 1.00
 0.57696339419000E+00 0.10000000000000E+01
 s    1 1.00
 0.22972831358000E+00 0.10000000000000E+01
 s    1 1.00
 0.95164440028000E-01 0.10000000000000E+01
 s    1 1.00
 0.48475401370000E-01 0.10000000000000E+01
 p    4 1.00
 0.34697232244000E+02 0.11327220003114E-01
 0.79582622826000E+01 0.76169659202087E-01
 0.23780826883000E+01 0.30192252202676E+00
 0.81433208183000E+00 0.72785027349547E+00
 p    1 1.00
 0.28887547253000E+00 0.10000000000000E+01
 p    1 1.00
 0.10056823671000E+00 0.10000000000000E+01
 d    1 1.00
 0.10970000000000E+01 0.10000000000000E+01
 d    1 1.00
 0.31800000000000E+00 0.10000000000000E+01
 d    1 1.00
 0.90985336424000E-01 0.10000000000000E+01
 f    1 1.00
 0.76100000000000E+00 0.10000000000000E+01
 
    2 0
 s    6 1.00
 0.13575349682000E+05 0.60645503603591E-03
 0.20352333680000E+04 0.46979088884982E-02
 0.46322562359000E+03 0.24332477647552E-01
 0.13120019598000E+03 0.97399968307759E-01
 0.42853015891000E+02 0.30195584253780E+00
 0.15584185766000E+02 0.66233609137875E+00
 s    2 1.00
 0.62067138508000E+01 0.65595308539952E+00
 0.25764896527000E+01 0.37585633285142E+00
 s    1 1.00
 0.57696339419000E+00 0.10000000000000E+01
 s    1 1.00
 0.22972831358000E+00 0.10000000000000E+01
 s    1 1.00
 0.95164440028000E-01 0.10000000000000E+01
 s    1 1.00
 0.48475401370000E-01 0.10000000000000E+01
 p    4 1.00
 0.34697232244000E+02 0.11327220003114E-01
 0.79582622826000E+01 0.76169659202087E-01
 0.23780826883000E+01 0.30192252202676E+00
 0.81433208183000E+00 0.72785027349547E+00
 p    1 1.00
 0.28887547253000E+00 0.10000000000000E+01
 p    1 1.00
 0.10056823671000E+00 0.10000000000000E+01
 d    1 1.00
 0.10970000000000E+01 0.10000000000000E+01
 d    1 1.00
 0.31800000000000E+00 0.10000000000000E+01
 d    1 1.00
 0.90985336424000E-01 0.10000000000000E+01
 f    1 1.00
 0.76100000000000E+00 0.10000000000000E+01
 
    3 0
 s    6 1.00
 0.13575349682000E+05 0.60645503603591E-03
 0.20352333680000E+04 0.46979088884982E-02
 0.46322562359000E+03 0.24332477647552E-01
 0.13120019598000E+03 0.97399968307759E-01
 0.42853015891000E+02 0.30195584253780E+00
 0.15584185766000E+02 0.66233609137875E+00
 s    2 1.00
 0.62067138508000E+01 0.65595308539952E+00
 0.25764896527000E+01 0.37585633285142E+00
 s    1 1.00
 0.57696339419000E+00 0.10000000000000E+01
 s    1 1.00
 0.22972831358000E+00 0.10000000000000E+01
 s    1 1.00
 0.95164440028000E-01 0.10000000000000E+01
 s    1 1.00
 0.48475401370000E-01 0.10000000000000E+01
 p    4 1.00
 0.34697232244000E+02 0.11327220003114E-01
 0.79582622826000E+01 0.76169659202087E-01
 0.23780826883000E+01 0.30192252202676E+00
 0.81433208183000E+00 0.72785027349547E+00
 p    1 1.00
 0.28887547253000E+00 0.10000000000000E+01
 p    1 1.00
 0.10056823671000E+00 0.10000000000000E+01
 d    1 1.00
 0.10970000000000E+01 0.10000000000000E+01
 d    1 1.00
 0.31800000000000E+00 0.10000000000000E+01
 d    1 1.00
 0.90985336424000E-01 0.10000000000000E+01
 f    1 1.00
 0.76100000000000E+00 0.10000000000000E+01
 
    4 0
 s    6 1.00
 0.13575349682000E+05 0.60645503603591E-03
 0.20352333680000E+04 0.46979088884982E-02
 0.46322562359000E+03 0.24332477647552E-01
 0.13120019598000E+03 0.97399968307759E-01
 0.42853015891000E+02 0.30195584253780E+00
 0.15584185766000E+02 0.66233609137875E+00
 s    2 1.00
 0.62067138508000E+01 0.65595308539952E+00
 0.25764896527000E+01 0.37585633285142E+00
 s    1 1.00
 0.57696339419000E+00 0.10000000000000E+01
 s    1 1.00
 0.22972831358000E+00 0.10000000000000E+01
 s    1 1.00
 0.95164440028000E-01 0.10000000000000E+01
 s    1 1.00
 0.48475401370000E-01 0.10000000000000E+01
 p    4 1.00
 0.34697232244000E+02 0.11327220003114E-01
 0.79582622826000E+01 0.76169659202087E-01
 0.23780826883000E+01 0.30192252202676E+00
 0.81433208183000E+00 0.72785027349547E+00
 p    1 1.00
 0.28887547253000E+00 0.10000000000000E+01
 p    1 1.00
 0.10056823671000E+00 0.10000000000000E+01
 d    1 1.00
 0.10970000000000E+01 0.10000000000000E+01
 d    1 1.00
 0.31800000000000E+00 0.10000000000000E+01
 d    1 1.00
 0.90985336424000E-01 0.10000000000000E+01
 f    1 1.00
 0.76100000000000E+00 0.10000000000000E+01
 
    5 0
 s    6 1.00
 0.13575349682000E+05 0.60645503603591E-03
 0.20352333680000E+04 0.46979088884982E-02
 0.46322562359000E+03 0.24332477647552E-01
 0.13120019598000E+03 0.97399968307759E-01
 0.42853015891000E+02 0.30195584253780E+00
 0.15584185766000E+02 0.66233609137875E+00
 s    2 1.00
 0.62067138508000E+01 0.65595308539952E+00
 0.25764896527000E+01 0.37585633285142E+00
 s    1 1.00
 0.57696339419000E+00 0.10000000000000E+01
 s    1 1.00
 0.22972831358000E+00 0.10000000000000E+01
 s    1 1.00
 0.95164440028000E-01 0.10000000000000E+01
 s    1 1.00
 0.48475401370000E-01 0.10000000000000E+01
 p    4 1.00
 0.34697232244000E+02 0.11327220003114E-01
 0.79582622826000E+01 0.76169659202087E-01
 0.23780826883000E+01 0.30192252202676E+00
 0.81433208183000E+00 0.72785027349547E+00
 p    1 1.00
 0.28887547253000E+00 0.10000000000000E+01
 p    1 1.00
 0.10056823671000E+00 0.10000000000000E+01
 d    1 1.00
 0.10970000000000E+01 0.10000000000000E+01
 d    1 1.00
 0.31800000000000E+00 0.10000000000000E+01
 d    1 1.00
 0.90985336424000E-01 0.10000000000000E+01
 f    1 1.00
 0.76100000000000E+00 0.10000000000000E+01
 
    6 0
 s    6 1.00
 0.13575349682000E+05 0.60645503603591E-03
 0.20352333680000E+04 0.46979088884982E-02
 0.46322562359000E+03 0.24332477647552E-01
 0.13120019598000E+03 0.97399968307759E-01
 0.42853015891000E+02 0.30195584253780E+00
 0.15584185766000E+02 0.66233609137875E+00
 s    2 1.00
 0.62067138508000E+01 0.65595308539952E+00
 0.25764896527000E+01 0.37585633285142E+00
 s    1 1.00
 0.57696339419000E+00 0.10000000000000E+01
 s    1 1.00
 0.22972831358000E+00 0.10000000000000E+01
 s    1 1.00
 0.95164440028000E-01 0.10000000000000E+01
 s    1 1.00
 0.48475401370000E-01 0.10000000000000E+01
 p    4 1.00
 0.34697232244000E+02 0.11327220003114E-01
 0.79582622826000E+01 0.76169659202087E-01
 0.23780826883000E+01 0.30192252202676E+00
 0.81433208183000E+00 0.72785027349547E+00
 p    1 1.00
 0.28887547253000E+00 0.10000000000000E+01
 p    1 1.00
 0.10056823671000E+00 0.10000000000000E+01
 d    1 1.00
 0.10970000000000E+01 0.10000000000000E+01
 d    1 1.00
 0.31800000000000E+00 0.10000000000000E+01
 d    1 1.00
 0.90985336424000E-01 0.10000000000000E+01
 f    1 1.00
 0.76100000000000E+00 0.10000000000000E+01
 
    7 0
 s    3 1.00
 0.34061341000000E+02 0.25439307208879E-01
 0.51235746000000E+01 0.19008594890375E+00
 0.11646626000000E+01 0.85244113011042E+00
 s    1 1.00
 0.32723041000000E+00 0.10000000000000E+01
 s    1 1.00
 0.10307241000000E+00 0.10000000000000E+01
 p    1 1.00
 0.80000000000000E+00 0.10000000000000E+01
 p    1 1.00
 0.95774129632000E-01 0.10000000000000E+01
 
    8 0
 s    3 1.00
 0.34061341000000E+02 0.25439307208879E-01
 0.51235746000000E+01 0.19008594890375E+00
 0.11646626000000E+01 0.85244113011042E+00
 s    1 1.00
 0.32723041000000E+00 0.10000000000000E+01
 s    1 1.00
 0.10307241000000E+00 0.10000000000000E+01
 p    1 1.00
 0.80000000000000E+00 0.10000000000000E+01
 p    1 1.00
 0.95774129632000E-01 0.10000000000000E+01
 
    9 0
 s    3 1.00
 0.34061341000000E+02 0.25439307208879E-01
 0.51235746000000E+01 0.19008594890375E+00
 0.11646626000000E+01 0.85244113011042E+00
 s    1 1.00
 0.32723041000000E+00 0.10000000000000E+01
 s    1 1.00
 0.10307241000000E+00 0.10000000000000E+01
 p    1 1.00
 0.80000000000000E+00 0.10000000000000E+01
 p    1 1.00
 0.95774129632000E-01 0.10000000000000E+01
 
   10 0
 s    3 1.00
 0.34061341000000E+02 0.25439307208879E-01
 0.51235746000000E+01 0.19008594890375E+00
 0.11646626000000E+01 0.85244113011042E+00
 s    1 1.00
 0.32723041000000E+00 0.10000000000000E+01
 s    1 1.00
 0.10307241000000E+00 0.10000000000000E+01
 p    1 1.00
 0.80000000000000E+00 0.10000000000000E+01
 p    1 1.00
 0.95774129632000E-01 0.10000000000000E+01
 
   11 0
 s    6 1.00
 0.19730800647000E+05 0.58626402628763E-03
 0.29578958745000E+04 0.45428820586397E-02
 0.67322133595000E+03 0.23558413450084E-01
 0.19068249494000E+03 0.94709193292923E-01
 0.62295441898000E+02 0.29719784913376E+00
 0.22654161182000E+02 0.66916246895232E+00
 s    2 1.00
 0.89791477428000E+01 0.64596683630063E+00
 0.36863002370000E+01 0.38700574393705E+00
 s    1 1.00
 0.84660076805000E+00 0.10000000000000E+01
 s    1 1.00
 0.33647133771000E+00 0.10000000000000E+01
 s    1 1.00
 0.13647653675000E+00 0.10000000000000E+01
 s    1 1.00
 0.68441605847000E-01 0.10000000000000E+01
 p    4 1.00
 0.49200380510000E+02 0.11448825101764E-01
 0.11346790537000E+02 0.78422337970864E-01
 0.34273972411000E+01 0.30818094738830E+00
 0.11785525134000E+01 0.72027196368413E+00
 p    1 1.00
 0.41642204972000E+00 0.10000000000000E+01
 p    1 1.00
 0.14260826011000E+00 0.10000000000000E+01
 d    1 1.00
 0.16540000000000E+01 0.10000000000000E+01
 d    1 1.00
 0.46900000000000E+00 0.10000000000000E+01
 d    1 1.00
 0.12829642058000E+00 0.10000000000000E+01
 f    1 1.00
 0.10930000000000E+01 0.10000000000000E+01
 
   12 0
 s    6 1.00
 0.27032382631000E+05 0.57227335211155E-03
 0.40523871392000E+04 0.44353233492995E-02
 0.92232722710000E+03 0.23020107706038E-01
 0.26124070989000E+03 0.92822490667928E-01
 0.85354641351000E+02 0.29378500009671E+00
 0.31035035245000E+02 0.67401604501641E+00
 s    2 1.00
 0.12260860728000E+02 0.63839937025506E+00
 0.49987076005000E+01 0.39534587125718E+00
 s    1 1.00
 0.11703108158000E+01 0.10000000000000E+01
 s    1 1.00
 0.46474740994000E+00 0.10000000000000E+01
 s    1 1.00
 0.18504536357000E+00 0.10000000000000E+01
 s    1 1.00
 0.70288026270000E-01 0.10000000000000E+01
 p    4 1.00
 0.63274954801000E+02 0.12018332222616E-01
 0.14627049379000E+02 0.83005421790056E-01
 0.44501223456000E+01 0.31991743925964E+00
 0.15275799647000E+01 0.70715542916104E+00
 p    1 1.00
 0.52935117943000E+00 0.10000000000000E+01
 p    1 1.00
 0.17478421270000E+00 0.10000000000000E+01
 p    1 1.00
 0.51112745706000E-01 0.10000000000000E+01
 d    1 1.00
 0.23140000000000E+01 0.10000000000000E+01
 d    1 1.00
 0.64500000000000E+00 0.10000000000000E+01
 d    1 1.00
 0.14696477366000E+00 0.10000000000000E+01
 f    1 1.00
 0.14280000000000E+01 0.10000000000000E+01
 
   13 0
 s    6 1.00
 0.27032382631000E+05 0.57227335211155E-03
 0.40523871392000E+04 0.44353233492995E-02
 0.92232722710000E+03 0.23020107706038E-01
 0.26124070989000E+03 0.92822490667928E-01
 0.85354641351000E+02 0.29378500009671E+00
 0.31035035245000E+02 0.67401604501641E+00
 s    2 1.00
 0.12260860728000E+02 0.63839937025506E+00
 0.49987076005000E+01 0.39534587125718E+00
 s    1 1.00
 0.11703108158000E+01 0.10000000000000E+01
 s    1 1.00
 0.46474740994000E+00 0.10000000000000E+01
 s    1 1.00
 0.18504536357000E+00 0.10000000000000E+01
 s    1 1.00
 0.70288026270000E-01 0.10000000000000E+01
 p    4 1.00
 0.63274954801000E+02 0.12018332222616E-01
 0.14627049379000E+02 0.83005421790056E-01
 0.44501223456000E+01 0.31991743925964E+00
 0.15275799647000E+01 0.70715542916104E+00
 p    1 1.00
 0.52935117943000E+00 0.10000000000000E+01
 p    1 1.00
 0.17478421270000E+00 0.10000000000000E+01
 p    1 1.00
 0.51112745706000E-01 0.10000000000000E+01
 d    1 1.00
 0.23140000000000E+01 0.10000000000000E+01
 d    1 1.00
 0.64500000000000E+00 0.10000000000000E+01
 d    1 1.00
 0.14696477366000E+00 0.10000000000000E+01
 f    1 1.00
 0.14280000000000E+01 0.10000000000000E+01
 
   14 0
 s    6 1.00
 0.19730800647000E+05 0.58626402628763E-03
 0.29578958745000E+04 0.45428820586397E-02
 0.67322133595000E+03 0.23558413450084E-01
 0.19068249494000E+03 0.94709193292923E-01
 0.62295441898000E+02 0.29719784913376E+00
 0.22654161182000E+02 0.66916246895232E+00
 s    2 1.00
 0.89791477428000E+01 0.64596683630063E+00
 0.36863002370000E+01 0.38700574393705E+00
 s    1 1.00
 0.84660076805000E+00 0.10000000000000E+01
 s    1 1.00
 0.33647133771000E+00 0.10000000000000E+01
 s    1 1.00
 0.13647653675000E+00 0.10000000000000E+01
 s    1 1.00
 0.68441605847000E-01 0.10000000000000E+01
 p    4 1.00
 0.49200380510000E+02 0.11448825101764E-01
 0.11346790537000E+02 0.78422337970864E-01
 0.34273972411000E+01 0.30818094738830E+00
 0.11785525134000E+01 0.72027196368413E+00
 p    1 1.00
 0.41642204972000E+00 0.10000000000000E+01
 p    1 1.00
 0.14260826011000E+00 0.10000000000000E+01
 d    1 1.00
 0.16540000000000E+01 0.10000000000000E+01
 d    1 1.00
 0.46900000000000E+00 0.10000000000000E+01
 d    1 1.00
 0.12829642058000E+00 0.10000000000000E+01
 f    1 1.00
 0.10930000000000E+01 0.10000000000000E+01
 
   15 0
 s    3 1.00
 0.34061341000000E+02 0.25439307208879E-01
 0.51235746000000E+01 0.19008594890375E+00
 0.11646626000000E+01 0.85244113011042E+00
 s    1 1.00
 0.32723041000000E+00 0.10000000000000E+01
 s    1 1.00
 0.10307241000000E+00 0.10000000000000E+01
 p    1 1.00
 0.80000000000000E+00 0.10000000000000E+01
 p    1 1.00
 0.95774129632000E-01 0.10000000000000E+01
 
   16 0
 s    3 1.00
 0.34061341000000E+02 0.25439307208879E-01
 0.51235746000000E+01 0.19008594890375E+00
 0.11646626000000E+01 0.85244113011042E+00
 s    1 1.00
 0.32723041000000E+00 0.10000000000000E+01
 s    1 1.00
 0.10307241000000E+00 0.10000000000000E+01
 p    1 1.00
 0.80000000000000E+00 0.10000000000000E+01
 p    1 1.00
 0.95774129632000E-01 0.10000000000000E+01
 
[MO]
 Sym= X
 Ene= -0.890852
 Spin= Alpha
 Occup= -0.890852
         1    1.975573E-04
         2    4.603783E-04
         3   -1.311312E-03
         4    2.952901E-03
         5    4.567098E-03
         6    1.263182E-02
         7    1.844348E-03
         8    3.148966E-04
         9   -2.691550E-02
        10   -2.752714E-03
        11    5.603468E-04
        12   -2.499855E-02
        13   -3.896815E-02
        14    1.230371E-02
        15   -5.580015E-03
        16   -1.430390E-06
        17    1.391237E-05
        18   -1.248198E-05
        19    1.976416E-05
        20   -6.128117E-03
        21    3.799935E-03
        22    7.377672E-04
        23   -4.483721E-04
        24   -2.893952E-04
        25    8.194430E-04
        26   -1.387573E-02
        27    7.165674E-03
        28    5.394879E-03
        29   -5.063398E-03
        30   -3.314811E-04
        31   -1.398479E-03
        32    2.146282E-03
        33   -1.095797E-02
        34   -2.185021E-05
        35    8.728175E-06
        36    1.215265E-04
        37    8.670552E-06
        38   -8.692723E-06
        39    6.774083E-04
        40    2.064458E-05
        41   -3.017352E-06
        42   -8.404532E-04
        43    6.784999E-04
        44   -2.392726E-05
        45   -5.130902E-05
        46   -1.948015E-04
        47    3.291927E-03
        48    5.742820E-02
        49   -6.327038E-03
        50    5.703225E-04
        51    3.885211E-06
        52   -1.999084E-01
        53   -4.241699E-04
        54    1.595251E-05
        55   -2.072535E-01
        56   -1.841712E-02
        57   -6.429722E-04
        58   -2.001829E-01
        59   -3.786959E-05
        60    3.504221E-05
        61    2.827385E-06
        62   -1.739686E-07
        63   -6.061405E-04
        64    3.728226E-07
        65   -4.310048E-04
        66    7.165491E-04
        67   -2.855444E-04
        68   -3.240859E-06
        69   -3.107873E-03
        70    5.902707E-07
        71   -1.097800E-02
        72    1.230283E-02
        73   -1.324826E-03
        74    1.001053E-04
        75    4.823358E-03
        76   -4.909743E-06
        77    9.380547E-06
        78    5.396068E-08
        79    1.123884E-03
        80   -8.713953E-06
        81    1.766031E-08
        82   -6.654538E-04
        83   -3.871372E-06
        84   -9.005615E-08
        85   -8.423943E-04
        86   -5.260364E-08
        87    1.983964E-04
        88    4.622389E-04
        89   -1.314690E-03
        90    2.961962E-03
        91    2.581378E-03
        92    1.261291E-02
        93    1.843868E-03
        94   -3.168219E-04
        95   -2.693474E-02
        96   -2.721653E-03
        97   -5.564917E-04
        98   -2.501719E-02
        99   -3.903599E-02
       100   -1.293903E-02
       101   -5.611830E-03
       102   -1.450569E-06
       103    1.388966E-05
       104   -1.243909E-05
       105   -1.997886E-05
       106   -6.127835E-03
       107   -3.800059E-03
       108    7.309727E-04
       109   -4.419567E-04
       110   -2.890159E-04
       111   -8.173900E-04
       112   -1.387448E-02
       113   -7.164940E-03
       114    5.470124E-03
       115   -5.153996E-03
       116   -3.161281E-04
       117    1.318572E-03
       118    2.148451E-03
       119    1.096177E-02
       120   -2.184772E-05
       121   -8.698099E-06
       122    1.215972E-04
       123    8.793704E-06
       124    8.644386E-06
       125    6.773351E-04
       126    2.051808E-05
       127    3.025338E-06
       128   -8.404748E-04
       129   -6.784434E-04
       130   -1.403697E-04
       131   -3.040075E-04
       132   -6.427204E-04
       133    1.186402E-02
       134   -2.744619E-02
       135   -1.425669E-02
       136   -1.434370E-03
       137    8.656404E-04
       138    1.480948E-01
       139   -1.025310E-02
       140    7.105332E-03
       141    1.510289E-01
       142   -2.510084E-02
       143   -8.042488E-03
       144    9.103384E-02
       145   -1.664283E-04
       146    2.018515E-04
       147   -3.542321E-05
       148    6.540075E-07
       149   -8.560397E-04
       150    2.836978E-03
       151   -6.979968E-04
       152    8.553645E-04
       153   -1.573677E-04
       154   -1.914360E-03
       155   -4.169644E-03
       156    4.735161E-03
       157   -9.124666E-03
       158    7.131671E-03
       159    1.992995E-03
       160    1.025194E-02
       161    3.836794E-03
       162   -1.303357E-02
       163   -1.613437E-05
       164    1.238388E-05
       165   -8.147077E-04
       166   -2.220489E-05
       167    1.782269E-05
       168    1.804043E-04
       169    4.385142E-05
       170   -3.443740E-05
       171    9.126408E-04
       172   -3.206663E-04
       173    1.314545E-03
       174    2.993722E-03
       175   -3.091537E-03
       176   -2.495686E-02
       177    2.202304E-02
       178   -1.025490E-02
       179    1.049178E-02
       180   -1.738605E-06
       181    1.047956E-01
       182    8.233655E-04
       183   -8.620334E-06
       184    1.079787E-01
       185   -3.209019E-02
       186    8.570320E-04
       187    1.351626E-01
       188   -5.523391E-04
       189    3.054021E-04
       190    2.469370E-04
       191   -3.390396E-07
       192    1.001717E-02
       193    4.690565E-07
       194    2.057759E-03
       195   -4.604509E-03
       196    2.546751E-03
       197   -1.384206E-06
       198    2.453311E-02
       199   -5.246605E-07
       200    6.926896E-03
       201   -8.331240E-03
       202    1.404344E-03
       203    1.218717E-04
       204    1.833556E-02
       205   -7.301108E-06
       206    1.361275E-04
       207    2.058432E-08
       208   -2.324153E-04
       209   -9.607361E-05
       210   -4.961893E-08
       211   -1.133300E-03
       212   -8.656062E-05
       213    2.200216E-08
       214    1.445117E-03
       215    1.200290E-08
       216   -1.408861E-04
       217   -3.049884E-04
       218   -6.420550E-04
       219    1.188471E-02
       220   -2.965132E-02
       221   -1.426158E-02
       222   -1.435097E-03
       223   -8.598320E-04
       224    1.481113E-01
       225   -1.026938E-02
       226   -7.107920E-03
       227    1.510481E-01
       228   -2.495753E-02
       229    8.928199E-03
       230    9.103175E-02
       231   -1.662871E-04
       232    2.023086E-04
       233   -3.602148E-05
       234   -1.013083E-06
       235   -8.557883E-04
       236   -2.837061E-03
       237   -7.030588E-04
       238    8.592367E-04
       239   -1.561779E-04
       240    1.916165E-03
       241   -4.166843E-03
       242   -4.735420E-03
       243   -9.083841E-03
       244    7.085894E-03
       245    1.997948E-03
       246   -1.034938E-02
       247    3.832839E-03
       248    1.303556E-02
       249   -1.627467E-05
       250   -1.245251E-05
       251   -8.149296E-04
       252   -2.222750E-05
       253   -1.774550E-05
       254    1.806564E-04
       255    4.406226E-05
       256    3.445230E-05
       257    9.126864E-04
       258    3.206499E-04
       259    4.433812E-04
       260    2.883756E-04
       261    1.946929E-02
       262   -1.891768E-05
       263   -1.998491E-06
       264   -1.038842E-03
       265   -5.894081E-03
       266   -3.999938E-04
       267    6.722175E-03
       268    4.443114E-04
       269    2.800690E-04
       270    1.941908E-02
       271   -1.812520E-05
       272    8.307162E-07
       273   -1.039614E-03
       274   -5.967461E-03
       275    3.695108E-04
       276    6.725552E-03
       277    4.343976E-04
       278    2.600659E-03
       279   -3.861140E-02
       280   -1.519484E-05
       281    1.059572E-04
       282    6.028016E-03
       283   -1.880128E-03
       284   -3.087421E-03
       285   -2.165938E-03
       286    4.393165E-04
       287    2.605884E-03
       288   -3.893543E-02
       289   -1.465645E-05
       290   -1.060911E-04
       291    6.029155E-03
       292   -1.886778E-03
       293    3.129523E-03
       294   -2.166126E-03
       295    3.314547E-05
       296    7.559296E-05
       297   -3.835430E-05
       298   -3.210480E-04
       299    8.248638E-03
       300   -7.535407E-04
       301    3.639671E-04
       302   -2.450684E-07
       303   -1.609951E-02
       304    2.387898E-05
       305    3.302481E-07
       306   -1.860299E-02
       307   -3.538642E-03
       308    3.532833E-05
       309   -7.026006E-03
       310   -1.046150E-05
       311   -5.193353E-06
       312    1.565485E-05
       313    1.823148E-07
       314    4.359022E-03
       315    5.366270E-08
       316    3.340093E-05
       317   -1.019866E-04
       318    6.858566E-05
       319    1.040773E-06
       320    1.306899E-02
       321    6.950584E-08
       322    1.018612E-03
       323   -3.160204E-03
       324    2.141591E-03
       325   -2.280257E-05
       326    2.946108E-03
       327    2.856855E-06
       328    7.217550E-06
       329   -3.229631E-08
       330   -2.049678E-05
       331   -5.413353E-06
       332    9.400126E-08
       333   -6.829175E-04
       334   -4.270006E-06
       335   -5.067122E-08
       336    7.104168E-04
       337    1.879754E-10
       338    3.014869E-05
       339    6.961609E-05
       340   -5.169026E-05
       341   -6.511621E-04
       342    6.608864E-03
       343    1.123354E-03
       344    2.628657E-05
       345    2.070089E-04
       346    7.827047E-02
       347   -1.050000E-04
       348    3.451494E-04
       349    7.256077E-02
       350   -1.385773E-03
       351    6.337491E-04
       352    5.827587E-02
       353   -1.928636E-04
       354    2.456319E-04
       355    7.036618E-03
       356   -4.634438E-06
       357    5.305787E-06
       358   -6.713489E-07
       359    1.124630E-06
       360   -1.271473E-05
       361    5.057991E-04
       362    1.036516E-05
       363    1.355148E-05
       364   -2.391664E-05
       365   -8.555999E-06
       366   -5.759217E-04
       367    1.656634E-03
       368    8.227240E-05
       369   -4.939271E-05
       370   -3.287969E-05
       371   -7.191334E-05
       372   -2.637571E-04
       373    2.955606E-04
       374    6.462721E-07
       375    2.240091E-06
       376   -7.003572E-05
       377   -1.120313E-06
       378   -1.175458E-06
       379   -8.376874E-05
       380    2.532483E-07
       381   -1.829939E-06
       382    1.777315E-04
       383   -1.420343E-04
       384    3.005212E-05
       385    6.941955E-05
       386   -5.193789E-05
       387   -6.468088E-04
       388    6.596555E-03
       389    1.095164E-03
       390    4.279651E-05
       391   -2.133945E-04
       392    7.827218E-02
       393   -8.963722E-05
       394   -3.504321E-04
       395    7.256279E-02
       396   -1.349108E-03
       397   -6.302539E-04
       398    5.827212E-02
       399   -1.775933E-04
       400   -2.498810E-04
       401    7.038367E-03
       402   -4.713310E-06
       403    5.369209E-06
       404   -6.558996E-07
       405   -1.114225E-06
       406   -1.275313E-05
       407   -5.058121E-04
       408    9.904775E-06
       409    1.363861E-05
       410   -2.354338E-05
       411    7.974295E-06
       412   -5.758928E-04
       413   -1.656718E-03
       414    8.195229E-05
       415   -5.075865E-05
       416   -3.119364E-05
       417    7.083948E-05
       418   -2.642403E-04
       419   -2.946333E-04
       420    6.476802E-07
       421   -2.252593E-06
       422   -7.004152E-05
       423   -1.102795E-06
       424    1.216966E-06
       425   -8.376490E-05
       426    2.338404E-07
       427    1.805204E-06
       428    1.777355E-04
       429    1.420429E-04
       430   -5.763506E-03
       431   -1.366476E-02
       432    2.117311E-02
       433    3.314257E-02
       434    2.339098E-02
       435    7.590351E-02
       436   -2.016343E-02
       437    1.095651E-05
       438   -2.649409E-01
       439   -2.283853E-02
       440    3.860980E-06
       441   -2.613311E-01
       442   -2.184054E-02
       443   -1.046461E-04
       444   -2.127423E-01
       445    1.200043E-04
       446    3.530346E-05
       447   -1.553077E-04
       448   -2.610546E-07
       449    6.768058E-04
       450    2.777418E-07
       451    2.799309E-04
       452    1.792124E-03
       453   -2.072055E-03
       454    3.617043E-06
       455    3.358123E-03
       456    1.318057E-06
       457    2.035640E-03
       458    3.684306E-03
       459   -5.719946E-03
       460    4.965363E-07
       461    2.156235E-03
       462    7.335091E-06
       463   -1.546170E-04
       464    3.742197E-08
       465    1.059080E-03
       466   -1.049169E-04
       467    1.597478E-08
       468   -5.874909E-04
       469    3.123573E-04
       470   -6.618163E-08
       471   -8.334145E-04
       472    1.244040E-08
       473   -1.037104E-02
       474   -2.001807E-02
       475   -3.446059E-02
       476   -2.561389E-03
       477   -2.115708E-03
       478   -1.331898E-02
       479    1.241417E-03
       480   -4.020406E-03
       481   -1.501352E-02
       482   -1.036447E-02
       483   -1.995043E-02
       484   -3.428306E-02
       485   -2.557514E-03
       486    2.109568E-03
       487   -1.332196E-02
       488    1.259777E-03
       489    3.987607E-03
       490   -1.502411E-02
 Sym= X
 Ene= 0.890852
 Spin= Alpha
 Occup= 0.890852
         1   -1.399516E-02
         2   -3.110516E-02
         3    1.289904E-02
         4    5.029653E-01
         5    5.088762E+00
         6   -3.916990E+00
         7    6.653801E-03
         8    2.080035E-02
         9   -4.169622E-03
        10   -4.819614E-02
        11   -3.157790E-03
        12   -6.311126E-03
        13    2.892955E-01
        14   -8.718957E-02
        15   -3.891621E-02
        16    1.830106E-03
        17    1.278596E-05
        18   -1.842892E-03
        19   -6.444619E-04
        20    1.384563E-04
        21   -2.328604E-04
        22    2.864446E-02
        23   -9.286070E-03
        24   -1.935839E-02
        25   -8.186761E-03
        26    1.235150E-03
        27   -6.777327E-04
        28   -3.874273E-02
        29   -1.784367E-01
        30    2.171794E-01
        31    9.590271E-01
        32   -1.151060E-02
        33    2.603005E-02
        34   -8.542672E-04
        35    2.444047E-05
        36   -2.153603E-05
        37    9.354738E-04
        38   -1.197253E-04
        39   -2.388834E-05
        40    2.106459E-04
        41    8.693494E-05
        42    5.278196E-05
        43   -2.511095E-05
        44   -4.724776E-03
        45   -9.662386E-03
        46   -3.967032E-03
        47    3.182980E-01
        48    4.682289E+00
        49    4.377854E-01
        50    1.784543E-02
        51    4.359955E-06
        52    8.484145E-03
        53    7.974905E-02
        54    4.637747E-05
        55    6.071121E-03
        56    1.819888E+00
        57   -2.684925E-03
        58    1.181765E-01
        59    4.963572E-04
        60    2.939740E-03
        61   -3.436097E-03
        62    3.831661E-07