[Molden Format]
[Title]
ADC(2) - opt by CAM-B3LYP gaussian                                              
[Atoms] AU
 c     1    6 0.12589710753986E+01 0.22825551554713E+01 -.28105798744860E-01
 c     2    6 0.25558923691721E+01 0.80431469000000E-06 -.26811997747980E-01
 c     3    6 0.12589700738438E+01 -.22825573262942E+01 -.28139341383720E-01
 c     4    6 -.13331755585332E+01 -.22837561874501E+01 -.30470167390540E-01
 c     5    6 -.26866009864883E+01 0.27696298600000E-05 -.30311128039200E-01
 c     6    6 -.13331783742251E+01 0.22837572858534E+01 -.30432977580250E-01
 h     7    1 0.22993222678978E+01 0.40366379181686E+01 -.25216785432900E-01
 h     8    1 0.22993197734593E+01 -.40366408826765E+01 -.25273722881290E-01
 h     9    1 -.23520966897676E+01 -.40562070503646E+01 -.33235309154490E-01
 h    10    1 -.23520900190344E+01 0.40562136478709E+01 -.33159965773570E-01
 n    11    7 0.52762255328692E+01 0.25629411000000E-06 -.20783601308720E-01
 o    12    8 0.63803680214636E+01 -.20270720034092E+01 -.18188232540560E-01
 o    13    8 0.63803692875801E+01 0.20270718545932E+01 -.18282964511600E-01
 n    14    7 -.52484248103301E+01 -.66967170000000E-06 -.81289589624650E-01
 h    15    1 -.62019351690707E+01 -.16149791988436E+01 0.21484054874156E+00
 h    16    1 -.62019367942352E+01 0.16149736265137E+01 0.21486103337284E+00
[GTO]
    1 0
 s    6 1.00
 0.13575349682000E+05 0.60645503603591E-03
 0.20352333680000E+04 0.46979088884982E-02
 0.46322562359000E+03 0.24332477647552E-01
 0.13120019598000E+03 0.97399968307759E-01
 0.42853015891000E+02 0.30195584253780E+00
 0.15584185766000E+02 0.66233609137875E+00
 s    2 1.00
 0.62067138508000E+01 0.65595308539952E+00
 0.25764896527000E+01 0.37585633285142E+00
 s    1 1.00
 0.57696339419000E+00 0.10000000000000E+01
 s    1 1.00
 0.22972831358000E+00 0.10000000000000E+01
 s    1 1.00
 0.95164440028000E-01 0.10000000000000E+01
 s    1 1.00
 0.48475401370000E-01 0.10000000000000E+01
 p    4 1.00
 0.34697232244000E+02 0.11327220003114E-01
 0.79582622826000E+01 0.76169659202087E-01
 0.23780826883000E+01 0.30192252202676E+00
 0.81433208183000E+00 0.72785027349547E+00
 p    1 1.00
 0.28887547253000E+00 0.10000000000000E+01
 p    1 1.00
 0.10056823671000E+00 0.10000000000000E+01
 d    1 1.00
 0.10970000000000E+01 0.10000000000000E+01
 d    1 1.00
 0.31800000000000E+00 0.10000000000000E+01
 d    1 1.00
 0.90985336424000E-01 0.10000000000000E+01
 f    1 1.00
 0.76100000000000E+00 0.10000000000000E+01
 
    2 0
 s    6 1.00
 0.13575349682000E+05 0.60645503603591E-03
 0.20352333680000E+04 0.46979088884982E-02
 0.46322562359000E+03 0.24332477647552E-01
 0.13120019598000E+03 0.97399968307759E-01
 0.42853015891000E+02 0.30195584253780E+00
 0.15584185766000E+02 0.66233609137875E+00
 s    2 1.00
 0.62067138508000E+01 0.65595308539952E+00
 0.25764896527000E+01 0.37585633285142E+00
 s    1 1.00
 0.57696339419000E+00 0.10000000000000E+01
 s    1 1.00
 0.22972831358000E+00 0.10000000000000E+01
 s    1 1.00
 0.95164440028000E-01 0.10000000000000E+01
 s    1 1.00
 0.48475401370000E-01 0.10000000000000E+01
 p    4 1.00
 0.34697232244000E+02 0.11327220003114E-01
 0.79582622826000E+01 0.76169659202087E-01
 0.23780826883000E+01 0.30192252202676E+00
 0.81433208183000E+00 0.72785027349547E+00
 p    1 1.00
 0.28887547253000E+00 0.10000000000000E+01
 p    1 1.00
 0.10056823671000E+00 0.10000000000000E+01
 d    1 1.00
 0.10970000000000E+01 0.10000000000000E+01
 d    1 1.00
 0.31800000000000E+00 0.10000000000000E+01
 d    1 1.00
 0.90985336424000E-01 0.10000000000000E+01
 f    1 1.00
 0.76100000000000E+00 0.10000000000000E+01
 
    3 0
 s    6 1.00
 0.13575349682000E+05 0.60645503603591E-03
 0.20352333680000E+04 0.46979088884982E-02
 0.46322562359000E+03 0.24332477647552E-01
 0.13120019598000E+03 0.97399968307759E-01
 0.42853015891000E+02 0.30195584253780E+00
 0.15584185766000E+02 0.66233609137875E+00
 s    2 1.00
 0.62067138508000E+01 0.65595308539952E+00
 0.25764896527000E+01 0.37585633285142E+00
 s    1 1.00
 0.57696339419000E+00 0.10000000000000E+01
 s    1 1.00
 0.22972831358000E+00 0.10000000000000E+01
 s    1 1.00
 0.95164440028000E-01 0.10000000000000E+01
 s    1 1.00
 0.48475401370000E-01 0.10000000000000E+01
 p    4 1.00
 0.34697232244000E+02 0.11327220003114E-01
 0.79582622826000E+01 0.76169659202087E-01
 0.23780826883000E+01 0.30192252202676E+00
 0.81433208183000E+00 0.72785027349547E+00
 p    1 1.00
 0.28887547253000E+00 0.10000000000000E+01
 p    1 1.00
 0.10056823671000E+00 0.10000000000000E+01
 d    1 1.00
 0.10970000000000E+01 0.10000000000000E+01
 d    1 1.00
 0.31800000000000E+00 0.10000000000000E+01
 d    1 1.00
 0.90985336424000E-01 0.10000000000000E+01
 f    1 1.00
 0.76100000000000E+00 0.10000000000000E+01
 
    4 0
 s    6 1.00
 0.13575349682000E+05 0.60645503603591E-03
 0.20352333680000E+04 0.46979088884982E-02
 0.46322562359000E+03 0.24332477647552E-01
 0.13120019598000E+03 0.97399968307759E-01
 0.42853015891000E+02 0.30195584253780E+00
 0.15584185766000E+02 0.66233609137875E+00
 s    2 1.00
 0.62067138508000E+01 0.65595308539952E+00
 0.25764896527000E+01 0.37585633285142E+00
 s    1 1.00
 0.57696339419000E+00 0.10000000000000E+01
 s    1 1.00
 0.22972831358000E+00 0.10000000000000E+01
 s    1 1.00
 0.95164440028000E-01 0.10000000000000E+01
 s    1 1.00
 0.48475401370000E-01 0.10000000000000E+01
 p    4 1.00
 0.34697232244000E+02 0.11327220003114E-01
 0.79582622826000E+01 0.76169659202087E-01
 0.23780826883000E+01 0.30192252202676E+00
 0.81433208183000E+00 0.72785027349547E+00
 p    1 1.00
 0.28887547253000E+00 0.10000000000000E+01
 p    1 1.00
 0.10056823671000E+00 0.10000000000000E+01
 d    1 1.00
 0.10970000000000E+01 0.10000000000000E+01
 d    1 1.00
 0.31800000000000E+00 0.10000000000000E+01
 d    1 1.00
 0.90985336424000E-01 0.10000000000000E+01
 f    1 1.00
 0.76100000000000E+00 0.10000000000000E+01
 
    5 0
 s    6 1.00
 0.13575349682000E+05 0.60645503603591E-03
 0.20352333680000E+04 0.46979088884982E-02
 0.46322562359000E+03 0.24332477647552E-01
 0.13120019598000E+03 0.97399968307759E-01
 0.42853015891000E+02 0.30195584253780E+00
 0.15584185766000E+02 0.66233609137875E+00
 s    2 1.00
 0.62067138508000E+01 0.65595308539952E+00
 0.25764896527000E+01 0.37585633285142E+00
 s    1 1.00
 0.57696339419000E+00 0.10000000000000E+01
 s    1 1.00
 0.22972831358000E+00 0.10000000000000E+01
 s    1 1.00
 0.95164440028000E-01 0.10000000000000E+01
 s    1 1.00
 0.48475401370000E-01 0.10000000000000E+01
 p    4 1.00
 0.34697232244000E+02 0.11327220003114E-01
 0.79582622826000E+01 0.76169659202087E-01
 0.23780826883000E+01 0.30192252202676E+00
 0.81433208183000E+00 0.72785027349547E+00
 p    1 1.00
 0.28887547253000E+00 0.10000000000000E+01
 p    1 1.00
 0.10056823671000E+00 0.10000000000000E+01
 d    1 1.00
 0.10970000000000E+01 0.10000000000000E+01
 d    1 1.00
 0.31800000000000E+00 0.10000000000000E+01
 d    1 1.00
 0.90985336424000E-01 0.10000000000000E+01
 f    1 1.00
 0.76100000000000E+00 0.10000000000000E+01
 
    6 0
 s    6 1.00
 0.13575349682000E+05 0.60645503603591E-03
 0.20352333680000E+04 0.46979088884982E-02
 0.46322562359000E+03 0.24332477647552E-01
 0.13120019598000E+03 0.97399968307759E-01
 0.42853015891000E+02 0.30195584253780E+00
 0.15584185766000E+02 0.66233609137875E+00
 s    2 1.00
 0.62067138508000E+01 0.65595308539952E+00
 0.25764896527000E+01 0.37585633285142E+00
 s    1 1.00
 0.57696339419000E+00 0.10000000000000E+01
 s    1 1.00
 0.22972831358000E+00 0.10000000000000E+01
 s    1 1.00
 0.95164440028000E-01 0.10000000000000E+01
 s    1 1.00
 0.48475401370000E-01 0.10000000000000E+01
 p    4 1.00
 0.34697232244000E+02 0.11327220003114E-01
 0.79582622826000E+01 0.76169659202087E-01
 0.23780826883000E+01 0.30192252202676E+00
 0.81433208183000E+00 0.72785027349547E+00
 p    1 1.00
 0.28887547253000E+00 0.10000000000000E+01
 p    1 1.00
 0.10056823671000E+00 0.10000000000000E+01
 d    1 1.00
 0.10970000000000E+01 0.10000000000000E+01
 d    1 1.00
 0.31800000000000E+00 0.10000000000000E+01
 d    1 1.00
 0.90985336424000E-01 0.10000000000000E+01
 f    1 1.00
 0.76100000000000E+00 0.10000000000000E+01
 
    7 0
 s    3 1.00
 0.34061341000000E+02 0.25439307208879E-01
 0.51235746000000E+01 0.19008594890375E+00
 0.11646626000000E+01 0.85244113011042E+00
 s    1 1.00
 0.32723041000000E+00 0.10000000000000E+01
 s    1 1.00
 0.10307241000000E+00 0.10000000000000E+01
 p    1 1.00
 0.80000000000000E+00 0.10000000000000E+01
 p    1 1.00
 0.95774129632000E-01 0.10000000000000E+01
 
    8 0
 s    3 1.00
 0.34061341000000E+02 0.25439307208879E-01
 0.51235746000000E+01 0.19008594890375E+00
 0.11646626000000E+01 0.85244113011042E+00
 s    1 1.00
 0.32723041000000E+00 0.10000000000000E+01
 s    1 1.00
 0.10307241000000E+00 0.10000000000000E+01
 p    1 1.00
 0.80000000000000E+00 0.10000000000000E+01
 p    1 1.00
 0.95774129632000E-01 0.10000000000000E+01
 
    9 0
 s    3 1.00
 0.34061341000000E+02 0.25439307208879E-01
 0.51235746000000E+01 0.19008594890375E+00
 0.11646626000000E+01 0.85244113011042E+00
 s    1 1.00
 0.32723041000000E+00 0.10000000000000E+01
 s    1 1.00
 0.10307241000000E+00 0.10000000000000E+01
 p    1 1.00
 0.80000000000000E+00 0.10000000000000E+01
 p    1 1.00
 0.95774129632000E-01 0.10000000000000E+01
 
   10 0
 s    3 1.00
 0.34061341000000E+02 0.25439307208879E-01
 0.51235746000000E+01 0.19008594890375E+00
 0.11646626000000E+01 0.85244113011042E+00
 s    1 1.00
 0.32723041000000E+00 0.10000000000000E+01
 s    1 1.00
 0.10307241000000E+00 0.10000000000000E+01
 p    1 1.00
 0.80000000000000E+00 0.10000000000000E+01
 p    1 1.00
 0.95774129632000E-01 0.10000000000000E+01
 
   11 0
 s    6 1.00
 0.19730800647000E+05 0.58626402628763E-03
 0.29578958745000E+04 0.45428820586397E-02
 0.67322133595000E+03 0.23558413450084E-01
 0.19068249494000E+03 0.94709193292923E-01
 0.62295441898000E+02 0.29719784913376E+00
 0.22654161182000E+02 0.66916246895232E+00
 s    2 1.00
 0.89791477428000E+01 0.64596683630063E+00
 0.36863002370000E+01 0.38700574393705E+00
 s    1 1.00
 0.84660076805000E+00 0.10000000000000E+01
 s    1 1.00
 0.33647133771000E+00 0.10000000000000E+01
 s    1 1.00
 0.13647653675000E+00 0.10000000000000E+01
 s    1 1.00
 0.68441605847000E-01 0.10000000000000E+01
 p    4 1.00
 0.49200380510000E+02 0.11448825101764E-01
 0.11346790537000E+02 0.78422337970864E-01
 0.34273972411000E+01 0.30818094738830E+00
 0.11785525134000E+01 0.72027196368413E+00
 p    1 1.00
 0.41642204972000E+00 0.10000000000000E+01
 p    1 1.00
 0.14260826011000E+00 0.10000000000000E+01
 d    1 1.00
 0.16540000000000E+01 0.10000000000000E+01
 d    1 1.00
 0.46900000000000E+00 0.10000000000000E+01
 d    1 1.00
 0.12829642058000E+00 0.10000000000000E+01
 f    1 1.00
 0.10930000000000E+01 0.10000000000000E+01
 
   12 0
 s    6 1.00
 0.27032382631000E+05 0.57227335211155E-03
 0.40523871392000E+04 0.44353233492995E-02
 0.92232722710000E+03 0.23020107706038E-01
 0.26124070989000E+03 0.92822490667928E-01
 0.85354641351000E+02 0.29378500009671E+00
 0.31035035245000E+02 0.67401604501641E+00
 s    2 1.00
 0.12260860728000E+02 0.63839937025506E+00
 0.49987076005000E+01 0.39534587125718E+00
 s    1 1.00
 0.11703108158000E+01 0.10000000000000E+01
 s    1 1.00
 0.46474740994000E+00 0.10000000000000E+01
 s    1 1.00
 0.18504536357000E+00 0.10000000000000E+01
 s    1 1.00
 0.70288026270000E-01 0.10000000000000E+01
 p    4 1.00
 0.63274954801000E+02 0.12018332222616E-01
 0.14627049379000E+02 0.83005421790056E-01
 0.44501223456000E+01 0.31991743925964E+00
 0.15275799647000E+01 0.70715542916104E+00
 p    1 1.00
 0.52935117943000E+00 0.10000000000000E+01
 p    1 1.00
 0.17478421270000E+00 0.10000000000000E+01
 p    1 1.00
 0.51112745706000E-01 0.10000000000000E+01
 d    1 1.00
 0.23140000000000E+01 0.10000000000000E+01
 d    1 1.00
 0.64500000000000E+00 0.10000000000000E+01
 d    1 1.00
 0.14696477366000E+00 0.10000000000000E+01
 f    1 1.00
 0.14280000000000E+01 0.10000000000000E+01
 
   13 0
 s    6 1.00
 0.27032382631000E+05 0.57227335211155E-03
 0.40523871392000E+04 0.44353233492995E-02
 0.92232722710000E+03 0.23020107706038E-01
 0.26124070989000E+03 0.92822490667928E-01
 0.85354641351000E+02 0.29378500009671E+00
 0.31035035245000E+02 0.67401604501641E+00
 s    2 1.00
 0.12260860728000E+02 0.63839937025506E+00
 0.49987076005000E+01 0.39534587125718E+00
 s    1 1.00
 0.11703108158000E+01 0.10000000000000E+01
 s    1 1.00
 0.46474740994000E+00 0.10000000000000E+01
 s    1 1.00
 0.18504536357000E+00 0.10000000000000E+01
 s    1 1.00
 0.70288026270000E-01 0.10000000000000E+01
 p    4 1.00
 0.63274954801000E+02 0.12018332222616E-01
 0.14627049379000E+02 0.83005421790056E-01
 0.44501223456000E+01 0.31991743925964E+00
 0.15275799647000E+01 0.70715542916104E+00
 p    1 1.00
 0.52935117943000E+00 0.10000000000000E+01
 p    1 1.00
 0.17478421270000E+00 0.10000000000000E+01
 p    1 1.00
 0.51112745706000E-01 0.10000000000000E+01
 d    1 1.00
 0.23140000000000E+01 0.10000000000000E+01
 d    1 1.00
 0.64500000000000E+00 0.10000000000000E+01
 d    1 1.00
 0.14696477366000E+00 0.10000000000000E+01
 f    1 1.00
 0.14280000000000E+01 0.10000000000000E+01
 
   14 0
 s    6 1.00
 0.19730800647000E+05 0.58626402628763E-03
 0.29578958745000E+04 0.45428820586397E-02
 0.67322133595000E+03 0.23558413450084E-01
 0.19068249494000E+03 0.94709193292923E-01
 0.62295441898000E+02 0.29719784913376E+00
 0.22654161182000E+02 0.66916246895232E+00
 s    2 1.00
 0.89791477428000E+01 0.64596683630063E+00
 0.36863002370000E+01 0.38700574393705E+00
 s    1 1.00
 0.84660076805000E+00 0.10000000000000E+01
 s    1 1.00
 0.33647133771000E+00 0.10000000000000E+01
 s    1 1.00
 0.13647653675000E+00 0.10000000000000E+01
 s    1 1.00
 0.68441605847000E-01 0.10000000000000E+01
 p    4 1.00
 0.49200380510000E+02 0.11448825101764E-01
 0.11346790537000E+02 0.78422337970864E-01
 0.34273972411000E+01 0.30818094738830E+00
 0.11785525134000E+01 0.72027196368413E+00
 p    1 1.00
 0.41642204972000E+00 0.10000000000000E+01
 p    1 1.00
 0.14260826011000E+00 0.10000000000000E+01
 d    1 1.00
 0.16540000000000E+01 0.10000000000000E+01
 d    1 1.00
 0.46900000000000E+00 0.10000000000000E+01
 d    1 1.00
 0.12829642058000E+00 0.10000000000000E+01
 f    1 1.00
 0.10930000000000E+01 0.10000000000000E+01
 
   15 0
 s    3 1.00
 0.34061341000000E+02 0.25439307208879E-01
 0.51235746000000E+01 0.19008594890375E+00
 0.11646626000000E+01 0.85244113011042E+00
 s    1 1.00
 0.32723041000000E+00 0.10000000000000E+01
 s    1 1.00
 0.10307241000000E+00 0.10000000000000E+01
 p    1 1.00
 0.80000000000000E+00 0.10000000000000E+01
 p    1 1.00
 0.95774129632000E-01 0.10000000000000E+01
 
   16 0
 s    3 1.00
 0.34061341000000E+02 0.25439307208879E-01
 0.51235746000000E+01 0.19008594890375E+00
 0.11646626000000E+01 0.85244113011042E+00
 s    1 1.00
 0.32723041000000E+00 0.10000000000000E+01
 s    1 1.00
 0.10307241000000E+00 0.10000000000000E+01
 p    1 1.00
 0.80000000000000E+00 0.10000000000000E+01
 p    1 1.00
 0.95774129632000E-01 0.10000000000000E+01
 
[MO]
 Sym= X
 Ene= -0.868373
 Spin= Alpha
 Occup= -0.868373
         1    1.131387E-04
         2    2.711173E-04
         3   -9.867891E-04
         4    3.162117E-03
         5    5.699221E-03
         6    1.174711E-02
         7    2.041414E-03
         8    7.192160E-04
         9   -2.841246E-02
        10   -2.344607E-03
        11    8.710869E-04
        12   -2.652519E-02
        13   -3.719027E-02
        14    1.228099E-02
        15   -6.802491E-03
        16   -4.516049E-06
        17    2.100570E-05
        18   -1.648965E-05
        19    3.033892E-05
        20   -6.286048E-03
        21    3.906372E-03
        22    6.998215E-04
        23   -4.192209E-04
        24   -2.806006E-04
        25    7.661993E-04
        26   -1.420406E-02
        27    7.354430E-03
        28    5.241405E-03
        29   -4.934495E-03
        30   -3.069102E-04
        31   -1.128540E-03
        32    1.870281E-03
        33   -1.029575E-02
        34   -2.092149E-05
        35    9.848293E-06
        36    1.293799E-04
        37    1.033818E-05
        38   -8.659023E-06
        39    6.899652E-04
        40    1.773094E-05
        41   -4.553849E-06
        42   -8.635466E-04
        43    7.012329E-04
        44   -2.524397E-05
        45   -5.130287E-05
        46   -1.872279E-04
        47    3.001731E-03
        48    5.679213E-02
        49   -5.602402E-03
        50    7.782882E-04
        51    3.904977E-06
        52   -2.056729E-01
        53   -1.801239E-04
        54    1.644615E-05
        55   -2.132416E-01
        56   -1.769439E-02
        57   -6.414330E-04
        58   -2.012559E-01
        59   -4.260031E-05
        60    3.974832E-05
        61    2.851988E-06
        62   -1.713054E-07
        63   -6.146617E-04
        64   -2.268700E-08
        65   -4.064674E-04
        66    6.772852E-04
        67   -2.708178E-04
        68   -3.447501E-06
        69   -3.154569E-03
        70   -2.825493E-07
        71   -1.004912E-02
        72    1.133214E-02
        73   -1.283016E-03
        74    1.007894E-04
        75    5.000337E-03
        76   -4.529443E-06
        77    1.012864E-05
        78    4.908831E-08
        79    1.161414E-03
        80   -7.979346E-06
        81    2.526366E-08
        82   -6.898428E-04
        83   -5.609653E-06
        84   -9.112254E-08
        85   -8.683578E-04
        86    1.570816E-09
        87    1.135675E-04
        88    2.720603E-04
        89   -9.882134E-04
        90    3.168596E-03
        91    3.725391E-03
        92    1.172653E-02
        93    2.042517E-03
        94   -7.229231E-04
        95   -2.841099E-02
        96   -2.308374E-03
        97   -8.681519E-04
        98   -2.652312E-02
        99   -3.726878E-02
       100   -1.291298E-02
       101   -6.822488E-03
       102   -4.609093E-06
       103    2.106828E-05
       104   -1.645919E-05
       105   -3.061879E-05
       106   -6.286314E-03
       107   -3.906438E-03
       108    6.921858E-04
       109   -4.122182E-04
       110   -2.799676E-04
       111   -7.641412E-04
       112   -1.420375E-02
       113   -7.353696E-03
       114    5.319518E-03
       115   -5.027767E-03
       116   -2.917508E-04
       117    1.048786E-03
       118    1.873104E-03
       119    1.030021E-02
       120   -2.090245E-05
       121   -9.818088E-06
       122    1.293222E-04
       123    1.046201E-05
       124    8.606526E-06
       125    6.900454E-04
       126    1.758156E-05
       127    4.565821E-06
       128   -8.635493E-04
       129   -7.011731E-04
       130   -2.574835E-05
       131   -4.964774E-05
       132   -9.389503E-04
       133    1.055705E-02
       134   -2.819991E-02
       135   -1.334107E-02
       136   -1.324564E-03
       137    8.785287E-04
       138    1.527140E-01
       139   -9.546459E-03
       140    6.677775E-03
       141    1.555035E-01
       142   -2.403475E-02
       143   -7.229262E-03
       144    9.399200E-02
       145   -1.532155E-04
       146    1.770040E-04
       147   -2.378855E-05
       148   -1.493781E-05
       149   -9.998234E-04
       150    3.032748E-03
       151   -6.711395E-04
       152    7.965294E-04
       153   -1.253899E-04
       154   -1.796097E-03
       155   -4.427633E-03
       156    5.102003E-03
       157   -8.679566E-03
       158    6.785013E-03
       159    1.894553E-03
       160    9.561733E-03
       161    3.548307E-03
       162   -1.204699E-02
       163   -1.725377E-05
       164    1.169487E-05
       165   -8.585045E-04
       166   -1.773486E-05
       167    1.636753E-05
       168    1.980956E-04
       169    4.088321E-05
       170   -3.205784E-05
       171    9.537091E-04
       172   -3.531320E-04
       173    1.140264E-03
       174    2.596246E-03
       175   -2.570985E-03
       176   -2.315895E-02
       177    1.875837E-02
       178   -9.786503E-03
       179    9.246432E-03
       180   -2.744662E-06
       181    1.171070E-01
       182    4.301859E-04
       183   -8.094813E-06
       184    1.198493E-01
       185   -2.964356E-02
       186    8.883085E-04
       187    1.342765E-01
       188   -4.946014E-04
       189    2.697398E-04
       190    2.248616E-04
       191   -3.547886E-07
       192    9.699512E-03
       193    5.668112E-08
       194    1.922771E-03
       195   -4.299160E-03
       196    2.376389E-03
       197   -9.710811E-07
       198    2.401656E-02
       199   -1.511992E-06
       200    6.151401E-03
       201   -7.472261E-03
       202    1.320861E-03
       203    1.229097E-04
       204    1.830324E-02
       205   -8.288013E-06
       206    1.213232E-04
       207    2.381330E-08
       208   -3.554458E-04
       209   -8.626402E-05
       210   -4.614016E-08
       211   -1.003260E-03
       212   -7.650820E-05
       213    1.419127E-08
       214    1.480141E-03
       215   -5.724319E-08
       216   -2.626940E-05
       217   -5.065101E-05
       218   -9.373340E-04
       219    1.057175E-02
       220   -3.044093E-02
       221   -1.334978E-02
       222   -1.324294E-03
       223   -8.720476E-04
       224    1.527086E-01
       225   -9.564424E-03
       226   -6.678185E-03
       227    1.555005E-01
       228   -2.386172E-02
       229    8.136591E-03
       230    9.397681E-02
       231   -1.530462E-04
       232    1.774404E-04
       233   -2.439420E-05
       234    1.450635E-05
       235   -1.000073E-03
       236   -3.032780E-03
       237   -6.770002E-04
       238    8.005771E-04
       239   -1.235769E-04
       240    1.797468E-03
       241   -4.425826E-03
       242   -5.102238E-03
       243   -8.640080E-03
       244    6.739833E-03
       245    1.900247E-03
       246   -9.664567E-03
       247    3.543067E-03
       248    1.204883E-02
       249   -1.743190E-05
       250   -1.175590E-05
       251   -8.585882E-04
       252   -1.771846E-05
       253   -1.629261E-05
       254    1.981886E-04
       255    4.110581E-05
       256    3.206481E-05
       257    9.537283E-04
       258    3.531137E-04
       259    7.401482E-04
       260    7.259034E-04
       261    1.791737E-02
       262   -4.233663E-05
       263   -4.517834E-05
       264   -1.107952E-03
       265   -5.608132E-03
       266   -2.479754E-04
       267    6.336193E-03
       268    7.426899E-04
       269    7.198429E-04
       270    1.787623E-02
       271   -4.167499E-05
       272    4.422304E-05
       273   -1.107878E-03
       274   -5.683100E-03
       275    2.180436E-04
       276    6.340391E-03
       277    2.178105E-04
       278    2.164003E-03
       279   -3.596628E-02
       280   -2.682869E-05
       281    7.541756E-05
       282    6.218204E-03
       283   -1.577979E-03
       284   -2.861836E-03
       285   -1.357464E-03
       286    2.229437E-04
       287    2.170059E-03
       288   -3.629731E-02
       289   -2.632282E-05
       290   -7.560716E-05
       291    6.218396E-03
       292   -1.585568E-03
       293    2.903535E-03
       294   -1.358985E-03
       295    4.797432E-05
       296    1.111329E-04
       297   -1.074086E-04
       298   -3.730939E-04
       299    7.423266E-03
       300   -1.104401E-03
       301    2.544359E-04
       302   -5.702442E-07
       303   -1.766655E-02
       304   -3.878688E-05
       305    2.078984E-07
       306   -2.009082E-02
       307   -3.298436E-03
       308    3.520293E-05
       309   -7.968916E-03
       310   -3.875128E-07
       311   -1.703053E-05
       312    1.741804E-05
       313    8.964378E-08
       314    4.452535E-03
       315   -6.027270E-09
       316    5.474870E-05
       317   -1.236052E-04
       318    6.885646E-05
       319    7.873003E-07
       320    1.336883E-02
       321   -1.328151E-07
       322    9.984167E-04
       323   -2.984448E-03
       324    1.986031E-03
       325   -2.250595E-05
       326    3.180143E-03
       327    2.972753E-06
       328    7.446390E-06
       329   -1.074314E-08
       330   -1.107573E-05
       331   -5.959318E-06
       332    6.482717E-08
       333   -7.034447E-04
       334   -4.031063E-06
       335   -5.041374E-08
       336    7.183044E-04
       337   -1.223744E-09
       338    2.002642E-05
       339    4.521400E-05
       340   -1.811165E-05
       341   -5.584253E-04
       342    6.222195E-03
       343    1.067045E-03
       344    3.086409E-04
       345    2.177323E-04
       346    7.919707E-02
       347    1.517520E-04
       348    3.483417E-04
       349    7.343153E-02
       350   -1.154375E-03
       351    6.220968E-04
       352    5.921622E-02
       353   -1.546825E-04
       354    2.465101E-04
       355    7.159311E-03
       356   -4.935622E-06
       357    4.513545E-06
       358    4.220778E-07
       359    4.465568E-06
       360   -4.261944E-06
       361    5.010904E-04
       362    8.707998E-06
       363    1.159471E-05
       364   -2.030271E-05
       365    1.051247E-06
       366   -5.596428E-04
       367    1.650892E-03
       368    7.755218E-05
       369   -4.871924E-05
       370   -2.883295E-05
       371   -7.185901E-05
       372   -3.032654E-04
       373    2.803091E-04
       374    1.595462E-07
       375    2.564215E-06
       376   -6.827099E-05
       377   -2.252530E-07
       378   -2.087669E-06
       379   -8.556743E-05
       380    1.119933E-08
       381   -1.352586E-06
       382    1.771626E-04
       383   -1.409592E-04
       384    1.996680E-05
       385    4.511125E-05
       386   -1.850351E-05
       387   -5.540128E-04
       388    6.208879E-03
       389    1.038639E-03
       390    3.200712E-04
       391   -2.196814E-04
       392    7.919621E-02
       393    1.625151E-04
       394   -3.496689E-04
       395    7.343124E-02
       396   -1.121084E-03
       397   -6.155903E-04
       398    5.921059E-02
       399   -1.395826E-04
       400   -2.507211E-04
       401    7.160603E-03
       402   -4.974130E-06
       403    4.526165E-06
       404    4.479648E-07
       405   -4.451546E-06
       406   -4.278067E-06
       407   -5.010797E-04
       408    8.375327E-06
       409    1.153054E-05
       410   -1.990587E-05
       411   -1.617484E-06
       412   -5.595427E-04
       413   -1.650919E-03
       414    7.728987E-05
       415   -5.011401E-05
       416   -2.717586E-05
       417    7.083510E-05
       418   -3.036593E-04
       419   -2.792011E-04
       420    1.561731E-07
       421   -2.560997E-06
       422   -6.827122E-05
       423   -1.982636E-07
       424    2.111480E-06
       425   -8.556537E-05
       426   -1.126460E-08
       427    1.324458E-06
       428    1.771608E-04
       429    1.409607E-04
       430   -5.298380E-03
       431   -1.256581E-02
       432    1.950343E-02
       433    3.049640E-02
       434    2.243626E-02
       435    7.335769E-02
       436   -1.820990E-02
       437    9.878751E-06
       438   -2.467016E-01
       439   -2.077508E-02
       440    3.302097E-06
       441   -2.437222E-01
       442   -1.955172E-02
       443   -1.020837E-04
       444   -2.009702E-01
       445    1.165309E-04
       446    1.159540E-05
       447   -1.281263E-04
       448   -2.457847E-07
       449    8.787989E-04
       450    2.374126E-07
       451    2.803577E-04
       452    1.607544E-03
       453   -1.887902E-03
       454    3.386129E-06
       455    3.825834E-03
       456    1.196501E-06
       457    2.105573E-03
       458    3.232569E-03
       459   -5.338143E-03
       460   -3.477669E-07
       461    2.301097E-03
       462    6.950232E-06
       463   -1.491410E-04
       464    3.373863E-08
       465    9.553071E-04
       466   -9.284997E-05
       467    1.267162E-08
       468   -4.920317E-04
       469    2.929436E-04
       470   -5.793675E-08
       471   -7.896473E-04
       472    5.571981E-09
       473   -1.007292E-02
       474   -1.911129E-02
       475   -3.253822E-02
       476   -2.371295E-03
       477   -1.998296E-03
       478   -1.250308E-02
       479    1.441938E-03
       480   -3.803352E-03
       481   -1.474988E-02
       482   -1.006708E-02
       483   -1.904780E-02
       484   -3.236827E-02
       485   -2.367709E-03
       486    1.992554E-03
       487   -1.250595E-02
       488    1.460349E-03
       489    3.772711E-03
       490   -1.475959E-02
 Sym= X
 Ene= 0.868373
 Spin= Alpha
 Occup= 0.868373
         1   -4.899652E-03
         2   -1.123707E-02
         3    1.930227E-02
         4    1.531487E-02
         5    3.077721E+00
         6   -2.628236E-01
         7    2.768497E-02
         8    4.228338E-02
         9    6.590467E-04
        10    3.083633E-03
        11    1.165692E-01
        12   -7.905707E-04
        13    2.135393E-01
        14   -1.664534E+00
        15    1.753202E-02
        16    2.543923E-03
        17   -5.935985E-03
        18    3.392062E-03
        19   -3.181608E-03
        20   -9.585728E-05
        21    1.762441E-04
        22   -5.971360E-03
        23   -5.605330E-03
        24    1.157669E-02
        25   -6.580113E-04
        26   -3.732141E-04
        27    1.574280E-04
        28   -2.654841E-01
        29    7.082995E-02
        30    1.946542E-01
        31   -6.338102E-01
        32   -1.142727E-02
        33    1.799559E-02
        34   -8.733690E-05
        35    3.495542E-04
        36    7.880498E-06
        37    5.680054E-04
        38    2.571527E-04
        39   -1.855643E-05
        40   -4.508306E-04
        41   -7.261288E-04
        42    7.983635E-06
        43    3.441009E-05
        44   -8.677067E-04
        45   -2.169950E-03
        46    1.888912E-03
        47   -7.495818E-02
        48   -5.381658E+00
        49    5.364226E+00
        50    6.742942E-02
        51   -3.261010E-06
        52   -3.865980E-03
        53    6.981631E-02
        54   -3.247682E-05
        55   -6.506657E-03
        56    3.246248E+00
        57    1.509766E-03
        58    6.387622E-02
        59   -6.886545E-03
        60    2.559136E-03
        61    4.327409E-03
        62   -5.730016E-07