[Molden Format]
[Title]
ADC(2) - opt by CAM-B3LYP gaussian                                              
[Atoms] AU
 c     1    6 0.12589710753986E+01 0.22825551554713E+01 -.28105798744860E-01
 c     2    6 0.25558923691721E+01 0.80431469000000E-06 -.26811997747980E-01
 c     3    6 0.12589700738438E+01 -.22825573262942E+01 -.28139341383720E-01
 c     4    6 -.13331755585332E+01 -.22837561874501E+01 -.30470167390540E-01
 c     5    6 -.26866009864883E+01 0.27696298600000E-05 -.30311128039200E-01
 c     6    6 -.13331783742251E+01 0.22837572858534E+01 -.30432977580250E-01
 h     7    1 0.22993222678978E+01 0.40366379181686E+01 -.25216785432900E-01
 h     8    1 0.22993197734593E+01 -.40366408826765E+01 -.25273722881290E-01
 h     9    1 -.23520966897676E+01 -.40562070503646E+01 -.33235309154490E-01
 h    10    1 -.23520900190344E+01 0.40562136478709E+01 -.33159965773570E-01
 n    11    7 0.52762255328692E+01 0.25629411000000E-06 -.20783601308720E-01
 o    12    8 0.63803680214636E+01 -.20270720034092E+01 -.18188232540560E-01
 o    13    8 0.63803692875801E+01 0.20270718545932E+01 -.18282964511600E-01
 n    14    7 -.52484248103301E+01 -.66967170000000E-06 -.81289589624650E-01
 h    15    1 -.62019351690707E+01 -.16149791988436E+01 0.21484054874156E+00
 h    16    1 -.62019367942352E+01 0.16149736265137E+01 0.21486103337284E+00
[GTO]
    1 0
 s    6 1.00
 0.13575349682000E+05 0.60645503603591E-03
 0.20352333680000E+04 0.46979088884982E-02
 0.46322562359000E+03 0.24332477647552E-01
 0.13120019598000E+03 0.97399968307759E-01
 0.42853015891000E+02 0.30195584253780E+00
 0.15584185766000E+02 0.66233609137875E+00
 s    2 1.00
 0.62067138508000E+01 0.65595308539952E+00
 0.25764896527000E+01 0.37585633285142E+00
 s    1 1.00
 0.57696339419000E+00 0.10000000000000E+01
 s    1 1.00
 0.22972831358000E+00 0.10000000000000E+01
 s    1 1.00
 0.95164440028000E-01 0.10000000000000E+01
 s    1 1.00
 0.48475401370000E-01 0.10000000000000E+01
 p    4 1.00
 0.34697232244000E+02 0.11327220003114E-01
 0.79582622826000E+01 0.76169659202087E-01
 0.23780826883000E+01 0.30192252202676E+00
 0.81433208183000E+00 0.72785027349547E+00
 p    1 1.00
 0.28887547253000E+00 0.10000000000000E+01
 p    1 1.00
 0.10056823671000E+00 0.10000000000000E+01
 d    1 1.00
 0.10970000000000E+01 0.10000000000000E+01
 d    1 1.00
 0.31800000000000E+00 0.10000000000000E+01
 d    1 1.00
 0.90985336424000E-01 0.10000000000000E+01
 f    1 1.00
 0.76100000000000E+00 0.10000000000000E+01
 
    2 0
 s    6 1.00
 0.13575349682000E+05 0.60645503603591E-03
 0.20352333680000E+04 0.46979088884982E-02
 0.46322562359000E+03 0.24332477647552E-01
 0.13120019598000E+03 0.97399968307759E-01
 0.42853015891000E+02 0.30195584253780E+00
 0.15584185766000E+02 0.66233609137875E+00
 s    2 1.00
 0.62067138508000E+01 0.65595308539952E+00
 0.25764896527000E+01 0.37585633285142E+00
 s    1 1.00
 0.57696339419000E+00 0.10000000000000E+01
 s    1 1.00
 0.22972831358000E+00 0.10000000000000E+01
 s    1 1.00
 0.95164440028000E-01 0.10000000000000E+01
 s    1 1.00
 0.48475401370000E-01 0.10000000000000E+01
 p    4 1.00
 0.34697232244000E+02 0.11327220003114E-01
 0.79582622826000E+01 0.76169659202087E-01
 0.23780826883000E+01 0.30192252202676E+00
 0.81433208183000E+00 0.72785027349547E+00
 p    1 1.00
 0.28887547253000E+00 0.10000000000000E+01
 p    1 1.00
 0.10056823671000E+00 0.10000000000000E+01
 d    1 1.00
 0.10970000000000E+01 0.10000000000000E+01
 d    1 1.00
 0.31800000000000E+00 0.10000000000000E+01
 d    1 1.00
 0.90985336424000E-01 0.10000000000000E+01
 f    1 1.00
 0.76100000000000E+00 0.10000000000000E+01
 
    3 0
 s    6 1.00
 0.13575349682000E+05 0.60645503603591E-03
 0.20352333680000E+04 0.46979088884982E-02
 0.46322562359000E+03 0.24332477647552E-01
 0.13120019598000E+03 0.97399968307759E-01
 0.42853015891000E+02 0.30195584253780E+00
 0.15584185766000E+02 0.66233609137875E+00
 s    2 1.00
 0.62067138508000E+01 0.65595308539952E+00
 0.25764896527000E+01 0.37585633285142E+00
 s    1 1.00
 0.57696339419000E+00 0.10000000000000E+01
 s    1 1.00
 0.22972831358000E+00 0.10000000000000E+01
 s    1 1.00
 0.95164440028000E-01 0.10000000000000E+01
 s    1 1.00
 0.48475401370000E-01 0.10000000000000E+01
 p    4 1.00
 0.34697232244000E+02 0.11327220003114E-01
 0.79582622826000E+01 0.76169659202087E-01
 0.23780826883000E+01 0.30192252202676E+00
 0.81433208183000E+00 0.72785027349547E+00
 p    1 1.00
 0.28887547253000E+00 0.10000000000000E+01
 p    1 1.00
 0.10056823671000E+00 0.10000000000000E+01
 d    1 1.00
 0.10970000000000E+01 0.10000000000000E+01
 d    1 1.00
 0.31800000000000E+00 0.10000000000000E+01
 d    1 1.00
 0.90985336424000E-01 0.10000000000000E+01
 f    1 1.00
 0.76100000000000E+00 0.10000000000000E+01
 
    4 0
 s    6 1.00
 0.13575349682000E+05 0.60645503603591E-03
 0.20352333680000E+04 0.46979088884982E-02
 0.46322562359000E+03 0.24332477647552E-01
 0.13120019598000E+03 0.97399968307759E-01
 0.42853015891000E+02 0.30195584253780E+00
 0.15584185766000E+02 0.66233609137875E+00
 s    2 1.00
 0.62067138508000E+01 0.65595308539952E+00
 0.25764896527000E+01 0.37585633285142E+00
 s    1 1.00
 0.57696339419000E+00 0.10000000000000E+01
 s    1 1.00
 0.22972831358000E+00 0.10000000000000E+01
 s    1 1.00
 0.95164440028000E-01 0.10000000000000E+01
 s    1 1.00
 0.48475401370000E-01 0.10000000000000E+01
 p    4 1.00
 0.34697232244000E+02 0.11327220003114E-01
 0.79582622826000E+01 0.76169659202087E-01
 0.23780826883000E+01 0.30192252202676E+00
 0.81433208183000E+00 0.72785027349547E+00
 p    1 1.00
 0.28887547253000E+00 0.10000000000000E+01
 p    1 1.00
 0.10056823671000E+00 0.10000000000000E+01
 d    1 1.00
 0.10970000000000E+01 0.10000000000000E+01
 d    1 1.00
 0.31800000000000E+00 0.10000000000000E+01
 d    1 1.00
 0.90985336424000E-01 0.10000000000000E+01
 f    1 1.00
 0.76100000000000E+00 0.10000000000000E+01
 
    5 0
 s    6 1.00
 0.13575349682000E+05 0.60645503603591E-03
 0.20352333680000E+04 0.46979088884982E-02
 0.46322562359000E+03 0.24332477647552E-01
 0.13120019598000E+03 0.97399968307759E-01
 0.42853015891000E+02 0.30195584253780E+00
 0.15584185766000E+02 0.66233609137875E+00
 s    2 1.00
 0.62067138508000E+01 0.65595308539952E+00
 0.25764896527000E+01 0.37585633285142E+00
 s    1 1.00
 0.57696339419000E+00 0.10000000000000E+01
 s    1 1.00
 0.22972831358000E+00 0.10000000000000E+01
 s    1 1.00
 0.95164440028000E-01 0.10000000000000E+01
 s    1 1.00
 0.48475401370000E-01 0.10000000000000E+01
 p    4 1.00
 0.34697232244000E+02 0.11327220003114E-01
 0.79582622826000E+01 0.76169659202087E-01
 0.23780826883000E+01 0.30192252202676E+00
 0.81433208183000E+00 0.72785027349547E+00
 p    1 1.00
 0.28887547253000E+00 0.10000000000000E+01
 p    1 1.00
 0.10056823671000E+00 0.10000000000000E+01
 d    1 1.00
 0.10970000000000E+01 0.10000000000000E+01
 d    1 1.00
 0.31800000000000E+00 0.10000000000000E+01
 d    1 1.00
 0.90985336424000E-01 0.10000000000000E+01
 f    1 1.00
 0.76100000000000E+00 0.10000000000000E+01
 
    6 0
 s    6 1.00
 0.13575349682000E+05 0.60645503603591E-03
 0.20352333680000E+04 0.46979088884982E-02
 0.46322562359000E+03 0.24332477647552E-01
 0.13120019598000E+03 0.97399968307759E-01
 0.42853015891000E+02 0.30195584253780E+00
 0.15584185766000E+02 0.66233609137875E+00
 s    2 1.00
 0.62067138508000E+01 0.65595308539952E+00
 0.25764896527000E+01 0.37585633285142E+00
 s    1 1.00
 0.57696339419000E+00 0.10000000000000E+01
 s    1 1.00
 0.22972831358000E+00 0.10000000000000E+01
 s    1 1.00
 0.95164440028000E-01 0.10000000000000E+01
 s    1 1.00
 0.48475401370000E-01 0.10000000000000E+01
 p    4 1.00
 0.34697232244000E+02 0.11327220003114E-01
 0.79582622826000E+01 0.76169659202087E-01
 0.23780826883000E+01 0.30192252202676E+00
 0.81433208183000E+00 0.72785027349547E+00
 p    1 1.00
 0.28887547253000E+00 0.10000000000000E+01
 p    1 1.00
 0.10056823671000E+00 0.10000000000000E+01
 d    1 1.00
 0.10970000000000E+01 0.10000000000000E+01
 d    1 1.00
 0.31800000000000E+00 0.10000000000000E+01
 d    1 1.00
 0.90985336424000E-01 0.10000000000000E+01
 f    1 1.00
 0.76100000000000E+00 0.10000000000000E+01
 
    7 0
 s    3 1.00
 0.34061341000000E+02 0.25439307208879E-01
 0.51235746000000E+01 0.19008594890375E+00
 0.11646626000000E+01 0.85244113011042E+00
 s    1 1.00
 0.32723041000000E+00 0.10000000000000E+01
 s    1 1.00
 0.10307241000000E+00 0.10000000000000E+01
 p    1 1.00
 0.80000000000000E+00 0.10000000000000E+01
 p    1 1.00
 0.95774129632000E-01 0.10000000000000E+01
 
    8 0
 s    3 1.00
 0.34061341000000E+02 0.25439307208879E-01
 0.51235746000000E+01 0.19008594890375E+00
 0.11646626000000E+01 0.85244113011042E+00
 s    1 1.00
 0.32723041000000E+00 0.10000000000000E+01
 s    1 1.00
 0.10307241000000E+00 0.10000000000000E+01
 p    1 1.00
 0.80000000000000E+00 0.10000000000000E+01
 p    1 1.00
 0.95774129632000E-01 0.10000000000000E+01
 
    9 0
 s    3 1.00
 0.34061341000000E+02 0.25439307208879E-01
 0.51235746000000E+01 0.19008594890375E+00
 0.11646626000000E+01 0.85244113011042E+00
 s    1 1.00
 0.32723041000000E+00 0.10000000000000E+01
 s    1 1.00
 0.10307241000000E+00 0.10000000000000E+01
 p    1 1.00
 0.80000000000000E+00 0.10000000000000E+01
 p    1 1.00
 0.95774129632000E-01 0.10000000000000E+01
 
   10 0
 s    3 1.00
 0.34061341000000E+02 0.25439307208879E-01
 0.51235746000000E+01 0.19008594890375E+00
 0.11646626000000E+01 0.85244113011042E+00
 s    1 1.00
 0.32723041000000E+00 0.10000000000000E+01
 s    1 1.00
 0.10307241000000E+00 0.10000000000000E+01
 p    1 1.00
 0.80000000000000E+00 0.10000000000000E+01
 p    1 1.00
 0.95774129632000E-01 0.10000000000000E+01
 
   11 0
 s    6 1.00
 0.19730800647000E+05 0.58626402628763E-03
 0.29578958745000E+04 0.45428820586397E-02
 0.67322133595000E+03 0.23558413450084E-01
 0.19068249494000E+03 0.94709193292923E-01
 0.62295441898000E+02 0.29719784913376E+00
 0.22654161182000E+02 0.66916246895232E+00
 s    2 1.00
 0.89791477428000E+01 0.64596683630063E+00
 0.36863002370000E+01 0.38700574393705E+00
 s    1 1.00
 0.84660076805000E+00 0.10000000000000E+01
 s    1 1.00
 0.33647133771000E+00 0.10000000000000E+01
 s    1 1.00
 0.13647653675000E+00 0.10000000000000E+01
 s    1 1.00
 0.68441605847000E-01 0.10000000000000E+01
 p    4 1.00
 0.49200380510000E+02 0.11448825101764E-01
 0.11346790537000E+02 0.78422337970864E-01
 0.34273972411000E+01 0.30818094738830E+00
 0.11785525134000E+01 0.72027196368413E+00
 p    1 1.00
 0.41642204972000E+00 0.10000000000000E+01
 p    1 1.00
 0.14260826011000E+00 0.10000000000000E+01
 d    1 1.00
 0.16540000000000E+01 0.10000000000000E+01
 d    1 1.00
 0.46900000000000E+00 0.10000000000000E+01
 d    1 1.00
 0.12829642058000E+00 0.10000000000000E+01
 f    1 1.00
 0.10930000000000E+01 0.10000000000000E+01
 
   12 0
 s    6 1.00
 0.27032382631000E+05 0.57227335211155E-03
 0.40523871392000E+04 0.44353233492995E-02
 0.92232722710000E+03 0.23020107706038E-01
 0.26124070989000E+03 0.92822490667928E-01
 0.85354641351000E+02 0.29378500009671E+00
 0.31035035245000E+02 0.67401604501641E+00
 s    2 1.00
 0.12260860728000E+02 0.63839937025506E+00
 0.49987076005000E+01 0.39534587125718E+00
 s    1 1.00
 0.11703108158000E+01 0.10000000000000E+01
 s    1 1.00
 0.46474740994000E+00 0.10000000000000E+01
 s    1 1.00
 0.18504536357000E+00 0.10000000000000E+01
 s    1 1.00
 0.70288026270000E-01 0.10000000000000E+01
 p    4 1.00
 0.63274954801000E+02 0.12018332222616E-01
 0.14627049379000E+02 0.83005421790056E-01
 0.44501223456000E+01 0.31991743925964E+00
 0.15275799647000E+01 0.70715542916104E+00
 p    1 1.00
 0.52935117943000E+00 0.10000000000000E+01
 p    1 1.00
 0.17478421270000E+00 0.10000000000000E+01
 p    1 1.00
 0.51112745706000E-01 0.10000000000000E+01
 d    1 1.00
 0.23140000000000E+01 0.10000000000000E+01
 d    1 1.00
 0.64500000000000E+00 0.10000000000000E+01
 d    1 1.00
 0.14696477366000E+00 0.10000000000000E+01
 f    1 1.00
 0.14280000000000E+01 0.10000000000000E+01
 
   13 0
 s    6 1.00
 0.27032382631000E+05 0.57227335211155E-03
 0.40523871392000E+04 0.44353233492995E-02
 0.92232722710000E+03 0.23020107706038E-01
 0.26124070989000E+03 0.92822490667928E-01
 0.85354641351000E+02 0.29378500009671E+00
 0.31035035245000E+02 0.67401604501641E+00
 s    2 1.00
 0.12260860728000E+02 0.63839937025506E+00
 0.49987076005000E+01 0.39534587125718E+00
 s    1 1.00
 0.11703108158000E+01 0.10000000000000E+01
 s    1 1.00
 0.46474740994000E+00 0.10000000000000E+01
 s    1 1.00
 0.18504536357000E+00 0.10000000000000E+01
 s    1 1.00
 0.70288026270000E-01 0.10000000000000E+01
 p    4 1.00
 0.63274954801000E+02 0.12018332222616E-01
 0.14627049379000E+02 0.83005421790056E-01
 0.44501223456000E+01 0.31991743925964E+00
 0.15275799647000E+01 0.70715542916104E+00
 p    1 1.00
 0.52935117943000E+00 0.10000000000000E+01
 p    1 1.00
 0.17478421270000E+00 0.10000000000000E+01
 p    1 1.00
 0.51112745706000E-01 0.10000000000000E+01
 d    1 1.00
 0.23140000000000E+01 0.10000000000000E+01
 d    1 1.00
 0.64500000000000E+00 0.10000000000000E+01
 d    1 1.00
 0.14696477366000E+00 0.10000000000000E+01
 f    1 1.00
 0.14280000000000E+01 0.10000000000000E+01
 
   14 0
 s    6 1.00
 0.19730800647000E+05 0.58626402628763E-03
 0.29578958745000E+04 0.45428820586397E-02
 0.67322133595000E+03 0.23558413450084E-01
 0.19068249494000E+03 0.94709193292923E-01
 0.62295441898000E+02 0.29719784913376E+00
 0.22654161182000E+02 0.66916246895232E+00
 s    2 1.00
 0.89791477428000E+01 0.64596683630063E+00
 0.36863002370000E+01 0.38700574393705E+00
 s    1 1.00
 0.84660076805000E+00 0.10000000000000E+01
 s    1 1.00
 0.33647133771000E+00 0.10000000000000E+01
 s    1 1.00
 0.13647653675000E+00 0.10000000000000E+01
 s    1 1.00
 0.68441605847000E-01 0.10000000000000E+01
 p    4 1.00
 0.49200380510000E+02 0.11448825101764E-01
 0.11346790537000E+02 0.78422337970864E-01
 0.34273972411000E+01 0.30818094738830E+00
 0.11785525134000E+01 0.72027196368413E+00
 p    1 1.00
 0.41642204972000E+00 0.10000000000000E+01
 p    1 1.00
 0.14260826011000E+00 0.10000000000000E+01
 d    1 1.00
 0.16540000000000E+01 0.10000000000000E+01
 d    1 1.00
 0.46900000000000E+00 0.10000000000000E+01
 d    1 1.00
 0.12829642058000E+00 0.10000000000000E+01
 f    1 1.00
 0.10930000000000E+01 0.10000000000000E+01
 
   15 0
 s    3 1.00
 0.34061341000000E+02 0.25439307208879E-01
 0.51235746000000E+01 0.19008594890375E+00
 0.11646626000000E+01 0.85244113011042E+00
 s    1 1.00
 0.32723041000000E+00 0.10000000000000E+01
 s    1 1.00
 0.10307241000000E+00 0.10000000000000E+01
 p    1 1.00
 0.80000000000000E+00 0.10000000000000E+01
 p    1 1.00
 0.95774129632000E-01 0.10000000000000E+01
 
   16 0
 s    3 1.00
 0.34061341000000E+02 0.25439307208879E-01
 0.51235746000000E+01 0.19008594890375E+00
 0.11646626000000E+01 0.85244113011042E+00
 s    1 1.00
 0.32723041000000E+00 0.10000000000000E+01
 s    1 1.00
 0.10307241000000E+00 0.10000000000000E+01
 p    1 1.00
 0.80000000000000E+00 0.10000000000000E+01
 p    1 1.00
 0.95774129632000E-01 0.10000000000000E+01
 
[MO]
 Sym= X
 Ene= -0.899627
 Spin= Alpha
 Occup= -0.899627
         1   -8.752655E-04
         2   -2.026303E-03
         3   -1.138887E-03
         4    3.541167E-02
         5    2.575096E-01
         6   -3.944733E-02
         7    1.870825E-02
         8   -3.748702E-02
         9    4.423303E-05
        10    1.718880E-03
        11   -3.403596E-02
        12    4.517823E-05
        13    9.962801E-03
        14   -8.071326E-02
        15    1.382112E-04
        16   -1.855940E-03
        17    2.070966E-03
        18   -2.150267E-04
        19   -1.185738E-04
        20   -9.241999E-07
        21   -6.093187E-07
        22    3.127047E-03
        23   -1.672005E-05
        24   -3.110327E-03
        25   -7.046356E-04
        26    2.614793E-06
        27   -5.482892E-06
        28    1.862390E-04
        29    1.103622E-03
        30   -1.289861E-03
        31    1.390502E-02
        32   -2.352129E-05
        33    3.640622E-05
        34   -1.613516E-04
        35   -4.216791E-04
        36   -4.521036E-07
        37    1.734446E-04
        38    4.687260E-04
        39    3.623100E-07
        40    4.303124E-05
        41    9.701588E-05
        42    2.442507E-07
        43    9.348315E-07
        44    1.378364E-02
        45    3.114296E-02
        46   -4.559747E-02
        47   -8.300447E-02
        48   -1.848646E-01
        49    3.705127E-02
        50   -1.336528E-01
        51    1.135768E-09
        52   -1.622784E-04
        53   -9.964774E-02
        54   -4.037348E-07
        55   -1.061617E-04
        56    8.743269E-02
        57    6.269697E-06
        58    3.315984E-04
        59   -4.908639E-03
        60    4.186382E-03
        61    7.222571E-04
        62   -1.633853E-08
        63   -1.603808E-05
        64    3.560875E-07
        65   -7.678374E-04
        66    4.401073E-04
        67    3.277301E-04
        68   -9.874863E-08
        69    1.435153E-07
        70    1.381010E-06
        71    3.968200E-02
        72   -4.005817E-02
        73    3.761646E-04
        74    1.325118E-06
        75    1.095531E-04
        76   -1.281801E-05
        77   -1.046044E-03
        78   -8.183671E-10
        79    1.917373E-06
        80    8.350494E-04
        81    3.038006E-09
        82   -4.723949E-06
        83    5.683656E-04
        84   -1.940051E-09
        85    2.151523E-06
        86   -9.348428E-08
        87   -8.751896E-04
        88   -2.026138E-03
        89   -1.139300E-03
        90    3.541448E-02
        91    2.574905E-01
        92   -3.945123E-02
        93    1.870788E-02
        94    3.748733E-02
        95    2.240515E-05
        96    1.716886E-03
        97    3.403584E-02
        98    2.451572E-05
        99    9.979428E-03
       100    8.071251E-02
       101    1.443067E-04
       102   -1.855889E-03
       103    2.070936E-03
       104   -2.150466E-04
       105    1.185849E-04
       106   -3.086058E-07
       107    5.449975E-07
       108    3.127263E-03
       109   -1.687982E-05
       110   -3.110383E-03
       111    7.046144E-04
       112    4.004488E-06
       113    5.822492E-06
       114    1.870555E-04
       115    1.101736E-03
       116   -1.288792E-03
       117   -1.390197E-02
       118   -5.256356E-05
       119   -5.675612E-05
       120   -1.613572E-04
       121    4.216917E-04
       122   -3.758013E-07
       123    1.734494E-04
       124   -4.687323E-04
       125    2.282729E-07
       126    4.303401E-05
       127   -9.702653E-05
       128    2.759175E-07
       129   -8.900285E-07
       130    1.689100E-03
       131    3.840197E-03
       132   -3.023013E-03
       133   -3.289219E-02
       134   -1.153263E-01
       135    3.296786E-02
       136   -2.004131E-02
       137   -8.032433E-03
       138   -5.579974E-05
       139   -3.281970E-02
       140   -6.963369E-03
       141   -7.997799E-05
       142   -3.816484E-02
       143   -4.830452E-02
       144   -2.480891E-04
       145   -5.670698E-04
       146    4.568057E-04
       147    1.102641E-04
       148    1.352517E-03
       149    3.587447E-07
       150    1.517013E-06
       151   -3.821275E-03
       152    1.685218E-03
       153    2.136057E-03
       154    2.157843E-03
       155   -1.375273E-05
       156   -6.410046E-06
       157   -5.470167E-03
       158    5.336284E-03
       159    1.338822E-04
       160   -1.913220E-02
       161   -1.042198E-04
       162   -3.780871E-05
       163   -2.467192E-04
       164   -2.300877E-04
       165    7.458626E-07
       166    1.664352E-04
       167    3.106013E-04
       168   -8.205042E-07
       169    1.645734E-04
       170   -1.906234E-06
       171   -1.801754E-07
       172    1.220730E-07
       173    1.907113E-03
       174    4.377928E-03
       175   -8.889730E-03
       176   -5.050366E-04
       177   -3.610809E-02
       178   -3.552769E-02
       179   -6.233868E-03
       180    3.282742E-07
       181   -7.567730E-06
       182   -3.254851E-03
       183    7.007775E-08
       184   -5.499256E-05
       185    2.246352E-02
       186    8.455118E-06
       187   -1.158776E-04
       188   -2.649648E-04
       189    2.585352E-04
       190    6.429656E-06
       191    5.521612E-09
       192   -2.521650E-06
       193    4.593186E-07
       194    4.065311E-04
       195    4.161853E-04
       196   -8.227164E-04
       197   -1.040603E-08
       198    1.491940E-05
       199    1.013916E-06
       200   -1.351564E-02
       201    1.422878E-02
       202   -7.131418E-04
       203    3.693604E-06
       204    2.416352E-04
       205    1.602375E-05
       206    3.023058E-05
       207   -3.388722E-09
       208    3.807977E-07
       209   -4.166125E-05
       210    1.092903E-09
       211   -6.557023E-07
       212    1.102674E-06
       213    3.453545E-09
       214    1.448085E-07
       215    6.764680E-08
       216    1.689163E-03
       217    3.840342E-03
       218   -3.023547E-03
       219   -3.288971E-02
       220   -1.153910E-01
       221    3.296629E-02
       222   -2.004177E-02
       223    8.032108E-03
       224   -3.122421E-05
       225   -3.281867E-02
       226    6.962782E-03
       227   -5.496563E-05
       228   -3.817473E-02
       229    4.831538E-02
       230   -2.215760E-04
       231   -5.670860E-04
       232    4.568324E-04
       233    1.102536E-04
       234   -1.352505E-03
       235    8.488160E-07
       236   -1.555041E-06
       237   -3.820966E-03
       238    1.684999E-03
       239    2.135967E-03
       240   -2.157583E-03
       241   -1.224270E-05
       242    6.159108E-06
       243   -5.466347E-03
       244    5.331371E-03
       245    1.349755E-04
       246    1.913352E-02
       247   -7.488063E-05
       248    5.384939E-05
       249   -2.467111E-04
       250    2.300841E-04
       251    5.758717E-07
       252    1.664241E-04
       253   -3.105978E-04
       254   -6.237217E-07
       255    1.645736E-04
       256    1.907494E-06
       257   -1.488912E-07
       258   -1.101849E-07
       259   -3.897044E-03
       260   -5.046049E-03
       261   -1.924967E-02
       262    2.002970E-03
       263    6.181356E-04
       264    5.789209E-06
       265    6.838448E-03
       266    3.825971E-04
       267   -4.904873E-07
       268   -3.897329E-03
       269   -5.046668E-03
       270   -1.924289E-02
       271    2.002982E-03
       272   -6.182055E-04
       273    5.046105E-06
       274    6.837443E-03
       275   -3.836746E-04
       276   -1.138879E-05
       277    9.696995E-03
       278    1.584877E-02
       279    1.646300E-02
       280   -6.594065E-05
       281    1.441654E-03
       282    2.121069E-06
       283   -7.156765E-03
       284    2.828722E-03
       285   -7.593299E-05
       286    9.696927E-03
       287    1.584906E-02
       288    1.647634E-02
       289   -6.598211E-05
       290   -1.441615E-03
       291    2.731193E-06
       292   -7.151976E-03
       293   -2.826728E-03
       294   -7.597169E-05
       295    1.886308E-03
       296    4.316652E-03
       297   -2.570809E-03
       298   -3.008393E-02
       299   -1.598377E-01
       300    1.621136E-02
       301    1.070224E-01
       302    9.949854E-08
       303    2.380157E-04
       304    9.979574E-02
       305   -3.363232E-07
       306    2.241685E-04
       307    1.017453E-01
       308    1.071750E-06
       309    1.998287E-04
       310   -1.169363E-02
       311    1.296831E-02
       312   -1.274678E-03
       313    6.152054E-08
       314   -2.972762E-05
       315   -5.338981E-07
       316   -3.325560E-02
       317    3.456115E-02
       318   -1.305547E-03
       319    1.063513E-07
       320   -8.972904E-05
       321   -1.659686E-06
       322    1.407577E-02
       323   -4.441217E-03
       324   -9.634556E-03
       325    8.994233E-07
       326    6.879659E-05
       327   -1.186871E-06
       328   -8.108646E-05
       329   -1.156093E-08
       330   -1.057103E-06
       331    3.361749E-04
       332    1.576760E-08
       333    9.622709E-07
       334   -2.273860E-04
       335   -2.569835E-10
       336    4.559820E-07
       337   -7.913164E-08
       338   -8.993177E-04
       339   -2.301345E-03
       340    2.737489E-03
       341   -7.426427E-03
       342   -3.942221E-03
       343   -2.087105E-02
       344   -3.096186E-01
       345   -6.251108E-02
       346   -7.428715E-04
       347   -2.725015E-01
       348   -5.995423E-02
       349   -6.552207E-04
       350   -2.055145E-01
       351   -5.117114E-02
       352   -4.934708E-04
       353   -1.586424E-02
       354   -9.008823E-03
       355   -3.379513E-05
       356    9.844951E-04
       357   -2.313248E-04
       358   -7.531702E-04
       359   -2.615332E-03
       360    4.619438E-06
       361   -6.428875E-06
       362    3.894197E-03
       363   -1.752423E-03
       364   -2.141774E-03
       365   -5.971908E-03
       366    1.580719E-05
       367   -1.515629E-05
       368    4.263090E-03
       369   -3.507800E-03
       370   -7.552902E-04
       371   -6.095613E-03
       372    4.505581E-06
       373   -1.776198E-05
       374    2.778885E-04
       375   -5.322022E-04
       376    1.287699E-06
       377   -6.039534E-04
       378    9.699209E-04
       379   -2.201239E-07
       380    2.311269E-04
       381   -2.558967E-04
       382   -1.507506E-06
       383    3.367188E-06
       384   -8.993109E-04
       385   -2.301327E-03
       386    2.737410E-03
       387   -7.426514E-03
       388   -3.944700E-03
       389   -2.087365E-02
       390   -3.096159E-01
       391    6.250882E-02
       392   -7.547713E-04
       393   -2.724990E-01
       394    5.995217E-02
       395   -6.675611E-04
       396   -2.055130E-01
       397    5.116893E-02
       398   -4.902554E-04
       399   -1.586327E-02
       400    9.008487E-03
       401   -3.769381E-05
       402    9.844746E-04
       403   -2.313105E-04
       404   -7.531641E-04
       405    2.615331E-03
       406    4.618416E-06
       407    6.484092E-06
       408    3.894146E-03
       409   -1.752334E-03
       410   -2.141813E-03
       411    5.971978E-03
       412    1.607671E-05
       413    1.497662E-05
       414    4.262970E-03
       415   -3.507676E-03
       416   -7.552937E-04
       417    6.096222E-03
       418    1.052841E-05
       419    1.195623E-05
       420    2.778899E-04
       421    5.321944E-04
       422    1.194882E-06
       423   -6.039547E-04
       424   -9.699145E-04
       425   -7.416498E-08
       426    2.311262E-04
       427    2.559008E-04
       428   -1.528937E-06
       429   -3.399210E-06
       430    3.605853E-04
       431    8.525566E-04
       432   -1.078731E-03
       433   -4.931121E-03
       434    1.790155E-02
       435    2.281871E-02
       436    2.473157E-04
       437   -4.582662E-08
       438   -1.255519E-05
       439   -7.667270E-04
       440    1.023257E-07
       441    5.749239E-07
       442    6.620498E-04
       443   -2.974234E-07
       444    2.313343E-04
       445   -2.994744E-05
       446    2.338383E-05
       447    6.563611E-06
       448    1.776127E-09
       449    3.821016E-06
       450    2.026986E-08
       451   -1.371037E-04
       452    2.821221E-04
       453   -1.450184E-04
       454    8.742123E-09
       455   -9.998588E-06
       456    2.466584E-08
       457   -6.358884E-04
       458    3.308463E-04
       459    3.050421E-04
       460   -4.547724E-07
       461    6.381176E-05
       462   -8.053030E-07
       463   -4.158616E-07
       464   -2.190305E-09
       465   -2.713426E-06
       466    1.050263E-05
       467    1.799126E-09
       468   -8.348545E-08
       469   -9.944689E-06
       470    1.139476E-09
       471    3.723928E-06
       472    9.191718E-09
       473   -8.178711E-05
       474   -6.883057E-04
       475    1.560528E-03
       476   -3.643072E-05
       477   -1.838854E-04
       478    3.131773E-05
       479    1.828286E-03
       480    7.858469E-04
       481    3.312885E-04
       482   -8.180370E-05
       483   -6.881033E-04
       484    1.560113E-03
       485   -3.638498E-05
       486    1.839162E-04
       487    3.145195E-05
       488    1.829616E-03
       489   -7.837112E-04
       490    3.330135E-04
 Sym= X
 Ene= 0.899627
 Spin= Alpha
 Occup= 0.899627
         1    1.974984E-05
         2    4.726638E-05
         3   -1.634081E-04
         4    2.613315E-04
         5    3.226466E-02
         6    7.673078E-05
         7    2.352883E-04
         8    7.639967E-05
         9   -9.921349E-02
        10    2.435076E-04
        11    3.000099E-05
        12   -9.884949E-02
        13   -2.324358E-02
        14    1.804093E-02
        15   -5.600663E-02
        16   -6.743733E-06
        17    2.334221E-06
        18    4.409512E-06
        19   -3.688726E-06
        20   -2.434564E-04
        21    4.963133E-04
        22    1.212882E-04
        23   -4.233474E-05
        24   -7.895348E-05
        25    2.759382E-05
        26   -4.794945E-03
        27   -4.820852E-04
        28    7.458203E-03
        29   -7.961581E-03
        30    5.033776E-04
        31    1.185064E-04
        32   -4.856242E-03
        33   -1.674292E-02
        34   -3.854336E-06
        35    1.461574E-06
        36    1.763676E-04
        37    4.468128E-06
        38    1.501690E-08
        39    1.257773E-04
        40    7.030069E-07
        41   -1.975924E-06
        42   -3.623993E-04
        43   -5.251947E-05
        44    5.598684E-06
        45    8.995355E-06
        46    9.637017E-05
        47   -1.849023E-03
        48    6.972171E-02
        49    6.308377E-03
        50    3.507840E-06
        51   -6.374782E-07
        52    6.606131E-03
        53    2.473280E-04
        54    1.252977E-05
        55    3.219208E-03
        56   -2.370515E-02
        57    2.480020E-04
        58   -6.124561E-02
        59   -3.560889E-05
        60   -3.850566E-06
        61    3.945946E-05
        62    3.611324E-07