[Molden Format]
[Title]
ADC(2) - opt by CAM-B3LYP gaussian                                              
[Atoms] AU
 c     1    6 0.12589710753986E+01 0.22825551554713E+01 -.28105798744860E-01
 c     2    6 0.25558923691721E+01 0.80431469000000E-06 -.26811997747980E-01
 c     3    6 0.12589700738438E+01 -.22825573262942E+01 -.28139341383720E-01
 c     4    6 -.13331755585332E+01 -.22837561874501E+01 -.30470167390540E-01
 c     5    6 -.26866009864883E+01 0.27696298600000E-05 -.30311128039200E-01
 c     6    6 -.13331783742251E+01 0.22837572858534E+01 -.30432977580250E-01
 h     7    1 0.22993222678978E+01 0.40366379181686E+01 -.25216785432900E-01
 h     8    1 0.22993197734593E+01 -.40366408826765E+01 -.25273722881290E-01
 h     9    1 -.23520966897676E+01 -.40562070503646E+01 -.33235309154490E-01
 h    10    1 -.23520900190344E+01 0.40562136478709E+01 -.33159965773570E-01
 n    11    7 0.52762255328692E+01 0.25629411000000E-06 -.20783601308720E-01
 o    12    8 0.63803680214636E+01 -.20270720034092E+01 -.18188232540560E-01
 o    13    8 0.63803692875801E+01 0.20270718545932E+01 -.18282964511600E-01
 n    14    7 -.52484248103301E+01 -.66967170000000E-06 -.81289589624650E-01
 h    15    1 -.62019351690707E+01 -.16149791988436E+01 0.21484054874156E+00
 h    16    1 -.62019367942352E+01 0.16149736265137E+01 0.21486103337284E+00
[GTO]
    1 0
 s    6 1.00
 0.13575349682000E+05 0.60645503603591E-03
 0.20352333680000E+04 0.46979088884982E-02
 0.46322562359000E+03 0.24332477647552E-01
 0.13120019598000E+03 0.97399968307759E-01
 0.42853015891000E+02 0.30195584253780E+00
 0.15584185766000E+02 0.66233609137875E+00
 s    2 1.00
 0.62067138508000E+01 0.65595308539952E+00
 0.25764896527000E+01 0.37585633285142E+00
 s    1 1.00
 0.57696339419000E+00 0.10000000000000E+01
 s    1 1.00
 0.22972831358000E+00 0.10000000000000E+01
 s    1 1.00
 0.95164440028000E-01 0.10000000000000E+01
 s    1 1.00
 0.48475401370000E-01 0.10000000000000E+01
 p    4 1.00
 0.34697232244000E+02 0.11327220003114E-01
 0.79582622826000E+01 0.76169659202087E-01
 0.23780826883000E+01 0.30192252202676E+00
 0.81433208183000E+00 0.72785027349547E+00
 p    1 1.00
 0.28887547253000E+00 0.10000000000000E+01
 p    1 1.00
 0.10056823671000E+00 0.10000000000000E+01
 d    1 1.00
 0.10970000000000E+01 0.10000000000000E+01
 d    1 1.00
 0.31800000000000E+00 0.10000000000000E+01
 d    1 1.00
 0.90985336424000E-01 0.10000000000000E+01
 f    1 1.00
 0.76100000000000E+00 0.10000000000000E+01
 
    2 0
 s    6 1.00
 0.13575349682000E+05 0.60645503603591E-03
 0.20352333680000E+04 0.46979088884982E-02
 0.46322562359000E+03 0.24332477647552E-01
 0.13120019598000E+03 0.97399968307759E-01
 0.42853015891000E+02 0.30195584253780E+00
 0.15584185766000E+02 0.66233609137875E+00
 s    2 1.00
 0.62067138508000E+01 0.65595308539952E+00
 0.25764896527000E+01 0.37585633285142E+00
 s    1 1.00
 0.57696339419000E+00 0.10000000000000E+01
 s    1 1.00
 0.22972831358000E+00 0.10000000000000E+01
 s    1 1.00
 0.95164440028000E-01 0.10000000000000E+01
 s    1 1.00
 0.48475401370000E-01 0.10000000000000E+01
 p    4 1.00
 0.34697232244000E+02 0.11327220003114E-01
 0.79582622826000E+01 0.76169659202087E-01
 0.23780826883000E+01 0.30192252202676E+00
 0.81433208183000E+00 0.72785027349547E+00
 p    1 1.00
 0.28887547253000E+00 0.10000000000000E+01
 p    1 1.00
 0.10056823671000E+00 0.10000000000000E+01
 d    1 1.00
 0.10970000000000E+01 0.10000000000000E+01
 d    1 1.00
 0.31800000000000E+00 0.10000000000000E+01
 d    1 1.00
 0.90985336424000E-01 0.10000000000000E+01
 f    1 1.00
 0.76100000000000E+00 0.10000000000000E+01
 
    3 0
 s    6 1.00
 0.13575349682000E+05 0.60645503603591E-03
 0.20352333680000E+04 0.46979088884982E-02
 0.46322562359000E+03 0.24332477647552E-01
 0.13120019598000E+03 0.97399968307759E-01
 0.42853015891000E+02 0.30195584253780E+00
 0.15584185766000E+02 0.66233609137875E+00
 s    2 1.00
 0.62067138508000E+01 0.65595308539952E+00
 0.25764896527000E+01 0.37585633285142E+00
 s    1 1.00
 0.57696339419000E+00 0.10000000000000E+01
 s    1 1.00
 0.22972831358000E+00 0.10000000000000E+01
 s    1 1.00
 0.95164440028000E-01 0.10000000000000E+01
 s    1 1.00
 0.48475401370000E-01 0.10000000000000E+01
 p    4 1.00
 0.34697232244000E+02 0.11327220003114E-01
 0.79582622826000E+01 0.76169659202087E-01
 0.23780826883000E+01 0.30192252202676E+00
 0.81433208183000E+00 0.72785027349547E+00
 p    1 1.00
 0.28887547253000E+00 0.10000000000000E+01
 p    1 1.00
 0.10056823671000E+00 0.10000000000000E+01
 d    1 1.00
 0.10970000000000E+01 0.10000000000000E+01
 d    1 1.00
 0.31800000000000E+00 0.10000000000000E+01
 d    1 1.00
 0.90985336424000E-01 0.10000000000000E+01
 f    1 1.00
 0.76100000000000E+00 0.10000000000000E+01
 
    4 0
 s    6 1.00
 0.13575349682000E+05 0.60645503603591E-03
 0.20352333680000E+04 0.46979088884982E-02
 0.46322562359000E+03 0.24332477647552E-01
 0.13120019598000E+03 0.97399968307759E-01
 0.42853015891000E+02 0.30195584253780E+00
 0.15584185766000E+02 0.66233609137875E+00
 s    2 1.00
 0.62067138508000E+01 0.65595308539952E+00
 0.25764896527000E+01 0.37585633285142E+00
 s    1 1.00
 0.57696339419000E+00 0.10000000000000E+01
 s    1 1.00
 0.22972831358000E+00 0.10000000000000E+01
 s    1 1.00
 0.95164440028000E-01 0.10000000000000E+01
 s    1 1.00
 0.48475401370000E-01 0.10000000000000E+01
 p    4 1.00
 0.34697232244000E+02 0.11327220003114E-01
 0.79582622826000E+01 0.76169659202087E-01
 0.23780826883000E+01 0.30192252202676E+00
 0.81433208183000E+00 0.72785027349547E+00
 p    1 1.00
 0.28887547253000E+00 0.10000000000000E+01
 p    1 1.00
 0.10056823671000E+00 0.10000000000000E+01
 d    1 1.00
 0.10970000000000E+01 0.10000000000000E+01
 d    1 1.00
 0.31800000000000E+00 0.10000000000000E+01
 d    1 1.00
 0.90985336424000E-01 0.10000000000000E+01
 f    1 1.00
 0.76100000000000E+00 0.10000000000000E+01
 
    5 0
 s    6 1.00
 0.13575349682000E+05 0.60645503603591E-03
 0.20352333680000E+04 0.46979088884982E-02
 0.46322562359000E+03 0.24332477647552E-01
 0.13120019598000E+03 0.97399968307759E-01
 0.42853015891000E+02 0.30195584253780E+00
 0.15584185766000E+02 0.66233609137875E+00
 s    2 1.00
 0.62067138508000E+01 0.65595308539952E+00
 0.25764896527000E+01 0.37585633285142E+00
 s    1 1.00
 0.57696339419000E+00 0.10000000000000E+01
 s    1 1.00
 0.22972831358000E+00 0.10000000000000E+01
 s    1 1.00
 0.95164440028000E-01 0.10000000000000E+01
 s    1 1.00
 0.48475401370000E-01 0.10000000000000E+01
 p    4 1.00
 0.34697232244000E+02 0.11327220003114E-01
 0.79582622826000E+01 0.76169659202087E-01
 0.23780826883000E+01 0.30192252202676E+00
 0.81433208183000E+00 0.72785027349547E+00
 p    1 1.00
 0.28887547253000E+00 0.10000000000000E+01
 p    1 1.00
 0.10056823671000E+00 0.10000000000000E+01
 d    1 1.00
 0.10970000000000E+01 0.10000000000000E+01
 d    1 1.00
 0.31800000000000E+00 0.10000000000000E+01
 d    1 1.00
 0.90985336424000E-01 0.10000000000000E+01
 f    1 1.00
 0.76100000000000E+00 0.10000000000000E+01
 
    6 0
 s    6 1.00
 0.13575349682000E+05 0.60645503603591E-03
 0.20352333680000E+04 0.46979088884982E-02
 0.46322562359000E+03 0.24332477647552E-01
 0.13120019598000E+03 0.97399968307759E-01
 0.42853015891000E+02 0.30195584253780E+00
 0.15584185766000E+02 0.66233609137875E+00
 s    2 1.00
 0.62067138508000E+01 0.65595308539952E+00
 0.25764896527000E+01 0.37585633285142E+00
 s    1 1.00
 0.57696339419000E+00 0.10000000000000E+01
 s    1 1.00
 0.22972831358000E+00 0.10000000000000E+01
 s    1 1.00
 0.95164440028000E-01 0.10000000000000E+01
 s    1 1.00
 0.48475401370000E-01 0.10000000000000E+01
 p    4 1.00
 0.34697232244000E+02 0.11327220003114E-01
 0.79582622826000E+01 0.76169659202087E-01
 0.23780826883000E+01 0.30192252202676E+00
 0.81433208183000E+00 0.72785027349547E+00
 p    1 1.00
 0.28887547253000E+00 0.10000000000000E+01
 p    1 1.00
 0.10056823671000E+00 0.10000000000000E+01
 d    1 1.00
 0.10970000000000E+01 0.10000000000000E+01
 d    1 1.00
 0.31800000000000E+00 0.10000000000000E+01
 d    1 1.00
 0.90985336424000E-01 0.10000000000000E+01
 f    1 1.00
 0.76100000000000E+00 0.10000000000000E+01
 
    7 0
 s    3 1.00
 0.34061341000000E+02 0.25439307208879E-01
 0.51235746000000E+01 0.19008594890375E+00
 0.11646626000000E+01 0.85244113011042E+00
 s    1 1.00
 0.32723041000000E+00 0.10000000000000E+01
 s    1 1.00
 0.10307241000000E+00 0.10000000000000E+01
 p    1 1.00
 0.80000000000000E+00 0.10000000000000E+01
 p    1 1.00
 0.95774129632000E-01 0.10000000000000E+01
 
    8 0
 s    3 1.00
 0.34061341000000E+02 0.25439307208879E-01
 0.51235746000000E+01 0.19008594890375E+00
 0.11646626000000E+01 0.85244113011042E+00
 s    1 1.00
 0.32723041000000E+00 0.10000000000000E+01
 s    1 1.00
 0.10307241000000E+00 0.10000000000000E+01
 p    1 1.00
 0.80000000000000E+00 0.10000000000000E+01
 p    1 1.00
 0.95774129632000E-01 0.10000000000000E+01
 
    9 0
 s    3 1.00
 0.34061341000000E+02 0.25439307208879E-01
 0.51235746000000E+01 0.19008594890375E+00
 0.11646626000000E+01 0.85244113011042E+00
 s    1 1.00
 0.32723041000000E+00 0.10000000000000E+01
 s    1 1.00
 0.10307241000000E+00 0.10000000000000E+01
 p    1 1.00
 0.80000000000000E+00 0.10000000000000E+01
 p    1 1.00
 0.95774129632000E-01 0.10000000000000E+01
 
   10 0
 s    3 1.00
 0.34061341000000E+02 0.25439307208879E-01
 0.51235746000000E+01 0.19008594890375E+00
 0.11646626000000E+01 0.85244113011042E+00
 s    1 1.00
 0.32723041000000E+00 0.10000000000000E+01
 s    1 1.00
 0.10307241000000E+00 0.10000000000000E+01
 p    1 1.00
 0.80000000000000E+00 0.10000000000000E+01
 p    1 1.00
 0.95774129632000E-01 0.10000000000000E+01
 
   11 0
 s    6 1.00
 0.19730800647000E+05 0.58626402628763E-03
 0.29578958745000E+04 0.45428820586397E-02
 0.67322133595000E+03 0.23558413450084E-01
 0.19068249494000E+03 0.94709193292923E-01
 0.62295441898000E+02 0.29719784913376E+00
 0.22654161182000E+02 0.66916246895232E+00
 s    2 1.00
 0.89791477428000E+01 0.64596683630063E+00
 0.36863002370000E+01 0.38700574393705E+00
 s    1 1.00
 0.84660076805000E+00 0.10000000000000E+01
 s    1 1.00
 0.33647133771000E+00 0.10000000000000E+01
 s    1 1.00
 0.13647653675000E+00 0.10000000000000E+01
 s    1 1.00
 0.68441605847000E-01 0.10000000000000E+01
 p    4 1.00
 0.49200380510000E+02 0.11448825101764E-01
 0.11346790537000E+02 0.78422337970864E-01
 0.34273972411000E+01 0.30818094738830E+00
 0.11785525134000E+01 0.72027196368413E+00
 p    1 1.00
 0.41642204972000E+00 0.10000000000000E+01
 p    1 1.00
 0.14260826011000E+00 0.10000000000000E+01
 d    1 1.00
 0.16540000000000E+01 0.10000000000000E+01
 d    1 1.00
 0.46900000000000E+00 0.10000000000000E+01
 d    1 1.00
 0.12829642058000E+00 0.10000000000000E+01
 f    1 1.00
 0.10930000000000E+01 0.10000000000000E+01
 
   12 0
 s    6 1.00
 0.27032382631000E+05 0.57227335211155E-03
 0.40523871392000E+04 0.44353233492995E-02
 0.92232722710000E+03 0.23020107706038E-01
 0.26124070989000E+03 0.92822490667928E-01
 0.85354641351000E+02 0.29378500009671E+00
 0.31035035245000E+02 0.67401604501641E+00
 s    2 1.00
 0.12260860728000E+02 0.63839937025506E+00
 0.49987076005000E+01 0.39534587125718E+00
 s    1 1.00
 0.11703108158000E+01 0.10000000000000E+01
 s    1 1.00
 0.46474740994000E+00 0.10000000000000E+01
 s    1 1.00
 0.18504536357000E+00 0.10000000000000E+01
 s    1 1.00
 0.70288026270000E-01 0.10000000000000E+01
 p    4 1.00
 0.63274954801000E+02 0.12018332222616E-01
 0.14627049379000E+02 0.83005421790056E-01
 0.44501223456000E+01 0.31991743925964E+00
 0.15275799647000E+01 0.70715542916104E+00
 p    1 1.00
 0.52935117943000E+00 0.10000000000000E+01
 p    1 1.00
 0.17478421270000E+00 0.10000000000000E+01
 p    1 1.00
 0.51112745706000E-01 0.10000000000000E+01
 d    1 1.00
 0.23140000000000E+01 0.10000000000000E+01
 d    1 1.00
 0.64500000000000E+00 0.10000000000000E+01
 d    1 1.00
 0.14696477366000E+00 0.10000000000000E+01
 f    1 1.00
 0.14280000000000E+01 0.10000000000000E+01
 
   13 0
 s    6 1.00
 0.27032382631000E+05 0.57227335211155E-03
 0.40523871392000E+04 0.44353233492995E-02
 0.92232722710000E+03 0.23020107706038E-01
 0.26124070989000E+03 0.92822490667928E-01
 0.85354641351000E+02 0.29378500009671E+00
 0.31035035245000E+02 0.67401604501641E+00
 s    2 1.00
 0.12260860728000E+02 0.63839937025506E+00
 0.49987076005000E+01 0.39534587125718E+00
 s    1 1.00
 0.11703108158000E+01 0.10000000000000E+01
 s    1 1.00
 0.46474740994000E+00 0.10000000000000E+01
 s    1 1.00
 0.18504536357000E+00 0.10000000000000E+01
 s    1 1.00
 0.70288026270000E-01 0.10000000000000E+01
 p    4 1.00
 0.63274954801000E+02 0.12018332222616E-01
 0.14627049379000E+02 0.83005421790056E-01
 0.44501223456000E+01 0.31991743925964E+00
 0.15275799647000E+01 0.70715542916104E+00
 p    1 1.00
 0.52935117943000E+00 0.10000000000000E+01
 p    1 1.00
 0.17478421270000E+00 0.10000000000000E+01
 p    1 1.00
 0.51112745706000E-01 0.10000000000000E+01
 d    1 1.00
 0.23140000000000E+01 0.10000000000000E+01
 d    1 1.00
 0.64500000000000E+00 0.10000000000000E+01
 d    1 1.00
 0.14696477366000E+00 0.10000000000000E+01
 f    1 1.00
 0.14280000000000E+01 0.10000000000000E+01
 
   14 0
 s    6 1.00
 0.19730800647000E+05 0.58626402628763E-03
 0.29578958745000E+04 0.45428820586397E-02
 0.67322133595000E+03 0.23558413450084E-01
 0.19068249494000E+03 0.94709193292923E-01
 0.62295441898000E+02 0.29719784913376E+00
 0.22654161182000E+02 0.66916246895232E+00
 s    2 1.00
 0.89791477428000E+01 0.64596683630063E+00
 0.36863002370000E+01 0.38700574393705E+00
 s    1 1.00
 0.84660076805000E+00 0.10000000000000E+01
 s    1 1.00
 0.33647133771000E+00 0.10000000000000E+01
 s    1 1.00
 0.13647653675000E+00 0.10000000000000E+01
 s    1 1.00
 0.68441605847000E-01 0.10000000000000E+01
 p    4 1.00
 0.49200380510000E+02 0.11448825101764E-01
 0.11346790537000E+02 0.78422337970864E-01
 0.34273972411000E+01 0.30818094738830E+00
 0.11785525134000E+01 0.72027196368413E+00
 p    1 1.00
 0.41642204972000E+00 0.10000000000000E+01
 p    1 1.00
 0.14260826011000E+00 0.10000000000000E+01
 d    1 1.00
 0.16540000000000E+01 0.10000000000000E+01
 d    1 1.00
 0.46900000000000E+00 0.10000000000000E+01
 d    1 1.00
 0.12829642058000E+00 0.10000000000000E+01
 f    1 1.00
 0.10930000000000E+01 0.10000000000000E+01
 
   15 0
 s    3 1.00
 0.34061341000000E+02 0.25439307208879E-01
 0.51235746000000E+01 0.19008594890375E+00
 0.11646626000000E+01 0.85244113011042E+00
 s    1 1.00
 0.32723041000000E+00 0.10000000000000E+01
 s    1 1.00
 0.10307241000000E+00 0.10000000000000E+01
 p    1 1.00
 0.80000000000000E+00 0.10000000000000E+01
 p    1 1.00
 0.95774129632000E-01 0.10000000000000E+01
 
   16 0
 s    3 1.00
 0.34061341000000E+02 0.25439307208879E-01
 0.51235746000000E+01 0.19008594890375E+00
 0.11646626000000E+01 0.85244113011042E+00
 s    1 1.00
 0.32723041000000E+00 0.10000000000000E+01
 s    1 1.00
 0.10307241000000E+00 0.10000000000000E+01
 p    1 1.00
 0.80000000000000E+00 0.10000000000000E+01
 p    1 1.00
 0.95774129632000E-01 0.10000000000000E+01
 
[MO]
 Sym= X
 Ene= -0.065690
 Spin= Alpha
 Occup= -0.065690
         1    1.606571E-04
         2    3.743836E-04
         3   -1.090703E-03
         4    2.607658E-03
         5    7.201319E-03
         6    1.026531E-02
         7    1.628568E-03
         8    2.472722E-04
         9   -5.830803E-02
        10   -2.229002E-03
        11    4.390526E-04
        12   -5.590891E-02
        13   -3.501796E-02
        14    1.180385E-02
        15   -1.683328E-02
        16   -2.959928E-06
        17    1.498599E-05
        18   -1.202606E-05
        19    1.225485E-05
        20   -6.083429E-03
        21    4.722481E-03
        22    6.373525E-04
        23   -3.800557E-04
        24   -2.572967E-04
        25    6.619992E-04
        26   -1.391476E-02
        27    8.686847E-03
        28    4.991617E-03
        29   -4.655625E-03
        30   -3.359925E-04
        31   -1.022185E-03
        32    7.288673E-04
        33   -1.022326E-02
        34   -1.853511E-05
        35    6.750691E-06
        36    3.884018E-04
        37    8.488959E-06
        38   -6.605050E-06
        39    5.152623E-04
        40    1.637850E-05
        41   -2.451952E-06
        42   -1.036358E-03
        43    7.741448E-04
        44   -1.635481E-05
        45   -3.507863E-05
        46   -1.549226E-04
        47    2.501660E-03
        48    5.395830E-02
        49   -4.232503E-03
        50    4.102443E-04
        51   -1.408640E-05
        52   -2.431027E-01
        53   -3.184360E-04
        54    5.663755E-06
        55   -2.506884E-01
        56   -1.632936E-02
        57   -4.727436E-04
        58   -2.140563E-01
        59   -4.177367E-05
        60    3.726987E-05
        61    4.503807E-06
        62    5.118753E-07
        63    8.770523E-05
        64    1.587581E-07
        65   -3.408353E-04
        66    5.833812E-04
        67   -2.425459E-04
        68   -2.378263E-06
        69   -1.997313E-03
        70    4.439218E-07
        71   -8.739616E-03
        72    9.955806E-03
        73   -1.216190E-03
        74    8.602252E-05
        75    6.494856E-03
        76   -5.915837E-06
        77    7.837073E-06
        78    1.535702E-07
        79    1.472847E-03
        80   -5.603918E-06
        81   -1.456390E-07
        82   -8.373849E-04
        83   -4.910619E-06
        84   -6.039700E-08
        85   -1.138647E-03
        86   -5.113107E-08
        87    1.654065E-04
        88    3.849176E-04
        89   -1.108947E-03
        90    2.603009E-03
        91    5.796723E-03
        92    1.023773E-02
        93    1.616481E-03
        94   -1.983507E-04
        95   -5.831926E-02
        96   -2.214184E-03
        97   -3.912072E-04
        98   -5.591976E-02
        99   -3.512288E-02
       100   -1.220798E-02
       101   -1.684694E-02
       102   -2.562068E-06
       103    1.428572E-05
       104   -1.172365E-05
       105   -1.017170E-05
       106   -6.083289E-03
       107   -4.722604E-03
       108    6.338410E-04
       109   -3.759161E-04
       110   -2.579248E-04
       111   -6.557537E-04
       112   -1.391350E-02
       113   -8.685644E-03
       114    5.070643E-03
       115   -4.745078E-03
       116   -3.255651E-04
       117    9.510706E-04
       118    7.266886E-04
       119    1.023450E-02
       120   -1.856664E-05
       121   -6.650674E-06
       122    3.884211E-04
       123    8.599336E-06
       124    6.692965E-06
       125    5.152402E-04
       126    1.631042E-05
       127    2.229851E-06
       128   -1.036362E-03
       129   -7.740544E-04
       130   -1.022013E-04
       131   -2.187335E-04
       132   -5.866280E-04
       133    9.753029E-03
       134   -2.805809E-02
       135   -1.127171E-02
       136   -1.239315E-03
       137    6.168185E-04
       138    1.312490E-01
       139   -8.561348E-03
       140    5.814568E-03
       141    1.343442E-01
       142   -2.422404E-02
       143   -5.806067E-03
       144    8.425258E-02
       145   -1.343712E-04
       146    1.623061E-04
       147   -2.793484E-05
       148    1.427047E-06
       149   -1.683267E-03
       150    2.747440E-03
       151   -6.106182E-04
       152    7.271494E-04
       153   -1.165311E-04
       154   -1.574944E-03
       155   -5.567743E-03
       156    4.708176E-03
       157   -7.630815E-03
       158    5.860030E-03
       159    1.770785E-03
       160    8.421817E-03
       161    3.251195E-03
       162   -1.093051E-02
       163   -1.414705E-05
       164    9.200305E-06
       165   -6.743355E-04
       166   -1.764242E-05
       167    1.602697E-05
       168    2.346829E-05
       169    3.662269E-05
       170   -2.837047E-05
       171    8.812477E-04
       172   -3.717939E-04
       173    1.034510E-03
       174    2.357370E-03
       175   -2.303518E-03
       176   -2.144682E-02
       177    9.422774E-03
       178   -1.097154E-02
       179    8.317479E-03
       180    1.225095E-05
       181    1.106101E-01
       182    7.824626E-04
       183    4.629789E-06
       184    1.134626E-01
       185   -2.392520E-02
       186    7.324069E-04
       187    1.293823E-01
       188   -4.532755E-04
       189    2.484694E-04
       190    2.048061E-04
       191    1.177641E-07
       192    8.551095E-03
       193    3.491954E-07
       194    1.623119E-03
       195   -3.778584E-03
       196    2.155466E-03
       197   -8.079052E-08
       198    2.128527E-02
       199   -1.030628E-06
       200    5.746920E-03
       201   -7.161954E-03
       202    1.415034E-03
       203    1.024194E-04
       204    1.693572E-02
       205   -8.156013E-06
       206    1.126504E-04
       207    4.883604E-08
       208   -3.009736E-04
       209   -8.018439E-05
       210   -3.266474E-08
       211   -9.259902E-04
       212   -7.095204E-05
       213   -3.285568E-08
       214    1.329789E-03
       215   -1.848840E-08
       216   -1.013127E-04
       217   -2.165050E-04
       218   -5.917503E-04
       219    9.765683E-03
       220   -2.974020E-02
       221   -1.128651E-02
       222   -1.243590E-03
       223   -6.340364E-04
       224    1.312589E-01
       225   -8.570247E-03
       226   -5.832393E-03
       227    1.343565E-01
       228   -2.402312E-02
       229    6.494379E-03
       230    8.426391E-02
       231   -1.341426E-04
       232    1.625978E-04
       233   -2.845515E-05
       234    5.699964E-08
       235   -1.683230E-03
       236   -2.747474E-03
       237   -6.132342E-04
       238    7.292754E-04
       239   -1.160412E-04
       240    1.578989E-03
       241   -5.565297E-03
       242   -4.708744E-03
       243   -7.591194E-03
       244    5.818589E-03
       245    1.772605E-03
       246   -8.519160E-03
       247    3.249867E-03
       248    1.092692E-02
       249   -1.426353E-05
       250   -9.371727E-06
       251   -6.745199E-04
       252   -1.766856E-05
       253   -1.589179E-05
       254    2.366980E-05
       255    3.680510E-05
       256    2.846528E-05
       257    8.812936E-04
       258    3.717862E-04
       259    3.729653E-04
       260    2.321525E-04
       261    1.586240E-02
       262   -1.005029E-05
       263   -9.074273E-07
       264   -2.146604E-03
       265   -4.933537E-03
       266   -1.678577E-04
       267    6.454614E-03
       268    3.430917E-04
       269    1.818563E-04
       270    1.586255E-02
       271   -6.628937E-06
       272   -3.394159E-06
       273   -2.146939E-03
       274   -5.013409E-03
       275    1.421044E-04
       276    6.465889E-03
       277    3.843207E-04
       278    2.176777E-03
       279   -3.114835E-02
       280   -1.197963E-05
       281    9.122907E-05
       282    5.496353E-03
       283   -8.774610E-04
       284   -2.589129E-03
       285   -6.160843E-04
       286    3.749659E-04
       287    2.162067E-03
       288   -3.142693E-02
       289   -1.256072E-05
       290   -9.013996E-05
       291    5.497233E-03
       292   -8.770923E-04
       293    2.625034E-03
       294   -6.115578E-04
       295    4.714380E-05
       296    1.094699E-04
       297   -1.004278E-04
       298   -4.181576E-04
       299    6.050733E-03
       300   -1.454046E-03
       301    4.214089E-04
       302    1.171722E-07
       303   -8.374312E-03
       304    1.503990E-04
       305    1.122354E-06
       306   -1.117015E-02
       307   -2.473288E-03
       308    2.106197E-05
       309   -7.315358E-03
       310   -3.179339E-05
       311    1.401997E-05
       312    1.777342E-05
       313    8.899119E-07
       314    5.229400E-03
       315   -6.024690E-07
       316   -4.258872E-05
       317   -3.205964E-05
       318    7.464836E-05
       319    3.264334E-06
       320    1.549334E-02
       321   -1.876520E-06
       322    1.007290E-03
       323   -2.734774E-03
       324    1.727483E-03
       325   -1.823330E-05
       326    4.057167E-03
       327    4.042122E-06
       328    7.290980E-06
       329   -1.407588E-07
       330   -6.710590E-05
       331   -5.139810E-06
       332    2.558876E-07
       333   -7.956620E-04
       334   -4.642066E-06
       335   -6.703987E-08
       336    8.856940E-04
       337   -1.097127E-07
       338    3.463409E-06
       339    4.943713E-06
       340    3.498561E-05
       341   -4.429326E-04
       342    5.556410E-03
       343    8.545247E-04
       344   -4.910180E-04
       345    6.662441E-06
       346    9.570064E-02
       347   -5.378174E-04
       348    1.410068E-04
       349    8.857022E-02
       350   -1.609592E-03
       351    3.562848E-04
       352    6.904381E-02
       353   -1.607251E-04
       354    2.097760E-04
       355    7.866749E-03
       356   -1.667169E-06
       357    2.912130E-06
       358   -1.244961E-06
       359   -2.564584E-06
       360   -8.873346E-05
       361    7.238309E-04
       362    1.826603E-05
       363    5.205410E-06
       364   -2.347144E-05
       365   -1.605426E-05
       366   -8.891570E-04
       367    2.311491E-03
       368    9.346338E-05
       369   -7.188868E-05
       370   -2.157469E-05
       371   -9.712087E-05
       372   -6.462125E-04
       373    4.251543E-04
       374    9.080619E-07
       375    8.809489E-07
       376   -1.055021E-04
       377   -1.726443E-06
       378    8.730025E-07
       379   -9.928650E-05
       380    5.081499E-07
       381   -2.054920E-06
       382    2.408325E-04
       383   -1.981469E-04
       384    2.831070E-06
       385    3.430364E-06
       386    3.661274E-05
       387   -4.366492E-04
       388    5.548398E-03
       389    8.238371E-04
       390   -4.422541E-04
       391   -3.870074E-05
       392    9.566664E-02
       393   -4.933771E-04
       394   -1.682875E-04
       395    8.853973E-02
       396   -1.555390E-03
       397   -3.708399E-04
       398    6.901320E-02
       399   -1.415088E-04
       400   -2.164148E-04
       401    7.864340E-03
       402   -2.022797E-06
       403    3.288676E-06
       404   -1.265879E-06
       405    2.504703E-06
       406   -8.858433E-05
       407   -7.235502E-04
       408    1.716180E-05
       409    5.900865E-06
       410   -2.306266E-05
       411    1.505184E-05
       412   -8.884757E-04
       413   -2.310586E-03
       414    9.165601E-05
       415   -7.200593E-05
       416   -1.965008E-05
       417    9.667242E-05
       418   -6.459067E-04
       419   -4.230582E-04
       420    9.332949E-07
       421   -9.871855E-07
       422   -1.054537E-04
       423   -1.740591E-06
       424   -7.087823E-07
       425   -9.927444E-05
       426    4.884444E-07
       427    2.033231E-06
       428    2.407555E-04
       429    1.980591E-04
       430   -4.738361E-03
       431   -1.123969E-02
       432    1.745285E-02
       433    2.724984E-02
       434    2.230098E-02
       435    6.934513E-02
       436   -1.654468E-02
       437    9.353406E-06
       438   -2.206742E-01
       439   -1.865951E-02
       440    3.474375E-06
       441   -2.181463E-01
       442   -1.597180E-02
       443   -8.659511E-05
       444   -1.821535E-01
       445    9.455753E-05
       446    1.223187E-05
       447   -1.067894E-04
       448   -6.983211E-08
       449    8.976693E-04
       450    2.163648E-07
       451    2.886710E-04
       452    1.394544E-03
       453   -1.683215E-03
       454    3.469594E-06
       455    3.730500E-03
       456    1.132091E-06
       457    2.310081E-03
       458    2.547139E-03
       459   -4.857220E-03
       460    9.340657E-07
       461    2.027254E-03
       462    6.357631E-06
       463   -1.358116E-04
       464    8.007578E-09
       465    8.409773E-04
       466   -8.198737E-05
       467    4.842010E-08
       468   -4.147970E-04
       469    2.641978E-04
       470   -5.916340E-08
       471   -7.134925E-04
       472    1.278788E-08
       473   -9.066768E-03
       474   -1.703377E-02
       475   -2.930150E-02
       476   -2.098844E-03
       477   -1.770128E-03
       478   -1.123777E-02
       479    1.819880E-03
       480   -3.620813E-03
       481   -1.383690E-02
       482   -9.062346E-03
       483   -1.697949E-02
       484   -2.915507E-02
       485   -2.095707E-03
       486    1.764930E-03
       487   -1.124032E-02
       488    1.834195E-03
       489    3.592493E-03
       490   -1.384447E-02
 Sym= X
 Ene= -0.847758
 Spin= Alpha
 Occup= -0.847758
         1    6.861388E-06
         2    1.545486E-05
         3   -6.951771E-05
         4    2.543363E-04
         5    1.161444E-02
         6    7.668191E-04
         7    5.446682E-05
         8   -1.831656E-04
         9    1.881627E-01
        10   -4.917042E-04
        11   -2.214446E-05
        12    1.887099E-01
        13    4.415572E-03
        14   -7.257572E-03
        15    1.098758E-01
        16    2.638662E-06
        17    3.908789E-06
        18   -6.547451E-06
        19   -2.687416E-06
        20   -4.962126E-03
        21   -5.460537E-04
        22    9.267703E-05
        23   -5.523488E-05
        24   -3.744215E-05
        25   -1.512918E-05
        26   -9.569585E-03
        27    4.199994E-04
        28   -9.270329E-04
        29    1.093808E-03
        30   -1.667747E-04
        31   -5.850727E-04
        32   -3.157622E-03
        33   -5.685746E-05
        34   -5.009725E-06
        35   -1.371888E-06
        36   -1.164551E-03
        37    1.577654E-06
        38    7.548484E-07
        39    1.408127E-03
        40    5.143597E-06
        41    1.085733E-06
        42    1.542827E-04
        43    3.451555E-06
        44    3.264689E-07
        45    5.845822E-07
        46    7.485011E-06
        47   -3.332925E-05
        48   -2.954676E-03
        49   -2.091693E-04
        50   -6.461949E-06
        51    2.563981E-04
        52   -1.091298E-06
        53    1.629525E-05
        54    4.521273E-04
        55   -6.577139E-06
        56    1.311911E-03
        57   -1.132252E-02
        58   -2.023601E-05
        59    2.907901E-08
        60   -2.171062E-07
        61    1.880272E-07
        62   -1.851159E-05