[Molden Format]
[Title]
ADC(2) - opt by CAM-B3LYP gaussian                                              
[Atoms] AU
 c     1    6 0.12589710753986E+01 0.22825551554713E+01 -.28105798744860E-01
 c     2    6 0.25558923691721E+01 0.80431469000000E-06 -.26811997747980E-01
 c     3    6 0.12589700738438E+01 -.22825573262942E+01 -.28139341383720E-01
 c     4    6 -.13331755585332E+01 -.22837561874501E+01 -.30470167390540E-01
 c     5    6 -.26866009864883E+01 0.27696298600000E-05 -.30311128039200E-01
 c     6    6 -.13331783742251E+01 0.22837572858534E+01 -.30432977580250E-01
 h     7    1 0.22993222678978E+01 0.40366379181686E+01 -.25216785432900E-01
 h     8    1 0.22993197734593E+01 -.40366408826765E+01 -.25273722881290E-01
 h     9    1 -.23520966897676E+01 -.40562070503646E+01 -.33235309154490E-01
 h    10    1 -.23520900190344E+01 0.40562136478709E+01 -.33159965773570E-01
 n    11    7 0.52762255328692E+01 0.25629411000000E-06 -.20783601308720E-01
 o    12    8 0.63803680214636E+01 -.20270720034092E+01 -.18188232540560E-01
 o    13    8 0.63803692875801E+01 0.20270718545932E+01 -.18282964511600E-01
 n    14    7 -.52484248103301E+01 -.66967170000000E-06 -.81289589624650E-01
 h    15    1 -.62019351690707E+01 -.16149791988436E+01 0.21484054874156E+00
 h    16    1 -.62019367942352E+01 0.16149736265137E+01 0.21486103337284E+00
[GTO]
    1 0
 s    6 1.00
 0.13575349682000E+05 0.60645503603591E-03
 0.20352333680000E+04 0.46979088884982E-02
 0.46322562359000E+03 0.24332477647552E-01
 0.13120019598000E+03 0.97399968307759E-01
 0.42853015891000E+02 0.30195584253780E+00
 0.15584185766000E+02 0.66233609137875E+00
 s    2 1.00
 0.62067138508000E+01 0.65595308539952E+00
 0.25764896527000E+01 0.37585633285142E+00
 s    1 1.00
 0.57696339419000E+00 0.10000000000000E+01
 s    1 1.00
 0.22972831358000E+00 0.10000000000000E+01
 s    1 1.00
 0.95164440028000E-01 0.10000000000000E+01
 s    1 1.00
 0.48475401370000E-01 0.10000000000000E+01
 p    4 1.00
 0.34697232244000E+02 0.11327220003114E-01
 0.79582622826000E+01 0.76169659202087E-01
 0.23780826883000E+01 0.30192252202676E+00
 0.81433208183000E+00 0.72785027349547E+00
 p    1 1.00
 0.28887547253000E+00 0.10000000000000E+01
 p    1 1.00
 0.10056823671000E+00 0.10000000000000E+01
 d    1 1.00
 0.10970000000000E+01 0.10000000000000E+01
 d    1 1.00
 0.31800000000000E+00 0.10000000000000E+01
 d    1 1.00
 0.90985336424000E-01 0.10000000000000E+01
 f    1 1.00
 0.76100000000000E+00 0.10000000000000E+01
 
    2 0
 s    6 1.00
 0.13575349682000E+05 0.60645503603591E-03
 0.20352333680000E+04 0.46979088884982E-02
 0.46322562359000E+03 0.24332477647552E-01
 0.13120019598000E+03 0.97399968307759E-01
 0.42853015891000E+02 0.30195584253780E+00
 0.15584185766000E+02 0.66233609137875E+00
 s    2 1.00
 0.62067138508000E+01 0.65595308539952E+00
 0.25764896527000E+01 0.37585633285142E+00
 s    1 1.00
 0.57696339419000E+00 0.10000000000000E+01
 s    1 1.00
 0.22972831358000E+00 0.10000000000000E+01
 s    1 1.00
 0.95164440028000E-01 0.10000000000000E+01
 s    1 1.00
 0.48475401370000E-01 0.10000000000000E+01
 p    4 1.00
 0.34697232244000E+02 0.11327220003114E-01
 0.79582622826000E+01 0.76169659202087E-01
 0.23780826883000E+01 0.30192252202676E+00
 0.81433208183000E+00 0.72785027349547E+00
 p    1 1.00
 0.28887547253000E+00 0.10000000000000E+01
 p    1 1.00
 0.10056823671000E+00 0.10000000000000E+01
 d    1 1.00
 0.10970000000000E+01 0.10000000000000E+01
 d    1 1.00
 0.31800000000000E+00 0.10000000000000E+01
 d    1 1.00
 0.90985336424000E-01 0.10000000000000E+01
 f    1 1.00
 0.76100000000000E+00 0.10000000000000E+01
 
    3 0
 s    6 1.00
 0.13575349682000E+05 0.60645503603591E-03
 0.20352333680000E+04 0.46979088884982E-02
 0.46322562359000E+03 0.24332477647552E-01
 0.13120019598000E+03 0.97399968307759E-01
 0.42853015891000E+02 0.30195584253780E+00
 0.15584185766000E+02 0.66233609137875E+00
 s    2 1.00
 0.62067138508000E+01 0.65595308539952E+00
 0.25764896527000E+01 0.37585633285142E+00
 s    1 1.00
 0.57696339419000E+00 0.10000000000000E+01
 s    1 1.00
 0.22972831358000E+00 0.10000000000000E+01
 s    1 1.00
 0.95164440028000E-01 0.10000000000000E+01
 s    1 1.00
 0.48475401370000E-01 0.10000000000000E+01
 p    4 1.00
 0.34697232244000E+02 0.11327220003114E-01
 0.79582622826000E+01 0.76169659202087E-01
 0.23780826883000E+01 0.30192252202676E+00
 0.81433208183000E+00 0.72785027349547E+00
 p    1 1.00
 0.28887547253000E+00 0.10000000000000E+01
 p    1 1.00
 0.10056823671000E+00 0.10000000000000E+01
 d    1 1.00
 0.10970000000000E+01 0.10000000000000E+01
 d    1 1.00
 0.31800000000000E+00 0.10000000000000E+01
 d    1 1.00
 0.90985336424000E-01 0.10000000000000E+01
 f    1 1.00
 0.76100000000000E+00 0.10000000000000E+01
 
    4 0
 s    6 1.00
 0.13575349682000E+05 0.60645503603591E-03
 0.20352333680000E+04 0.46979088884982E-02
 0.46322562359000E+03 0.24332477647552E-01
 0.13120019598000E+03 0.97399968307759E-01
 0.42853015891000E+02 0.30195584253780E+00
 0.15584185766000E+02 0.66233609137875E+00
 s    2 1.00
 0.62067138508000E+01 0.65595308539952E+00
 0.25764896527000E+01 0.37585633285142E+00
 s    1 1.00
 0.57696339419000E+00 0.10000000000000E+01
 s    1 1.00
 0.22972831358000E+00 0.10000000000000E+01
 s    1 1.00
 0.95164440028000E-01 0.10000000000000E+01
 s    1 1.00
 0.48475401370000E-01 0.10000000000000E+01
 p    4 1.00
 0.34697232244000E+02 0.11327220003114E-01
 0.79582622826000E+01 0.76169659202087E-01
 0.23780826883000E+01 0.30192252202676E+00
 0.81433208183000E+00 0.72785027349547E+00
 p    1 1.00
 0.28887547253000E+00 0.10000000000000E+01
 p    1 1.00
 0.10056823671000E+00 0.10000000000000E+01
 d    1 1.00
 0.10970000000000E+01 0.10000000000000E+01
 d    1 1.00
 0.31800000000000E+00 0.10000000000000E+01
 d    1 1.00
 0.90985336424000E-01 0.10000000000000E+01
 f    1 1.00
 0.76100000000000E+00 0.10000000000000E+01
 
    5 0
 s    6 1.00
 0.13575349682000E+05 0.60645503603591E-03
 0.20352333680000E+04 0.46979088884982E-02
 0.46322562359000E+03 0.24332477647552E-01
 0.13120019598000E+03 0.97399968307759E-01
 0.42853015891000E+02 0.30195584253780E+00
 0.15584185766000E+02 0.66233609137875E+00
 s    2 1.00
 0.62067138508000E+01 0.65595308539952E+00
 0.25764896527000E+01 0.37585633285142E+00
 s    1 1.00
 0.57696339419000E+00 0.10000000000000E+01
 s    1 1.00
 0.22972831358000E+00 0.10000000000000E+01
 s    1 1.00
 0.95164440028000E-01 0.10000000000000E+01
 s    1 1.00
 0.48475401370000E-01 0.10000000000000E+01
 p    4 1.00
 0.34697232244000E+02 0.11327220003114E-01
 0.79582622826000E+01 0.76169659202087E-01
 0.23780826883000E+01 0.30192252202676E+00
 0.81433208183000E+00 0.72785027349547E+00
 p    1 1.00
 0.28887547253000E+00 0.10000000000000E+01
 p    1 1.00
 0.10056823671000E+00 0.10000000000000E+01
 d    1 1.00
 0.10970000000000E+01 0.10000000000000E+01
 d    1 1.00
 0.31800000000000E+00 0.10000000000000E+01
 d    1 1.00
 0.90985336424000E-01 0.10000000000000E+01
 f    1 1.00
 0.76100000000000E+00 0.10000000000000E+01
 
    6 0
 s    6 1.00
 0.13575349682000E+05 0.60645503603591E-03
 0.20352333680000E+04 0.46979088884982E-02
 0.46322562359000E+03 0.24332477647552E-01
 0.13120019598000E+03 0.97399968307759E-01
 0.42853015891000E+02 0.30195584253780E+00
 0.15584185766000E+02 0.66233609137875E+00
 s    2 1.00
 0.62067138508000E+01 0.65595308539952E+00
 0.25764896527000E+01 0.37585633285142E+00
 s    1 1.00
 0.57696339419000E+00 0.10000000000000E+01
 s    1 1.00
 0.22972831358000E+00 0.10000000000000E+01
 s    1 1.00
 0.95164440028000E-01 0.10000000000000E+01
 s    1 1.00
 0.48475401370000E-01 0.10000000000000E+01
 p    4 1.00
 0.34697232244000E+02 0.11327220003114E-01
 0.79582622826000E+01 0.76169659202087E-01
 0.23780826883000E+01 0.30192252202676E+00
 0.81433208183000E+00 0.72785027349547E+00
 p    1 1.00
 0.28887547253000E+00 0.10000000000000E+01
 p    1 1.00
 0.10056823671000E+00 0.10000000000000E+01
 d    1 1.00
 0.10970000000000E+01 0.10000000000000E+01
 d    1 1.00
 0.31800000000000E+00 0.10000000000000E+01
 d    1 1.00
 0.90985336424000E-01 0.10000000000000E+01
 f    1 1.00
 0.76100000000000E+00 0.10000000000000E+01
 
    7 0
 s    3 1.00
 0.34061341000000E+02 0.25439307208879E-01
 0.51235746000000E+01 0.19008594890375E+00
 0.11646626000000E+01 0.85244113011042E+00
 s    1 1.00
 0.32723041000000E+00 0.10000000000000E+01
 s    1 1.00
 0.10307241000000E+00 0.10000000000000E+01
 p    1 1.00
 0.80000000000000E+00 0.10000000000000E+01
 p    1 1.00
 0.95774129632000E-01 0.10000000000000E+01
 
    8 0
 s    3 1.00
 0.34061341000000E+02 0.25439307208879E-01
 0.51235746000000E+01 0.19008594890375E+00
 0.11646626000000E+01 0.85244113011042E+00
 s    1 1.00
 0.32723041000000E+00 0.10000000000000E+01
 s    1 1.00
 0.10307241000000E+00 0.10000000000000E+01
 p    1 1.00
 0.80000000000000E+00 0.10000000000000E+01
 p    1 1.00
 0.95774129632000E-01 0.10000000000000E+01
 
    9 0
 s    3 1.00
 0.34061341000000E+02 0.25439307208879E-01
 0.51235746000000E+01 0.19008594890375E+00
 0.11646626000000E+01 0.85244113011042E+00
 s    1 1.00
 0.32723041000000E+00 0.10000000000000E+01
 s    1 1.00
 0.10307241000000E+00 0.10000000000000E+01
 p    1 1.00
 0.80000000000000E+00 0.10000000000000E+01
 p    1 1.00
 0.95774129632000E-01 0.10000000000000E+01
 
   10 0
 s    3 1.00
 0.34061341000000E+02 0.25439307208879E-01
 0.51235746000000E+01 0.19008594890375E+00
 0.11646626000000E+01 0.85244113011042E+00
 s    1 1.00
 0.32723041000000E+00 0.10000000000000E+01
 s    1 1.00
 0.10307241000000E+00 0.10000000000000E+01
 p    1 1.00
 0.80000000000000E+00 0.10000000000000E+01
 p    1 1.00
 0.95774129632000E-01 0.10000000000000E+01
 
   11 0
 s    6 1.00
 0.19730800647000E+05 0.58626402628763E-03
 0.29578958745000E+04 0.45428820586397E-02
 0.67322133595000E+03 0.23558413450084E-01
 0.19068249494000E+03 0.94709193292923E-01
 0.62295441898000E+02 0.29719784913376E+00
 0.22654161182000E+02 0.66916246895232E+00
 s    2 1.00
 0.89791477428000E+01 0.64596683630063E+00
 0.36863002370000E+01 0.38700574393705E+00
 s    1 1.00
 0.84660076805000E+00 0.10000000000000E+01
 s    1 1.00
 0.33647133771000E+00 0.10000000000000E+01
 s    1 1.00
 0.13647653675000E+00 0.10000000000000E+01
 s    1 1.00
 0.68441605847000E-01 0.10000000000000E+01
 p    4 1.00
 0.49200380510000E+02 0.11448825101764E-01
 0.11346790537000E+02 0.78422337970864E-01
 0.34273972411000E+01 0.30818094738830E+00
 0.11785525134000E+01 0.72027196368413E+00
 p    1 1.00
 0.41642204972000E+00 0.10000000000000E+01
 p    1 1.00
 0.14260826011000E+00 0.10000000000000E+01
 d    1 1.00
 0.16540000000000E+01 0.10000000000000E+01
 d    1 1.00
 0.46900000000000E+00 0.10000000000000E+01
 d    1 1.00
 0.12829642058000E+00 0.10000000000000E+01
 f    1 1.00
 0.10930000000000E+01 0.10000000000000E+01
 
   12 0
 s    6 1.00
 0.27032382631000E+05 0.57227335211155E-03
 0.40523871392000E+04 0.44353233492995E-02
 0.92232722710000E+03 0.23020107706038E-01
 0.26124070989000E+03 0.92822490667928E-01
 0.85354641351000E+02 0.29378500009671E+00
 0.31035035245000E+02 0.67401604501641E+00
 s    2 1.00
 0.12260860728000E+02 0.63839937025506E+00
 0.49987076005000E+01 0.39534587125718E+00
 s    1 1.00
 0.11703108158000E+01 0.10000000000000E+01
 s    1 1.00
 0.46474740994000E+00 0.10000000000000E+01
 s    1 1.00
 0.18504536357000E+00 0.10000000000000E+01
 s    1 1.00
 0.70288026270000E-01 0.10000000000000E+01
 p    4 1.00
 0.63274954801000E+02 0.12018332222616E-01
 0.14627049379000E+02 0.83005421790056E-01
 0.44501223456000E+01 0.31991743925964E+00
 0.15275799647000E+01 0.70715542916104E+00
 p    1 1.00
 0.52935117943000E+00 0.10000000000000E+01
 p    1 1.00
 0.17478421270000E+00 0.10000000000000E+01
 p    1 1.00
 0.51112745706000E-01 0.10000000000000E+01
 d    1 1.00
 0.23140000000000E+01 0.10000000000000E+01
 d    1 1.00
 0.64500000000000E+00 0.10000000000000E+01
 d    1 1.00
 0.14696477366000E+00 0.10000000000000E+01
 f    1 1.00
 0.14280000000000E+01 0.10000000000000E+01
 
   13 0
 s    6 1.00
 0.27032382631000E+05 0.57227335211155E-03
 0.40523871392000E+04 0.44353233492995E-02
 0.92232722710000E+03 0.23020107706038E-01
 0.26124070989000E+03 0.92822490667928E-01
 0.85354641351000E+02 0.29378500009671E+00
 0.31035035245000E+02 0.67401604501641E+00
 s    2 1.00
 0.12260860728000E+02 0.63839937025506E+00
 0.49987076005000E+01 0.39534587125718E+00
 s    1 1.00
 0.11703108158000E+01 0.10000000000000E+01
 s    1 1.00
 0.46474740994000E+00 0.10000000000000E+01
 s    1 1.00
 0.18504536357000E+00 0.10000000000000E+01
 s    1 1.00
 0.70288026270000E-01 0.10000000000000E+01
 p    4 1.00
 0.63274954801000E+02 0.12018332222616E-01
 0.14627049379000E+02 0.83005421790056E-01
 0.44501223456000E+01 0.31991743925964E+00
 0.15275799647000E+01 0.70715542916104E+00
 p    1 1.00
 0.52935117943000E+00 0.10000000000000E+01
 p    1 1.00
 0.17478421270000E+00 0.10000000000000E+01
 p    1 1.00
 0.51112745706000E-01 0.10000000000000E+01
 d    1 1.00
 0.23140000000000E+01 0.10000000000000E+01
 d    1 1.00
 0.64500000000000E+00 0.10000000000000E+01
 d    1 1.00
 0.14696477366000E+00 0.10000000000000E+01
 f    1 1.00
 0.14280000000000E+01 0.10000000000000E+01
 
   14 0
 s    6 1.00
 0.19730800647000E+05 0.58626402628763E-03
 0.29578958745000E+04 0.45428820586397E-02
 0.67322133595000E+03 0.23558413450084E-01
 0.19068249494000E+03 0.94709193292923E-01
 0.62295441898000E+02 0.29719784913376E+00
 0.22654161182000E+02 0.66916246895232E+00
 s    2 1.00
 0.89791477428000E+01 0.64596683630063E+00
 0.36863002370000E+01 0.38700574393705E+00
 s    1 1.00
 0.84660076805000E+00 0.10000000000000E+01
 s    1 1.00
 0.33647133771000E+00 0.10000000000000E+01
 s    1 1.00
 0.13647653675000E+00 0.10000000000000E+01
 s    1 1.00
 0.68441605847000E-01 0.10000000000000E+01
 p    4 1.00
 0.49200380510000E+02 0.11448825101764E-01
 0.11346790537000E+02 0.78422337970864E-01
 0.34273972411000E+01 0.30818094738830E+00
 0.11785525134000E+01 0.72027196368413E+00
 p    1 1.00
 0.41642204972000E+00 0.10000000000000E+01
 p    1 1.00
 0.14260826011000E+00 0.10000000000000E+01
 d    1 1.00
 0.16540000000000E+01 0.10000000000000E+01
 d    1 1.00
 0.46900000000000E+00 0.10000000000000E+01
 d    1 1.00
 0.12829642058000E+00 0.10000000000000E+01
 f    1 1.00
 0.10930000000000E+01 0.10000000000000E+01
 
   15 0
 s    3 1.00
 0.34061341000000E+02 0.25439307208879E-01
 0.51235746000000E+01 0.19008594890375E+00
 0.11646626000000E+01 0.85244113011042E+00
 s    1 1.00
 0.32723041000000E+00 0.10000000000000E+01
 s    1 1.00
 0.10307241000000E+00 0.10000000000000E+01
 p    1 1.00
 0.80000000000000E+00 0.10000000000000E+01
 p    1 1.00
 0.95774129632000E-01 0.10000000000000E+01
 
   16 0
 s    3 1.00
 0.34061341000000E+02 0.25439307208879E-01
 0.51235746000000E+01 0.19008594890375E+00
 0.11646626000000E+01 0.85244113011042E+00
 s    1 1.00
 0.32723041000000E+00 0.10000000000000E+01
 s    1 1.00
 0.10307241000000E+00 0.10000000000000E+01
 p    1 1.00
 0.80000000000000E+00 0.10000000000000E+01
 p    1 1.00
 0.95774129632000E-01 0.10000000000000E+01
 
[MO]
 Sym= X
 Ene= -0.073888
 Spin= Alpha
 Occup= -0.073888
         1   -1.253519E-03
         2   -2.821239E-03
         3    5.139863E-03
         4    4.744323E-04
         5   -1.252897E-06
         6   -1.872685E-02
         7   -6.132342E-03
         8    2.552291E-03
         9   -9.803557E-03
        10    1.129736E-03
        11    1.550334E-03
        12   -1.129807E-02
        13    4.830118E-02
        14   -9.651263E-03
        15   -1.159360E-02
        16    1.867237E-04
        17   -1.342413E-04
        18   -5.248247E-05
        19    5.407172E-05
        20    3.984746E-03
        21   -1.763194E-03
        22   -7.518335E-04
        23    4.690308E-04
        24    2.828027E-04
        25   -1.171514E-03
        26    9.135258E-03
        27   -3.561977E-03
        28   -6.001342E-03
        29    5.426335E-03
        30    5.750075E-04
        31    3.516366E-03
        32   -4.786799E-03
        33    1.421270E-02
        34    8.288079E-06
        35    1.279657E-07
        36    1.358380E-04
        37    9.821510E-06
        38    4.946837E-06
        39   -5.796409E-04
        40   -2.094114E-05
        41   -5.118521E-06
        42    3.973952E-04
        43   -3.363768E-04
        44    1.585094E-04
        45    3.817069E-04
        46   -2.137810E-04
        47   -6.537829E-03
        48   -5.022323E-02
        49    1.233253E-02
        50    3.536708E-03
        51    5.853898E-06
        52    9.566581E-02
        53    4.023529E-03
        54    2.343747E-06
        55    9.988388E-02
        56    2.053076E-02
        57    6.176877E-04
        58    1.479376E-01
        59    2.626328E-04
        60   -2.439454E-04
        61   -1.868742E-05
        62   -1.885580E-07
        63    1.007976E-03
        64    9.814182E-07
        65    8.651630E-04
        66   -1.276366E-03
        67    4.112034E-04
        68    5.337773E-07
        69    3.166237E-03
        70    2.644783E-06
        71    1.708563E-02
        72   -1.850547E-02
        73    1.419833E-03
        74   -8.196285E-05
        75   -1.569558E-03
        76    7.027934E-06
        77    1.190830E-05
        78    6.392302E-08
        79   -4.427550E-04
        80    5.731749E-06
        81   -6.826266E-08
        82    2.856641E-04
        83   -2.170841E-05
        84   -1.749907E-08
        85    3.083541E-04
        86   -1.555968E-07
        87   -1.252573E-03
        88   -2.819115E-03
        89    5.139006E-03
        90    4.385690E-04
        91    2.065326E-03
        92   -1.873226E-02
        93   -6.140858E-03
        94   -2.558444E-03
        95   -9.857879E-03
        96    1.120386E-03
        97   -1.551132E-03
        98   -1.135368E-02
        99    4.821223E-02
       100    1.031248E-02
       101   -1.160405E-02
       102    1.866600E-04
       103   -1.343858E-04
       104   -5.227419E-05
       105   -5.433034E-05
       106    3.986342E-03
       107    1.763056E-03
       108   -7.492999E-04
       109    4.659053E-04
       110    2.833946E-04
       111    1.171022E-03
       112    9.138549E-03
       113    3.562078E-03
       114   -6.038280E-03
       115    5.480282E-03
       116    5.579984E-04
       117   -3.450989E-03
       118   -4.783336E-03
       119   -1.420634E-02
       120    8.394907E-06
       121   -1.668937E-07
       122    1.362303E-04
       123    9.650181E-06
       124   -4.864452E-06
       125   -5.801428E-04
       126   -2.091313E-05
       127    5.088363E-06
       128    3.973707E-04
       129    3.363667E-04
       130    1.163326E-03
       131    2.566183E-03
       132   -2.158397E-03
       133   -2.154515E-02
       134    1.499315E-02
       135    1.973673E-02
       136    8.956530E-03
       137   -7.535713E-04
       138   -1.013093E-01
       139    1.995320E-02
       140   -9.661584E-03
       141   -1.046597E-01
       142    3.414678E-02
       143    1.228265E-02
       144   -5.918158E-02
       145    4.995758E-04
       146   -6.299132E-04
       147    1.303374E-04
       148   -1.094595E-04
       149   -8.926127E-04
       150   -1.009915E-03
       151    1.108365E-03
       152   -1.502103E-03
       153    3.937379E-04
       154    2.728819E-03
       155    6.405965E-04
       156   -1.314797E-03
       157    1.219077E-02
       158   -9.696745E-03
       159   -2.494025E-03
       160   -1.454324E-02
       161   -5.661755E-03
       162    1.925008E-02
       163    2.094248E-05
       164   -2.104282E-05
       165    4.584712E-04
       166    6.443576E-05
       167   -2.187950E-05
       168   -1.315751E-04
       169   -9.253304E-05
       170    5.011140E-05
       171   -4.835286E-04
       172   -1.429214E-06
       173   -1.896049E-03
       174   -4.329223E-03
       175    4.660976E-03
       176    3.303987E-02
       177   -3.991212E-02
       178    1.335921E-02
       179   -2.373260E-02
       180   -8.823178E-06
       181    5.356270E-03
       182   -6.799530E-03
       183    9.342246E-06
       184   -6.522449E-04
       185    5.262234E-02
       186   -5.446557E-04
       187   -1.220904E-01
       188    1.283249E-03
       189   -9.112133E-04
       190   -3.720353E-04
       191   -3.499930E-08
       192   -1.157751E-02
       193    1.017886E-06
       194   -2.596662E-03
       195    6.120608E-03
       196   -3.523947E-03
       197    4.094222E-06
       198   -2.625158E-02
       199    2.272285E-06
       200   -1.285896E-02
       201    1.481485E-02
       202   -1.955893E-03
       203   -1.026164E-04
       204   -1.640682E-02
       205   -4.554117E-06
       206   -2.420100E-04
       207    7.760002E-09
       208   -7.352605E-04
       209    1.490727E-04
       210    5.152606E-08
       211    2.011183E-03
       212    1.756178E-04
       213   -6.193720E-08
       214   -1.024728E-03
       215    1.722661E-07
       216    1.167235E-03
       217    2.574737E-03
       218   -2.164970E-03
       219   -2.161619E-02
       220    1.688926E-02
       221    1.970763E-02
       222    8.959932E-03
       223    7.552301E-04
       224   -1.012484E-01
       225    1.995966E-02
       226    9.682093E-03
       227   -1.045988E-01
       228    3.431533E-02
       229   -1.296586E-02
       230   -5.910990E-02
       231    4.994258E-04
       232   -6.304867E-04
       233    1.310609E-04
       234    1.092860E-04
       235   -8.910372E-04
       236    1.009792E-03
       237    1.108439E-03
       238   -1.505314E-03
       239    3.968750E-04
       240   -2.733506E-03
       241    6.407307E-04
       242    1.314196E-03
       243    1.215052E-02
       244   -9.655409E-03
       245   -2.495106E-03
       246    1.458064E-02
       247   -5.667597E-03
       248   -1.925967E-02
       249    2.075221E-05
       250    2.115095E-05
       251    4.581170E-04
       252    6.480725E-05
       253    2.181317E-05
       254   -1.312249E-04
       255   -9.264926E-05
       256   -5.019014E-05
       257   -4.834035E-04
       258    1.489381E-06
       259    5.725594E-04
       260    1.099720E-03
       261   -3.160187E-02
       262   -1.934631E-04
       263   -1.171482E-04
       264   -3.844675E-04
       265    7.470818E-03
       266    1.958406E-03
       267   -8.403199E-03
       268    5.722344E-04
       269    1.109712E-03
       270   -3.146366E-02
       271   -1.943055E-04
       272    1.181676E-04
       273   -3.866894E-04
       274    7.515111E-03
       275   -1.925496E-03
       276   -8.403053E-03
       277   -4.036003E-03
       278   -8.721453E-03
       279    5.510038E-02
       280   -7.116633E-05
       281   -6.560521E-04
       282   -4.004277E-03
       283    4.592045E-03
       284    4.225729E-03
       285    8.617944E-03
       286   -4.040666E-03
       287   -8.720593E-03
       288    5.535400E-02
       289   -7.213767E-05
       290    6.559273E-04
       291   -4.001895E-03
       292    4.595874E-03
       293   -4.268451E-03
       294    8.622344E-03
       295   -2.685351E-04
       296   -6.246441E-04
       297    7.181346E-04
       298    2.290358E-03
       299   -1.139522E-02
       300   -3.924288E-03
       301   -4.850866E-03
       302   -2.544612E-06
       303    1.418954E-02
       304   -3.946041E-03
       305   -8.970230E-07
       306    1.624764E-02
       307    3.738718E-03
       308   -3.900196E-05
       309    4.001720E-04
       310    1.703855E-04
       311   -1.908657E-04
       312    2.048028E-05
       313    6.470255E-09
       314   -2.247351E-03
       315   -3.803492E-07
       316    4.239221E-04
       317   -3.764393E-04
       318   -4.748277E-05
       319   -1.722240E-07
       320   -6.842973E-03
       321   -1.020056E-06
       322   -1.272800E-03
       323    4.264744E-03
       324   -2.991943E-03
       325    2.358959E-05
       326   -1.773053E-04
       327   -1.823496E-06
       328   -1.147618E-05
       329   -7.159082E-08
       330    5.582644E-06
       331   -2.413665E-06
       332    6.421076E-08
       333    3.532429E-04
       334    1.781058E-05
       335    3.183840E-08
       336   -3.607328E-04
       337   -8.942114E-08
       338   -1.106423E-04
       339   -2.630278E-04
       340    3.384742E-04
       341    1.514909E-03
       342   -8.848870E-03
       343   -7.638341E-04
       344    3.721877E-03
       345   -7.100472E-04
       346   -4.129007E-02
       347    3.445184E-03
       348   -7.606483E-04
       349   -3.840957E-02
       350    4.370212E-03
       351   -8.319363E-04
       352   -3.169226E-02
       353    5.576018E-04
       354   -9.998278E-05
       355   -4.239896E-03
       356    1.594125E-05
       357   -3.696855E-05
       358    2.102731E-05
       359    3.404600E-05
       360   -3.209168E-05
       361   -2.075052E-04
       362   -3.680711E-06
       363   -8.497447E-05
       364    8.865518E-05
       365    8.628511E-05
       366    2.164777E-04
       367   -6.888219E-04
       368   -1.324601E-04
       369    6.133408E-05
       370    7.112605E-05
       371    1.383230E-04
       372   -3.952834E-04
       373   -1.545034E-04
       374   -7.157379E-06
       375   -6.249069E-06
       376    2.748605E-05
       377    1.342094E-05
       378   -1.718647E-06
       379    4.441039E-05
       380   -3.818307E-06
       381    1.010265E-05
       382   -8.128680E-05
       383    6.194223E-05
       384   -1.114040E-04
       385   -2.649187E-04
       386    3.417544E-04
       387    1.516495E-03
       388   -8.840395E-03
       389   -7.461795E-04
       390    3.730952E-03
       391    7.074334E-04
       392   -4.131290E-02
       393    3.453075E-03
       394    7.586147E-04
       395   -3.843083E-02
       396    4.352148E-03
       397    8.229533E-04
       398   -3.170583E-02
       399    5.503637E-04
       400    1.003967E-04
       401   -4.242603E-03
       402    1.587671E-05
       403   -3.694487E-05
       404    2.106816E-05
       405   -3.419387E-05
       406   -3.198496E-05
       407    2.076907E-04
       408   -3.613285E-06
       409   -8.503120E-05
       410    8.864449E-05
       411   -8.641525E-05
       412    2.167798E-04
       413    6.895087E-04
       414   -1.336976E-04
       415    6.394715E-05
       416    6.975046E-05
       417   -1.366826E-04
       418   -3.949622E-04
       419    1.544494E-04
       420   -7.171136E-06
       421    6.225889E-06
       422    2.751816E-05
       423    1.344451E-05
       424    1.753659E-06
       425    4.441955E-05
       426   -3.823422E-06
       427   -1.010657E-05
       428   -8.133904E-05
       429   -6.200500E-05
       430    7.858523E-03
       431    1.861272E-02
       432   -2.880963E-02
       433   -4.554636E-02
       434   -2.464606E-02
       435   -8.766811E-02
       436    3.617249E-02
       437   -1.637639E-05
       438    3.806272E-01
       439    3.938912E-02
       440   -6.647549E-06
       441    3.724126E-01
       442    4.005507E-02
       443    1.169814E-04
       444    2.815192E-01
       445   -6.951895E-05
       446   -2.547872E-04
       447    3.243061E-04
       448    2.780338E-07
       449    1.046067E-03
       450   -3.617172E-07
       451   -8.054313E-05
       452   -3.152315E-03
       453    3.232858E-03
       454   -5.070239E-06
       455    8.496350E-04
       456   -1.659408E-06
       457   -1.188822E-03
       458   -7.157510E-03
       459    8.346332E-03
       460   -5.754812E-06
       461   -8.051514E-04
       462   -1.007527E-05
       463    2.027214E-04
       464   -5.880838E-08
       465   -1.772540E-03
       466    1.715156E-04
       467   -4.686030E-08
       468    1.288717E-03
       469   -4.434949E-04
       470    1.257600E-07
       471    1.089395E-03
       472    1.572944E-08
       473    1.168259E-02
       474    2.495640E-02
       475    4.665118E-02
       476    3.891883E-03
       477    2.854863E-03
       478    1.831187E-02
       479    7.780527E-04
       480    5.388560E-03
       481    1.506408E-02
       482    1.167319E-02
       483    2.486653E-02
       484    4.643746E-02
       485    3.886454E-03
       486   -2.846618E-03
       487    1.831584E-02
       488    7.608854E-04
       489   -5.344573E-03
       490    1.508324E-02
 Sym= X
 Ene= -0.801989
 Spin= Alpha
 Occup= -0.801989
         1   -1.088845E-04
         2   -2.492946E-04
         3    4.761402E-04
         4    8.439876E-06
         5    1.747716E-02
         6    1.497556E-03
         7    1.813792E-03
         8   -3.049899E-04
         9    1.876027E-01
        10    1.303213E-03
        11   -7.302040E-05
        12    1.881492E-01
        13    6.827217E-03
        14   -1.004035E-02
        15    1.093570E-01
        16   -4.969667E-05
        17    6.213140E-05
        18   -1.243472E-05
        19   -3.122865E-05
        20   -4.952624E-03
        21   -5.436466E-04
        22   -1.427800E-04
        23    1.170091E-04
        24    2.577092E-05
        25   -2.779192E-05
        26   -9.577080E-03
        27    4.255835E-04
        28   -9.545562E-04
        29    1.219628E-03
        30   -2.650714E-04
        31   -1.083863E-03
        32   -3.222327E-03
        33    1.025946E-05
        34   -1.946460E-06
        35   -5.689367E-06
        36   -1.159722E-03
        37    3.668362E-06
        38    6.395007E-06
        39    1.402680E-03
        40   -1.056911E-06
        41    1.238080E-06
        42    1.532505E-04
        43    4.672076E-06
        44   -6.457058E-08
        45   -2.551499E-07
        46    8.311815E-06
        47   -3.053574E-05
        48   -2.926642E-03
        49   -2.080969E-04
        50   -7.074141E-06
        51    1.734193E-03
        52    8.142772E-06
        53    1.564996E-05
        54    1.934637E-03
        55    2.053449E-06
        56    1.305680E-03
        57   -1.757428E-02
        58   -3.438888E-05
        59   -2.403518E-07
        60    7.338920E-08
        61    1.669626E-07
        62   -7.414493E-05