[Molden Format]
[Title]
ADC(2) - opt by CAM-B3LYP gaussian                                              
[Atoms] AU
 c     1    6 0.12589710753986E+01 0.22825551554713E+01 -.28105798744860E-01
 c     2    6 0.25558923691721E+01 0.80431469000000E-06 -.26811997747980E-01
 c     3    6 0.12589700738438E+01 -.22825573262942E+01 -.28139341383720E-01
 c     4    6 -.13331755585332E+01 -.22837561874501E+01 -.30470167390540E-01
 c     5    6 -.26866009864883E+01 0.27696298600000E-05 -.30311128039200E-01
 c     6    6 -.13331783742251E+01 0.22837572858534E+01 -.30432977580250E-01
 h     7    1 0.22993222678978E+01 0.40366379181686E+01 -.25216785432900E-01
 h     8    1 0.22993197734593E+01 -.40366408826765E+01 -.25273722881290E-01
 h     9    1 -.23520966897676E+01 -.40562070503646E+01 -.33235309154490E-01
 h    10    1 -.23520900190344E+01 0.40562136478709E+01 -.33159965773570E-01
 n    11    7 0.52762255328692E+01 0.25629411000000E-06 -.20783601308720E-01
 o    12    8 0.63803680214636E+01 -.20270720034092E+01 -.18188232540560E-01
 o    13    8 0.63803692875801E+01 0.20270718545932E+01 -.18282964511600E-01
 n    14    7 -.52484248103301E+01 -.66967170000000E-06 -.81289589624650E-01
 h    15    1 -.62019351690707E+01 -.16149791988436E+01 0.21484054874156E+00
 h    16    1 -.62019367942352E+01 0.16149736265137E+01 0.21486103337284E+00
[GTO]
    1 0
 s    6 1.00
 0.13575349682000E+05 0.60645503603591E-03
 0.20352333680000E+04 0.46979088884982E-02
 0.46322562359000E+03 0.24332477647552E-01
 0.13120019598000E+03 0.97399968307759E-01
 0.42853015891000E+02 0.30195584253780E+00
 0.15584185766000E+02 0.66233609137875E+00
 s    2 1.00
 0.62067138508000E+01 0.65595308539952E+00
 0.25764896527000E+01 0.37585633285142E+00
 s    1 1.00
 0.57696339419000E+00 0.10000000000000E+01
 s    1 1.00
 0.22972831358000E+00 0.10000000000000E+01
 s    1 1.00
 0.95164440028000E-01 0.10000000000000E+01
 s    1 1.00
 0.48475401370000E-01 0.10000000000000E+01
 p    4 1.00
 0.34697232244000E+02 0.11327220003114E-01
 0.79582622826000E+01 0.76169659202087E-01
 0.23780826883000E+01 0.30192252202676E+00
 0.81433208183000E+00 0.72785027349547E+00
 p    1 1.00
 0.28887547253000E+00 0.10000000000000E+01
 p    1 1.00
 0.10056823671000E+00 0.10000000000000E+01
 d    1 1.00
 0.10970000000000E+01 0.10000000000000E+01
 d    1 1.00
 0.31800000000000E+00 0.10000000000000E+01
 d    1 1.00
 0.90985336424000E-01 0.10000000000000E+01
 f    1 1.00
 0.76100000000000E+00 0.10000000000000E+01
 
    2 0
 s    6 1.00
 0.13575349682000E+05 0.60645503603591E-03
 0.20352333680000E+04 0.46979088884982E-02
 0.46322562359000E+03 0.24332477647552E-01
 0.13120019598000E+03 0.97399968307759E-01
 0.42853015891000E+02 0.30195584253780E+00
 0.15584185766000E+02 0.66233609137875E+00
 s    2 1.00
 0.62067138508000E+01 0.65595308539952E+00
 0.25764896527000E+01 0.37585633285142E+00
 s    1 1.00
 0.57696339419000E+00 0.10000000000000E+01
 s    1 1.00
 0.22972831358000E+00 0.10000000000000E+01
 s    1 1.00
 0.95164440028000E-01 0.10000000000000E+01
 s    1 1.00
 0.48475401370000E-01 0.10000000000000E+01
 p    4 1.00
 0.34697232244000E+02 0.11327220003114E-01
 0.79582622826000E+01 0.76169659202087E-01
 0.23780826883000E+01 0.30192252202676E+00
 0.81433208183000E+00 0.72785027349547E+00
 p    1 1.00
 0.28887547253000E+00 0.10000000000000E+01
 p    1 1.00
 0.10056823671000E+00 0.10000000000000E+01
 d    1 1.00
 0.10970000000000E+01 0.10000000000000E+01
 d    1 1.00
 0.31800000000000E+00 0.10000000000000E+01
 d    1 1.00
 0.90985336424000E-01 0.10000000000000E+01
 f    1 1.00
 0.76100000000000E+00 0.10000000000000E+01
 
    3 0
 s    6 1.00
 0.13575349682000E+05 0.60645503603591E-03
 0.20352333680000E+04 0.46979088884982E-02
 0.46322562359000E+03 0.24332477647552E-01
 0.13120019598000E+03 0.97399968307759E-01
 0.42853015891000E+02 0.30195584253780E+00
 0.15584185766000E+02 0.66233609137875E+00
 s    2 1.00
 0.62067138508000E+01 0.65595308539952E+00
 0.25764896527000E+01 0.37585633285142E+00
 s    1 1.00
 0.57696339419000E+00 0.10000000000000E+01
 s    1 1.00
 0.22972831358000E+00 0.10000000000000E+01
 s    1 1.00
 0.95164440028000E-01 0.10000000000000E+01
 s    1 1.00
 0.48475401370000E-01 0.10000000000000E+01
 p    4 1.00
 0.34697232244000E+02 0.11327220003114E-01
 0.79582622826000E+01 0.76169659202087E-01
 0.23780826883000E+01 0.30192252202676E+00
 0.81433208183000E+00 0.72785027349547E+00
 p    1 1.00
 0.28887547253000E+00 0.10000000000000E+01
 p    1 1.00
 0.10056823671000E+00 0.10000000000000E+01
 d    1 1.00
 0.10970000000000E+01 0.10000000000000E+01
 d    1 1.00
 0.31800000000000E+00 0.10000000000000E+01
 d    1 1.00
 0.90985336424000E-01 0.10000000000000E+01
 f    1 1.00
 0.76100000000000E+00 0.10000000000000E+01
 
    4 0
 s    6 1.00
 0.13575349682000E+05 0.60645503603591E-03
 0.20352333680000E+04 0.46979088884982E-02
 0.46322562359000E+03 0.24332477647552E-01
 0.13120019598000E+03 0.97399968307759E-01
 0.42853015891000E+02 0.30195584253780E+00
 0.15584185766000E+02 0.66233609137875E+00
 s    2 1.00
 0.62067138508000E+01 0.65595308539952E+00
 0.25764896527000E+01 0.37585633285142E+00
 s    1 1.00
 0.57696339419000E+00 0.10000000000000E+01
 s    1 1.00
 0.22972831358000E+00 0.10000000000000E+01
 s    1 1.00
 0.95164440028000E-01 0.10000000000000E+01
 s    1 1.00
 0.48475401370000E-01 0.10000000000000E+01
 p    4 1.00
 0.34697232244000E+02 0.11327220003114E-01
 0.79582622826000E+01 0.76169659202087E-01
 0.23780826883000E+01 0.30192252202676E+00
 0.81433208183000E+00 0.72785027349547E+00
 p    1 1.00
 0.28887547253000E+00 0.10000000000000E+01
 p    1 1.00
 0.10056823671000E+00 0.10000000000000E+01
 d    1 1.00
 0.10970000000000E+01 0.10000000000000E+01
 d    1 1.00
 0.31800000000000E+00 0.10000000000000E+01
 d    1 1.00
 0.90985336424000E-01 0.10000000000000E+01
 f    1 1.00
 0.76100000000000E+00 0.10000000000000E+01
 
    5 0
 s    6 1.00
 0.13575349682000E+05 0.60645503603591E-03
 0.20352333680000E+04 0.46979088884982E-02
 0.46322562359000E+03 0.24332477647552E-01
 0.13120019598000E+03 0.97399968307759E-01
 0.42853015891000E+02 0.30195584253780E+00
 0.15584185766000E+02 0.66233609137875E+00
 s    2 1.00
 0.62067138508000E+01 0.65595308539952E+00
 0.25764896527000E+01 0.37585633285142E+00
 s    1 1.00
 0.57696339419000E+00 0.10000000000000E+01
 s    1 1.00
 0.22972831358000E+00 0.10000000000000E+01
 s    1 1.00
 0.95164440028000E-01 0.10000000000000E+01
 s    1 1.00
 0.48475401370000E-01 0.10000000000000E+01
 p    4 1.00
 0.34697232244000E+02 0.11327220003114E-01
 0.79582622826000E+01 0.76169659202087E-01
 0.23780826883000E+01 0.30192252202676E+00
 0.81433208183000E+00 0.72785027349547E+00
 p    1 1.00
 0.28887547253000E+00 0.10000000000000E+01
 p    1 1.00
 0.10056823671000E+00 0.10000000000000E+01
 d    1 1.00
 0.10970000000000E+01 0.10000000000000E+01
 d    1 1.00
 0.31800000000000E+00 0.10000000000000E+01
 d    1 1.00
 0.90985336424000E-01 0.10000000000000E+01
 f    1 1.00
 0.76100000000000E+00 0.10000000000000E+01
 
    6 0
 s    6 1.00
 0.13575349682000E+05 0.60645503603591E-03
 0.20352333680000E+04 0.46979088884982E-02
 0.46322562359000E+03 0.24332477647552E-01
 0.13120019598000E+03 0.97399968307759E-01
 0.42853015891000E+02 0.30195584253780E+00
 0.15584185766000E+02 0.66233609137875E+00
 s    2 1.00
 0.62067138508000E+01 0.65595308539952E+00
 0.25764896527000E+01 0.37585633285142E+00
 s    1 1.00
 0.57696339419000E+00 0.10000000000000E+01
 s    1 1.00
 0.22972831358000E+00 0.10000000000000E+01
 s    1 1.00
 0.95164440028000E-01 0.10000000000000E+01
 s    1 1.00
 0.48475401370000E-01 0.10000000000000E+01
 p    4 1.00
 0.34697232244000E+02 0.11327220003114E-01
 0.79582622826000E+01 0.76169659202087E-01
 0.23780826883000E+01 0.30192252202676E+00
 0.81433208183000E+00 0.72785027349547E+00
 p    1 1.00
 0.28887547253000E+00 0.10000000000000E+01
 p    1 1.00
 0.10056823671000E+00 0.10000000000000E+01
 d    1 1.00
 0.10970000000000E+01 0.10000000000000E+01
 d    1 1.00
 0.31800000000000E+00 0.10000000000000E+01
 d    1 1.00
 0.90985336424000E-01 0.10000000000000E+01
 f    1 1.00
 0.76100000000000E+00 0.10000000000000E+01
 
    7 0
 s    3 1.00
 0.34061341000000E+02 0.25439307208879E-01
 0.51235746000000E+01 0.19008594890375E+00
 0.11646626000000E+01 0.85244113011042E+00
 s    1 1.00
 0.32723041000000E+00 0.10000000000000E+01
 s    1 1.00
 0.10307241000000E+00 0.10000000000000E+01
 p    1 1.00
 0.80000000000000E+00 0.10000000000000E+01
 p    1 1.00
 0.95774129632000E-01 0.10000000000000E+01
 
    8 0
 s    3 1.00
 0.34061341000000E+02 0.25439307208879E-01
 0.51235746000000E+01 0.19008594890375E+00
 0.11646626000000E+01 0.85244113011042E+00
 s    1 1.00
 0.32723041000000E+00 0.10000000000000E+01
 s    1 1.00
 0.10307241000000E+00 0.10000000000000E+01
 p    1 1.00
 0.80000000000000E+00 0.10000000000000E+01
 p    1 1.00
 0.95774129632000E-01 0.10000000000000E+01
 
    9 0
 s    3 1.00
 0.34061341000000E+02 0.25439307208879E-01
 0.51235746000000E+01 0.19008594890375E+00
 0.11646626000000E+01 0.85244113011042E+00
 s    1 1.00
 0.32723041000000E+00 0.10000000000000E+01
 s    1 1.00
 0.10307241000000E+00 0.10000000000000E+01
 p    1 1.00
 0.80000000000000E+00 0.10000000000000E+01
 p    1 1.00
 0.95774129632000E-01 0.10000000000000E+01
 
   10 0
 s    3 1.00
 0.34061341000000E+02 0.25439307208879E-01
 0.51235746000000E+01 0.19008594890375E+00
 0.11646626000000E+01 0.85244113011042E+00
 s    1 1.00
 0.32723041000000E+00 0.10000000000000E+01
 s    1 1.00
 0.10307241000000E+00 0.10000000000000E+01
 p    1 1.00
 0.80000000000000E+00 0.10000000000000E+01
 p    1 1.00
 0.95774129632000E-01 0.10000000000000E+01
 
   11 0
 s    6 1.00
 0.19730800647000E+05 0.58626402628763E-03
 0.29578958745000E+04 0.45428820586397E-02
 0.67322133595000E+03 0.23558413450084E-01
 0.19068249494000E+03 0.94709193292923E-01
 0.62295441898000E+02 0.29719784913376E+00
 0.22654161182000E+02 0.66916246895232E+00
 s    2 1.00
 0.89791477428000E+01 0.64596683630063E+00
 0.36863002370000E+01 0.38700574393705E+00
 s    1 1.00
 0.84660076805000E+00 0.10000000000000E+01
 s    1 1.00
 0.33647133771000E+00 0.10000000000000E+01
 s    1 1.00
 0.13647653675000E+00 0.10000000000000E+01
 s    1 1.00
 0.68441605847000E-01 0.10000000000000E+01
 p    4 1.00
 0.49200380510000E+02 0.11448825101764E-01
 0.11346790537000E+02 0.78422337970864E-01
 0.34273972411000E+01 0.30818094738830E+00
 0.11785525134000E+01 0.72027196368413E+00
 p    1 1.00
 0.41642204972000E+00 0.10000000000000E+01
 p    1 1.00
 0.14260826011000E+00 0.10000000000000E+01
 d    1 1.00
 0.16540000000000E+01 0.10000000000000E+01
 d    1 1.00
 0.46900000000000E+00 0.10000000000000E+01
 d    1 1.00
 0.12829642058000E+00 0.10000000000000E+01
 f    1 1.00
 0.10930000000000E+01 0.10000000000000E+01
 
   12 0
 s    6 1.00
 0.27032382631000E+05 0.57227335211155E-03
 0.40523871392000E+04 0.44353233492995E-02
 0.92232722710000E+03 0.23020107706038E-01
 0.26124070989000E+03 0.92822490667928E-01
 0.85354641351000E+02 0.29378500009671E+00
 0.31035035245000E+02 0.67401604501641E+00
 s    2 1.00
 0.12260860728000E+02 0.63839937025506E+00
 0.49987076005000E+01 0.39534587125718E+00
 s    1 1.00
 0.11703108158000E+01 0.10000000000000E+01
 s    1 1.00
 0.46474740994000E+00 0.10000000000000E+01
 s    1 1.00
 0.18504536357000E+00 0.10000000000000E+01
 s    1 1.00
 0.70288026270000E-01 0.10000000000000E+01
 p    4 1.00
 0.63274954801000E+02 0.12018332222616E-01
 0.14627049379000E+02 0.83005421790056E-01
 0.44501223456000E+01 0.31991743925964E+00
 0.15275799647000E+01 0.70715542916104E+00
 p    1 1.00
 0.52935117943000E+00 0.10000000000000E+01
 p    1 1.00
 0.17478421270000E+00 0.10000000000000E+01
 p    1 1.00
 0.51112745706000E-01 0.10000000000000E+01
 d    1 1.00
 0.23140000000000E+01 0.10000000000000E+01
 d    1 1.00
 0.64500000000000E+00 0.10000000000000E+01
 d    1 1.00
 0.14696477366000E+00 0.10000000000000E+01
 f    1 1.00
 0.14280000000000E+01 0.10000000000000E+01
 
   13 0
 s    6 1.00
 0.27032382631000E+05 0.57227335211155E-03
 0.40523871392000E+04 0.44353233492995E-02
 0.92232722710000E+03 0.23020107706038E-01
 0.26124070989000E+03 0.92822490667928E-01
 0.85354641351000E+02 0.29378500009671E+00
 0.31035035245000E+02 0.67401604501641E+00
 s    2 1.00
 0.12260860728000E+02 0.63839937025506E+00
 0.49987076005000E+01 0.39534587125718E+00
 s    1 1.00
 0.11703108158000E+01 0.10000000000000E+01
 s    1 1.00
 0.46474740994000E+00 0.10000000000000E+01
 s    1 1.00
 0.18504536357000E+00 0.10000000000000E+01
 s    1 1.00
 0.70288026270000E-01 0.10000000000000E+01
 p    4 1.00
 0.63274954801000E+02 0.12018332222616E-01
 0.14627049379000E+02 0.83005421790056E-01
 0.44501223456000E+01 0.31991743925964E+00
 0.15275799647000E+01 0.70715542916104E+00
 p    1 1.00
 0.52935117943000E+00 0.10000000000000E+01
 p    1 1.00
 0.17478421270000E+00 0.10000000000000E+01
 p    1 1.00
 0.51112745706000E-01 0.10000000000000E+01
 d    1 1.00
 0.23140000000000E+01 0.10000000000000E+01
 d    1 1.00
 0.64500000000000E+00 0.10000000000000E+01
 d    1 1.00
 0.14696477366000E+00 0.10000000000000E+01
 f    1 1.00
 0.14280000000000E+01 0.10000000000000E+01
 
   14 0
 s    6 1.00
 0.19730800647000E+05 0.58626402628763E-03
 0.29578958745000E+04 0.45428820586397E-02
 0.67322133595000E+03 0.23558413450084E-01
 0.19068249494000E+03 0.94709193292923E-01
 0.62295441898000E+02 0.29719784913376E+00
 0.22654161182000E+02 0.66916246895232E+00
 s    2 1.00
 0.89791477428000E+01 0.64596683630063E+00
 0.36863002370000E+01 0.38700574393705E+00
 s    1 1.00
 0.84660076805000E+00 0.10000000000000E+01
 s    1 1.00
 0.33647133771000E+00 0.10000000000000E+01
 s    1 1.00
 0.13647653675000E+00 0.10000000000000E+01
 s    1 1.00
 0.68441605847000E-01 0.10000000000000E+01
 p    4 1.00
 0.49200380510000E+02 0.11448825101764E-01
 0.11346790537000E+02 0.78422337970864E-01
 0.34273972411000E+01 0.30818094738830E+00
 0.11785525134000E+01 0.72027196368413E+00
 p    1 1.00
 0.41642204972000E+00 0.10000000000000E+01
 p    1 1.00
 0.14260826011000E+00 0.10000000000000E+01
 d    1 1.00
 0.16540000000000E+01 0.10000000000000E+01
 d    1 1.00
 0.46900000000000E+00 0.10000000000000E+01
 d    1 1.00
 0.12829642058000E+00 0.10000000000000E+01
 f    1 1.00
 0.10930000000000E+01 0.10000000000000E+01
 
   15 0
 s    3 1.00
 0.34061341000000E+02 0.25439307208879E-01
 0.51235746000000E+01 0.19008594890375E+00
 0.11646626000000E+01 0.85244113011042E+00
 s    1 1.00
 0.32723041000000E+00 0.10000000000000E+01
 s    1 1.00
 0.10307241000000E+00 0.10000000000000E+01
 p    1 1.00
 0.80000000000000E+00 0.10000000000000E+01
 p    1 1.00
 0.95774129632000E-01 0.10000000000000E+01
 
   16 0
 s    3 1.00
 0.34061341000000E+02 0.25439307208879E-01
 0.51235746000000E+01 0.19008594890375E+00
 0.11646626000000E+01 0.85244113011042E+00
 s    1 1.00
 0.32723041000000E+00 0.10000000000000E+01
 s    1 1.00
 0.10307241000000E+00 0.10000000000000E+01
 p    1 1.00
 0.80000000000000E+00 0.10000000000000E+01
 p    1 1.00
 0.95774129632000E-01 0.10000000000000E+01
 
[MO]
 Sym= X
 Ene= -0.054511
 Spin= Alpha
 Occup= -0.054511
         1    3.092189E-04
         2    7.136476E-04
         3   -1.803090E-03
         4    3.076787E-03
         5    1.446311E-03
         6    1.534197E-02
         7    3.182524E-03
         8    3.415442E-04
         9    2.127890E-02
        10   -2.546760E-03
        11    6.834252E-04
        12    2.236135E-02
        13   -4.268784E-02
        14    1.176190E-02
        15    1.167266E-02
        16   -4.043220E-05
        17    4.790024E-05
        18   -7.468037E-06
        19    3.199207E-05
        20   -5.575538E-03
        21    2.088840E-03
        22    8.110563E-04
        23   -4.937239E-04
        24   -3.173324E-04
        25    1.013268E-03
        26   -1.244014E-02
        27    4.259846E-03
        28    5.626386E-03
        29   -5.276208E-03
        30   -3.501779E-04
        31   -1.898816E-03
        32    4.176734E-03
        33   -1.142808E-02
        34   -2.225693E-05
        35    1.071712E-05
        36   -2.759743E-04
        37    7.821335E-06
        38   -1.047990E-05
        39    8.438720E-04
        40    2.203947E-05
        41   -3.898633E-06
        42   -4.736136E-04
        43    4.703222E-04
        44   -6.339098E-05
        45   -1.394450E-04
        46   -1.525957E-04
        47    4.484275E-03
        48    5.762727E-02
        49   -9.133274E-03
        50    1.167151E-04
        51    3.114282E-05
        52   -1.175705E-01
        53   -1.050636E-03
        54    3.488243E-05
        55   -1.237844E-01
        56   -1.981916E-02
        57   -9.171142E-04
        58   -1.622622E-01
        59   -8.156675E-05
        60    8.064922E-05
        61    9.175292E-07
        62   -1.204372E-06
        63   -1.570627E-03
        64   -3.228030E-06
        65   -5.885887E-04
        66    9.336710E-04
        67   -3.450823E-04
        68   -1.666221E-06
        69   -4.454076E-03
        70   -8.174195E-06
        71   -1.381501E-02
        72    1.519801E-02
        73   -1.383002E-03
        74    1.299201E-04
        75    1.901041E-03
        76   -4.737787E-06
        77    7.606363E-06
        78    2.141960E-07
        79    5.091559E-04
        80   -1.103659E-05
        81   -1.047226E-07
        82   -3.540591E-04
        83    8.315864E-07
        84   -1.826515E-07
        85   -3.290453E-04
        86    5.306082E-07
        87    3.133128E-04
        88    7.228553E-04
        89   -1.819413E-03
        90    3.090966E-03
        91   -1.408737E-03
        92    1.531639E-02
        93    3.144454E-03
        94   -3.676858E-04
        95    2.146002E-02
        96   -2.554392E-03
        97   -7.048382E-04
        98    2.254399E-02
        99   -4.274815E-02
       100   -1.273288E-02
       101    1.173980E-02
       102   -3.947067E-05
       103    4.669507E-05
       104   -7.224398E-06
       105   -3.406135E-05
       106   -5.580654E-03
       107   -2.088346E-03
       108    8.081369E-04
       109   -4.908692E-04
       110   -3.172677E-04
       111   -1.015073E-03
       112   -1.245002E-02
       113   -4.260373E-03
       114    5.693199E-03
       115   -5.367483E-03
       116   -3.257166E-04
       117    1.801499E-03
       118    4.180629E-03
       119    1.142010E-02
       120   -2.222856E-05
       121   -1.085774E-05
       122   -2.771282E-04
       123    7.803955E-06
       124    1.051413E-05
       125    8.452992E-04
       126    2.201879E-05
       127    4.053051E-06
       128   -4.734926E-04
       129   -4.703325E-04
       130   -1.949180E-04
       131   -4.252980E-04
       132   -6.755853E-04
       133    1.435905E-02
       134   -2.423070E-02
       135   -1.756772E-02
       136   -2.805245E-03
       137    1.280881E-03
       138    1.570738E-01
       139   -1.313025E-02
       140    8.680874E-03
       141    1.596077E-01
       142   -2.592712E-02
       143   -1.079870E-02
       144    9.140372E-02
       145   -2.506575E-04
       146    2.959470E-04
       147   -4.528957E-05
       148    4.608696E-07
       149    4.934386E-04
       150    2.609351E-03
       151   -8.453393E-04
       152    1.053472E-03
       153   -2.081323E-04
       154   -2.318939E-03
       155   -1.646677E-03
       156    4.155837E-03
       157   -1.083314E-02
       158    8.617913E-03
       159    2.215225E-03
       160    1.229636E-02
       161    4.521310E-03
       162   -1.549329E-02
       163   -2.105835E-05
       164    1.747900E-05
       165   -9.221416E-04
       166   -2.901756E-05
       167    1.858269E-05
       168    3.812918E-04
       169    5.727031E-05
       170   -4.203324E-05
       171    8.558909E-04
       172   -2.009816E-04
       173    1.605002E-03
       174    3.648852E-03
       175   -3.902750E-03
       176   -2.827659E-02
       177    3.838856E-02
       178   -9.096996E-03
       179    1.420620E-02
       180   -2.242805E-07
       181    8.030950E-02
       182    1.558529E-03
       183   -6.982704E-06
       184    8.394783E-02
       185   -4.291408E-02
       186    9.464785E-04
       187    1.323382E-01
       188   -7.381983E-04
       189    4.402128E-04
       190    2.979856E-04
       191   -3.036288E-07
       192    1.145116E-02
       193   -3.601716E-06
       194    2.523162E-03
       195   -5.496615E-03
       196    2.973453E-03
       197   -9.778724E-07
       198    2.740173E-02
       199   -8.414666E-06
       200    8.662577E-03
       201   -9.995262E-03
       202    1.332684E-03
       203    1.422356E-04
       204    1.880049E-02
       205   -2.896142E-06
       206    1.675094E-04
       207    2.240225E-07
       208   -4.258517E-05
       209   -1.140943E-04
       210   -3.089199E-07
       211   -1.409556E-03
       212   -1.106431E-04
       213    8.362133E-09
       214    1.466690E-03
       215   -6.010847E-07
       216   -2.013929E-04
       217   -4.394360E-04
       218   -6.571265E-04
       219    1.442376E-02
       220   -2.696816E-02
       221   -1.756574E-02
       222   -2.847541E-03
       223   -1.241359E-03
       224    1.568748E-01
       225   -1.317322E-02
       226   -8.655619E-03
       227    1.594084E-01
       228   -2.590064E-02
       229    1.187659E-02
       230    9.123783E-02
       231   -2.516255E-04
       232    2.980023E-04
       233   -4.637684E-05
       234   -2.372431E-06
       235    4.887682E-04
       236   -2.608947E-03
       237   -8.495016E-04
       238    1.057799E-03
       239   -2.082974E-04
       240    2.319136E-03
       241   -1.652686E-03
       242   -4.154825E-03
       243   -1.078379E-02
       244    8.559317E-03
       245    2.224470E-03
       246   -1.238193E-02
       247    4.515046E-03
       248    1.550681E-02
       249   -2.114530E-05
       250   -1.747528E-05
       251   -9.209285E-04
       252   -2.923473E-05
       253   -1.846802E-05
       254    3.799627E-04
       255    5.760414E-05
       256    4.191357E-05
       257    8.555926E-04
       258    2.008977E-04
       259    7.491448E-04
       260    7.074039E-04
       261    2.404755E-02
       262   -2.007342E-05
       263   -4.125925E-05
       264    6.772976E-04
       265   -6.919659E-03
       266   -8.305510E-04
       267    6.720881E-03
       268    7.520345E-04
       269    6.998240E-04
       270    2.390086E-02
       271   -1.934560E-05
       272    3.899160E-05
       273    6.845225E-04
       274   -6.977974E-03
       275    7.936842E-04
       276    6.720445E-03
       277    7.862987E-04
       278    3.539493E-03
       279   -4.720644E-02
       280   -2.493819E-05
       281    1.710256E-04
       282    6.171180E-03
       283   -3.358213E-03
       284   -3.589242E-03
       285   -4.662217E-03
       286    8.248969E-04
       287    3.591183E-03
       288   -4.754918E-02
       289   -2.231541E-05
       290   -1.751655E-04
       291    6.162948E-03
       292   -3.370294E-03
       293    3.639378E-03
       294   -4.680201E-03
       295    9.383186E-05
       296    2.199290E-04
       297   -2.456959E-04
       298   -7.632450E-04
       299    1.042623E-02
       300    8.994974E-04
       301    8.710884E-04
       302    1.570195E-05
       303   -2.668673E-02
       304    4.164278E-04
       305    9.481617E-06
       306   -2.850112E-02
       307   -4.489306E-03
       308    4.380184E-05
       309   -5.861846E-03
       310   -1.863378E-05
       311    1.244634E-05
       312    6.187441E-06
       313    2.933559E-06
       314    2.654257E-03
       315    2.652640E-06
       316    2.540530E-05
       317   -7.495369E-05
       318    4.954839E-05
       319    7.695566E-06
       320    8.243529E-03
       321    7.477768E-06
       322    1.032041E-03
       323   -3.640009E-03
       324    2.607968E-03
       325   -3.058939E-05
       326    1.005954E-03
       327    2.223828E-06
       328    7.721195E-06
       329   -6.657418E-07
       330    5.505651E-05
       331   -5.477501E-06
       332    9.903139E-07
       333   -4.534528E-04
       334   -4.881570E-06
       335   -9.712762E-08
       336    3.795867E-04
       337    5.430713E-07
       338    2.300723E-05
       339    5.124724E-05
       340   -1.617999E-05
       341   -7.309588E-04
       342    7.957886E-03
       343    1.289430E-03
       344   -2.834800E-04
       345    1.434249E-04
       346    4.461548E-02
       347   -4.133728E-04
       348    3.149084E-04
       349    4.159837E-02
       350   -1.749594E-03
       351    7.878883E-04
       352    3.657442E-02
       353   -2.941938E-04
       354    2.305627E-04
       355    5.127951E-03
       356   -5.356517E-06
       357    6.653586E-06
       358   -1.297069E-06
       359    9.546204E-07
       360    1.063306E-04
       361    1.262980E-04
       362    1.355444E-05
       363    1.709179E-05
       364   -3.064622E-05
       365   -9.169919E-06
       366   -4.243091E-05
       367    5.030174E-04
       368    8.170152E-05
       369   -2.889216E-05
       370   -5.280935E-05
       371   -5.468294E-05
       372    3.499948E-04
       373    6.314130E-05
       374    7.262040E-07
       375    2.620230E-06
       376   -9.074110E-06
       377   -1.516933E-06
       378   -1.350551E-06
       379   -5.283120E-05
       380    5.426285E-07
       381   -2.164856E-06
       382    6.500539E-05
       383   -4.315312E-05
       384    1.528005E-05
       385    3.250981E-05
       386    9.950101E-06
       387   -6.947019E-04
       388    7.972007E-03
       389    1.254001E-03
       390   -1.225937E-04
       391   -2.745951E-04
       392    4.476647E-02
       393   -2.676549E-04
       394   -4.315135E-04
       395    4.173755E-02
       396   -1.610961E-03
       397   -8.645843E-04
       398    3.667551E-02
       399   -2.642208E-04
       400   -2.413745E-04
       401    5.142038E-03
       402   -6.553196E-06
       403    8.290528E-06
       404   -1.737332E-06
       405   -7.983079E-07
       406    1.055937E-04
       407   -1.275161E-04
       408    9.465812E-06
       409    2.171219E-05
       410   -3.117800E-05
       411    8.598571E-06
       412   -4.479873E-05
       413   -5.073489E-04
       414    7.862447E-05
       415   -2.758786E-05
       416   -5.103661E-05
       417    5.174508E-05
       418    3.477394E-04
       419   -6.520062E-05
       420    8.962544E-07
       421   -3.092137E-06
       422   -9.286035E-06
       423   -1.841336E-06
       424    1.857181E-06
       425   -5.288605E-05
       426    6.388846E-07
       427    2.291355E-06
       428    6.534457E-05
       429    4.356243E-05
       430   -6.750023E-03
       431   -1.600033E-02
       432    2.479059E-02
       433    3.900597E-02
       434    2.291967E-02
       435    8.067800E-02
       436   -2.507656E-02
       437   -8.497329E-06
       438   -3.165169E-01
       439   -2.840975E-02
       440   -1.338625E-05
       441   -3.112976E-01
       442   -2.997290E-02
       443   -1.296770E-04
       444   -2.453098E-01
       445    1.382737E-04
       446    7.952996E-05
       447   -2.178036E-04
       448    2.137964E-07
       449    1.842436E-04
       450   -1.524672E-08
       451    2.169673E-04
       452    2.322538E-03
       453   -2.539505E-03
       454    4.978726E-06
       455    2.262025E-03
       456    8.437178E-07
       457    1.458525E-03
       458    5.287026E-03
       459   -6.745551E-03
       460   -5.938022E-07
       461    2.067778E-03
       462    9.012457E-06
       463   -1.764070E-04
       464   -1.982983E-08
       465    1.343170E-03
       466   -1.308192E-04
       467    3.398232E-08
       468   -8.411224E-04
       469    3.674941E-04
       470   -7.377804E-09
       471   -9.609292E-04
       472   -3.356806E-08
       473   -1.167292E-02
       474   -2.323703E-02
       475   -4.021975E-02
       476   -3.142216E-03
       477   -2.526864E-03
       478   -1.564054E-02
       479    1.871909E-04
       480   -4.422212E-03
       481   -1.555576E-02
       482   -1.168381E-02
       483   -2.318351E-02
       484   -4.002483E-02
       485   -3.139595E-03
       486    2.522008E-03
       487   -1.564374E-02
       488    2.093127E-04
       489    4.386699E-03
       490   -1.557229E-02
 Sym= X
 Ene= -0.799461
 Spin= Alpha
 Occup= -0.799461
         1    1.470202E-05
         2    3.360895E-05
         3   -8.017284E-05
         4    7.828023E-05
         5    2.924983E-03
         6    3.762590E-04
         7   -6.832646E-05
         8   -1.356847E-04
         9    7.954758E-02
        10   -2.244206E-04
        11   -8.229787E-05
        12    7.971789E-02
        13    6.071984E-04
        14   -1.816468E-03
        15    5.570494E-02
        16    3.602483E-06
        17   -1.904281E-06
        18   -1.698202E-06
        19   -2.915642E-06
        20   -1.860813E-03
        21   -2.735209E-04
        22    3.649918E-05
        23   -2.365469E-05
        24   -1.284448E-05
        25   -1.276764E-05
        26   -2.431521E-03
        27   -1.604302E-04
        28    3.610134E-05
        29   -2.302941E-05
        30   -1.307193E-05
        31   -7.258381E-05
        32    1.799754E-03
        33   -2.980363E-03
        34   -2.224354E-06
        35   -3.343045E-07
        36   -5.579754E-04
        37    4.787090E-07
        38   -2.168463E-07
        39    6.553618E-04
        40    2.505575E-06
        41    6.653628E-07
        42    9.324079E-05
        43   -5.439412E-05
        44    6.173639E-08
        45    6.172903E-08
        46    4.913656E-06
        47   -1.861228E-05
        48   -1.257034E-03
        49   -1.211753E-04
        50   -4.411122E-07
        51    8.957282E-05
        52   -8.580844E-06
        53    8.593216E-06
        54    1.036214E-04
        55   -1.179026E-05
        56    5.139160E-04
        57   -2.336437E-03
        58   -2.766259E-05
        59    1.062250E-07
        60   -1.294559E-07
        61    2.323086E-08
        62   -7.434900E-06