[Molden Format]
[Title]
ADC(2) - opt by CAM-B3LYP gaussian                                              
[Atoms] AU
 c     1    6 0.12589710753986E+01 0.22825551554713E+01 -.28105798744860E-01
 c     2    6 0.25558923691721E+01 0.80431469000000E-06 -.26811997747980E-01
 c     3    6 0.12589700738438E+01 -.22825573262942E+01 -.28139341383720E-01
 c     4    6 -.13331755585332E+01 -.22837561874501E+01 -.30470167390540E-01
 c     5    6 -.26866009864883E+01 0.27696298600000E-05 -.30311128039200E-01
 c     6    6 -.13331783742251E+01 0.22837572858534E+01 -.30432977580250E-01
 h     7    1 0.22993222678978E+01 0.40366379181686E+01 -.25216785432900E-01
 h     8    1 0.22993197734593E+01 -.40366408826765E+01 -.25273722881290E-01
 h     9    1 -.23520966897676E+01 -.40562070503646E+01 -.33235309154490E-01
 h    10    1 -.23520900190344E+01 0.40562136478709E+01 -.33159965773570E-01
 n    11    7 0.52762255328692E+01 0.25629411000000E-06 -.20783601308720E-01
 o    12    8 0.63803680214636E+01 -.20270720034092E+01 -.18188232540560E-01
 o    13    8 0.63803692875801E+01 0.20270718545932E+01 -.18282964511600E-01
 n    14    7 -.52484248103301E+01 -.66967170000000E-06 -.81289589624650E-01
 h    15    1 -.62019351690707E+01 -.16149791988436E+01 0.21484054874156E+00
 h    16    1 -.62019367942352E+01 0.16149736265137E+01 0.21486103337284E+00
[GTO]
    1 0
 s    6 1.00
 0.13575349682000E+05 0.60645503603591E-03
 0.20352333680000E+04 0.46979088884982E-02
 0.46322562359000E+03 0.24332477647552E-01
 0.13120019598000E+03 0.97399968307759E-01
 0.42853015891000E+02 0.30195584253780E+00
 0.15584185766000E+02 0.66233609137875E+00
 s    2 1.00
 0.62067138508000E+01 0.65595308539952E+00
 0.25764896527000E+01 0.37585633285142E+00
 s    1 1.00
 0.57696339419000E+00 0.10000000000000E+01
 s    1 1.00
 0.22972831358000E+00 0.10000000000000E+01
 s    1 1.00
 0.95164440028000E-01 0.10000000000000E+01
 s    1 1.00
 0.48475401370000E-01 0.10000000000000E+01
 p    4 1.00
 0.34697232244000E+02 0.11327220003114E-01
 0.79582622826000E+01 0.76169659202087E-01
 0.23780826883000E+01 0.30192252202676E+00
 0.81433208183000E+00 0.72785027349547E+00
 p    1 1.00
 0.28887547253000E+00 0.10000000000000E+01
 p    1 1.00
 0.10056823671000E+00 0.10000000000000E+01
 d    1 1.00
 0.10970000000000E+01 0.10000000000000E+01
 d    1 1.00
 0.31800000000000E+00 0.10000000000000E+01
 d    1 1.00
 0.90985336424000E-01 0.10000000000000E+01
 f    1 1.00
 0.76100000000000E+00 0.10000000000000E+01
 
    2 0
 s    6 1.00
 0.13575349682000E+05 0.60645503603591E-03
 0.20352333680000E+04 0.46979088884982E-02
 0.46322562359000E+03 0.24332477647552E-01
 0.13120019598000E+03 0.97399968307759E-01
 0.42853015891000E+02 0.30195584253780E+00
 0.15584185766000E+02 0.66233609137875E+00
 s    2 1.00
 0.62067138508000E+01 0.65595308539952E+00
 0.25764896527000E+01 0.37585633285142E+00
 s    1 1.00
 0.57696339419000E+00 0.10000000000000E+01
 s    1 1.00
 0.22972831358000E+00 0.10000000000000E+01
 s    1 1.00
 0.95164440028000E-01 0.10000000000000E+01
 s    1 1.00
 0.48475401370000E-01 0.10000000000000E+01
 p    4 1.00
 0.34697232244000E+02 0.11327220003114E-01
 0.79582622826000E+01 0.76169659202087E-01
 0.23780826883000E+01 0.30192252202676E+00
 0.81433208183000E+00 0.72785027349547E+00
 p    1 1.00
 0.28887547253000E+00 0.10000000000000E+01
 p    1 1.00
 0.10056823671000E+00 0.10000000000000E+01
 d    1 1.00
 0.10970000000000E+01 0.10000000000000E+01
 d    1 1.00
 0.31800000000000E+00 0.10000000000000E+01
 d    1 1.00
 0.90985336424000E-01 0.10000000000000E+01
 f    1 1.00
 0.76100000000000E+00 0.10000000000000E+01
 
    3 0
 s    6 1.00
 0.13575349682000E+05 0.60645503603591E-03
 0.20352333680000E+04 0.46979088884982E-02
 0.46322562359000E+03 0.24332477647552E-01
 0.13120019598000E+03 0.97399968307759E-01
 0.42853015891000E+02 0.30195584253780E+00
 0.15584185766000E+02 0.66233609137875E+00
 s    2 1.00
 0.62067138508000E+01 0.65595308539952E+00
 0.25764896527000E+01 0.37585633285142E+00
 s    1 1.00
 0.57696339419000E+00 0.10000000000000E+01
 s    1 1.00
 0.22972831358000E+00 0.10000000000000E+01
 s    1 1.00
 0.95164440028000E-01 0.10000000000000E+01
 s    1 1.00
 0.48475401370000E-01 0.10000000000000E+01
 p    4 1.00
 0.34697232244000E+02 0.11327220003114E-01
 0.79582622826000E+01 0.76169659202087E-01
 0.23780826883000E+01 0.30192252202676E+00
 0.81433208183000E+00 0.72785027349547E+00
 p    1 1.00
 0.28887547253000E+00 0.10000000000000E+01
 p    1 1.00
 0.10056823671000E+00 0.10000000000000E+01
 d    1 1.00
 0.10970000000000E+01 0.10000000000000E+01
 d    1 1.00
 0.31800000000000E+00 0.10000000000000E+01
 d    1 1.00
 0.90985336424000E-01 0.10000000000000E+01
 f    1 1.00
 0.76100000000000E+00 0.10000000000000E+01
 
    4 0
 s    6 1.00
 0.13575349682000E+05 0.60645503603591E-03
 0.20352333680000E+04 0.46979088884982E-02
 0.46322562359000E+03 0.24332477647552E-01
 0.13120019598000E+03 0.97399968307759E-01
 0.42853015891000E+02 0.30195584253780E+00
 0.15584185766000E+02 0.66233609137875E+00
 s    2 1.00
 0.62067138508000E+01 0.65595308539952E+00
 0.25764896527000E+01 0.37585633285142E+00
 s    1 1.00
 0.57696339419000E+00 0.10000000000000E+01
 s    1 1.00
 0.22972831358000E+00 0.10000000000000E+01
 s    1 1.00
 0.95164440028000E-01 0.10000000000000E+01
 s    1 1.00
 0.48475401370000E-01 0.10000000000000E+01
 p    4 1.00
 0.34697232244000E+02 0.11327220003114E-01
 0.79582622826000E+01 0.76169659202087E-01
 0.23780826883000E+01 0.30192252202676E+00
 0.81433208183000E+00 0.72785027349547E+00
 p    1 1.00
 0.28887547253000E+00 0.10000000000000E+01
 p    1 1.00
 0.10056823671000E+00 0.10000000000000E+01
 d    1 1.00
 0.10970000000000E+01 0.10000000000000E+01
 d    1 1.00
 0.31800000000000E+00 0.10000000000000E+01
 d    1 1.00
 0.90985336424000E-01 0.10000000000000E+01
 f    1 1.00
 0.76100000000000E+00 0.10000000000000E+01
 
    5 0
 s    6 1.00
 0.13575349682000E+05 0.60645503603591E-03
 0.20352333680000E+04 0.46979088884982E-02
 0.46322562359000E+03 0.24332477647552E-01
 0.13120019598000E+03 0.97399968307759E-01
 0.42853015891000E+02 0.30195584253780E+00
 0.15584185766000E+02 0.66233609137875E+00
 s    2 1.00
 0.62067138508000E+01 0.65595308539952E+00
 0.25764896527000E+01 0.37585633285142E+00
 s    1 1.00
 0.57696339419000E+00 0.10000000000000E+01
 s    1 1.00
 0.22972831358000E+00 0.10000000000000E+01
 s    1 1.00
 0.95164440028000E-01 0.10000000000000E+01
 s    1 1.00
 0.48475401370000E-01 0.10000000000000E+01
 p    4 1.00
 0.34697232244000E+02 0.11327220003114E-01
 0.79582622826000E+01 0.76169659202087E-01
 0.23780826883000E+01 0.30192252202676E+00
 0.81433208183000E+00 0.72785027349547E+00
 p    1 1.00
 0.28887547253000E+00 0.10000000000000E+01
 p    1 1.00
 0.10056823671000E+00 0.10000000000000E+01
 d    1 1.00
 0.10970000000000E+01 0.10000000000000E+01
 d    1 1.00
 0.31800000000000E+00 0.10000000000000E+01
 d    1 1.00
 0.90985336424000E-01 0.10000000000000E+01
 f    1 1.00
 0.76100000000000E+00 0.10000000000000E+01
 
    6 0
 s    6 1.00
 0.13575349682000E+05 0.60645503603591E-03
 0.20352333680000E+04 0.46979088884982E-02
 0.46322562359000E+03 0.24332477647552E-01
 0.13120019598000E+03 0.97399968307759E-01
 0.42853015891000E+02 0.30195584253780E+00
 0.15584185766000E+02 0.66233609137875E+00
 s    2 1.00
 0.62067138508000E+01 0.65595308539952E+00
 0.25764896527000E+01 0.37585633285142E+00
 s    1 1.00
 0.57696339419000E+00 0.10000000000000E+01
 s    1 1.00
 0.22972831358000E+00 0.10000000000000E+01
 s    1 1.00
 0.95164440028000E-01 0.10000000000000E+01
 s    1 1.00
 0.48475401370000E-01 0.10000000000000E+01
 p    4 1.00
 0.34697232244000E+02 0.11327220003114E-01
 0.79582622826000E+01 0.76169659202087E-01
 0.23780826883000E+01 0.30192252202676E+00
 0.81433208183000E+00 0.72785027349547E+00
 p    1 1.00
 0.28887547253000E+00 0.10000000000000E+01
 p    1 1.00
 0.10056823671000E+00 0.10000000000000E+01
 d    1 1.00
 0.10970000000000E+01 0.10000000000000E+01
 d    1 1.00
 0.31800000000000E+00 0.10000000000000E+01
 d    1 1.00
 0.90985336424000E-01 0.10000000000000E+01
 f    1 1.00
 0.76100000000000E+00 0.10000000000000E+01
 
    7 0
 s    3 1.00
 0.34061341000000E+02 0.25439307208879E-01
 0.51235746000000E+01 0.19008594890375E+00
 0.11646626000000E+01 0.85244113011042E+00
 s    1 1.00
 0.32723041000000E+00 0.10000000000000E+01
 s    1 1.00
 0.10307241000000E+00 0.10000000000000E+01
 p    1 1.00
 0.80000000000000E+00 0.10000000000000E+01
 p    1 1.00
 0.95774129632000E-01 0.10000000000000E+01
 
    8 0
 s    3 1.00
 0.34061341000000E+02 0.25439307208879E-01
 0.51235746000000E+01 0.19008594890375E+00
 0.11646626000000E+01 0.85244113011042E+00
 s    1 1.00
 0.32723041000000E+00 0.10000000000000E+01
 s    1 1.00
 0.10307241000000E+00 0.10000000000000E+01
 p    1 1.00
 0.80000000000000E+00 0.10000000000000E+01
 p    1 1.00
 0.95774129632000E-01 0.10000000000000E+01
 
    9 0
 s    3 1.00
 0.34061341000000E+02 0.25439307208879E-01
 0.51235746000000E+01 0.19008594890375E+00
 0.11646626000000E+01 0.85244113011042E+00
 s    1 1.00
 0.32723041000000E+00 0.10000000000000E+01
 s    1 1.00
 0.10307241000000E+00 0.10000000000000E+01
 p    1 1.00
 0.80000000000000E+00 0.10000000000000E+01
 p    1 1.00
 0.95774129632000E-01 0.10000000000000E+01
 
   10 0
 s    3 1.00
 0.34061341000000E+02 0.25439307208879E-01
 0.51235746000000E+01 0.19008594890375E+00
 0.11646626000000E+01 0.85244113011042E+00
 s    1 1.00
 0.32723041000000E+00 0.10000000000000E+01
 s    1 1.00
 0.10307241000000E+00 0.10000000000000E+01
 p    1 1.00
 0.80000000000000E+00 0.10000000000000E+01
 p    1 1.00
 0.95774129632000E-01 0.10000000000000E+01
 
   11 0
 s    6 1.00
 0.19730800647000E+05 0.58626402628763E-03
 0.29578958745000E+04 0.45428820586397E-02
 0.67322133595000E+03 0.23558413450084E-01
 0.19068249494000E+03 0.94709193292923E-01
 0.62295441898000E+02 0.29719784913376E+00
 0.22654161182000E+02 0.66916246895232E+00
 s    2 1.00
 0.89791477428000E+01 0.64596683630063E+00
 0.36863002370000E+01 0.38700574393705E+00
 s    1 1.00
 0.84660076805000E+00 0.10000000000000E+01
 s    1 1.00
 0.33647133771000E+00 0.10000000000000E+01
 s    1 1.00
 0.13647653675000E+00 0.10000000000000E+01
 s    1 1.00
 0.68441605847000E-01 0.10000000000000E+01
 p    4 1.00
 0.49200380510000E+02 0.11448825101764E-01
 0.11346790537000E+02 0.78422337970864E-01
 0.34273972411000E+01 0.30818094738830E+00
 0.11785525134000E+01 0.72027196368413E+00
 p    1 1.00
 0.41642204972000E+00 0.10000000000000E+01
 p    1 1.00
 0.14260826011000E+00 0.10000000000000E+01
 d    1 1.00
 0.16540000000000E+01 0.10000000000000E+01
 d    1 1.00
 0.46900000000000E+00 0.10000000000000E+01
 d    1 1.00
 0.12829642058000E+00 0.10000000000000E+01
 f    1 1.00
 0.10930000000000E+01 0.10000000000000E+01
 
   12 0
 s    6 1.00
 0.27032382631000E+05 0.57227335211155E-03
 0.40523871392000E+04 0.44353233492995E-02
 0.92232722710000E+03 0.23020107706038E-01
 0.26124070989000E+03 0.92822490667928E-01
 0.85354641351000E+02 0.29378500009671E+00
 0.31035035245000E+02 0.67401604501641E+00
 s    2 1.00
 0.12260860728000E+02 0.63839937025506E+00
 0.49987076005000E+01 0.39534587125718E+00
 s    1 1.00
 0.11703108158000E+01 0.10000000000000E+01
 s    1 1.00
 0.46474740994000E+00 0.10000000000000E+01
 s    1 1.00
 0.18504536357000E+00 0.10000000000000E+01
 s    1 1.00
 0.70288026270000E-01 0.10000000000000E+01
 p    4 1.00
 0.63274954801000E+02 0.12018332222616E-01
 0.14627049379000E+02 0.83005421790056E-01
 0.44501223456000E+01 0.31991743925964E+00
 0.15275799647000E+01 0.70715542916104E+00
 p    1 1.00
 0.52935117943000E+00 0.10000000000000E+01
 p    1 1.00
 0.17478421270000E+00 0.10000000000000E+01
 p    1 1.00
 0.51112745706000E-01 0.10000000000000E+01
 d    1 1.00
 0.23140000000000E+01 0.10000000000000E+01
 d    1 1.00
 0.64500000000000E+00 0.10000000000000E+01
 d    1 1.00
 0.14696477366000E+00 0.10000000000000E+01
 f    1 1.00
 0.14280000000000E+01 0.10000000000000E+01
 
   13 0
 s    6 1.00
 0.27032382631000E+05 0.57227335211155E-03
 0.40523871392000E+04 0.44353233492995E-02
 0.92232722710000E+03 0.23020107706038E-01
 0.26124070989000E+03 0.92822490667928E-01
 0.85354641351000E+02 0.29378500009671E+00
 0.31035035245000E+02 0.67401604501641E+00
 s    2 1.00
 0.12260860728000E+02 0.63839937025506E+00
 0.49987076005000E+01 0.39534587125718E+00
 s    1 1.00
 0.11703108158000E+01 0.10000000000000E+01
 s    1 1.00
 0.46474740994000E+00 0.10000000000000E+01
 s    1 1.00
 0.18504536357000E+00 0.10000000000000E+01
 s    1 1.00
 0.70288026270000E-01 0.10000000000000E+01
 p    4 1.00
 0.63274954801000E+02 0.12018332222616E-01
 0.14627049379000E+02 0.83005421790056E-01
 0.44501223456000E+01 0.31991743925964E+00
 0.15275799647000E+01 0.70715542916104E+00
 p    1 1.00
 0.52935117943000E+00 0.10000000000000E+01
 p    1 1.00
 0.17478421270000E+00 0.10000000000000E+01
 p    1 1.00
 0.51112745706000E-01 0.10000000000000E+01
 d    1 1.00
 0.23140000000000E+01 0.10000000000000E+01
 d    1 1.00
 0.64500000000000E+00 0.10000000000000E+01
 d    1 1.00
 0.14696477366000E+00 0.10000000000000E+01
 f    1 1.00
 0.14280000000000E+01 0.10000000000000E+01
 
   14 0
 s    6 1.00
 0.19730800647000E+05 0.58626402628763E-03
 0.29578958745000E+04 0.45428820586397E-02
 0.67322133595000E+03 0.23558413450084E-01
 0.19068249494000E+03 0.94709193292923E-01
 0.62295441898000E+02 0.29719784913376E+00
 0.22654161182000E+02 0.66916246895232E+00
 s    2 1.00
 0.89791477428000E+01 0.64596683630063E+00
 0.36863002370000E+01 0.38700574393705E+00
 s    1 1.00
 0.84660076805000E+00 0.10000000000000E+01
 s    1 1.00
 0.33647133771000E+00 0.10000000000000E+01
 s    1 1.00
 0.13647653675000E+00 0.10000000000000E+01
 s    1 1.00
 0.68441605847000E-01 0.10000000000000E+01
 p    4 1.00
 0.49200380510000E+02 0.11448825101764E-01
 0.11346790537000E+02 0.78422337970864E-01
 0.34273972411000E+01 0.30818094738830E+00
 0.11785525134000E+01 0.72027196368413E+00
 p    1 1.00
 0.41642204972000E+00 0.10000000000000E+01
 p    1 1.00
 0.14260826011000E+00 0.10000000000000E+01
 d    1 1.00
 0.16540000000000E+01 0.10000000000000E+01
 d    1 1.00
 0.46900000000000E+00 0.10000000000000E+01
 d    1 1.00
 0.12829642058000E+00 0.10000000000000E+01
 f    1 1.00
 0.10930000000000E+01 0.10000000000000E+01
 
   15 0
 s    3 1.00
 0.34061341000000E+02 0.25439307208879E-01
 0.51235746000000E+01 0.19008594890375E+00
 0.11646626000000E+01 0.85244113011042E+00
 s    1 1.00
 0.32723041000000E+00 0.10000000000000E+01
 s    1 1.00
 0.10307241000000E+00 0.10000000000000E+01
 p    1 1.00
 0.80000000000000E+00 0.10000000000000E+01
 p    1 1.00
 0.95774129632000E-01 0.10000000000000E+01
 
   16 0
 s    3 1.00
 0.34061341000000E+02 0.25439307208879E-01
 0.51235746000000E+01 0.19008594890375E+00
 0.11646626000000E+01 0.85244113011042E+00
 s    1 1.00
 0.32723041000000E+00 0.10000000000000E+01
 s    1 1.00
 0.10307241000000E+00 0.10000000000000E+01
 p    1 1.00
 0.80000000000000E+00 0.10000000000000E+01
 p    1 1.00
 0.95774129632000E-01 0.10000000000000E+01
 
[MO]
 Sym= X
 Ene= -0.908414
 Spin= Alpha
 Occup= -0.908414
         1    2.182984E-04
         2    5.073114E-04
         3   -1.401545E-03
         4    2.968125E-03
         5    4.142556E-03
         6    1.301820E-02
         7    1.868714E-03
         8    2.069582E-04
         9   -2.068950E-02
        10   -2.853651E-03
        11    4.811415E-04
        12   -1.887360E-02
        13   -3.937742E-02
        14    1.217044E-02
        15   -3.447955E-03
        16   -3.736482E-06
        17    1.524759E-05
        18   -1.151111E-05
        19    1.622756E-05
        20   -6.118099E-03
        21    3.607353E-03
        22    7.527808E-04
        23   -4.568770E-04
        24   -2.959038E-04
        25    8.371636E-04
        26   -1.382321E-02
        27    6.845379E-03
        28    5.443369E-03
        29   -5.119739E-03
        30   -3.236294E-04
        31   -1.466280E-03
        32    2.410499E-03
        33   -1.098525E-02
        34   -2.238593E-05
        35    8.013496E-06
        36    6.918596E-05
        37    8.552975E-06
        38   -7.955593E-06
        39    7.063431E-04
        40    2.148091E-05
        41   -2.795640E-06
        42   -7.991658E-04
        43    6.581339E-04
        44   -2.347868E-05
        45   -5.054325E-05
        46   -2.006439E-04
        47    3.386331E-03
        48    5.735381E-02
        49   -6.716668E-03
        50    4.189632E-04
        51    2.092616E-06
        52   -1.909308E-01
        53   -5.719692E-04
        54    1.290760E-05
        55   -1.981851E-01
        56   -1.865992E-02
        57   -6.637093E-04
        58   -1.963721E-01
        59   -4.209776E-05
        60    3.915341E-05
        61    2.944357E-06
        62   -8.534141E-08
        63   -7.590531E-04
        64    1.585126E-07
        65   -4.469838E-04
        66    7.379992E-04
        67   -2.910154E-04
        68   -3.031532E-06
        69   -3.347935E-03
        70    7.003311E-08
        71   -1.126376E-02
        72    1.260044E-02
        73   -1.336682E-03
        74    1.011750E-04
        75    4.478171E-03
        76   -4.692679E-06
        77    8.593587E-06
        78    2.984883E-08
        79    1.055699E-03
        80   -8.663091E-06
        81    3.072788E-08
        82   -6.351380E-04
        83   -2.866416E-06
        84   -7.077428E-08
        85   -7.812314E-04
        86   -2.056019E-08
        87    2.185504E-04
        88    5.078460E-04
        89   -1.402204E-03
        90    2.975973E-03
        91    2.060213E-03
        92    1.300272E-02
        93    1.870617E-03
        94   -2.080964E-04
        95   -2.069731E-02
        96   -2.819034E-03
        97   -4.780811E-04
        98   -1.888076E-02
        99   -3.942729E-02
       100   -1.283603E-02
       101   -3.475303E-03
       102   -3.803309E-06
       103    1.530824E-05
       104   -1.150493E-05
       105   -1.637047E-05
       106   -6.118121E-03
       107   -3.607436E-03
       108    7.451879E-04
       109   -4.500449E-04
       110   -2.951430E-04
       111   -8.354346E-04
       112   -1.382256E-02
       113   -6.844755E-03
       114    5.516916E-03
       115   -5.209428E-03
       116   -3.074879E-04
       117    1.387692E-03
       118    2.413332E-03
       119    1.098764E-02
       120   -2.237355E-05
       121   -7.979132E-06
       122    6.918405E-05
       123    8.675573E-06
       124    7.892398E-06
       125    7.063590E-04
       126    2.134170E-05
       127    2.812731E-06
       128   -7.991791E-04
       129   -6.580822E-04
       130   -1.559492E-04
       131   -3.385847E-04
       132   -6.112838E-04
       133    1.216545E-02
       134   -2.720183E-02
       135   -1.475292E-02
       136   -1.529667E-03
       137    8.095860E-04
       138    1.509701E-01
       139   -1.056293E-02
       140    7.208353E-03
       141    1.538477E-01
       142   -2.502293E-02
       143   -8.547823E-03
       144    9.215333E-02
       145   -1.708116E-04
       146    2.078699E-04
       147   -3.705833E-05
       148    5.029638E-06
       149   -6.960585E-04
       150    2.851731E-03
       151   -7.110955E-04
       152    8.711838E-04
       153   -1.600884E-04
       154   -1.958387E-03
       155   -3.886785E-03
       156    4.737795E-03
       157   -9.352431E-03
       158    7.336054E-03
       159    2.016377E-03
       160    1.053350E-02
       161    3.921386E-03
       162   -1.331001E-02
       163   -1.688121E-05
       164    1.172055E-05
       165   -8.409359E-04
       166   -2.275185E-05
       167    1.927330E-05
       168    2.115745E-04
       169    4.540037E-05
       170   -3.499806E-05
       171    9.166594E-04
       172   -3.108854E-04
       173    1.331051E-03
       174    3.031116E-03
       175   -3.132914E-03
       176   -2.526109E-02
       177    2.454625E-02
       178   -1.001764E-02
       179    1.061595E-02
       180   -1.971476E-06
       181    1.038132E-01
       182    6.589641E-04
       183   -8.915190E-06
       184    1.070215E-01
       185   -3.344579E-02
       186    8.741203E-04
       187    1.355151E-01
       188   -5.612297E-04
       189    3.114879E-04
       190    2.497418E-04
       191   -3.475033E-07
       192    1.024160E-02
       193    2.355821E-07
       194    2.131561E-03
       195   -4.724728E-03
       196    2.593166E-03
       197   -1.496135E-06
       198    2.502961E-02
       199   -9.604297E-07
       200    7.057312E-03
       201   -8.451101E-03
       202    1.393789E-03
       203    1.242316E-04
       204    1.852051E-02
       205   -6.930290E-06
       206    1.374970E-04
       207    1.340092E-08
       208   -2.244448E-04
       209   -9.684824E-05
       210   -4.141206E-08
       211   -1.161724E-03
       212   -8.762332E-05
       213    2.343285E-08
       214    1.462849E-03
       215   -2.229992E-08
       216   -1.562382E-04
       217   -3.390704E-04
       218   -6.109971E-04
       219    1.218374E-02
       220   -2.950109E-02
       221   -1.475548E-02
       222   -1.528704E-03
       223   -8.047629E-04
       224    1.509744E-01
       225   -1.058055E-02
       226   -7.212167E-03
       227    1.538544E-01
       228   -2.489907E-02
       229    9.462299E-03
       230    9.213978E-02
       231   -1.706435E-04
       232    2.082809E-04
       233   -3.763742E-05
       234   -5.353413E-06
       235   -6.960824E-04
       236   -2.851789E-03
       237   -7.167858E-04
       238    8.754064E-04
       239   -1.586206E-04
       240    1.960209E-03
       241   -3.884508E-03
       242   -4.737950E-03
       243   -9.313210E-03
       244    7.291141E-03
       245    2.022070E-03
       246   -1.062907E-02
       247    3.917043E-03
       248    1.331325E-02
       249   -1.703576E-05
       250   -1.179256E-05
       251   -8.410752E-04
       252   -2.276087E-05
       253   -1.919310E-05
       254    2.117355E-04
       255    4.561674E-05
       256    3.501448E-05
       257    9.166853E-04
       258    3.108646E-04
       259    3.893121E-04
       260    2.033511E-04
       261    2.009509E-02
       262   -1.327335E-05
       263    6.281050E-06
       264   -8.203211E-04
       265   -6.041923E-03
       266   -4.517037E-04
       267    6.695563E-03
       268    3.907983E-04
       269    1.951149E-04
       270    2.003698E-02
       271   -1.252451E-05
       272   -7.385359E-06
       273   -8.206320E-04
       274   -6.113267E-03
       275    4.207327E-04
       276    6.697898E-03
       277    5.105812E-04
       278    2.767706E-03
       279   -3.982462E-02
       280   -1.118646E-05
       281    1.178647E-04
       282    6.114783E-03
       283   -2.068843E-03
       284   -3.169804E-03
       285   -2.401768E-03
       286    5.144124E-04
       287    2.770853E-03
       288   -4.015722E-02
       289   -1.070128E-05
       290   -1.178087E-04
       291    6.115379E-03
       292   -2.077546E-03
       293    3.212537E-03
       294   -2.403482E-03
       295    4.815566E-05
       296    1.113248E-04
       297   -9.072203E-05
       298   -4.265007E-04
       299    8.394580E-03
       300   -5.949215E-04
       301    4.512163E-04
       302   -1.388665E-06
       303   -1.901974E-02
       304    9.154536E-05
       305   -6.078033E-07
       306   -2.137032E-02
       307   -3.644618E-03
       308    3.777056E-05
       309   -7.304009E-03
       310   -1.861208E-05
       311    4.416814E-06
       312    1.419526E-05
       313   -9.945329E-08
       314    4.151438E-03
       315    7.269566E-09
       316    1.323174E-05
       317   -7.997763E-05
       318    6.674589E-05
       319    2.732587E-07
       320    1.250836E-02
       321   -7.344305E-08
       322    1.032017E-03
       323   -3.229414E-03
       324    2.197397E-03
       325   -2.339181E-05
       326    2.761535E-03
       327    2.637437E-06
       328    7.343934E-06
       329    3.172599E-08
       330   -1.071418E-06
       331   -5.458266E-06
       332   -4.451707E-10
       333   -6.609291E-04
       334   -4.394656E-06
       335   -4.211971E-08
       336    6.623666E-04
       337   -3.204280E-09
       338    1.296177E-05
       339    2.742130E-05
       340    1.187312E-05
       341   -5.809787E-04
       342    6.853725E-03
       343    1.153781E-03
       344   -1.622286E-04
       345    1.269250E-04
       346    7.349022E-02
       347   -2.773391E-04
       348    2.798881E-04
       349    6.818244E-02
       350   -1.537563E-03
       351    6.199689E-04
       352    5.541812E-02
       353   -2.139477E-04
       354    2.418261E-04
       355    6.816460E-03
       356   -3.909650E-06
       357    4.585925E-06
       358   -6.762755E-07
       359    5.719687E-08
       360    1.324835E-05
       361    4.405071E-04
       362    1.320913E-05
       363    1.168329E-05
       364   -2.489241E-05
       365   -1.184502E-05
       366   -4.772212E-04
       367    1.462780E-03
       368    8.353687E-05
       369   -4.776177E-05
       370   -3.577510E-05
       371   -7.280603E-05
       372   -1.753165E-04
       373    2.450964E-04
       374    7.667485E-07
       375    1.820030E-06
       376   -5.874796E-05
       377   -1.404121E-06
       378   -5.229971E-07
       379   -8.010357E-05
       380    3.754198E-07
       381   -1.918829E-06
       382    1.589222E-04
       383   -1.251166E-04
       384    1.340579E-05
       385    2.854275E-05
       386    9.738721E-06
       387   -5.789278E-04
       388    6.839590E-03
       389    1.126762E-03
       390   -1.613823E-04
       391   -1.208643E-04
       392    7.348985E-02
       393   -2.761869E-04
       394   -2.742537E-04
       395    6.818252E-02
       396   -1.510904E-03
       397   -6.083732E-04
       398    5.541352E-02
       399   -2.005596E-04
       400   -2.450693E-04
       401    6.818014E-03
       402   -3.866002E-06
       403    4.497472E-06
       404   -6.314700E-07
       405   -4.297853E-08
       406    1.322754E-05
       407   -4.405017E-04
       408    1.311118E-05
       409    1.138968E-05
       410   -2.450086E-05
       411    1.134498E-05
       412   -4.771486E-04
       413   -1.462814E-03
       414    8.375586E-05
       415   -4.957877E-05
       416   -3.417709E-05
       417    7.163894E-05
       418   -1.757589E-04
       419   -2.441604E-04
       420    7.535856E-07
       421   -1.788855E-06
       422   -5.874983E-05
       423   -1.362750E-06
       424    5.136758E-07
       425   -8.010054E-05
       426    3.517084E-07
       427    1.886325E-06
       428    1.589217E-04
       429    1.251193E-04
       430   -5.815633E-03
       431   -1.379021E-02
       432    2.138522E-02
       433    3.354069E-02
       434    2.328284E-02
       435    7.667867E-02
       436   -2.027543E-02
       437    1.183756E-05
       438   -2.714319E-01
       439   -2.310716E-02
       440    4.536592E-06
       441   -2.676560E-01
       442   -2.268166E-02
       443   -1.071894E-04
       444   -2.170906E-01
       445    1.305615E-04
       446    2.854741E-05
       447   -1.591089E-04
       448   -2.824153E-07
       449    6.435675E-04
       450    2.809893E-07
       451    2.833272E-04
       452    1.839338E-03
       453   -2.122665E-03
       454    3.654348E-06
       455    3.298912E-03
       456    1.331761E-06
       457    1.965021E-03
       458    3.880542E-03
       459   -5.845563E-03
       460    3.032762E-07
       461    2.183063E-03
       462    7.494978E-06
       463   -1.575827E-04
       464    4.125908E-08
       465    1.092109E-03
       466   -1.059589E-04
       467    1.566793E-08
       468   -6.139099E-04
       469    3.173782E-04
       470   -7.102279E-08
       471   -8.513078E-04
       472    7.716651E-09
       473   -1.074670E-02
       474   -2.067824E-02
       475   -3.524296E-02
       476   -2.637645E-03
       477   -2.200728E-03
       478   -1.361516E-02
       479    1.125854E-03
       480   -4.062781E-03
       481   -1.515446E-02
       482   -1.073946E-02
       483   -2.060835E-02
       484   -3.506189E-02
       485   -2.633626E-03
       486    2.194405E-03
       487   -1.361825E-02
       488    1.144823E-03
       489    4.029563E-03
       490   -1.516562E-02
 Sym= X
 Ene= 0.908414
 Spin= Alpha
 Occup= 0.908414
         1    6.030542E-03
         2    1.337058E-02
         3   -1.882954E-02
         4   -1.066867E-01
         5    2.535104E+00
         6   -1.682964E-01
         7   -1.948417E-02
         8   -8.626796E-03
         9   -1.947078E-05
        10   -1.254405E-01
        11   -1.259026E-02
        12   -1.776573E-03
        13   -1.018980E+00
        14   -7.027891E-01
        15   -2.936792E-02
        16   -1.531957E-03
        17   -2.467922E-04
        18    1.778749E-03
        19    1.666393E-03
        20   -4.550624E-05
        21   -5.355686E-06
        22    1.445842E-02
        23   -1.887682E-02
        24    4.418392E-03
        25    3.066155E-03
        26    7.183971E-04
        27   -6.085527E-05
        28    5.500314E-01
        29   -3.517606E-01
        30   -1.982708E-01
        31    4.640591E-01
        32   -9.264834E-03
        33    1.936597E-02
        34   -1.556571E-04
        35   -1.132873E-04
        36   -1.538302E-05
        37   -5.155528E-04
        38   -5.381029E-05
        39   -6.335318E-06
        40    7.243887E-04
        41    2.058012E-04
        42    2.697380E-05
        43   -1.888091E-05
        44    7.304740E-03
        45    1.605434E-02
        46   -1.059883E-02
        47   -2.102950E-01
        48    2.658282E-01
        49    1.227470E+00
        50   -6.005359E-03
        51    1.513170E-06
        52    7.844847E-04
        53   -8.067956E-02
        54   -5.772384E-05
        55   -2.147638E-03
        56   -9.700931E-01
        57   -2.364408E-03
        58    7.867410E-02
        59    1.662906E-03
        60   -3.642691E-03
        61    1.979785E-03
        62    1.304911E-07