[Molden Format]
[Title]
ADC(2) - opt by CAM-B3LYP gaussian                                              
[Atoms] AU
 c     1    6 0.12589710753986E+01 0.22825551554713E+01 -.28105798744860E-01
 c     2    6 0.25558923691721E+01 0.80431469000000E-06 -.26811997747980E-01
 c     3    6 0.12589700738438E+01 -.22825573262942E+01 -.28139341383720E-01
 c     4    6 -.13331755585332E+01 -.22837561874501E+01 -.30470167390540E-01
 c     5    6 -.26866009864883E+01 0.27696298600000E-05 -.30311128039200E-01
 c     6    6 -.13331783742251E+01 0.22837572858534E+01 -.30432977580250E-01
 h     7    1 0.22993222678978E+01 0.40366379181686E+01 -.25216785432900E-01
 h     8    1 0.22993197734593E+01 -.40366408826765E+01 -.25273722881290E-01
 h     9    1 -.23520966897676E+01 -.40562070503646E+01 -.33235309154490E-01
 h    10    1 -.23520900190344E+01 0.40562136478709E+01 -.33159965773570E-01
 n    11    7 0.52762255328692E+01 0.25629411000000E-06 -.20783601308720E-01
 o    12    8 0.63803680214636E+01 -.20270720034092E+01 -.18188232540560E-01
 o    13    8 0.63803692875801E+01 0.20270718545932E+01 -.18282964511600E-01
 n    14    7 -.52484248103301E+01 -.66967170000000E-06 -.81289589624650E-01
 h    15    1 -.62019351690707E+01 -.16149791988436E+01 0.21484054874156E+00
 h    16    1 -.62019367942352E+01 0.16149736265137E+01 0.21486103337284E+00
[GTO]
    1 0
 s    6 1.00
 0.13575349682000E+05 0.60645503603591E-03
 0.20352333680000E+04 0.46979088884982E-02
 0.46322562359000E+03 0.24332477647552E-01
 0.13120019598000E+03 0.97399968307759E-01
 0.42853015891000E+02 0.30195584253780E+00
 0.15584185766000E+02 0.66233609137875E+00
 s    2 1.00
 0.62067138508000E+01 0.65595308539952E+00
 0.25764896527000E+01 0.37585633285142E+00
 s    1 1.00
 0.57696339419000E+00 0.10000000000000E+01
 s    1 1.00
 0.22972831358000E+00 0.10000000000000E+01
 s    1 1.00
 0.95164440028000E-01 0.10000000000000E+01
 s    1 1.00
 0.48475401370000E-01 0.10000000000000E+01
 p    4 1.00
 0.34697232244000E+02 0.11327220003114E-01
 0.79582622826000E+01 0.76169659202087E-01
 0.23780826883000E+01 0.30192252202676E+00
 0.81433208183000E+00 0.72785027349547E+00
 p    1 1.00
 0.28887547253000E+00 0.10000000000000E+01
 p    1 1.00
 0.10056823671000E+00 0.10000000000000E+01
 d    1 1.00
 0.10970000000000E+01 0.10000000000000E+01
 d    1 1.00
 0.31800000000000E+00 0.10000000000000E+01
 d    1 1.00
 0.90985336424000E-01 0.10000000000000E+01
 f    1 1.00
 0.76100000000000E+00 0.10000000000000E+01
 
    2 0
 s    6 1.00
 0.13575349682000E+05 0.60645503603591E-03
 0.20352333680000E+04 0.46979088884982E-02
 0.46322562359000E+03 0.24332477647552E-01
 0.13120019598000E+03 0.97399968307759E-01
 0.42853015891000E+02 0.30195584253780E+00
 0.15584185766000E+02 0.66233609137875E+00
 s    2 1.00
 0.62067138508000E+01 0.65595308539952E+00
 0.25764896527000E+01 0.37585633285142E+00
 s    1 1.00
 0.57696339419000E+00 0.10000000000000E+01
 s    1 1.00
 0.22972831358000E+00 0.10000000000000E+01
 s    1 1.00
 0.95164440028000E-01 0.10000000000000E+01
 s    1 1.00
 0.48475401370000E-01 0.10000000000000E+01
 p    4 1.00
 0.34697232244000E+02 0.11327220003114E-01
 0.79582622826000E+01 0.76169659202087E-01
 0.23780826883000E+01 0.30192252202676E+00
 0.81433208183000E+00 0.72785027349547E+00
 p    1 1.00
 0.28887547253000E+00 0.10000000000000E+01
 p    1 1.00
 0.10056823671000E+00 0.10000000000000E+01
 d    1 1.00
 0.10970000000000E+01 0.10000000000000E+01
 d    1 1.00
 0.31800000000000E+00 0.10000000000000E+01
 d    1 1.00
 0.90985336424000E-01 0.10000000000000E+01
 f    1 1.00
 0.76100000000000E+00 0.10000000000000E+01
 
    3 0
 s    6 1.00
 0.13575349682000E+05 0.60645503603591E-03
 0.20352333680000E+04 0.46979088884982E-02
 0.46322562359000E+03 0.24332477647552E-01
 0.13120019598000E+03 0.97399968307759E-01
 0.42853015891000E+02 0.30195584253780E+00
 0.15584185766000E+02 0.66233609137875E+00
 s    2 1.00
 0.62067138508000E+01 0.65595308539952E+00
 0.25764896527000E+01 0.37585633285142E+00
 s    1 1.00
 0.57696339419000E+00 0.10000000000000E+01
 s    1 1.00
 0.22972831358000E+00 0.10000000000000E+01
 s    1 1.00
 0.95164440028000E-01 0.10000000000000E+01
 s    1 1.00
 0.48475401370000E-01 0.10000000000000E+01
 p    4 1.00
 0.34697232244000E+02 0.11327220003114E-01
 0.79582622826000E+01 0.76169659202087E-01
 0.23780826883000E+01 0.30192252202676E+00
 0.81433208183000E+00 0.72785027349547E+00
 p    1 1.00
 0.28887547253000E+00 0.10000000000000E+01
 p    1 1.00
 0.10056823671000E+00 0.10000000000000E+01
 d    1 1.00
 0.10970000000000E+01 0.10000000000000E+01
 d    1 1.00
 0.31800000000000E+00 0.10000000000000E+01
 d    1 1.00
 0.90985336424000E-01 0.10000000000000E+01
 f    1 1.00
 0.76100000000000E+00 0.10000000000000E+01
 
    4 0
 s    6 1.00
 0.13575349682000E+05 0.60645503603591E-03
 0.20352333680000E+04 0.46979088884982E-02
 0.46322562359000E+03 0.24332477647552E-01
 0.13120019598000E+03 0.97399968307759E-01
 0.42853015891000E+02 0.30195584253780E+00
 0.15584185766000E+02 0.66233609137875E+00
 s    2 1.00
 0.62067138508000E+01 0.65595308539952E+00
 0.25764896527000E+01 0.37585633285142E+00
 s    1 1.00
 0.57696339419000E+00 0.10000000000000E+01
 s    1 1.00
 0.22972831358000E+00 0.10000000000000E+01
 s    1 1.00
 0.95164440028000E-01 0.10000000000000E+01
 s    1 1.00
 0.48475401370000E-01 0.10000000000000E+01
 p    4 1.00
 0.34697232244000E+02 0.11327220003114E-01
 0.79582622826000E+01 0.76169659202087E-01
 0.23780826883000E+01 0.30192252202676E+00
 0.81433208183000E+00 0.72785027349547E+00
 p    1 1.00
 0.28887547253000E+00 0.10000000000000E+01
 p    1 1.00
 0.10056823671000E+00 0.10000000000000E+01
 d    1 1.00
 0.10970000000000E+01 0.10000000000000E+01
 d    1 1.00
 0.31800000000000E+00 0.10000000000000E+01
 d    1 1.00
 0.90985336424000E-01 0.10000000000000E+01
 f    1 1.00
 0.76100000000000E+00 0.10000000000000E+01
 
    5 0
 s    6 1.00
 0.13575349682000E+05 0.60645503603591E-03
 0.20352333680000E+04 0.46979088884982E-02
 0.46322562359000E+03 0.24332477647552E-01
 0.13120019598000E+03 0.97399968307759E-01
 0.42853015891000E+02 0.30195584253780E+00
 0.15584185766000E+02 0.66233609137875E+00
 s    2 1.00
 0.62067138508000E+01 0.65595308539952E+00
 0.25764896527000E+01 0.37585633285142E+00
 s    1 1.00
 0.57696339419000E+00 0.10000000000000E+01
 s    1 1.00
 0.22972831358000E+00 0.10000000000000E+01
 s    1 1.00
 0.95164440028000E-01 0.10000000000000E+01
 s    1 1.00
 0.48475401370000E-01 0.10000000000000E+01
 p    4 1.00
 0.34697232244000E+02 0.11327220003114E-01
 0.79582622826000E+01 0.76169659202087E-01
 0.23780826883000E+01 0.30192252202676E+00
 0.81433208183000E+00 0.72785027349547E+00
 p    1 1.00
 0.28887547253000E+00 0.10000000000000E+01
 p    1 1.00
 0.10056823671000E+00 0.10000000000000E+01
 d    1 1.00
 0.10970000000000E+01 0.10000000000000E+01
 d    1 1.00
 0.31800000000000E+00 0.10000000000000E+01
 d    1 1.00
 0.90985336424000E-01 0.10000000000000E+01
 f    1 1.00
 0.76100000000000E+00 0.10000000000000E+01
 
    6 0
 s    6 1.00
 0.13575349682000E+05 0.60645503603591E-03
 0.20352333680000E+04 0.46979088884982E-02
 0.46322562359000E+03 0.24332477647552E-01
 0.13120019598000E+03 0.97399968307759E-01
 0.42853015891000E+02 0.30195584253780E+00
 0.15584185766000E+02 0.66233609137875E+00
 s    2 1.00
 0.62067138508000E+01 0.65595308539952E+00
 0.25764896527000E+01 0.37585633285142E+00
 s    1 1.00
 0.57696339419000E+00 0.10000000000000E+01
 s    1 1.00
 0.22972831358000E+00 0.10000000000000E+01
 s    1 1.00
 0.95164440028000E-01 0.10000000000000E+01
 s    1 1.00
 0.48475401370000E-01 0.10000000000000E+01
 p    4 1.00
 0.34697232244000E+02 0.11327220003114E-01
 0.79582622826000E+01 0.76169659202087E-01
 0.23780826883000E+01 0.30192252202676E+00
 0.81433208183000E+00 0.72785027349547E+00
 p    1 1.00
 0.28887547253000E+00 0.10000000000000E+01
 p    1 1.00
 0.10056823671000E+00 0.10000000000000E+01
 d    1 1.00
 0.10970000000000E+01 0.10000000000000E+01
 d    1 1.00
 0.31800000000000E+00 0.10000000000000E+01
 d    1 1.00
 0.90985336424000E-01 0.10000000000000E+01
 f    1 1.00
 0.76100000000000E+00 0.10000000000000E+01
 
    7 0
 s    3 1.00
 0.34061341000000E+02 0.25439307208879E-01
 0.51235746000000E+01 0.19008594890375E+00
 0.11646626000000E+01 0.85244113011042E+00
 s    1 1.00
 0.32723041000000E+00 0.10000000000000E+01
 s    1 1.00
 0.10307241000000E+00 0.10000000000000E+01
 p    1 1.00
 0.80000000000000E+00 0.10000000000000E+01
 p    1 1.00
 0.95774129632000E-01 0.10000000000000E+01
 
    8 0
 s    3 1.00
 0.34061341000000E+02 0.25439307208879E-01
 0.51235746000000E+01 0.19008594890375E+00
 0.11646626000000E+01 0.85244113011042E+00
 s    1 1.00
 0.32723041000000E+00 0.10000000000000E+01
 s    1 1.00
 0.10307241000000E+00 0.10000000000000E+01
 p    1 1.00
 0.80000000000000E+00 0.10000000000000E+01
 p    1 1.00
 0.95774129632000E-01 0.10000000000000E+01
 
    9 0
 s    3 1.00
 0.34061341000000E+02 0.25439307208879E-01
 0.51235746000000E+01 0.19008594890375E+00
 0.11646626000000E+01 0.85244113011042E+00
 s    1 1.00
 0.32723041000000E+00 0.10000000000000E+01
 s    1 1.00
 0.10307241000000E+00 0.10000000000000E+01
 p    1 1.00
 0.80000000000000E+00 0.10000000000000E+01
 p    1 1.00
 0.95774129632000E-01 0.10000000000000E+01
 
   10 0
 s    3 1.00
 0.34061341000000E+02 0.25439307208879E-01
 0.51235746000000E+01 0.19008594890375E+00
 0.11646626000000E+01 0.85244113011042E+00
 s    1 1.00
 0.32723041000000E+00 0.10000000000000E+01
 s    1 1.00
 0.10307241000000E+00 0.10000000000000E+01
 p    1 1.00
 0.80000000000000E+00 0.10000000000000E+01
 p    1 1.00
 0.95774129632000E-01 0.10000000000000E+01
 
   11 0
 s    6 1.00
 0.19730800647000E+05 0.58626402628763E-03
 0.29578958745000E+04 0.45428820586397E-02
 0.67322133595000E+03 0.23558413450084E-01
 0.19068249494000E+03 0.94709193292923E-01
 0.62295441898000E+02 0.29719784913376E+00
 0.22654161182000E+02 0.66916246895232E+00
 s    2 1.00
 0.89791477428000E+01 0.64596683630063E+00
 0.36863002370000E+01 0.38700574393705E+00
 s    1 1.00
 0.84660076805000E+00 0.10000000000000E+01
 s    1 1.00
 0.33647133771000E+00 0.10000000000000E+01
 s    1 1.00
 0.13647653675000E+00 0.10000000000000E+01
 s    1 1.00
 0.68441605847000E-01 0.10000000000000E+01
 p    4 1.00
 0.49200380510000E+02 0.11448825101764E-01
 0.11346790537000E+02 0.78422337970864E-01
 0.34273972411000E+01 0.30818094738830E+00
 0.11785525134000E+01 0.72027196368413E+00
 p    1 1.00
 0.41642204972000E+00 0.10000000000000E+01
 p    1 1.00
 0.14260826011000E+00 0.10000000000000E+01
 d    1 1.00
 0.16540000000000E+01 0.10000000000000E+01
 d    1 1.00
 0.46900000000000E+00 0.10000000000000E+01
 d    1 1.00
 0.12829642058000E+00 0.10000000000000E+01
 f    1 1.00
 0.10930000000000E+01 0.10000000000000E+01
 
   12 0
 s    6 1.00
 0.27032382631000E+05 0.57227335211155E-03
 0.40523871392000E+04 0.44353233492995E-02
 0.92232722710000E+03 0.23020107706038E-01
 0.26124070989000E+03 0.92822490667928E-01
 0.85354641351000E+02 0.29378500009671E+00
 0.31035035245000E+02 0.67401604501641E+00
 s    2 1.00
 0.12260860728000E+02 0.63839937025506E+00
 0.49987076005000E+01 0.39534587125718E+00
 s    1 1.00
 0.11703108158000E+01 0.10000000000000E+01
 s    1 1.00
 0.46474740994000E+00 0.10000000000000E+01
 s    1 1.00
 0.18504536357000E+00 0.10000000000000E+01
 s    1 1.00
 0.70288026270000E-01 0.10000000000000E+01
 p    4 1.00
 0.63274954801000E+02 0.12018332222616E-01
 0.14627049379000E+02 0.83005421790056E-01
 0.44501223456000E+01 0.31991743925964E+00
 0.15275799647000E+01 0.70715542916104E+00
 p    1 1.00
 0.52935117943000E+00 0.10000000000000E+01
 p    1 1.00
 0.17478421270000E+00 0.10000000000000E+01
 p    1 1.00
 0.51112745706000E-01 0.10000000000000E+01
 d    1 1.00
 0.23140000000000E+01 0.10000000000000E+01
 d    1 1.00
 0.64500000000000E+00 0.10000000000000E+01
 d    1 1.00
 0.14696477366000E+00 0.10000000000000E+01
 f    1 1.00
 0.14280000000000E+01 0.10000000000000E+01
 
   13 0
 s    6 1.00
 0.27032382631000E+05 0.57227335211155E-03
 0.40523871392000E+04 0.44353233492995E-02
 0.92232722710000E+03 0.23020107706038E-01
 0.26124070989000E+03 0.92822490667928E-01
 0.85354641351000E+02 0.29378500009671E+00
 0.31035035245000E+02 0.67401604501641E+00
 s    2 1.00
 0.12260860728000E+02 0.63839937025506E+00
 0.49987076005000E+01 0.39534587125718E+00
 s    1 1.00
 0.11703108158000E+01 0.10000000000000E+01
 s    1 1.00
 0.46474740994000E+00 0.10000000000000E+01
 s    1 1.00
 0.18504536357000E+00 0.10000000000000E+01
 s    1 1.00
 0.70288026270000E-01 0.10000000000000E+01
 p    4 1.00
 0.63274954801000E+02 0.12018332222616E-01
 0.14627049379000E+02 0.83005421790056E-01
 0.44501223456000E+01 0.31991743925964E+00
 0.15275799647000E+01 0.70715542916104E+00
 p    1 1.00
 0.52935117943000E+00 0.10000000000000E+01
 p    1 1.00
 0.17478421270000E+00 0.10000000000000E+01
 p    1 1.00
 0.51112745706000E-01 0.10000000000000E+01
 d    1 1.00
 0.23140000000000E+01 0.10000000000000E+01
 d    1 1.00
 0.64500000000000E+00 0.10000000000000E+01
 d    1 1.00
 0.14696477366000E+00 0.10000000000000E+01
 f    1 1.00
 0.14280000000000E+01 0.10000000000000E+01
 
   14 0
 s    6 1.00
 0.19730800647000E+05 0.58626402628763E-03
 0.29578958745000E+04 0.45428820586397E-02
 0.67322133595000E+03 0.23558413450084E-01
 0.19068249494000E+03 0.94709193292923E-01
 0.62295441898000E+02 0.29719784913376E+00
 0.22654161182000E+02 0.66916246895232E+00
 s    2 1.00
 0.89791477428000E+01 0.64596683630063E+00
 0.36863002370000E+01 0.38700574393705E+00
 s    1 1.00
 0.84660076805000E+00 0.10000000000000E+01
 s    1 1.00
 0.33647133771000E+00 0.10000000000000E+01
 s    1 1.00
 0.13647653675000E+00 0.10000000000000E+01
 s    1 1.00
 0.68441605847000E-01 0.10000000000000E+01
 p    4 1.00
 0.49200380510000E+02 0.11448825101764E-01
 0.11346790537000E+02 0.78422337970864E-01
 0.34273972411000E+01 0.30818094738830E+00
 0.11785525134000E+01 0.72027196368413E+00
 p    1 1.00
 0.41642204972000E+00 0.10000000000000E+01
 p    1 1.00
 0.14260826011000E+00 0.10000000000000E+01
 d    1 1.00
 0.16540000000000E+01 0.10000000000000E+01
 d    1 1.00
 0.46900000000000E+00 0.10000000000000E+01
 d    1 1.00
 0.12829642058000E+00 0.10000000000000E+01
 f    1 1.00
 0.10930000000000E+01 0.10000000000000E+01
 
   15 0
 s    3 1.00
 0.34061341000000E+02 0.25439307208879E-01
 0.51235746000000E+01 0.19008594890375E+00
 0.11646626000000E+01 0.85244113011042E+00
 s    1 1.00
 0.32723041000000E+00 0.10000000000000E+01
 s    1 1.00
 0.10307241000000E+00 0.10000000000000E+01
 p    1 1.00
 0.80000000000000E+00 0.10000000000000E+01
 p    1 1.00
 0.95774129632000E-01 0.10000000000000E+01
 
   16 0
 s    3 1.00
 0.34061341000000E+02 0.25439307208879E-01
 0.51235746000000E+01 0.19008594890375E+00
 0.11646626000000E+01 0.85244113011042E+00
 s    1 1.00
 0.32723041000000E+00 0.10000000000000E+01
 s    1 1.00
 0.10307241000000E+00 0.10000000000000E+01
 p    1 1.00
 0.80000000000000E+00 0.10000000000000E+01
 p    1 1.00
 0.95774129632000E-01 0.10000000000000E+01
 
[MO]
 Sym= X
 Ene= -0.896021
 Spin= Alpha
 Occup= -0.896021
         1   -5.526872E-03
         2   -1.267895E-02
         3    2.614879E-02
         4   -8.138215E-03
         5    1.959231E-01
         6    3.352933E-02
         7    3.554563E-02
         8    2.228581E-03
         9    4.774681E-05
        10    4.576400E-02
        11    3.697952E-03
        12    5.454559E-05
        13    7.875832E-02
        14   -9.257852E-02
        15    1.228967E-04
        16   -1.207557E-03
        17    1.425483E-03
        18   -2.179265E-04
        19   -2.440030E-04
        20   -1.011659E-05
        21    6.752304E-06
        22   -9.534628E-03
        23    6.483467E-03
        24    3.051161E-03
        25    1.155945E-03
        26   -3.936131E-05
        27    1.233069E-05
        28    4.486103E-06
        29    3.632635E-03
        30   -3.637121E-03
        31   -1.573466E-02
        32    7.327073E-06
        33   -1.734432E-05
        34    2.854322E-05
        35   -1.358499E-04
        36   -1.136316E-07
        37    6.044274E-05
        38    2.038921E-04
        39    1.179422E-06
        40   -9.873748E-05
        41   -2.163031E-05
        42   -1.026970E-06
        43    1.582015E-06
        44   -8.996091E-08
        45   -1.954956E-07
        46    4.177781E-08
        47    2.286179E-06
        48    2.536002E-05
        49   -4.265151E-06
        50    1.361636E-06
        51    2.713153E-02
        52   -2.947563E-04
        53    1.590268E-06
        54    3.701180E-02
        55   -3.048369E-04
        56   -1.053118E-05
        57   -2.166231E-01
        58   -2.525260E-04
        59   -2.861588E-08
        60    1.954128E-08
        61    9.074598E-09
        62   -1.990865E-03
        63   -8.417679E-08
        64   -5.414510E-07
        65   -2.265173E-07
        66    5.170759E-07
        67   -2.905586E-07
        68    2.638202E-03
        69   -2.683721E-06
        70    1.149290E-05
        71   -1.425257E-05
        72    1.553323E-05
        73   -1.280656E-06
        74    3.854008E-02
        75    7.014680E-06
        76    5.646288E-05
        77    1.712626E-08
        78    5.243221E-04
        79    1.677455E-06
        80   -7.874929E-09
        81   -5.157026E-04
        82   -9.369810E-07
        83   -1.510236E-08
        84   -1.877493E-04
        85   -1.313560E-06
        86   -8.836733E-07
        87    5.527330E-03
        88    1.268001E-02
        89   -2.615168E-02
        90    8.143261E-03
        91   -1.959071E-01
        92   -3.350320E-02
        93   -3.554197E-02
        94    2.227593E-03
        95   -1.663956E-04
        96   -4.576861E-02
        97    3.697490E-03
        98   -1.681069E-04
        99   -7.884643E-02
       100   -9.257706E-02
       101   -1.533061E-04
       102    1.207595E-03
       103   -1.425499E-03
       104    2.179037E-04
       105   -2.440428E-04
       106   -5.998037E-06
       107   -4.648307E-06
       108    9.535851E-03
       109   -6.484199E-03
       110   -3.051652E-03
       111    1.154624E-03
       112    2.870618E-06
       113   -9.278785E-06
       114    5.088735E-06
       115   -3.640723E-03
       116    3.635634E-03
       117   -1.572740E-02
       118   -1.254461E-05
       119    1.373317E-06
       120   -2.859005E-05
       121   -1.358640E-04
       122    8.350644E-07
       123   -6.042492E-05
       124    2.039109E-04
       125    3.676867E-07
       126    9.878250E-05
       127   -2.163028E-05
       128   -1.488043E-06
       129   -3.623811E-07
       130   -2.730591E-03
       131   -6.203046E-03
       132    1.219721E-02
       133   -1.260143E-02
       134    8.003099E-02
       135    1.121880E-02
       136    2.173687E-02
       137   -1.964966E-04
       138    1.420457E-04
       139   -6.998401E-03
       140    6.336880E-03
       141    1.553116E-04
       142   -4.888212E-02
       143    3.146929E-02
       144    5.005043E-05
       145    5.438804E-04
       146   -4.502143E-04
       147   -9.366611E-05
       148    1.319931E-04
       149   -2.861354E-06
       150    3.319096E-06
       151   -4.995910E-03
       152    3.370663E-03
       153    1.625247E-03
       154   -2.255345E-04
       155   -2.565433E-05
       156    1.914142E-05
       157   -1.122128E-02
       158    1.217776E-02
       159   -9.564773E-04
       160   -3.854243E-03
       161    1.730841E-05
       162    7.060547E-06
       163   -1.693010E-05
       164    3.339243E-05
       165   -1.264357E-06
       166    1.876352E-05
       167   -3.133144E-05
       168    9.743031E-08
       169    3.950591E-06
       170   -1.346921E-05
       171    1.598882E-06
       172   -1.439596E-06
       173    1.262728E-06
       174    2.871978E-06
       175   -2.582490E-06
       176   -2.768675E-05
       177    5.137953E-05
       178   -1.583390E-05
       179    1.049477E-05
       180    9.760127E-03
       181    1.565679E-04
       182   -1.158418E-07
       183    1.673890E-02
       184    1.599741E-04
       185   -1.055034E-05
       186    8.556622E-02
       187    1.689541E-04
       188   -5.686115E-07
       189    3.164690E-07
       190    2.521425E-07
       191   -1.295191E-04
       192    1.145292E-05
       193   -3.098819E-06
       194    2.318751E-06
       195   -5.164924E-06
       196    2.846173E-06
       197    3.180888E-03
       198    2.855913E-05
       199    3.630118E-05
       200    1.093027E-05
       201   -1.246214E-05
       202    1.531874E-06
       203    1.231356E-02
       204    2.371238E-05
       205    1.069667E-05
       206    1.386551E-07
       207    1.241940E-04
       208   -5.130125E-07
       209   -1.018160E-07
       210   -1.118433E-04
       211   -1.141207E-06
       212   -8.420931E-08
       213   -5.478049E-05
       214    1.829485E-06
       215    8.070224E-08
       216    2.730326E-03
       217    6.202478E-03
       218   -1.219910E-02
       219    1.263048E-02
       220   -8.012089E-02
       221   -1.124731E-02
       222   -2.173976E-02
       223   -1.982619E-04
       224    2.286126E-04
       225    6.977186E-03
       226    6.320991E-03
       227    2.241106E-04
       228    4.882140E-02
       229    3.150608E-02
       230    1.666977E-04
       231   -5.442082E-04
       232    4.506257E-04
       233    9.358253E-05
       234    1.320152E-04
       235   -9.227981E-07
       236   -4.398996E-06
       237    4.994643E-03
       238   -3.368963E-03
       239   -1.625680E-03
       240   -2.213410E-04
       241    1.208181E-05
       242    5.766056E-06
       243    1.120753E-02
       244   -1.216972E-02
       245    9.621874E-04
       246   -3.874927E-03
       247   -1.410823E-05
       248    3.333273E-05
       249    1.690263E-05
       250    3.337143E-05
       251   -7.505719E-07
       252   -1.882187E-05
       253   -3.138089E-05
       254    1.777065E-07
       255   -3.855384E-06
       256   -1.339157E-05
       257    8.292914E-07
       258   -4.547058E-07
       259    1.237729E-02
       260    1.680809E-02
       261    3.493393E-02
       262   -1.655512E-03
       263   -2.189435E-03
       264   -3.331356E-06
       265   -5.180018E-03
       266   -6.926631E-04
       267   -2.550720E-05
       268   -1.237638E-02
       269   -1.680726E-02
       270   -3.487107E-02
       271    1.655423E-03
       272   -2.189390E-03
       273   -8.582594E-07
       274    5.169018E-03
       275   -6.878584E-04
       276    3.663741E-05
       277   -2.414140E-03
       278   -4.556414E-03
       279   -1.843680E-02
       280    2.473982E-04
       281   -3.307170E-04
       282    4.775795E-06
       283   -2.078003E-03
       284   -1.875684E-04
       285    2.863138E-05
       286    2.414915E-03
       287    4.561746E-03
       288    1.835842E-02
       289   -2.474444E-04
       290   -3.308915E-04
       291    1.048212E-05
       292    2.076851E-03
       293   -1.779650E-04
       294   -3.122301E-05
       295   -1.179836E-08
       296   -2.771525E-08
       297    2.842047E-08
       298    1.023036E-06
       299    9.940321E-06
       300   -5.054039E-06
       301    5.481429E-08
       302    3.400792E-02
       303   -3.564779E-06
       304    3.716411E-08
       305    2.568465E-02
       306   -6.626409E-06
       307   -3.030008E-06
       308   -4.662192E-03
       309   -2.674307E-06
       310    5.221046E-08
       311   -6.540315E-08
       312    1.319269E-08
       313    9.520830E-03
       314    6.263854E-06
       315    2.181085E-05
       316    1.005823E-07
       317   -2.739423E-07
       318    1.733600E-07
       319    2.647631E-02
       320    1.912641E-05
       321    6.122371E-05
       322    9.974090E-07
       323   -3.806171E-06
       324    2.808762E-06
       325   -8.287420E-03
       326    9.174121E-06
       327   -2.034984E-05
       328    1.368951E-08
       329   -2.226012E-03
       330   -1.477189E-07
       331   -1.075421E-08
       332    3.124949E-03
       333   -1.035575E-06
       334   -7.612195E-09
       335   -1.384406E-04
       336    1.233761E-06
       337    8.607776E-06
       338    1.474832E-03
       339    3.750167E-03
       340   -5.532569E-03
       341    8.307384E-04
       342   -1.186487E-02
       343    1.624633E-02
       344   -2.634166E-01
       345   -2.275618E-01
       346   -4.711274E-04
       347   -2.391652E-01
       348   -1.994352E-01
       349   -4.251170E-04
       350   -1.801291E-01
       351   -1.458036E-01
       352   -3.248908E-04
       353   -2.954509E-02
       354   -1.525074E-02
       355   -5.922773E-05
       356    2.125837E-03
       357   -2.729662E-03
       358    6.038255E-04
       359    7.293820E-06
       360    3.784427E-06
       361    1.090490E-06
       362    6.458605E-03
       363   -7.115634E-03
       364    6.570290E-04
       365   -1.233434E-03
       366    1.340208E-05
       367    1.077542E-07
       368    7.423226E-03
       369   -6.625136E-03
       370   -7.980907E-04
       371   -1.400877E-03
       372    1.554358E-05
       373   -7.594968E-06
       374   -2.437016E-04
       375   -7.894252E-04
       376   -7.709433E-07
       377    4.470342E-04
       378    8.882843E-04
       379   -3.850692E-07
       380   -1.200742E-04
       381    1.708407E-04
       382    1.419398E-06
       383    1.597015E-06
       384   -1.474724E-03
       385   -3.749911E-03
       386    5.532337E-03
       387   -8.324156E-04
       388    1.188039E-02
       389   -1.624122E-02
       390    2.634196E-01
       391   -2.275634E-01
       392    7.300391E-04
       393    2.391675E-01
       394   -1.994370E-01
       395    6.644965E-04
       396    1.801272E-01
       397   -1.458043E-01
       398    4.974339E-04
       399    2.954456E-02
       400   -1.525149E-02
       401    7.977966E-05
       402   -2.125868E-03
       403    2.729701E-03
       404   -6.038327E-04
       405    7.275876E-06
       406   -4.195300E-06
       407   -1.099411E-06
       408   -6.458627E-03
       409    7.115733E-03
       410   -6.571063E-04
       411   -1.233520E-03
       412   -1.640638E-05
       413   -6.083222E-06
       414   -7.423024E-03
       415    6.625095E-03
       416    7.979284E-04
       417   -1.401212E-03
       418   -2.244625E-05
       419   -4.679383E-06
       420    2.437030E-04
       421   -7.894359E-04
       422    5.197594E-07
       423   -4.470377E-04
       424    8.882970E-04
       425    3.058127E-08
       426    1.200759E-04
       427    1.708423E-04
       428   -7.279117E-07
       429    2.233537E-06
       430   -6.072915E-06
       431   -1.440793E-05
       432    2.241797E-05
       433    3.455568E-05
       434    3.113261E-05
       435    9.050519E-05
       436   -2.095843E-05
       437   -3.578942E-03
       438   -2.854988E-04
       439   -2.400167E-05
       440   -2.195518E-03
       441   -2.825547E-04
       442   -2.164173E-05
       443   -3.915692E-03
       444   -2.360896E-04
       445    1.296034E-07
       446   -9.061235E-10
       447   -1.286972E-07
       448    2.247184E-04
       449    1.313557E-06
       450   -4.036107E-05
       451    2.834677E-07
       452    1.863106E-06
       453   -2.146574E-06
       454    9.871971E-04
       455    5.242660E-06
       456   -5.622596E-05
       457    2.500003E-06
       458    3.926884E-06
       459   -6.426887E-06
       460   -1.123265E-03
       461    2.734782E-06
       462   -5.758381E-05
       463   -1.800594E-07
       464   -4.426899E-05
       465    1.068152E-06
       466   -1.032392E-07
       467    5.542348E-05
       468   -5.036988E-07
       469    3.448142E-07
       470    3.969609E-06
       471   -9.293776E-07
       472    1.106579E-05
       473    2.031611E-03
       474    2.897234E-03
       475    4.155574E-03
       476    1.146804E-04
       477    1.662647E-04
       478   -5.432132E-05
       479    7.130092E-04
       480    3.790949E-04
       481   -2.330403E-04
       482   -2.055580E-03
       483   -2.942708E-03
       484   -4.237686E-03
       485   -1.201476E-04
       486    1.709137E-04
       487    2.501774E-05
       488   -7.100983E-04
       489    3.884714E-04
       490    1.962906E-04
 Sym= X
 Ene= 0.896021
 Spin= Alpha
 Occup= 0.896021
         1    2.011341E-05
         2    4.804690E-05
         3   -1.619507E-04
         4    2.459338E-04
         5    3.112056E-02
         6    6.843874E-05
         7    2.269278E-04
         8    7.395296E-05
         9   -9.696222E-02
        10    2.148085E-04
        11    3.298186E-05
        12   -9.647946E-02
        13   -2.232180E-02
        14    1.705926E-02
        15   -5.492821E-02
        16   -5.984482E-06
        17    1.875890E-06
        18    4.108592E-06
        19   -3.517332E-06
        20   -2.961181E-04
        21    5.406347E-04
        22    1.219287E-04
        23   -4.457297E-05
        24   -7.735572E-05
        25    2.970799E-05
        26   -5.039844E-03
        27   -3.167640E-04
        28    7.114257E-03
        29   -7.569460E-03
        30    4.552027E-04
        31    1.096807E-04
        32   -5.992939E-03
        33   -1.464590E-02
        34   -3.768318E-06
        35    1.505034E-06
        36    1.794295E-04
        37    4.317894E-06
        38   -8.641541E-08
        39    1.333939E-04
        40    7.378356E-07
        41   -1.932800E-06
        42   -3.741239E-04
        43   -5.181597E-05
        44    4.927270E-06
        45    7.584772E-06
        46    9.325824E-05
        47   -1.739639E-03
        48    6.696309E-02
        49    6.067555E-03
        50    1.111244E-05
        51    3.287361E-07
        52    3.945066E-03
        53    2.303555E-04
        54    1.163893E-05
        55    9.924250E-04
        56   -2.249344E-02
        57   -1.243005E-04
        58   -5.810660E-02
        59   -3.627859E-05
        60   -3.383021E-06
        61    3.966162E-05
        62    7.346606E-07