[Molden Format]
[Title]
ADC(2) - opt by CAM-B3LYP gaussian                                              
[Atoms] AU
 c     1    6 0.12589710753986E+01 0.22825551554713E+01 -.28105798744860E-01
 c     2    6 0.25558923691721E+01 0.80431469000000E-06 -.26811997747980E-01
 c     3    6 0.12589700738438E+01 -.22825573262942E+01 -.28139341383720E-01
 c     4    6 -.13331755585332E+01 -.22837561874501E+01 -.30470167390540E-01
 c     5    6 -.26866009864883E+01 0.27696298600000E-05 -.30311128039200E-01
 c     6    6 -.13331783742251E+01 0.22837572858534E+01 -.30432977580250E-01
 h     7    1 0.22993222678978E+01 0.40366379181686E+01 -.25216785432900E-01
 h     8    1 0.22993197734593E+01 -.40366408826765E+01 -.25273722881290E-01
 h     9    1 -.23520966897676E+01 -.40562070503646E+01 -.33235309154490E-01
 h    10    1 -.23520900190344E+01 0.40562136478709E+01 -.33159965773570E-01
 n    11    7 0.52762255328692E+01 0.25629411000000E-06 -.20783601308720E-01
 o    12    8 0.63803680214636E+01 -.20270720034092E+01 -.18188232540560E-01
 o    13    8 0.63803692875801E+01 0.20270718545932E+01 -.18282964511600E-01
 n    14    7 -.52484248103301E+01 -.66967170000000E-06 -.81289589624650E-01
 h    15    1 -.62019351690707E+01 -.16149791988436E+01 0.21484054874156E+00
 h    16    1 -.62019367942352E+01 0.16149736265137E+01 0.21486103337284E+00
[GTO]
    1 0
 s    6 1.00
 0.13575349682000E+05 0.60645503603591E-03
 0.20352333680000E+04 0.46979088884982E-02
 0.46322562359000E+03 0.24332477647552E-01
 0.13120019598000E+03 0.97399968307759E-01
 0.42853015891000E+02 0.30195584253780E+00
 0.15584185766000E+02 0.66233609137875E+00
 s    2 1.00
 0.62067138508000E+01 0.65595308539952E+00
 0.25764896527000E+01 0.37585633285142E+00
 s    1 1.00
 0.57696339419000E+00 0.10000000000000E+01
 s    1 1.00
 0.22972831358000E+00 0.10000000000000E+01
 s    1 1.00
 0.95164440028000E-01 0.10000000000000E+01
 s    1 1.00
 0.48475401370000E-01 0.10000000000000E+01
 p    4 1.00
 0.34697232244000E+02 0.11327220003114E-01
 0.79582622826000E+01 0.76169659202087E-01
 0.23780826883000E+01 0.30192252202676E+00
 0.81433208183000E+00 0.72785027349547E+00
 p    1 1.00
 0.28887547253000E+00 0.10000000000000E+01
 p    1 1.00
 0.10056823671000E+00 0.10000000000000E+01
 d    1 1.00
 0.10970000000000E+01 0.10000000000000E+01
 d    1 1.00
 0.31800000000000E+00 0.10000000000000E+01
 d    1 1.00
 0.90985336424000E-01 0.10000000000000E+01
 f    1 1.00
 0.76100000000000E+00 0.10000000000000E+01
 
    2 0
 s    6 1.00
 0.13575349682000E+05 0.60645503603591E-03
 0.20352333680000E+04 0.46979088884982E-02
 0.46322562359000E+03 0.24332477647552E-01
 0.13120019598000E+03 0.97399968307759E-01
 0.42853015891000E+02 0.30195584253780E+00
 0.15584185766000E+02 0.66233609137875E+00
 s    2 1.00
 0.62067138508000E+01 0.65595308539952E+00
 0.25764896527000E+01 0.37585633285142E+00
 s    1 1.00
 0.57696339419000E+00 0.10000000000000E+01
 s    1 1.00
 0.22972831358000E+00 0.10000000000000E+01
 s    1 1.00
 0.95164440028000E-01 0.10000000000000E+01
 s    1 1.00
 0.48475401370000E-01 0.10000000000000E+01
 p    4 1.00
 0.34697232244000E+02 0.11327220003114E-01
 0.79582622826000E+01 0.76169659202087E-01
 0.23780826883000E+01 0.30192252202676E+00
 0.81433208183000E+00 0.72785027349547E+00
 p    1 1.00
 0.28887547253000E+00 0.10000000000000E+01
 p    1 1.00
 0.10056823671000E+00 0.10000000000000E+01
 d    1 1.00
 0.10970000000000E+01 0.10000000000000E+01
 d    1 1.00
 0.31800000000000E+00 0.10000000000000E+01
 d    1 1.00
 0.90985336424000E-01 0.10000000000000E+01
 f    1 1.00
 0.76100000000000E+00 0.10000000000000E+01
 
    3 0
 s    6 1.00
 0.13575349682000E+05 0.60645503603591E-03
 0.20352333680000E+04 0.46979088884982E-02
 0.46322562359000E+03 0.24332477647552E-01
 0.13120019598000E+03 0.97399968307759E-01
 0.42853015891000E+02 0.30195584253780E+00
 0.15584185766000E+02 0.66233609137875E+00
 s    2 1.00
 0.62067138508000E+01 0.65595308539952E+00
 0.25764896527000E+01 0.37585633285142E+00
 s    1 1.00
 0.57696339419000E+00 0.10000000000000E+01
 s    1 1.00
 0.22972831358000E+00 0.10000000000000E+01
 s    1 1.00
 0.95164440028000E-01 0.10000000000000E+01
 s    1 1.00
 0.48475401370000E-01 0.10000000000000E+01
 p    4 1.00
 0.34697232244000E+02 0.11327220003114E-01
 0.79582622826000E+01 0.76169659202087E-01
 0.23780826883000E+01 0.30192252202676E+00
 0.81433208183000E+00 0.72785027349547E+00
 p    1 1.00
 0.28887547253000E+00 0.10000000000000E+01
 p    1 1.00
 0.10056823671000E+00 0.10000000000000E+01
 d    1 1.00
 0.10970000000000E+01 0.10000000000000E+01
 d    1 1.00
 0.31800000000000E+00 0.10000000000000E+01
 d    1 1.00
 0.90985336424000E-01 0.10000000000000E+01
 f    1 1.00
 0.76100000000000E+00 0.10000000000000E+01
 
    4 0
 s    6 1.00
 0.13575349682000E+05 0.60645503603591E-03
 0.20352333680000E+04 0.46979088884982E-02
 0.46322562359000E+03 0.24332477647552E-01
 0.13120019598000E+03 0.97399968307759E-01
 0.42853015891000E+02 0.30195584253780E+00
 0.15584185766000E+02 0.66233609137875E+00
 s    2 1.00
 0.62067138508000E+01 0.65595308539952E+00
 0.25764896527000E+01 0.37585633285142E+00
 s    1 1.00
 0.57696339419000E+00 0.10000000000000E+01
 s    1 1.00
 0.22972831358000E+00 0.10000000000000E+01
 s    1 1.00
 0.95164440028000E-01 0.10000000000000E+01
 s    1 1.00
 0.48475401370000E-01 0.10000000000000E+01
 p    4 1.00
 0.34697232244000E+02 0.11327220003114E-01
 0.79582622826000E+01 0.76169659202087E-01
 0.23780826883000E+01 0.30192252202676E+00
 0.81433208183000E+00 0.72785027349547E+00
 p    1 1.00
 0.28887547253000E+00 0.10000000000000E+01
 p    1 1.00
 0.10056823671000E+00 0.10000000000000E+01
 d    1 1.00
 0.10970000000000E+01 0.10000000000000E+01
 d    1 1.00
 0.31800000000000E+00 0.10000000000000E+01
 d    1 1.00
 0.90985336424000E-01 0.10000000000000E+01
 f    1 1.00
 0.76100000000000E+00 0.10000000000000E+01
 
    5 0
 s    6 1.00
 0.13575349682000E+05 0.60645503603591E-03
 0.20352333680000E+04 0.46979088884982E-02
 0.46322562359000E+03 0.24332477647552E-01
 0.13120019598000E+03 0.97399968307759E-01
 0.42853015891000E+02 0.30195584253780E+00
 0.15584185766000E+02 0.66233609137875E+00
 s    2 1.00
 0.62067138508000E+01 0.65595308539952E+00
 0.25764896527000E+01 0.37585633285142E+00
 s    1 1.00
 0.57696339419000E+00 0.10000000000000E+01
 s    1 1.00
 0.22972831358000E+00 0.10000000000000E+01
 s    1 1.00
 0.95164440028000E-01 0.10000000000000E+01
 s    1 1.00
 0.48475401370000E-01 0.10000000000000E+01
 p    4 1.00
 0.34697232244000E+02 0.11327220003114E-01
 0.79582622826000E+01 0.76169659202087E-01
 0.23780826883000E+01 0.30192252202676E+00
 0.81433208183000E+00 0.72785027349547E+00
 p    1 1.00
 0.28887547253000E+00 0.10000000000000E+01
 p    1 1.00
 0.10056823671000E+00 0.10000000000000E+01
 d    1 1.00
 0.10970000000000E+01 0.10000000000000E+01
 d    1 1.00
 0.31800000000000E+00 0.10000000000000E+01
 d    1 1.00
 0.90985336424000E-01 0.10000000000000E+01
 f    1 1.00
 0.76100000000000E+00 0.10000000000000E+01
 
    6 0
 s    6 1.00
 0.13575349682000E+05 0.60645503603591E-03
 0.20352333680000E+04 0.46979088884982E-02
 0.46322562359000E+03 0.24332477647552E-01
 0.13120019598000E+03 0.97399968307759E-01
 0.42853015891000E+02 0.30195584253780E+00
 0.15584185766000E+02 0.66233609137875E+00
 s    2 1.00
 0.62067138508000E+01 0.65595308539952E+00
 0.25764896527000E+01 0.37585633285142E+00
 s    1 1.00
 0.57696339419000E+00 0.10000000000000E+01
 s    1 1.00
 0.22972831358000E+00 0.10000000000000E+01
 s    1 1.00
 0.95164440028000E-01 0.10000000000000E+01
 s    1 1.00
 0.48475401370000E-01 0.10000000000000E+01
 p    4 1.00
 0.34697232244000E+02 0.11327220003114E-01
 0.79582622826000E+01 0.76169659202087E-01
 0.23780826883000E+01 0.30192252202676E+00
 0.81433208183000E+00 0.72785027349547E+00
 p    1 1.00
 0.28887547253000E+00 0.10000000000000E+01
 p    1 1.00
 0.10056823671000E+00 0.10000000000000E+01
 d    1 1.00
 0.10970000000000E+01 0.10000000000000E+01
 d    1 1.00
 0.31800000000000E+00 0.10000000000000E+01
 d    1 1.00
 0.90985336424000E-01 0.10000000000000E+01
 f    1 1.00
 0.76100000000000E+00 0.10000000000000E+01
 
    7 0
 s    3 1.00
 0.34061341000000E+02 0.25439307208879E-01
 0.51235746000000E+01 0.19008594890375E+00
 0.11646626000000E+01 0.85244113011042E+00
 s    1 1.00
 0.32723041000000E+00 0.10000000000000E+01
 s    1 1.00
 0.10307241000000E+00 0.10000000000000E+01
 p    1 1.00
 0.80000000000000E+00 0.10000000000000E+01
 p    1 1.00
 0.95774129632000E-01 0.10000000000000E+01
 
    8 0
 s    3 1.00
 0.34061341000000E+02 0.25439307208879E-01
 0.51235746000000E+01 0.19008594890375E+00
 0.11646626000000E+01 0.85244113011042E+00
 s    1 1.00
 0.32723041000000E+00 0.10000000000000E+01
 s    1 1.00
 0.10307241000000E+00 0.10000000000000E+01
 p    1 1.00
 0.80000000000000E+00 0.10000000000000E+01
 p    1 1.00
 0.95774129632000E-01 0.10000000000000E+01
 
    9 0
 s    3 1.00
 0.34061341000000E+02 0.25439307208879E-01
 0.51235746000000E+01 0.19008594890375E+00
 0.11646626000000E+01 0.85244113011042E+00
 s    1 1.00
 0.32723041000000E+00 0.10000000000000E+01
 s    1 1.00
 0.10307241000000E+00 0.10000000000000E+01
 p    1 1.00
 0.80000000000000E+00 0.10000000000000E+01
 p    1 1.00
 0.95774129632000E-01 0.10000000000000E+01
 
   10 0
 s    3 1.00
 0.34061341000000E+02 0.25439307208879E-01
 0.51235746000000E+01 0.19008594890375E+00
 0.11646626000000E+01 0.85244113011042E+00
 s    1 1.00
 0.32723041000000E+00 0.10000000000000E+01
 s    1 1.00
 0.10307241000000E+00 0.10000000000000E+01
 p    1 1.00
 0.80000000000000E+00 0.10000000000000E+01
 p    1 1.00
 0.95774129632000E-01 0.10000000000000E+01
 
   11 0
 s    6 1.00
 0.19730800647000E+05 0.58626402628763E-03
 0.29578958745000E+04 0.45428820586397E-02
 0.67322133595000E+03 0.23558413450084E-01
 0.19068249494000E+03 0.94709193292923E-01
 0.62295441898000E+02 0.29719784913376E+00
 0.22654161182000E+02 0.66916246895232E+00
 s    2 1.00
 0.89791477428000E+01 0.64596683630063E+00
 0.36863002370000E+01 0.38700574393705E+00
 s    1 1.00
 0.84660076805000E+00 0.10000000000000E+01
 s    1 1.00
 0.33647133771000E+00 0.10000000000000E+01
 s    1 1.00
 0.13647653675000E+00 0.10000000000000E+01
 s    1 1.00
 0.68441605847000E-01 0.10000000000000E+01
 p    4 1.00
 0.49200380510000E+02 0.11448825101764E-01
 0.11346790537000E+02 0.78422337970864E-01
 0.34273972411000E+01 0.30818094738830E+00
 0.11785525134000E+01 0.72027196368413E+00
 p    1 1.00
 0.41642204972000E+00 0.10000000000000E+01
 p    1 1.00
 0.14260826011000E+00 0.10000000000000E+01
 d    1 1.00
 0.16540000000000E+01 0.10000000000000E+01
 d    1 1.00
 0.46900000000000E+00 0.10000000000000E+01
 d    1 1.00
 0.12829642058000E+00 0.10000000000000E+01
 f    1 1.00
 0.10930000000000E+01 0.10000000000000E+01
 
   12 0
 s    6 1.00
 0.27032382631000E+05 0.57227335211155E-03
 0.40523871392000E+04 0.44353233492995E-02
 0.92232722710000E+03 0.23020107706038E-01
 0.26124070989000E+03 0.92822490667928E-01
 0.85354641351000E+02 0.29378500009671E+00
 0.31035035245000E+02 0.67401604501641E+00
 s    2 1.00
 0.12260860728000E+02 0.63839937025506E+00
 0.49987076005000E+01 0.39534587125718E+00
 s    1 1.00
 0.11703108158000E+01 0.10000000000000E+01
 s    1 1.00
 0.46474740994000E+00 0.10000000000000E+01
 s    1 1.00
 0.18504536357000E+00 0.10000000000000E+01
 s    1 1.00
 0.70288026270000E-01 0.10000000000000E+01
 p    4 1.00
 0.63274954801000E+02 0.12018332222616E-01
 0.14627049379000E+02 0.83005421790056E-01
 0.44501223456000E+01 0.31991743925964E+00
 0.15275799647000E+01 0.70715542916104E+00
 p    1 1.00
 0.52935117943000E+00 0.10000000000000E+01
 p    1 1.00
 0.17478421270000E+00 0.10000000000000E+01
 p    1 1.00
 0.51112745706000E-01 0.10000000000000E+01
 d    1 1.00
 0.23140000000000E+01 0.10000000000000E+01
 d    1 1.00
 0.64500000000000E+00 0.10000000000000E+01
 d    1 1.00
 0.14696477366000E+00 0.10000000000000E+01
 f    1 1.00
 0.14280000000000E+01 0.10000000000000E+01
 
   13 0
 s    6 1.00
 0.27032382631000E+05 0.57227335211155E-03
 0.40523871392000E+04 0.44353233492995E-02
 0.92232722710000E+03 0.23020107706038E-01
 0.26124070989000E+03 0.92822490667928E-01
 0.85354641351000E+02 0.29378500009671E+00
 0.31035035245000E+02 0.67401604501641E+00
 s    2 1.00
 0.12260860728000E+02 0.63839937025506E+00
 0.49987076005000E+01 0.39534587125718E+00
 s    1 1.00
 0.11703108158000E+01 0.10000000000000E+01
 s    1 1.00
 0.46474740994000E+00 0.10000000000000E+01
 s    1 1.00
 0.18504536357000E+00 0.10000000000000E+01
 s    1 1.00
 0.70288026270000E-01 0.10000000000000E+01
 p    4 1.00
 0.63274954801000E+02 0.12018332222616E-01
 0.14627049379000E+02 0.83005421790056E-01
 0.44501223456000E+01 0.31991743925964E+00
 0.15275799647000E+01 0.70715542916104E+00
 p    1 1.00
 0.52935117943000E+00 0.10000000000000E+01
 p    1 1.00
 0.17478421270000E+00 0.10000000000000E+01
 p    1 1.00
 0.51112745706000E-01 0.10000000000000E+01
 d    1 1.00
 0.23140000000000E+01 0.10000000000000E+01
 d    1 1.00
 0.64500000000000E+00 0.10000000000000E+01
 d    1 1.00
 0.14696477366000E+00 0.10000000000000E+01
 f    1 1.00
 0.14280000000000E+01 0.10000000000000E+01
 
   14 0
 s    6 1.00
 0.19730800647000E+05 0.58626402628763E-03
 0.29578958745000E+04 0.45428820586397E-02
 0.67322133595000E+03 0.23558413450084E-01
 0.19068249494000E+03 0.94709193292923E-01
 0.62295441898000E+02 0.29719784913376E+00
 0.22654161182000E+02 0.66916246895232E+00
 s    2 1.00
 0.89791477428000E+01 0.64596683630063E+00
 0.36863002370000E+01 0.38700574393705E+00
 s    1 1.00
 0.84660076805000E+00 0.10000000000000E+01
 s    1 1.00
 0.33647133771000E+00 0.10000000000000E+01
 s    1 1.00
 0.13647653675000E+00 0.10000000000000E+01
 s    1 1.00
 0.68441605847000E-01 0.10000000000000E+01
 p    4 1.00
 0.49200380510000E+02 0.11448825101764E-01
 0.11346790537000E+02 0.78422337970864E-01
 0.34273972411000E+01 0.30818094738830E+00
 0.11785525134000E+01 0.72027196368413E+00
 p    1 1.00
 0.41642204972000E+00 0.10000000000000E+01
 p    1 1.00
 0.14260826011000E+00 0.10000000000000E+01
 d    1 1.00
 0.16540000000000E+01 0.10000000000000E+01
 d    1 1.00
 0.46900000000000E+00 0.10000000000000E+01
 d    1 1.00
 0.12829642058000E+00 0.10000000000000E+01
 f    1 1.00
 0.10930000000000E+01 0.10000000000000E+01
 
   15 0
 s    3 1.00
 0.34061341000000E+02 0.25439307208879E-01
 0.51235746000000E+01 0.19008594890375E+00
 0.11646626000000E+01 0.85244113011042E+00
 s    1 1.00
 0.32723041000000E+00 0.10000000000000E+01
 s    1 1.00
 0.10307241000000E+00 0.10000000000000E+01
 p    1 1.00
 0.80000000000000E+00 0.10000000000000E+01
 p    1 1.00
 0.95774129632000E-01 0.10000000000000E+01
 
   16 0
 s    3 1.00
 0.34061341000000E+02 0.25439307208879E-01
 0.51235746000000E+01 0.19008594890375E+00
 0.11646626000000E+01 0.85244113011042E+00
 s    1 1.00
 0.32723041000000E+00 0.10000000000000E+01
 s    1 1.00
 0.10307241000000E+00 0.10000000000000E+01
 p    1 1.00
 0.80000000000000E+00 0.10000000000000E+01
 p    1 1.00
 0.95774129632000E-01 0.10000000000000E+01
 
[MO]
 Sym= X
 Ene= -0.073736
 Spin= Alpha
 Occup= -0.073736
         1   -3.795914E-04
         2   -8.694230E-04
         3    1.793738E-03
         4   -9.710553E-04
         5    1.196471E-02
         6   -1.176392E-02
         7   -5.256621E-03
         8   -7.229356E-04
         9   -1.298263E-01
        10   -4.008390E-04
        11   -1.053867E-03
        12   -1.280224E-01
        13    2.291050E-02
        14   -1.818805E-03
        15   -4.934460E-02
        16    1.298323E-04
        17   -1.178274E-04
        18   -1.200486E-05
        19   -7.137728E-05
        20   -1.205726E-03
        21    4.404223E-03
        22   -3.950784E-04
        23    2.575357E-04
        24    1.375427E-04
        25   -8.913111E-04
        26   -3.116470E-03
        27    7.405001E-03
        28   -1.917768E-03
        29    1.686229E-03
        30    2.315387E-04
        31    2.168874E-03
        32   -6.780194E-03
        33    5.021901E-03
        34    4.470048E-06
        35   -1.412386E-05
        36    1.064180E-03
        37    1.354860E-06
        38    1.347929E-05
        39   -4.838679E-04
        40   -7.352059E-06
        41    5.469855E-06
        42   -9.438794E-04
        43    5.411092E-04
        44    1.771207E-04
        45    3.937831E-04
        46   -1.732405E-04
        47   -5.280048E-03
        48   -1.518061E-02
        49    1.064740E-02
        50    6.824440E-04
        51   -4.892420E-06
        52   -2.112721E-01
        53    1.696677E-03
        54    1.943633E-05
        55   -2.142683E-01
        56    9.229687E-03
        57    5.715508E-04
        58   -7.858499E-02
        59    1.480091E-04
        60   -1.551530E-04
        61    7.143981E-06
        62    2.626761E-07
        63    2.740340E-03
        64   -3.063947E-06
        65    6.420931E-04
        66   -9.299606E-04
        67    2.878675E-04
        68   -4.657238E-06
        69    4.056388E-03
        70   -5.574728E-06
        71    1.314800E-02
        72   -1.364176E-02
        73    4.937595E-04
        74   -4.430867E-05
        75    7.764897E-03
        76   -2.224196E-06
        77   -1.220510E-06
        78    1.299603E-07
        79    1.587126E-03
        80    1.331419E-05
        81   -2.354185E-08
        82   -7.857124E-04
        83   -1.167671E-05
        84   -1.508182E-07
        85   -1.343640E-03
        86    3.142761E-07
        87   -3.798192E-04
        88   -8.699426E-04
        89    1.791800E-03
        90   -9.705041E-04
        91    1.417205E-02
        92   -1.180533E-02
        93   -5.255226E-03
        94    7.344496E-04
        95   -1.296782E-01
        96   -3.909766E-04
        97    1.087888E-03
        98   -1.278751E-01
        99    2.263671E-02
       100    2.580119E-03
       101   -4.921034E-02
       102    1.294947E-04
       103   -1.175611E-04
       104   -1.193358E-05
       105    7.214484E-05
       106   -1.209383E-03
       107   -4.403908E-03
       108   -3.936785E-04
       109    2.589114E-04
       110    1.347671E-04
       111    8.990392E-04
       112   -3.121731E-03
       113   -7.403247E-03
       114   -1.876036E-03
       115    1.664884E-03
       116    2.111521E-04
       117   -2.164614E-03
       118   -6.793382E-03
       119   -4.989380E-03
       120    4.337944E-06
       121    1.426361E-05
       122    1.063252E-03
       123    1.527629E-06
       124   -1.340711E-05
       125   -4.827993E-04
       126   -7.347592E-06
       127   -5.729531E-06
       128   -9.437023E-04
       129   -5.409591E-04
       130    3.068309E-04
       131    6.804643E-04
       132    3.650720E-05
       133   -1.199454E-02
       134   -6.453577E-03
       135    1.365388E-02
       136    5.288487E-03
       137   -2.194640E-03
       138   -2.612566E-02
       139    1.226456E-02
       140   -7.509042E-03
       141   -2.598104E-02
       142    1.039487E-02
       143    1.019276E-02
       144   -2.345921E-03
       145    3.442150E-04
       146   -3.992897E-04
       147    5.507477E-05
       148    2.683364E-05
       149   -3.992117E-03
       150    9.555950E-04
       151    6.444786E-04
       152   -9.092317E-04
       153    2.647530E-04
       154    1.861543E-03
       155   -7.079322E-03
       156    2.271573E-03
       157    7.546014E-03
       158   -6.269765E-03
       159   -1.276249E-03
       160   -9.236942E-03
       161   -3.466423E-03
       162    1.183662E-02
       163    1.659884E-05
       164   -2.666461E-05
       165    2.281290E-04
       166    3.368518E-05
       167   -1.360359E-06
       168   -4.880741E-04
       169   -5.595487E-05
       170    3.713469E-05
       171    1.820069E-04
       172   -3.949337E-04
       173   -1.180256E-03
       174   -2.667076E-03
       175    2.978523E-03
       176    1.680649E-02
       177   -5.653942E-02
       178    4.479681E-04
       179   -1.646501E-02
       180    9.120869E-06
       181    9.690570E-02
       182   -3.883567E-03
       183    1.508428E-05
       184    9.362163E-02
       185    4.314287E-02
       186   -2.069399E-04
       187   -1.356947E-02
       188    7.996861E-04
       189   -5.725058E-04
       190   -2.271803E-04
       191    4.974606E-07
       192   -6.340010E-03
       193   -2.776260E-06
       194   -1.958886E-03
       195    4.035267E-03
       196   -2.076381E-03
       197    4.001947E-06
       198   -1.284306E-02
       199   -7.627884E-06
       200   -8.614013E-03
       201    8.893126E-03
       202   -2.791130E-04
       203   -5.254023E-05
       204   -3.774866E-03
       205   -8.905718E-06
       206   -1.471600E-04
       207    3.719219E-08
       208   -9.326605E-04
       209    8.473925E-05
       210    5.484232E-08
       211    1.371524E-03
       212    1.126967E-04
       213   -1.047409E-07
       214   -1.202289E-04
       215   -5.133168E-07
       216    3.055593E-04
       217    6.775768E-04
       218    4.307889E-05
       219   -1.202525E-02
       220   -4.784172E-03
       221    1.359790E-02
       222    5.287764E-03
       223    2.177996E-03
       224   -2.627616E-02
       225    1.227683E-02
       226    7.509647E-03
       227   -2.613286E-02
       228    1.086572E-02
       229   -1.069277E-02
       230   -2.371178E-03
       231    3.445164E-04
       232   -3.994757E-04
       233    5.495931E-05
       234   -2.587809E-05
       235   -3.995804E-03
       236   -9.551383E-04
       237    6.466756E-04
       238   -9.121338E-04
       239    2.654582E-04
       240   -1.861793E-03
       241   -7.086160E-03
       242   -2.272625E-03
       243    7.549804E-03
       244   -6.263134E-03
       245   -1.286669E-03
       246    9.180954E-03
       247   -3.463541E-03
       248   -1.185841E-02
       249    1.653020E-05
       250    2.665600E-05
       251    2.290488E-04
       252    3.379351E-05
       253    1.291713E-06
       254   -4.891599E-04
       255   -5.597109E-05
       256   -3.705449E-05
       257    1.818586E-04
       258    3.949557E-04
       259   -1.481249E-03
       260   -1.993004E-03
       261   -2.014912E-02
       262    3.621289E-05
       263    1.787968E-04
       264   -4.667306E-03
       265    4.672516E-03
       266    1.663668E-03
       267   -2.193968E-03
       268   -1.486236E-03
       269   -1.989658E-03
       270   -1.990773E-02
       271    3.603644E-05
       272   -1.779267E-04
       273   -4.660812E-03
       274    4.624381E-03
       275   -1.648500E-03
       276   -2.157929E-03
       277   -1.234908E-03
       278   -3.642376E-03
       279    3.698197E-02
       280    4.934346E-05
       281   -2.406791E-04
       282   -4.656332E-04
       283    5.255279E-03
       284    2.361843E-03
       285    9.845012E-03
       286   -1.242601E-03
       287   -3.643010E-03
       288    3.708913E-02
       289    4.821425E-05
       290    2.401715E-04
       291   -4.719332E-04
       292    5.284247E-03
       293   -2.379630E-03
       294    9.855666E-03
       295   -1.327118E-04
       296   -3.131316E-04
       297    4.032135E-04
       298    1.067301E-03
       299   -1.110026E-02
       300   -5.989888E-03
       301   -1.650034E-03
       302   -1.259685E-06
       303    3.462917E-02
       304   -1.188976E-03
       305    2.844579E-06
       306    3.285542E-02
       307    4.322940E-03
       308   -4.264874E-05
       309   -3.330701E-03
       310   -2.949415E-05
       311    5.190768E-06
       312    2.430338E-05
       313   -2.159132E-07
       314    4.425010E-03
       315   -2.938971E-06
       316   -1.414548E-04
       317    9.930932E-05
       318    4.214551E-05
       319   -1.966226E-07
       320    1.240448E-02
       321   -8.841041E-06
       322   -1.520451E-04
       323    2.327894E-03
       324   -2.175848E-03
       325    1.792749E-05
       326    5.357284E-03
       327    5.432708E-06
       328   -3.336375E-06
       329    9.440336E-08
       330   -2.333225E-04
       331    6.753089E-07
       332   -6.181630E-08
       333   -5.745661E-04
       334    3.800907E-06
       335   -6.483910E-08
       336    8.876011E-04
       337   -4.441955E-07
       338   -8.866814E-05
       339   -2.134509E-04
       340    2.794101E-04
       341    9.537958E-04
       342   -5.671535E-03
       343   -7.253092E-04
       344   -7.002022E-04
       345   -8.183084E-04
       346    8.947162E-02
       347   -4.871348E-04
       348   -8.400686E-04
       349    8.218864E-02
       350    3.309052E-04
       351   -1.174199E-03
       352    5.680805E-02
       353    2.757005E-04
       354   -4.360138E-05
       355    4.778085E-03
       356    1.480361E-05
       357   -1.876989E-05
       358    3.966280E-06
       359   -7.683259E-06
       360   -3.588950E-04
       361    1.063563E-03
       362    2.307285E-05
       363   -5.197582E-05
       364    2.890297E-05
       365   -1.995180E-05
       366   -1.519160E-03
       367    3.225202E-03
       368    2.720861E-06
       369   -7.270125E-05
       370    6.998038E-05
       371   -7.615754E-05
       372   -1.841800E-03
       373    6.850562E-04
       374   -2.879836E-07
       375   -7.339641E-06
       376   -1.738566E-04
       377    7.771007E-07
       378    8.104753E-06
       379   -7.953154E-05
       380   -3.907301E-07
       381    1.742409E-06
       382    3.127846E-04
       383   -2.762302E-04
       384   -8.852115E-05
       385   -2.130485E-04
       386    2.785865E-04
       387    9.555700E-04
       388   -5.678115E-03
       389   -7.315838E-04
       390   -7.124903E-04
       391    8.361582E-04
       392    8.931546E-02
       393   -4.977173E-04
       394    8.575095E-04
       395    8.204683E-02
       396    3.109168E-04
       397    1.185241E-03
       398    5.669094E-02
       399    2.794872E-04
       400    3.994117E-05
       401    4.759331E-03
       402    1.488897E-05
       403   -1.898466E-05
       404    4.095699E-06
       405    7.631640E-06
       406   -3.580284E-04
       407   -1.062267E-03
       408    2.369281E-05
       409   -5.319765E-05
       410    2.950485E-05
       411    1.954186E-05
       412   -1.516162E-03
       413   -3.220965E-03
       414    2.633143E-07
       415   -7.084078E-05
       416    7.057747E-05
       417    7.967114E-05
       418   -1.838252E-03
       419   -6.793592E-04
       420   -3.073632E-07
       421    7.426583E-06
       422   -1.736105E-04
       423    8.745707E-07
       424   -8.153971E-06
       425   -7.950856E-05
       426   -4.621997E-07
       427   -1.809835E-06
       428    3.124315E-04
       429    2.758072E-04
       430    4.917011E-03
       431    1.162850E-02
       432   -1.791350E-02
       433   -2.883438E-02
       434   -4.323625E-03
       435   -3.228995E-02
       436    2.244735E-02
       437   -9.868398E-06
       438    2.407057E-01
       439    2.508666E-02
       440   -4.384741E-06
       441    2.335871E-01
       442    3.322157E-02
       443    7.330535E-05
       444    1.589870E-01
       445   -9.166778E-05
       446   -1.909148E-04
       447    2.825825E-04
       448    3.271075E-07
       449    1.966710E-03
       450   -3.977756E-07
       451    1.138251E-04
       452   -2.300301E-03
       453    2.186475E-03
       454   -2.592775E-06
       455    4.196571E-03
       456   -1.229611E-06
       457    1.523455E-03
       458   -6.442289E-03
       459    4.918834E-03
       460   -1.862515E-06
       461    4.853413E-04
       462   -5.139757E-06
       463    1.002436E-04
       464   -6.320143E-08
       465   -1.285724E-03
       466    1.233658E-04
       467    9.629668E-09
       468    1.109495E-03
       469   -2.578567E-04
       470    7.516394E-08
       471    6.154845E-04
       472   -4.702059E-08
       473    6.338936E-03
       474    1.501900E-02
       475    2.722027E-02
       476    2.621985E-03
       477    1.875573E-03
       478    1.099099E-02
       479    3.420009E-03
       480    2.447880E-03
       481    4.442254E-03
       482    6.331759E-03
       483    1.496143E-02
       484    2.709401E-02
       485    2.618360E-03
       486   -1.870684E-03
       487    1.099287E-02
       488    3.407247E-03
       489   -2.424220E-03
       490    4.456743E-03
 Sym= X
 Ene= -0.775932
 Spin= Alpha
 Occup= -0.775932
         1    2.324013E-04
         2    5.386376E-04
         3   -1.437700E-03
         4    2.853423E-03
         5    4.975891E-03
         6    1.265901E-02
         7    2.143698E-03
         8    2.400409E-04
         9   -2.597528E-02
        10   -2.543326E-03
        11    5.034992E-04
        12   -2.408917E-02
        13   -3.890397E-02
        14    1.210021E-02
        15   -5.227243E-03
        16   -1.366566E-05
        17    2.353952E-05
        18   -9.873863E-06
        19    1.735237E-05
        20   -6.134236E-03
        21    3.771991E-03
        22    7.299936E-04
        23   -4.407184E-04
        24   -2.892752E-04
        25    8.146403E-04
        26   -1.388354E-02
        27    7.118015E-03
        28    5.400259E-03
        29   -5.067360E-03
        30   -3.328986E-04
        31   -1.400586E-03
        32    2.137377E-03
        33   -1.094540E-02
        34   -2.085377E-05
        35    8.189741E-06
        36    1.124677E-04
        37    8.275094E-06
        38   -8.050168E-06
        39    6.841596E-04
        40    1.970318E-05
        41   -2.937522E-06
        42   -8.350510E-04
        43    6.758108E-04
        44   -3.502116E-05
        45   -7.669519E-05
        46   -1.534138E-04
        47    3.338947E-03
        48    5.688046E-02
        49   -6.391800E-03
        50    3.568881E-04
        51    3.770361E-06
        52   -1.984527E-01
        53   -5.811172E-04
        54    1.551863E-05
        55   -2.058449E-01
        56   -1.825649E-02
        57   -6.474409E-04
        58   -1.998764E-01
        59   -5.281230E-05
        60    4.955065E-05
        61    3.261658E-06
        62   -1.550823E-07