[Molden Format]
[Title]
ADC(2) - opt by CAM-B3LYP gaussian                                              
[Atoms] AU
 c     1    6 0.12589710753986E+01 0.22825551554713E+01 -.28105798744860E-01
 c     2    6 0.25558923691721E+01 0.80431469000000E-06 -.26811997747980E-01
 c     3    6 0.12589700738438E+01 -.22825573262942E+01 -.28139341383720E-01
 c     4    6 -.13331755585332E+01 -.22837561874501E+01 -.30470167390540E-01
 c     5    6 -.26866009864883E+01 0.27696298600000E-05 -.30311128039200E-01
 c     6    6 -.13331783742251E+01 0.22837572858534E+01 -.30432977580250E-01
 h     7    1 0.22993222678978E+01 0.40366379181686E+01 -.25216785432900E-01
 h     8    1 0.22993197734593E+01 -.40366408826765E+01 -.25273722881290E-01
 h     9    1 -.23520966897676E+01 -.40562070503646E+01 -.33235309154490E-01
 h    10    1 -.23520900190344E+01 0.40562136478709E+01 -.33159965773570E-01
 n    11    7 0.52762255328692E+01 0.25629411000000E-06 -.20783601308720E-01
 o    12    8 0.63803680214636E+01 -.20270720034092E+01 -.18188232540560E-01
 o    13    8 0.63803692875801E+01 0.20270718545932E+01 -.18282964511600E-01
 n    14    7 -.52484248103301E+01 -.66967170000000E-06 -.81289589624650E-01
 h    15    1 -.62019351690707E+01 -.16149791988436E+01 0.21484054874156E+00
 h    16    1 -.62019367942352E+01 0.16149736265137E+01 0.21486103337284E+00
[GTO]
    1 0
 s    6 1.00
 0.13575349682000E+05 0.60645503603591E-03
 0.20352333680000E+04 0.46979088884982E-02
 0.46322562359000E+03 0.24332477647552E-01
 0.13120019598000E+03 0.97399968307759E-01
 0.42853015891000E+02 0.30195584253780E+00
 0.15584185766000E+02 0.66233609137875E+00
 s    2 1.00
 0.62067138508000E+01 0.65595308539952E+00
 0.25764896527000E+01 0.37585633285142E+00
 s    1 1.00
 0.57696339419000E+00 0.10000000000000E+01
 s    1 1.00
 0.22972831358000E+00 0.10000000000000E+01
 s    1 1.00
 0.95164440028000E-01 0.10000000000000E+01
 s    1 1.00
 0.48475401370000E-01 0.10000000000000E+01
 p    4 1.00
 0.34697232244000E+02 0.11327220003114E-01
 0.79582622826000E+01 0.76169659202087E-01
 0.23780826883000E+01 0.30192252202676E+00
 0.81433208183000E+00 0.72785027349547E+00
 p    1 1.00
 0.28887547253000E+00 0.10000000000000E+01
 p    1 1.00
 0.10056823671000E+00 0.10000000000000E+01
 d    1 1.00
 0.10970000000000E+01 0.10000000000000E+01
 d    1 1.00
 0.31800000000000E+00 0.10000000000000E+01
 d    1 1.00
 0.90985336424000E-01 0.10000000000000E+01
 f    1 1.00
 0.76100000000000E+00 0.10000000000000E+01
 
    2 0
 s    6 1.00
 0.13575349682000E+05 0.60645503603591E-03
 0.20352333680000E+04 0.46979088884982E-02
 0.46322562359000E+03 0.24332477647552E-01
 0.13120019598000E+03 0.97399968307759E-01
 0.42853015891000E+02 0.30195584253780E+00
 0.15584185766000E+02 0.66233609137875E+00
 s    2 1.00
 0.62067138508000E+01 0.65595308539952E+00
 0.25764896527000E+01 0.37585633285142E+00
 s    1 1.00
 0.57696339419000E+00 0.10000000000000E+01
 s    1 1.00
 0.22972831358000E+00 0.10000000000000E+01
 s    1 1.00
 0.95164440028000E-01 0.10000000000000E+01
 s    1 1.00
 0.48475401370000E-01 0.10000000000000E+01
 p    4 1.00
 0.34697232244000E+02 0.11327220003114E-01
 0.79582622826000E+01 0.76169659202087E-01
 0.23780826883000E+01 0.30192252202676E+00
 0.81433208183000E+00 0.72785027349547E+00
 p    1 1.00
 0.28887547253000E+00 0.10000000000000E+01
 p    1 1.00
 0.10056823671000E+00 0.10000000000000E+01
 d    1 1.00
 0.10970000000000E+01 0.10000000000000E+01
 d    1 1.00
 0.31800000000000E+00 0.10000000000000E+01
 d    1 1.00
 0.90985336424000E-01 0.10000000000000E+01
 f    1 1.00
 0.76100000000000E+00 0.10000000000000E+01
 
    3 0
 s    6 1.00
 0.13575349682000E+05 0.60645503603591E-03
 0.20352333680000E+04 0.46979088884982E-02
 0.46322562359000E+03 0.24332477647552E-01
 0.13120019598000E+03 0.97399968307759E-01
 0.42853015891000E+02 0.30195584253780E+00
 0.15584185766000E+02 0.66233609137875E+00
 s    2 1.00
 0.62067138508000E+01 0.65595308539952E+00
 0.25764896527000E+01 0.37585633285142E+00
 s    1 1.00
 0.57696339419000E+00 0.10000000000000E+01
 s    1 1.00
 0.22972831358000E+00 0.10000000000000E+01
 s    1 1.00
 0.95164440028000E-01 0.10000000000000E+01
 s    1 1.00
 0.48475401370000E-01 0.10000000000000E+01
 p    4 1.00
 0.34697232244000E+02 0.11327220003114E-01
 0.79582622826000E+01 0.76169659202087E-01
 0.23780826883000E+01 0.30192252202676E+00
 0.81433208183000E+00 0.72785027349547E+00
 p    1 1.00
 0.28887547253000E+00 0.10000000000000E+01
 p    1 1.00
 0.10056823671000E+00 0.10000000000000E+01
 d    1 1.00
 0.10970000000000E+01 0.10000000000000E+01
 d    1 1.00
 0.31800000000000E+00 0.10000000000000E+01
 d    1 1.00
 0.90985336424000E-01 0.10000000000000E+01
 f    1 1.00
 0.76100000000000E+00 0.10000000000000E+01
 
    4 0
 s    6 1.00
 0.13575349682000E+05 0.60645503603591E-03
 0.20352333680000E+04 0.46979088884982E-02
 0.46322562359000E+03 0.24332477647552E-01
 0.13120019598000E+03 0.97399968307759E-01
 0.42853015891000E+02 0.30195584253780E+00
 0.15584185766000E+02 0.66233609137875E+00
 s    2 1.00
 0.62067138508000E+01 0.65595308539952E+00
 0.25764896527000E+01 0.37585633285142E+00
 s    1 1.00
 0.57696339419000E+00 0.10000000000000E+01
 s    1 1.00
 0.22972831358000E+00 0.10000000000000E+01
 s    1 1.00
 0.95164440028000E-01 0.10000000000000E+01
 s    1 1.00
 0.48475401370000E-01 0.10000000000000E+01
 p    4 1.00
 0.34697232244000E+02 0.11327220003114E-01
 0.79582622826000E+01 0.76169659202087E-01
 0.23780826883000E+01 0.30192252202676E+00
 0.81433208183000E+00 0.72785027349547E+00
 p    1 1.00
 0.28887547253000E+00 0.10000000000000E+01
 p    1 1.00
 0.10056823671000E+00 0.10000000000000E+01
 d    1 1.00
 0.10970000000000E+01 0.10000000000000E+01
 d    1 1.00
 0.31800000000000E+00 0.10000000000000E+01
 d    1 1.00
 0.90985336424000E-01 0.10000000000000E+01
 f    1 1.00
 0.76100000000000E+00 0.10000000000000E+01
 
    5 0
 s    6 1.00
 0.13575349682000E+05 0.60645503603591E-03
 0.20352333680000E+04 0.46979088884982E-02
 0.46322562359000E+03 0.24332477647552E-01
 0.13120019598000E+03 0.97399968307759E-01
 0.42853015891000E+02 0.30195584253780E+00
 0.15584185766000E+02 0.66233609137875E+00
 s    2 1.00
 0.62067138508000E+01 0.65595308539952E+00
 0.25764896527000E+01 0.37585633285142E+00
 s    1 1.00
 0.57696339419000E+00 0.10000000000000E+01
 s    1 1.00
 0.22972831358000E+00 0.10000000000000E+01
 s    1 1.00
 0.95164440028000E-01 0.10000000000000E+01
 s    1 1.00
 0.48475401370000E-01 0.10000000000000E+01
 p    4 1.00
 0.34697232244000E+02 0.11327220003114E-01
 0.79582622826000E+01 0.76169659202087E-01
 0.23780826883000E+01 0.30192252202676E+00
 0.81433208183000E+00 0.72785027349547E+00
 p    1 1.00
 0.28887547253000E+00 0.10000000000000E+01
 p    1 1.00
 0.10056823671000E+00 0.10000000000000E+01
 d    1 1.00
 0.10970000000000E+01 0.10000000000000E+01
 d    1 1.00
 0.31800000000000E+00 0.10000000000000E+01
 d    1 1.00
 0.90985336424000E-01 0.10000000000000E+01
 f    1 1.00
 0.76100000000000E+00 0.10000000000000E+01
 
    6 0
 s    6 1.00
 0.13575349682000E+05 0.60645503603591E-03
 0.20352333680000E+04 0.46979088884982E-02
 0.46322562359000E+03 0.24332477647552E-01
 0.13120019598000E+03 0.97399968307759E-01
 0.42853015891000E+02 0.30195584253780E+00
 0.15584185766000E+02 0.66233609137875E+00
 s    2 1.00
 0.62067138508000E+01 0.65595308539952E+00
 0.25764896527000E+01 0.37585633285142E+00
 s    1 1.00
 0.57696339419000E+00 0.10000000000000E+01
 s    1 1.00
 0.22972831358000E+00 0.10000000000000E+01
 s    1 1.00
 0.95164440028000E-01 0.10000000000000E+01
 s    1 1.00
 0.48475401370000E-01 0.10000000000000E+01
 p    4 1.00
 0.34697232244000E+02 0.11327220003114E-01
 0.79582622826000E+01 0.76169659202087E-01
 0.23780826883000E+01 0.30192252202676E+00
 0.81433208183000E+00 0.72785027349547E+00
 p    1 1.00
 0.28887547253000E+00 0.10000000000000E+01
 p    1 1.00
 0.10056823671000E+00 0.10000000000000E+01
 d    1 1.00
 0.10970000000000E+01 0.10000000000000E+01
 d    1 1.00
 0.31800000000000E+00 0.10000000000000E+01
 d    1 1.00
 0.90985336424000E-01 0.10000000000000E+01
 f    1 1.00
 0.76100000000000E+00 0.10000000000000E+01
 
    7 0
 s    3 1.00
 0.34061341000000E+02 0.25439307208879E-01
 0.51235746000000E+01 0.19008594890375E+00
 0.11646626000000E+01 0.85244113011042E+00
 s    1 1.00
 0.32723041000000E+00 0.10000000000000E+01
 s    1 1.00
 0.10307241000000E+00 0.10000000000000E+01
 p    1 1.00
 0.80000000000000E+00 0.10000000000000E+01
 p    1 1.00
 0.95774129632000E-01 0.10000000000000E+01
 
    8 0
 s    3 1.00
 0.34061341000000E+02 0.25439307208879E-01
 0.51235746000000E+01 0.19008594890375E+00
 0.11646626000000E+01 0.85244113011042E+00
 s    1 1.00
 0.32723041000000E+00 0.10000000000000E+01
 s    1 1.00
 0.10307241000000E+00 0.10000000000000E+01
 p    1 1.00
 0.80000000000000E+00 0.10000000000000E+01
 p    1 1.00
 0.95774129632000E-01 0.10000000000000E+01
 
    9 0
 s    3 1.00
 0.34061341000000E+02 0.25439307208879E-01
 0.51235746000000E+01 0.19008594890375E+00
 0.11646626000000E+01 0.85244113011042E+00
 s    1 1.00
 0.32723041000000E+00 0.10000000000000E+01
 s    1 1.00
 0.10307241000000E+00 0.10000000000000E+01
 p    1 1.00
 0.80000000000000E+00 0.10000000000000E+01
 p    1 1.00
 0.95774129632000E-01 0.10000000000000E+01
 
   10 0
 s    3 1.00
 0.34061341000000E+02 0.25439307208879E-01
 0.51235746000000E+01 0.19008594890375E+00
 0.11646626000000E+01 0.85244113011042E+00
 s    1 1.00
 0.32723041000000E+00 0.10000000000000E+01
 s    1 1.00
 0.10307241000000E+00 0.10000000000000E+01
 p    1 1.00
 0.80000000000000E+00 0.10000000000000E+01
 p    1 1.00
 0.95774129632000E-01 0.10000000000000E+01
 
   11 0
 s    6 1.00
 0.19730800647000E+05 0.58626402628763E-03
 0.29578958745000E+04 0.45428820586397E-02
 0.67322133595000E+03 0.23558413450084E-01
 0.19068249494000E+03 0.94709193292923E-01
 0.62295441898000E+02 0.29719784913376E+00
 0.22654161182000E+02 0.66916246895232E+00
 s    2 1.00
 0.89791477428000E+01 0.64596683630063E+00
 0.36863002370000E+01 0.38700574393705E+00
 s    1 1.00
 0.84660076805000E+00 0.10000000000000E+01
 s    1 1.00
 0.33647133771000E+00 0.10000000000000E+01
 s    1 1.00
 0.13647653675000E+00 0.10000000000000E+01
 s    1 1.00
 0.68441605847000E-01 0.10000000000000E+01
 p    4 1.00
 0.49200380510000E+02 0.11448825101764E-01
 0.11346790537000E+02 0.78422337970864E-01
 0.34273972411000E+01 0.30818094738830E+00
 0.11785525134000E+01 0.72027196368413E+00
 p    1 1.00
 0.41642204972000E+00 0.10000000000000E+01
 p    1 1.00
 0.14260826011000E+00 0.10000000000000E+01
 d    1 1.00
 0.16540000000000E+01 0.10000000000000E+01
 d    1 1.00
 0.46900000000000E+00 0.10000000000000E+01
 d    1 1.00
 0.12829642058000E+00 0.10000000000000E+01
 f    1 1.00
 0.10930000000000E+01 0.10000000000000E+01
 
   12 0
 s    6 1.00
 0.27032382631000E+05 0.57227335211155E-03
 0.40523871392000E+04 0.44353233492995E-02
 0.92232722710000E+03 0.23020107706038E-01
 0.26124070989000E+03 0.92822490667928E-01
 0.85354641351000E+02 0.29378500009671E+00
 0.31035035245000E+02 0.67401604501641E+00
 s    2 1.00
 0.12260860728000E+02 0.63839937025506E+00
 0.49987076005000E+01 0.39534587125718E+00
 s    1 1.00
 0.11703108158000E+01 0.10000000000000E+01
 s    1 1.00
 0.46474740994000E+00 0.10000000000000E+01
 s    1 1.00
 0.18504536357000E+00 0.10000000000000E+01
 s    1 1.00
 0.70288026270000E-01 0.10000000000000E+01
 p    4 1.00
 0.63274954801000E+02 0.12018332222616E-01
 0.14627049379000E+02 0.83005421790056E-01
 0.44501223456000E+01 0.31991743925964E+00
 0.15275799647000E+01 0.70715542916104E+00
 p    1 1.00
 0.52935117943000E+00 0.10000000000000E+01
 p    1 1.00
 0.17478421270000E+00 0.10000000000000E+01
 p    1 1.00
 0.51112745706000E-01 0.10000000000000E+01
 d    1 1.00
 0.23140000000000E+01 0.10000000000000E+01
 d    1 1.00
 0.64500000000000E+00 0.10000000000000E+01
 d    1 1.00
 0.14696477366000E+00 0.10000000000000E+01
 f    1 1.00
 0.14280000000000E+01 0.10000000000000E+01
 
   13 0
 s    6 1.00
 0.27032382631000E+05 0.57227335211155E-03
 0.40523871392000E+04 0.44353233492995E-02
 0.92232722710000E+03 0.23020107706038E-01
 0.26124070989000E+03 0.92822490667928E-01
 0.85354641351000E+02 0.29378500009671E+00
 0.31035035245000E+02 0.67401604501641E+00
 s    2 1.00
 0.12260860728000E+02 0.63839937025506E+00
 0.49987076005000E+01 0.39534587125718E+00
 s    1 1.00
 0.11703108158000E+01 0.10000000000000E+01
 s    1 1.00
 0.46474740994000E+00 0.10000000000000E+01
 s    1 1.00
 0.18504536357000E+00 0.10000000000000E+01
 s    1 1.00
 0.70288026270000E-01 0.10000000000000E+01
 p    4 1.00
 0.63274954801000E+02 0.12018332222616E-01
 0.14627049379000E+02 0.83005421790056E-01
 0.44501223456000E+01 0.31991743925964E+00
 0.15275799647000E+01 0.70715542916104E+00
 p    1 1.00
 0.52935117943000E+00 0.10000000000000E+01
 p    1 1.00
 0.17478421270000E+00 0.10000000000000E+01
 p    1 1.00
 0.51112745706000E-01 0.10000000000000E+01
 d    1 1.00
 0.23140000000000E+01 0.10000000000000E+01
 d    1 1.00
 0.64500000000000E+00 0.10000000000000E+01
 d    1 1.00
 0.14696477366000E+00 0.10000000000000E+01
 f    1 1.00
 0.14280000000000E+01 0.10000000000000E+01
 
   14 0
 s    6 1.00
 0.19730800647000E+05 0.58626402628763E-03
 0.29578958745000E+04 0.45428820586397E-02
 0.67322133595000E+03 0.23558413450084E-01
 0.19068249494000E+03 0.94709193292923E-01
 0.62295441898000E+02 0.29719784913376E+00
 0.22654161182000E+02 0.66916246895232E+00
 s    2 1.00
 0.89791477428000E+01 0.64596683630063E+00
 0.36863002370000E+01 0.38700574393705E+00
 s    1 1.00
 0.84660076805000E+00 0.10000000000000E+01
 s    1 1.00
 0.33647133771000E+00 0.10000000000000E+01
 s    1 1.00
 0.13647653675000E+00 0.10000000000000E+01
 s    1 1.00
 0.68441605847000E-01 0.10000000000000E+01
 p    4 1.00
 0.49200380510000E+02 0.11448825101764E-01
 0.11346790537000E+02 0.78422337970864E-01
 0.34273972411000E+01 0.30818094738830E+00
 0.11785525134000E+01 0.72027196368413E+00
 p    1 1.00
 0.41642204972000E+00 0.10000000000000E+01
 p    1 1.00
 0.14260826011000E+00 0.10000000000000E+01
 d    1 1.00
 0.16540000000000E+01 0.10000000000000E+01
 d    1 1.00
 0.46900000000000E+00 0.10000000000000E+01
 d    1 1.00
 0.12829642058000E+00 0.10000000000000E+01
 f    1 1.00
 0.10930000000000E+01 0.10000000000000E+01
 
   15 0
 s    3 1.00
 0.34061341000000E+02 0.25439307208879E-01
 0.51235746000000E+01 0.19008594890375E+00
 0.11646626000000E+01 0.85244113011042E+00
 s    1 1.00
 0.32723041000000E+00 0.10000000000000E+01
 s    1 1.00
 0.10307241000000E+00 0.10000000000000E+01
 p    1 1.00
 0.80000000000000E+00 0.10000000000000E+01
 p    1 1.00
 0.95774129632000E-01 0.10000000000000E+01
 
   16 0
 s    3 1.00
 0.34061341000000E+02 0.25439307208879E-01
 0.51235746000000E+01 0.19008594890375E+00
 0.11646626000000E+01 0.85244113011042E+00
 s    1 1.00
 0.32723041000000E+00 0.10000000000000E+01
 s    1 1.00
 0.10307241000000E+00 0.10000000000000E+01
 p    1 1.00
 0.80000000000000E+00 0.10000000000000E+01
 p    1 1.00
 0.95774129632000E-01 0.10000000000000E+01
 
[MO]
 Sym= X
 Ene= -0.831234
 Spin= Alpha
 Occup= -0.831234
         1   -5.484433E-03
         2   -1.253808E-02
         3    2.563626E-02
         4   -7.122611E-03
         5    2.276648E-01
         6    3.349688E-02
         7    5.477475E-02
         8    6.500251E-03
         9   -3.571138E-03
        10    6.111416E-02
        11    6.815950E-03
        12   -3.586847E-03
        13    8.634095E-02
        14   -1.016191E-01
        15   -2.016050E-03
        16   -1.771276E-03
        17    2.000541E-03
        18   -2.292649E-04
        19   -1.513631E-04
        20    9.556411E-05
        21    1.247154E-05
        22   -1.009360E-02
        23    7.152527E-03
        24    2.941068E-03
        25    1.074763E-03
        26    1.720133E-04
        27   -6.620062E-06
        28   -3.549314E-04
        29    4.455259E-03
        30   -4.100328E-03
        31   -1.687036E-02
        32   -4.245502E-05
        33    4.902719E-05
        34    7.682387E-05
        35   -1.329149E-04
        36    2.219246E-05
        37    7.466688E-05
        38    2.094138E-04
        39   -2.713537E-05
        40   -1.777369E-04
        41   -3.108964E-05
        42   -2.638941E-06
        43    5.161206E-07
        44   -5.219041E-08
        45   -1.074542E-07
        46    9.685381E-09
        47   -6.086371E-07
        48    5.598362E-06
        49    6.604028E-06
        50    2.125811E-06
        51    3.563429E-02
        52   -5.182483E-06
        53    2.631797E-06
        54    4.242240E-02
        55   -4.820665E-06
        56   -1.024321E-05
        57   -2.398724E-01
        58    1.660144E-05
        59    6.468988E-08
        60   -6.500403E-08
        61    3.141460E-10
        62   -1.937067E-03
        63    1.676747E-07
        64   -1.377433E-04
        65    2.226161E-07
        66   -1.360074E-07
        67   -8.660877E-08
        68    3.079849E-03
        69    3.883606E-07
        70   -3.042193E-04
        71   -2.609974E-06
        72    3.178582E-06
        73   -5.686076E-07
        74    4.204437E-02
        75    2.204647E-07
        76    1.547230E-04
        77    1.434585E-08
        78    6.561037E-04
        79    6.948490E-09
        80   -6.330445E-09
        81   -6.423871E-04
        82    4.514285E-09
        83   -1.291653E-08
        84   -2.378683E-04
        85   -1.383666E-08
        86    1.930001E-05
        87    5.484280E-03
        88    1.253773E-02
        89   -2.563502E-02
        90    7.117918E-03
        91   -2.277736E-01
        92   -3.350609E-02
        93   -5.477603E-02
        94    6.498302E-03
        95    3.560895E-03
        96   -6.111079E-02
        97    6.814648E-03
        98    3.575967E-03
        99   -8.630563E-02
       100   -1.016283E-01
       101    2.014466E-03
       102    1.771377E-03
       103   -2.000639E-03
       104    2.292620E-04
       105   -1.514230E-04
       106   -9.541792E-05
       107    1.221849E-05
       108    1.009256E-02
       109   -7.152078E-03
       110   -2.940482E-03
       111    1.074977E-03
       112   -1.714780E-04
       113   -7.707550E-06
       114    3.509046E-04
       115   -4.451972E-03
       116    4.101067E-03
       117   -1.686460E-02
       118    3.316122E-05
       119    4.251526E-05
       120   -7.680468E-05
       121   -1.329246E-04
       122   -2.208501E-05
       123   -7.468579E-05
       124    2.094210E-04
       125    2.704828E-05
       126    1.777301E-04
       127   -3.108405E-05
       128    2.581864E-06
       129    4.886570E-07
       130   -3.635432E-03
       131   -8.217566E-03
       132    1.541785E-02
       133   -1.039549E-02
       134    7.022714E-02
       135    1.090383E-02
       136    3.885959E-02
       137   -1.474967E-03
       138    3.903483E-03
       139    5.834872E-03
       140    5.538266E-03
       141    3.968497E-03
       142   -3.897037E-02
       143    2.735937E-02
       144    2.422175E-03
       145    1.090632E-03
       146   -9.335250E-04
       147   -1.571074E-04
       148    3.383688E-04
       149    9.083829E-05
       150    9.142723E-06
       151   -4.600724E-03
       152    2.964315E-03
       153    1.636409E-03
       154    1.506957E-04
       155    1.381914E-04
       156    2.940144E-05
       157   -1.243320E-02
       158    1.326785E-02
       159   -8.346525E-04
       160   -2.539284E-03
       161    1.254457E-04
       162    5.785369E-06
       163    4.427247E-05
       164    2.220518E-05
       165   -2.636094E-05
       166    1.389813E-05
       167   -2.529126E-05
       168    2.886461E-05
       169   -7.329588E-05
       170   -4.500108E-06
       171    6.502300E-06
       172   -2.151362E-06
       173   -1.564974E-07
       174   -3.717276E-07
       175    1.008750E-06
       176    4.456998E-07
       177   -1.887593E-05
       178   -8.531916E-06
       179   -5.789761E-07
       180    2.118578E-02
       181    1.259186E-06
       182   -2.012356E-06
       183    2.561249E-02
       184    1.122740E-06
       185    7.185819E-07
       186    7.238807E-02
       187   -1.180795E-06
       188    6.268132E-08
       189   -2.757193E-08
       190   -3.510939E-08
       191    8.477657E-05
       192   -3.319190E-07
       193   -1.540102E-04
       194    2.572722E-07
       195   -4.920293E-07
       196    2.347571E-07
       197    3.510360E-03
       198   -1.013448E-06
       199   -2.665570E-04
       200    3.414980E-06
       201   -4.377065E-06
       202    9.620848E-07
       203    1.223745E-02
       204    4.577178E-07
       205   -1.034995E-04
       206   -1.033422E-08
       207    2.449234E-04
       208   -1.413066E-08
       209   -3.736030E-09
       210   -2.246046E-04
       211    4.772010E-08
       212    1.760084E-08
       213   -1.039946E-04
       214   -2.876184E-08
       215   -2.249201E-05
       216    3.635467E-03
       217    8.217646E-03
       218   -1.541901E-02
       219    1.040313E-02
       220   -7.013197E-02
       221   -1.089321E-02
       222   -3.885800E-02
       223   -1.475706E-03
       224   -3.911158E-03
       225   -5.830466E-03
       226    5.536072E-03
       227   -3.974464E-03
       228    3.900153E-02
       229    2.733501E-02
       230   -2.442585E-03
       231   -1.090562E-03
       232    9.334690E-04
       233    1.570932E-04
       234    3.384597E-04
       235   -9.110187E-05
       236    9.233248E-06
       237    4.601775E-03
       238   -2.964732E-03
       239   -1.637043E-03
       240    1.510567E-04
       241   -1.385589E-04
       242    2.907831E-05
       243    1.244127E-02
       244   -1.327560E-02
       245    8.343281E-04
       246   -2.538522E-03
       247   -1.305065E-04
       248    3.368181E-06
       249   -4.423620E-05
       250    2.219743E-05
       251    2.641744E-05
       252   -1.393269E-05
       253   -2.529569E-05
       254   -2.892781E-05
       255    7.328178E-05
       256   -4.485282E-06
       257   -6.514902E-06
       258   -2.138854E-06
       259    1.909273E-02
       260    2.656393E-02
       261    3.804317E-02
       262   -1.831339E-03
       263   -3.197970E-03
       264   -1.531213E-04
       265   -4.829804E-03
       266   -9.706100E-04
       267   -1.630518E-04
       268   -1.909215E-02
       269   -2.656316E-02
       270   -3.804097E-02
       271    1.831195E-03
       272   -3.197891E-03
       273    1.531370E-04
       274    4.833040E-03
       275   -9.702872E-04
       276    1.606094E-04
       277   -5.003338E-03
       278   -8.364267E-03
       279   -2.161921E-02
       280    3.890921E-04
       281   -8.377288E-04
       282    1.663104E-04
       283   -2.700541E-03
       284    2.290687E-04
       285    1.951926E-04
       286    5.002369E-03
       287    8.362932E-03
       288    2.164678E-02
       289   -3.891345E-04
       290   -8.375648E-04
       291   -1.667153E-04
       292    2.704716E-03
       293    2.277321E-04
       294   -1.965812E-04
       295   -1.209278E-07
       296   -2.817856E-07
       297    2.861353E-07
       298    2.089924E-06
       299    5.047504E-06
       300   -5.590063E-06
       301   -1.408522E-06
       302    3.027935E-02
       303    2.072456E-06
       304   -1.050108E-06
       305    2.313811E-02
       306    3.064875E-06
       307   -7.657169E-07
       308   -4.820457E-03
       309    4.367005E-06
       310    1.648851E-07
       311   -1.629879E-07
       312   -1.897177E-09
       313    9.147308E-03
       314   -1.915819E-07
       315    5.983958E-05
       316    3.665201E-07
       317   -4.438000E-07
       318    7.727981E-08
       319    2.559644E-02
       320    5.590931E-08
       321    1.650435E-04
       322   -5.566435E-07
       323   -3.434286E-07
       324    9.000721E-07
       325   -8.343185E-03
       326    4.413700E-06
       327    9.573442E-06
       328    3.710248E-09
       329   -2.239131E-03
       330   -1.783041E-08
       331   -5.088284E-09
       332    3.127371E-03
       333   -7.950494E-08
       334    1.104644E-10
       335   -1.232610E-04
       336    1.034270E-07
       337    1.861711E-05
       338    4.662558E-04
       339    1.287067E-03
       340   -1.976090E-03
       341    5.556988E-03
       342   -9.815884E-03
       343    1.710617E-02
       344   -2.613767E-01
       345   -2.236698E-01
       346   -1.780792E-03
       347   -2.373446E-01
       348   -1.960497E-01
       349   -1.638043E-03
       350   -1.786294E-01
       351   -1.442698E-01
       352   -1.215766E-03
       353   -2.952413E-02
       354   -1.503137E-02
       355   -1.374567E-04
       356    2.079519E-03
       357   -2.650511E-03
       358    5.709914E-04
       359   -4.927116E-05
       360    8.676659E-06
       361   -9.417861E-06
       362    6.337647E-03
       363   -6.931802E-03
       364    5.941549E-04
       365   -1.402660E-03
       366    3.074720E-05
       367   -3.871624E-05
       368    7.239396E-03
       369   -6.532525E-03
       370   -7.068706E-04
       371   -1.274008E-03
       372    2.240988E-05
       373   -1.661450E-05
       374   -2.263965E-04
       375   -7.741383E-04
       376    8.864171E-07
       377    4.182761E-04
       378    8.828313E-04
       379    4.588299E-07
       380   -1.145334E-04
       381    1.557842E-04
       382   -1.648083E-06
       383    5.059405E-06
       384   -4.661316E-04
       385   -1.286762E-03
       386    1.975693E-03
       387   -5.557562E-03
       388    9.817866E-03
       389   -1.710172E-02
       390    2.613846E-01
       391   -2.236719E-01
       392    1.794871E-03
       393    2.373515E-01
       394   -1.960516E-01
       395    1.651010E-03
       396    1.786342E-01
       397   -1.442703E-01
       398    1.213181E-03
       399    2.952404E-02
       400   -1.503173E-02
       401    1.377782E-04
       402   -2.079553E-03
       403    2.650538E-03
       404   -5.709846E-04
       405   -4.932720E-05
       406   -8.789757E-06
       407   -9.684833E-06
       408   -6.337756E-03
       409    6.931893E-03
       410   -5.941372E-04
       411   -1.402856E-03
       412   -3.131262E-05
       413   -3.880977E-05
       414   -7.239500E-03
       415    6.532732E-03
       416    7.067677E-04
       417   -1.274699E-03
       418   -2.767401E-05
       419   -1.263368E-05
       420    2.263919E-04
       421   -7.741513E-04
       422   -8.475818E-07
       423   -4.182668E-04
       424    8.828565E-04
       425   -5.661425E-07
       426    1.145302E-04
       427    1.557765E-04
       428    1.703293E-06
       429    5.166596E-06
       430    2.359742E-07
       431    5.575406E-07
       432   -8.180629E-07
       433   -2.245648E-06
       434    1.437145E-06
       435    1.092611E-06
       436    1.354542E-06
       437   -9.085911E-03
       438    1.082689E-05
       439    1.033921E-06
       440   -7.028814E-03
       441    1.051898E-05
       442   -1.875752E-07
       443   -5.321229E-03
       444    7.926495E-06
       445    8.461058E-09
       446   -1.901623E-08
       447    1.055517E-08
       448    4.904558E-04
       449    5.801547E-08
       450   -1.009491E-04
       451   -1.505142E-07
       452    7.019384E-08
       453    8.032040E-08
       454    1.564277E-03
       455    3.458802E-08
       456   -1.580793E-04
       457   -5.181965E-07
       458    7.836836E-07
       459   -2.654871E-07
       460   -9.408489E-04
       461   -3.831797E-07
       462    3.009747E-05
       463    5.334508E-09
       464   -8.276222E-05
       465   -5.334190E-08
       466    4.430481E-09
       467    9.182888E-05
       468    3.998442E-08
       469   -1.158747E-08
       470    1.920828E-05
       471    3.158124E-08
       472    1.916308E-05
       473    4.848614E-03
       474    7.051270E-03
       475    6.428535E-03
       476    3.616679E-04
       477    4.428399E-04
       478   -1.095665E-04
       479    1.004988E-03
       480    4.157823E-04
       481   -1.563816E-04
       482   -4.848091E-03
       483   -7.051485E-03
       484   -6.435946E-03
       485   -3.615358E-04
       486    4.427474E-04
       487    1.103659E-04
       488   -1.007313E-03
       489    4.159109E-04
       490    1.565147E-04
 Sym= X
 Ene= 0.831234
 Spin= Alpha
 Occup= 0.831234
         1    5.829662E-05
         2    1.257137E-04
         3    7.247132E-05
         4   -4.148121E-03
         5    1.260728E-01
         6    3.353844E-02
         7    2.708655E-04
         8    2.092868E-06
         9   -2.121538E-01
        10    6.219594E-04
        11    4.227793E-04
        12   -2.160917E-01
        13    1.479650E-02
        14   -5.866933E-02
        15   -1.321248E-01
        16    2.584953E-06
        17    6.983521E-07
        18   -3.283305E-06
        19    2.002405E-05
        20   -6.451448E-03
        21    9.944266E-04
        22    9.565434E-05
        23    1.372162E-05
        24   -1.093760E-04
        25    1.618862E-04
        26   -2.108675E-02
        27   -3.881261E-03
        28   -5.490948E-04
        29    4.006638E-03
        30   -3.457544E-03
        31   -1.389909E-02
        32   -2.018108E-02
        33   -2.796594E-02
        34    7.503662E-06
        35    8.417233E-06
        36    2.002104E-04
        37   -2.228690E-06
        38   -6.247885E-06
        39    2.912032E-04
        40   -7.838528E-06
        41   -5.045019E-06
        42   -5.598137E-04
        43    4.480152E-06
        44   -2.815059E-06
        45   -6.154574E-06
        46   -1.703424E-06
        47    1.309982E-04
        48    2.413171E-03
        49   -3.889766E-04
        50    7.023553E-06
        51   -8.670501E-05
        52    1.005740E-05
        53    8.474696E-06
        54    5.711837E-04
        55    2.016154E-05
        56   -4.989297E-04
        57   -1.226930E-01
        58    4.903097E-05
        59   -1.762581E-07
        60    1.273753E-06
        61   -1.097495E-06
        62    2.757971E-05