[Molden Format]
[Title]
ADC(2) - opt by CAM-B3LYP gaussian                                              
[Atoms] AU
 c     1    6 0.12589710753986E+01 0.22825551554713E+01 -.28105798744860E-01
 c     2    6 0.25558923691721E+01 0.80431469000000E-06 -.26811997747980E-01
 c     3    6 0.12589700738438E+01 -.22825573262942E+01 -.28139341383720E-01
 c     4    6 -.13331755585332E+01 -.22837561874501E+01 -.30470167390540E-01
 c     5    6 -.26866009864883E+01 0.27696298600000E-05 -.30311128039200E-01
 c     6    6 -.13331783742251E+01 0.22837572858534E+01 -.30432977580250E-01
 h     7    1 0.22993222678978E+01 0.40366379181686E+01 -.25216785432900E-01
 h     8    1 0.22993197734593E+01 -.40366408826765E+01 -.25273722881290E-01
 h     9    1 -.23520966897676E+01 -.40562070503646E+01 -.33235309154490E-01
 h    10    1 -.23520900190344E+01 0.40562136478709E+01 -.33159965773570E-01
 n    11    7 0.52762255328692E+01 0.25629411000000E-06 -.20783601308720E-01
 o    12    8 0.63803680214636E+01 -.20270720034092E+01 -.18188232540560E-01
 o    13    8 0.63803692875801E+01 0.20270718545932E+01 -.18282964511600E-01
 n    14    7 -.52484248103301E+01 -.66967170000000E-06 -.81289589624650E-01
 h    15    1 -.62019351690707E+01 -.16149791988436E+01 0.21484054874156E+00
 h    16    1 -.62019367942352E+01 0.16149736265137E+01 0.21486103337284E+00
[GTO]
    1 0
 s    6 1.00
 0.13575349682000E+05 0.60645503603591E-03
 0.20352333680000E+04 0.46979088884982E-02
 0.46322562359000E+03 0.24332477647552E-01
 0.13120019598000E+03 0.97399968307759E-01
 0.42853015891000E+02 0.30195584253780E+00
 0.15584185766000E+02 0.66233609137875E+00
 s    2 1.00
 0.62067138508000E+01 0.65595308539952E+00
 0.25764896527000E+01 0.37585633285142E+00
 s    1 1.00
 0.57696339419000E+00 0.10000000000000E+01
 s    1 1.00
 0.22972831358000E+00 0.10000000000000E+01
 s    1 1.00
 0.95164440028000E-01 0.10000000000000E+01
 s    1 1.00
 0.48475401370000E-01 0.10000000000000E+01
 p    4 1.00
 0.34697232244000E+02 0.11327220003114E-01
 0.79582622826000E+01 0.76169659202087E-01
 0.23780826883000E+01 0.30192252202676E+00
 0.81433208183000E+00 0.72785027349547E+00
 p    1 1.00
 0.28887547253000E+00 0.10000000000000E+01
 p    1 1.00
 0.10056823671000E+00 0.10000000000000E+01
 d    1 1.00
 0.10970000000000E+01 0.10000000000000E+01
 d    1 1.00
 0.31800000000000E+00 0.10000000000000E+01
 d    1 1.00
 0.90985336424000E-01 0.10000000000000E+01
 f    1 1.00
 0.76100000000000E+00 0.10000000000000E+01
 
    2 0
 s    6 1.00
 0.13575349682000E+05 0.60645503603591E-03
 0.20352333680000E+04 0.46979088884982E-02
 0.46322562359000E+03 0.24332477647552E-01
 0.13120019598000E+03 0.97399968307759E-01
 0.42853015891000E+02 0.30195584253780E+00
 0.15584185766000E+02 0.66233609137875E+00
 s    2 1.00
 0.62067138508000E+01 0.65595308539952E+00
 0.25764896527000E+01 0.37585633285142E+00
 s    1 1.00
 0.57696339419000E+00 0.10000000000000E+01
 s    1 1.00
 0.22972831358000E+00 0.10000000000000E+01
 s    1 1.00
 0.95164440028000E-01 0.10000000000000E+01
 s    1 1.00
 0.48475401370000E-01 0.10000000000000E+01
 p    4 1.00
 0.34697232244000E+02 0.11327220003114E-01
 0.79582622826000E+01 0.76169659202087E-01
 0.23780826883000E+01 0.30192252202676E+00
 0.81433208183000E+00 0.72785027349547E+00
 p    1 1.00
 0.28887547253000E+00 0.10000000000000E+01
 p    1 1.00
 0.10056823671000E+00 0.10000000000000E+01
 d    1 1.00
 0.10970000000000E+01 0.10000000000000E+01
 d    1 1.00
 0.31800000000000E+00 0.10000000000000E+01
 d    1 1.00
 0.90985336424000E-01 0.10000000000000E+01
 f    1 1.00
 0.76100000000000E+00 0.10000000000000E+01
 
    3 0
 s    6 1.00
 0.13575349682000E+05 0.60645503603591E-03
 0.20352333680000E+04 0.46979088884982E-02
 0.46322562359000E+03 0.24332477647552E-01
 0.13120019598000E+03 0.97399968307759E-01
 0.42853015891000E+02 0.30195584253780E+00
 0.15584185766000E+02 0.66233609137875E+00
 s    2 1.00
 0.62067138508000E+01 0.65595308539952E+00
 0.25764896527000E+01 0.37585633285142E+00
 s    1 1.00
 0.57696339419000E+00 0.10000000000000E+01
 s    1 1.00
 0.22972831358000E+00 0.10000000000000E+01
 s    1 1.00
 0.95164440028000E-01 0.10000000000000E+01
 s    1 1.00
 0.48475401370000E-01 0.10000000000000E+01
 p    4 1.00
 0.34697232244000E+02 0.11327220003114E-01
 0.79582622826000E+01 0.76169659202087E-01
 0.23780826883000E+01 0.30192252202676E+00
 0.81433208183000E+00 0.72785027349547E+00
 p    1 1.00
 0.28887547253000E+00 0.10000000000000E+01
 p    1 1.00
 0.10056823671000E+00 0.10000000000000E+01
 d    1 1.00
 0.10970000000000E+01 0.10000000000000E+01
 d    1 1.00
 0.31800000000000E+00 0.10000000000000E+01
 d    1 1.00
 0.90985336424000E-01 0.10000000000000E+01
 f    1 1.00
 0.76100000000000E+00 0.10000000000000E+01
 
    4 0
 s    6 1.00
 0.13575349682000E+05 0.60645503603591E-03
 0.20352333680000E+04 0.46979088884982E-02
 0.46322562359000E+03 0.24332477647552E-01
 0.13120019598000E+03 0.97399968307759E-01
 0.42853015891000E+02 0.30195584253780E+00
 0.15584185766000E+02 0.66233609137875E+00
 s    2 1.00
 0.62067138508000E+01 0.65595308539952E+00
 0.25764896527000E+01 0.37585633285142E+00
 s    1 1.00
 0.57696339419000E+00 0.10000000000000E+01
 s    1 1.00
 0.22972831358000E+00 0.10000000000000E+01
 s    1 1.00
 0.95164440028000E-01 0.10000000000000E+01
 s    1 1.00
 0.48475401370000E-01 0.10000000000000E+01
 p    4 1.00
 0.34697232244000E+02 0.11327220003114E-01
 0.79582622826000E+01 0.76169659202087E-01
 0.23780826883000E+01 0.30192252202676E+00
 0.81433208183000E+00 0.72785027349547E+00
 p    1 1.00
 0.28887547253000E+00 0.10000000000000E+01
 p    1 1.00
 0.10056823671000E+00 0.10000000000000E+01
 d    1 1.00
 0.10970000000000E+01 0.10000000000000E+01
 d    1 1.00
 0.31800000000000E+00 0.10000000000000E+01
 d    1 1.00
 0.90985336424000E-01 0.10000000000000E+01
 f    1 1.00
 0.76100000000000E+00 0.10000000000000E+01
 
    5 0
 s    6 1.00
 0.13575349682000E+05 0.60645503603591E-03
 0.20352333680000E+04 0.46979088884982E-02
 0.46322562359000E+03 0.24332477647552E-01
 0.13120019598000E+03 0.97399968307759E-01
 0.42853015891000E+02 0.30195584253780E+00
 0.15584185766000E+02 0.66233609137875E+00
 s    2 1.00
 0.62067138508000E+01 0.65595308539952E+00
 0.25764896527000E+01 0.37585633285142E+00
 s    1 1.00
 0.57696339419000E+00 0.10000000000000E+01
 s    1 1.00
 0.22972831358000E+00 0.10000000000000E+01
 s    1 1.00
 0.95164440028000E-01 0.10000000000000E+01
 s    1 1.00
 0.48475401370000E-01 0.10000000000000E+01
 p    4 1.00
 0.34697232244000E+02 0.11327220003114E-01
 0.79582622826000E+01 0.76169659202087E-01
 0.23780826883000E+01 0.30192252202676E+00
 0.81433208183000E+00 0.72785027349547E+00
 p    1 1.00
 0.28887547253000E+00 0.10000000000000E+01
 p    1 1.00
 0.10056823671000E+00 0.10000000000000E+01
 d    1 1.00
 0.10970000000000E+01 0.10000000000000E+01
 d    1 1.00
 0.31800000000000E+00 0.10000000000000E+01
 d    1 1.00
 0.90985336424000E-01 0.10000000000000E+01
 f    1 1.00
 0.76100000000000E+00 0.10000000000000E+01
 
    6 0
 s    6 1.00
 0.13575349682000E+05 0.60645503603591E-03
 0.20352333680000E+04 0.46979088884982E-02
 0.46322562359000E+03 0.24332477647552E-01
 0.13120019598000E+03 0.97399968307759E-01
 0.42853015891000E+02 0.30195584253780E+00
 0.15584185766000E+02 0.66233609137875E+00
 s    2 1.00
 0.62067138508000E+01 0.65595308539952E+00
 0.25764896527000E+01 0.37585633285142E+00
 s    1 1.00
 0.57696339419000E+00 0.10000000000000E+01
 s    1 1.00
 0.22972831358000E+00 0.10000000000000E+01
 s    1 1.00
 0.95164440028000E-01 0.10000000000000E+01
 s    1 1.00
 0.48475401370000E-01 0.10000000000000E+01
 p    4 1.00
 0.34697232244000E+02 0.11327220003114E-01
 0.79582622826000E+01 0.76169659202087E-01
 0.23780826883000E+01 0.30192252202676E+00
 0.81433208183000E+00 0.72785027349547E+00
 p    1 1.00
 0.28887547253000E+00 0.10000000000000E+01
 p    1 1.00
 0.10056823671000E+00 0.10000000000000E+01
 d    1 1.00
 0.10970000000000E+01 0.10000000000000E+01
 d    1 1.00
 0.31800000000000E+00 0.10000000000000E+01
 d    1 1.00
 0.90985336424000E-01 0.10000000000000E+01
 f    1 1.00
 0.76100000000000E+00 0.10000000000000E+01
 
    7 0
 s    3 1.00
 0.34061341000000E+02 0.25439307208879E-01
 0.51235746000000E+01 0.19008594890375E+00
 0.11646626000000E+01 0.85244113011042E+00
 s    1 1.00
 0.32723041000000E+00 0.10000000000000E+01
 s    1 1.00
 0.10307241000000E+00 0.10000000000000E+01
 p    1 1.00
 0.80000000000000E+00 0.10000000000000E+01
 p    1 1.00
 0.95774129632000E-01 0.10000000000000E+01
 
    8 0
 s    3 1.00
 0.34061341000000E+02 0.25439307208879E-01
 0.51235746000000E+01 0.19008594890375E+00
 0.11646626000000E+01 0.85244113011042E+00
 s    1 1.00
 0.32723041000000E+00 0.10000000000000E+01
 s    1 1.00
 0.10307241000000E+00 0.10000000000000E+01
 p    1 1.00
 0.80000000000000E+00 0.10000000000000E+01
 p    1 1.00
 0.95774129632000E-01 0.10000000000000E+01
 
    9 0
 s    3 1.00
 0.34061341000000E+02 0.25439307208879E-01
 0.51235746000000E+01 0.19008594890375E+00
 0.11646626000000E+01 0.85244113011042E+00
 s    1 1.00
 0.32723041000000E+00 0.10000000000000E+01
 s    1 1.00
 0.10307241000000E+00 0.10000000000000E+01
 p    1 1.00
 0.80000000000000E+00 0.10000000000000E+01
 p    1 1.00
 0.95774129632000E-01 0.10000000000000E+01
 
   10 0
 s    3 1.00
 0.34061341000000E+02 0.25439307208879E-01
 0.51235746000000E+01 0.19008594890375E+00
 0.11646626000000E+01 0.85244113011042E+00
 s    1 1.00
 0.32723041000000E+00 0.10000000000000E+01
 s    1 1.00
 0.10307241000000E+00 0.10000000000000E+01
 p    1 1.00
 0.80000000000000E+00 0.10000000000000E+01
 p    1 1.00
 0.95774129632000E-01 0.10000000000000E+01
 
   11 0
 s    6 1.00
 0.19730800647000E+05 0.58626402628763E-03
 0.29578958745000E+04 0.45428820586397E-02
 0.67322133595000E+03 0.23558413450084E-01
 0.19068249494000E+03 0.94709193292923E-01
 0.62295441898000E+02 0.29719784913376E+00
 0.22654161182000E+02 0.66916246895232E+00
 s    2 1.00
 0.89791477428000E+01 0.64596683630063E+00
 0.36863002370000E+01 0.38700574393705E+00
 s    1 1.00
 0.84660076805000E+00 0.10000000000000E+01
 s    1 1.00
 0.33647133771000E+00 0.10000000000000E+01
 s    1 1.00
 0.13647653675000E+00 0.10000000000000E+01
 s    1 1.00
 0.68441605847000E-01 0.10000000000000E+01
 p    4 1.00
 0.49200380510000E+02 0.11448825101764E-01
 0.11346790537000E+02 0.78422337970864E-01
 0.34273972411000E+01 0.30818094738830E+00
 0.11785525134000E+01 0.72027196368413E+00
 p    1 1.00
 0.41642204972000E+00 0.10000000000000E+01
 p    1 1.00
 0.14260826011000E+00 0.10000000000000E+01
 d    1 1.00
 0.16540000000000E+01 0.10000000000000E+01
 d    1 1.00
 0.46900000000000E+00 0.10000000000000E+01
 d    1 1.00
 0.12829642058000E+00 0.10000000000000E+01
 f    1 1.00
 0.10930000000000E+01 0.10000000000000E+01
 
   12 0
 s    6 1.00
 0.27032382631000E+05 0.57227335211155E-03
 0.40523871392000E+04 0.44353233492995E-02
 0.92232722710000E+03 0.23020107706038E-01
 0.26124070989000E+03 0.92822490667928E-01
 0.85354641351000E+02 0.29378500009671E+00
 0.31035035245000E+02 0.67401604501641E+00
 s    2 1.00
 0.12260860728000E+02 0.63839937025506E+00
 0.49987076005000E+01 0.39534587125718E+00
 s    1 1.00
 0.11703108158000E+01 0.10000000000000E+01
 s    1 1.00
 0.46474740994000E+00 0.10000000000000E+01
 s    1 1.00
 0.18504536357000E+00 0.10000000000000E+01
 s    1 1.00
 0.70288026270000E-01 0.10000000000000E+01
 p    4 1.00
 0.63274954801000E+02 0.12018332222616E-01
 0.14627049379000E+02 0.83005421790056E-01
 0.44501223456000E+01 0.31991743925964E+00
 0.15275799647000E+01 0.70715542916104E+00
 p    1 1.00
 0.52935117943000E+00 0.10000000000000E+01
 p    1 1.00
 0.17478421270000E+00 0.10000000000000E+01
 p    1 1.00
 0.51112745706000E-01 0.10000000000000E+01
 d    1 1.00
 0.23140000000000E+01 0.10000000000000E+01
 d    1 1.00
 0.64500000000000E+00 0.10000000000000E+01
 d    1 1.00
 0.14696477366000E+00 0.10000000000000E+01
 f    1 1.00
 0.14280000000000E+01 0.10000000000000E+01
 
   13 0
 s    6 1.00
 0.27032382631000E+05 0.57227335211155E-03
 0.40523871392000E+04 0.44353233492995E-02
 0.92232722710000E+03 0.23020107706038E-01
 0.26124070989000E+03 0.92822490667928E-01
 0.85354641351000E+02 0.29378500009671E+00
 0.31035035245000E+02 0.67401604501641E+00
 s    2 1.00
 0.12260860728000E+02 0.63839937025506E+00
 0.49987076005000E+01 0.39534587125718E+00
 s    1 1.00
 0.11703108158000E+01 0.10000000000000E+01
 s    1 1.00
 0.46474740994000E+00 0.10000000000000E+01
 s    1 1.00
 0.18504536357000E+00 0.10000000000000E+01
 s    1 1.00
 0.70288026270000E-01 0.10000000000000E+01
 p    4 1.00
 0.63274954801000E+02 0.12018332222616E-01
 0.14627049379000E+02 0.83005421790056E-01
 0.44501223456000E+01 0.31991743925964E+00
 0.15275799647000E+01 0.70715542916104E+00
 p    1 1.00
 0.52935117943000E+00 0.10000000000000E+01
 p    1 1.00
 0.17478421270000E+00 0.10000000000000E+01
 p    1 1.00
 0.51112745706000E-01 0.10000000000000E+01
 d    1 1.00
 0.23140000000000E+01 0.10000000000000E+01
 d    1 1.00
 0.64500000000000E+00 0.10000000000000E+01
 d    1 1.00
 0.14696477366000E+00 0.10000000000000E+01
 f    1 1.00
 0.14280000000000E+01 0.10000000000000E+01
 
   14 0
 s    6 1.00
 0.19730800647000E+05 0.58626402628763E-03
 0.29578958745000E+04 0.45428820586397E-02
 0.67322133595000E+03 0.23558413450084E-01
 0.19068249494000E+03 0.94709193292923E-01
 0.62295441898000E+02 0.29719784913376E+00
 0.22654161182000E+02 0.66916246895232E+00
 s    2 1.00
 0.89791477428000E+01 0.64596683630063E+00
 0.36863002370000E+01 0.38700574393705E+00
 s    1 1.00
 0.84660076805000E+00 0.10000000000000E+01
 s    1 1.00
 0.33647133771000E+00 0.10000000000000E+01
 s    1 1.00
 0.13647653675000E+00 0.10000000000000E+01
 s    1 1.00
 0.68441605847000E-01 0.10000000000000E+01
 p    4 1.00
 0.49200380510000E+02 0.11448825101764E-01
 0.11346790537000E+02 0.78422337970864E-01
 0.34273972411000E+01 0.30818094738830E+00
 0.11785525134000E+01 0.72027196368413E+00
 p    1 1.00
 0.41642204972000E+00 0.10000000000000E+01
 p    1 1.00
 0.14260826011000E+00 0.10000000000000E+01
 d    1 1.00
 0.16540000000000E+01 0.10000000000000E+01
 d    1 1.00
 0.46900000000000E+00 0.10000000000000E+01
 d    1 1.00
 0.12829642058000E+00 0.10000000000000E+01
 f    1 1.00
 0.10930000000000E+01 0.10000000000000E+01
 
   15 0
 s    3 1.00
 0.34061341000000E+02 0.25439307208879E-01
 0.51235746000000E+01 0.19008594890375E+00
 0.11646626000000E+01 0.85244113011042E+00
 s    1 1.00
 0.32723041000000E+00 0.10000000000000E+01
 s    1 1.00
 0.10307241000000E+00 0.10000000000000E+01
 p    1 1.00
 0.80000000000000E+00 0.10000000000000E+01
 p    1 1.00
 0.95774129632000E-01 0.10000000000000E+01
 
   16 0
 s    3 1.00
 0.34061341000000E+02 0.25439307208879E-01
 0.51235746000000E+01 0.19008594890375E+00
 0.11646626000000E+01 0.85244113011042E+00
 s    1 1.00
 0.32723041000000E+00 0.10000000000000E+01
 s    1 1.00
 0.10307241000000E+00 0.10000000000000E+01
 p    1 1.00
 0.80000000000000E+00 0.10000000000000E+01
 p    1 1.00
 0.95774129632000E-01 0.10000000000000E+01
 
[MO]
 Sym= X
 Ene= -0.092484
 Spin= Alpha
 Occup= -0.092484
         1    1.805748E-04
         2    4.136233E-04
         3   -1.178855E-03
         4    2.697659E-03
         5    6.816926E-03
         6    1.108779E-02
         7    9.740236E-04
         8   -1.060093E-03
         9   -3.242420E-02
        10   -2.939639E-03
        11   -6.265243E-04
        12   -3.044255E-02
        13   -3.392766E-02
        14    1.081377E-02
        15   -9.479581E-03
        16    6.368339E-07
        17    1.423496E-05
        18   -1.487179E-05
        19   -2.638643E-05
        20   -6.447997E-03
        21    4.102358E-03
        22    6.488698E-04
        23   -3.702573E-04
        24   -2.786126E-04
        25    6.394593E-04
        26   -1.454655E-02
        27    7.703572E-03
        28    5.060690E-03
        29   -4.800781E-03
        30   -2.599094E-04
        31   -1.049984E-03
        32    1.702543E-03
        33   -9.292091E-03
        34   -2.254805E-05
        35   -3.399698E-07
        36    1.651778E-04
        37    9.552651E-06
        38   -2.755618E-06
        39    6.798458E-04
        40    2.069873E-05
        41    3.211736E-06
        42   -9.014550E-04
        43    7.364398E-04
        44   -1.786221E-04
        45   -4.039961E-04
        46    4.402863E-04
        47    3.080690E-03
        48    5.149191E-02
        49   -5.208002E-03
        50   -7.147985E-04
        51    5.671885E-06
        52   -2.171279E-01
        53   -1.160939E-03
        54    2.010747E-05
        55   -2.245762E-01
        56   -1.663944E-02
        57   -6.363970E-04
        58   -2.008801E-01
        59   -4.358345E-05
        60    5.137381E-05
        61   -7.790359E-06
        62   -2.824715E-07
        63   -8.536707E-04
        64    1.562074E-06
        65   -3.492838E-04
        66    5.970867E-04
        67   -2.478030E-04
        68   -3.425352E-06
        69   -3.626261E-03
        70    3.309758E-06
        71   -8.554478E-03
        72    9.726611E-03
        73   -1.172134E-03
        74    1.021738E-04
        75    5.261152E-03
        76   -4.245819E-06
        77    4.893499E-06
        78    1.144905E-07
        79    1.285611E-03
        80   -9.150112E-06
        81   -3.751448E-08
        82   -8.110243E-04
        83    2.584794E-06
        84   -1.160906E-07
        85   -9.138044E-04
        86   -2.231612E-07
        87    1.823865E-04
        88    4.176989E-04
        89   -1.185854E-03
        90    2.700436E-03
        91    4.884815E-03
        92    1.105994E-02
        93    9.661537E-04
        94    1.060919E-03
        95   -3.250680E-02
        96   -2.909883E-03
        97    6.346257E-04
        98   -3.052482E-02
        99   -3.402867E-02
       100   -1.142987E-02
       101   -9.548241E-03
       102    7.829285E-07
       103    1.396439E-05
       104   -1.474732E-05
       105    2.625611E-05
       106   -6.446055E-03
       107   -4.102674E-03
       108    6.423462E-04
       109   -3.640479E-04
       110   -2.782984E-04
       111   -6.367070E-04
       112   -1.454199E-02
       113   -7.702618E-03
       114    5.141091E-03
       115   -4.896159E-03
       116   -2.449325E-04
       117    9.694726E-04
       118    1.706167E-03
       119    9.297220E-03
       120   -2.252160E-05
       121    3.566925E-07
       122    1.656441E-04
       123    9.653424E-06
       124    2.746565E-06
       125    6.792907E-04
       126    2.056248E-05
       127   -3.225118E-06
       128   -9.015256E-04
       129   -7.363754E-04
       130   -1.265369E-05
       131   -2.110476E-05
       132   -8.839687E-04
       133    9.640862E-03
       134   -2.772302E-02
       135   -1.258065E-02
       136   -6.110252E-04
       137    5.699694E-04
       138    1.551277E-01
       139   -8.402596E-03
       140    5.988188E-03
       141    1.577687E-01
       142   -2.195754E-02
       143   -7.479647E-03
       144    9.668247E-02
       145   -1.111052E-04
       146    1.318874E-04
       147   -2.078222E-05
       148    2.591727E-05
       149   -1.185251E-03
       150    3.187286E-03
       151   -5.984481E-04
       152    6.947549E-04
       153   -9.630682E-05
       154   -1.603314E-03
       155   -4.749675E-03
       156    5.406703E-03
       157   -8.042233E-03
       158    6.282780E-03
       159    1.759453E-03
       160    8.884182E-03
       161    3.374639E-03
       162   -1.075331E-02
       163   -1.656307E-05
       164    3.668405E-06
       165   -8.829994E-04
       166   -1.369039E-05
       167    2.507009E-05
       168    2.001979E-04
       169    3.591207E-05
       170   -2.999177E-05
       171    9.844700E-04
       172   -3.856420E-04
       173    1.096135E-03
       174    2.497102E-03
       175   -2.527989E-03
       176   -2.202162E-02
       177    1.725596E-02
       178   -9.310147E-03
       179    7.336590E-03
       180   -1.920053E-07
       181    1.277876E-01
       182   -3.381435E-04
       183   -3.928094E-06
       184    1.301269E-01
       185   -2.626695E-02
       186    9.086003E-04
       187    1.319656E-01
       188   -3.967742E-04
       189    1.949958E-04
       190    2.017784E-04
       191   -2.840538E-07
       192    9.311926E-03
       193    1.726799E-06
       194    1.829944E-03
       195   -4.036909E-03
       196    2.206965E-03
       197   -1.335329E-07
       198    2.331534E-02
       199    1.857171E-06
       200    5.254749E-03
       201   -6.527702E-03
       202    1.272953E-03
       203    1.229088E-04
       204    1.805779E-02
       205   -9.834977E-06
       206    1.081114E-04
       207    5.150968E-08
       208   -4.640788E-04
       209   -7.961037E-05
       210   -6.071899E-08
       211   -8.759985E-04
       212   -6.543630E-05
       213   -8.388506E-09
       214    1.498626E-03
       215    2.013807E-07
       216   -1.265791E-05
       217   -2.093988E-05
       218   -8.838214E-04
       219    9.651033E-03
       220   -2.995753E-02
       221   -1.259495E-02
       222   -6.164468E-04
       223   -5.658387E-04
       224    1.552113E-01
       225   -8.422482E-03
       226   -5.987538E-03
       227    1.578563E-01
       228   -2.174935E-02
       229    8.390078E-03
       230    9.672788E-02
       231   -1.110683E-04
       232    1.324354E-04
       233   -2.136710E-05
       234   -2.615710E-05
       235   -1.183424E-03
       236   -3.187536E-03
       237   -6.040897E-04
       238    6.983208E-04
       239   -9.423108E-05
       240    1.604531E-03
       241   -4.744194E-03
       242   -5.407306E-03
       243   -8.002661E-03
       244    6.237047E-03
       245    1.765614E-03
       246   -8.991983E-03
       247    3.368998E-03
       248    1.075348E-02
       249   -1.677916E-05
       250   -3.729044E-06
       251   -8.836743E-04
       252   -1.364411E-05
       253   -2.499576E-05
       254    2.009473E-04
       255    3.615571E-05
       256    2.999880E-05
       257    9.846262E-04
       258    3.856479E-04
       259   -3.343448E-04
       260   -7.937238E-04
       261    1.642746E-02
       262    4.418265E-05
       263    8.987713E-05
       264   -1.273247E-03
       265   -5.263246E-03
       266   -1.531995E-04
       267    5.633736E-03
       268   -3.371475E-04
       269   -8.070320E-04
       270    1.639476E-02
       271    4.534115E-05
       272   -9.157128E-05
       273   -1.276592E-03
       274   -5.338749E-03
       275    1.246881E-04
       276    5.635704E-03
       277    1.792985E-04
       278    2.019133E-03
       279   -3.372398E-02
       280   -1.794893E-05
       281    6.256834E-05
       282    6.331362E-03
       283   -1.297909E-03
       284   -2.793117E-03
       285   -3.346776E-04
       286    1.839309E-04
       287    2.025070E-03
       288   -3.405384E-02
       289   -1.765242E-05
       290   -6.281165E-05
       291    6.335386E-03
       292   -1.305596E-03
       293    2.833750E-03
       294   -3.317633E-04
       295    4.809857E-05
       296    1.175351E-04
       297   -1.069679E-04
       298   -5.873141E-04
       299    5.638689E-03
       300   -1.889184E-03
       301    1.134667E-03
       302    1.783604E-06
       303   -4.021656E-02
       304    7.361311E-04
       305    1.933926E-06
       306   -4.135943E-02
       307   -2.772579E-03
       308    3.162236E-05
       309   -1.374836E-02
       310   -5.414687E-05
       311    4.654483E-05
       312    7.602039E-06
       313    8.010837E-07
       314    4.288437E-03
       315   -4.163556E-08
       316   -1.065109E-04
       317    3.601961E-05
       318    7.049129E-05
       319    2.689558E-06
       320    1.325786E-02
       321   -1.783224E-07
       322    1.048711E-03
       323   -2.838309E-03
       324    1.789599E-03
       325   -2.336318E-05
       326    4.024151E-03
       327    2.432710E-06
       328    7.101757E-06
       329   -1.857397E-07
       330    1.445453E-04
       331   -2.055935E-06
       332    3.000562E-07
       333   -7.681712E-04
       334   -7.472072E-06
       335   -5.086016E-08
       336    5.742433E-04
       337   -4.481189E-08
       338   -8.096903E-05
       339   -1.998309E-04
       340    3.276091E-04
       341   -6.773576E-05
       342    6.094763E-03
       343    1.098537E-03
       344   -8.978857E-04
       345   -3.383601E-06
       346    6.534979E-02
       347   -9.070568E-04
       348    1.441688E-04
       349    6.095723E-02
       350   -1.932514E-03
       351    3.664050E-04
       352    5.290230E-02
       353   -2.198971E-04
       354    2.184346E-04
       355    6.860394E-03
       356   -4.438603E-06
       357    7.469685E-06
       358   -3.031082E-06
       359   -7.099355E-06
       360    1.615127E-04
       361    2.060137E-04
       362    1.019931E-05
       363    1.886082E-05
       364   -2.906013E-05
       365   -2.959149E-05
       366   -4.694540E-05
       367    8.100222E-04
       368    8.117764E-05
       369   -5.997310E-05
       370   -2.120454E-05
       371   -9.219344E-05
       372   -1.452505E-04
       373   -7.943273E-05
       374    2.145088E-06
       375    1.495990E-06
       376   -8.837648E-06
       377   -3.630773E-06
       378    1.011717E-06
       379   -8.364959E-05
       380    7.528361E-07
       381   -3.018798E-06
       382    9.550654E-05
       383   -6.409834E-05
       384   -8.097261E-05
       385   -1.998192E-04
       386    3.270332E-04
       387   -6.505384E-05
       388    6.086290E-03
       389    1.069598E-03
       390   -8.473754E-04
       391   -3.412695E-05
       392    6.534409E-02
       393   -8.610085E-04
       394   -1.767304E-04
       395    6.095226E-02
       396   -1.871718E-03
       397   -3.837346E-04
       398    5.289388E-02
       399   -1.999575E-04
       400   -2.256944E-04
       401    6.862322E-03
       402   -4.787001E-06
       403    7.920476E-06
       404   -3.133475E-06
       405    7.134080E-06
       406    1.614869E-04
       407   -2.059684E-04
       408    8.892314E-06
       409    1.995592E-05
       410   -2.884824E-05
       411    2.886904E-05
       412   -4.685905E-05
       413   -8.098817E-04
       414    7.959550E-05
       415   -6.009998E-05
       416   -1.949552E-05
       417    9.065774E-05
       418   -1.459017E-04
       419    8.026378E-05
       420    2.177467E-06
       421   -1.620716E-06
       422   -8.838508E-06
       423   -3.680766E-06
       424   -8.527143E-07
       425   -8.363663E-05
       426    7.593878E-07
       427    3.027133E-06
       428    9.549474E-05
       429    6.408848E-05
       430   -4.918663E-03
       431   -1.168033E-02
       432    1.815836E-02
       433    2.833485E-02
       434    2.207380E-02
       435    7.061045E-02
       436   -1.589325E-02
       437    7.375098E-06
       438   -2.276512E-01
       439   -1.833203E-02
       440    1.487391E-06
       441   -2.252821E-01
       442   -1.686914E-02
       443   -9.921552E-05
       444   -1.883954E-01
       445    1.188804E-04
       446   -1.401283E-05
       447   -1.048676E-04
       448   -1.681801E-07
       449    1.064935E-03
       450    2.671770E-07
       451    2.989006E-04
       452    1.418091E-03
       453   -1.716992E-03
       454    3.340287E-06
       455    4.245509E-03
       456    1.236166E-06
       457    2.168232E-03
       458    2.775095E-03
       459   -4.943327E-03
       460   -8.918344E-07
       461    2.427670E-03
       462    6.283004E-06
       463   -1.399963E-04
       464    1.864453E-08
       465    8.498392E-04
       466   -8.273334E-05
       467    1.609492E-08
       468   -3.980300E-04
       469    2.705581E-04
       470   -4.110918E-08
       471   -7.421490E-04
       472    3.826629E-08
       473   -9.702498E-03
       474   -1.814981E-02
       475   -3.044038E-02
       476   -2.162020E-03
       477   -1.873212E-03
       478   -1.163987E-02
       479    1.664909E-03
       480   -3.552907E-03
       481   -1.440531E-02
       482   -9.698631E-03
       483   -1.809238E-02
       484   -3.027913E-02
       485   -2.158808E-03
       486    1.867955E-03
       487   -1.164236E-02
       488    1.682840E-03
       489    3.524076E-03
       490   -1.441298E-02
 Sym= X
 Ene= -0.740490
 Spin= Alpha
 Occup= -0.740490
         1    3.837133E-04
         2    8.772260E-04
         3   -1.799941E-03
         4    1.074309E-03
         5   -7.160458E-03
         6    1.156065E-02
         7    6.988867E-03
         8    1.094229E-03
         9    1.407443E-01
        10    1.811388E-03
        11    1.343081E-03
        12    1.386954E-01
        13   -2.246419E-02
        14    2.255725E-03
        15    5.185342E-02
        16   -1.845660E-04
        17    1.727370E-04
        18    1.182899E-05
        19    9.020753E-05
        20    3.625702E-04
        21   -4.368655E-03
        22    3.355428E-04
        23   -1.995057E-04
        24   -1.360371E-04
        25    8.753742E-04
        26    1.358586E-03
        27   -7.257065E-03
        28    2.105574E-03
        29   -1.868623E-03
        30   -2.369514E-04
        31   -1.871158E-03
        32    6.852770E-03
        33   -4.447464E-03
        34   -7.700471E-07
        35    1.600636E-05
        36   -1.179563E-03
        37    3.409392E-07
        38   -1.466719E-05
        39    6.513027E-04
        40    6.921874E-07
        41   -6.807593E-06
        42    9.312476E-04
        43   -4.884986E-04
        44   -2.141512E-04
        45   -4.770142E-04
        46    3.004105E-04
        47    5.341255E-03
        48    1.583881E-02
        49   -1.033023E-02
        50   -1.290081E-03
        51    5.419308E-06
        52    2.066205E-01
        53   -2.034759E-03
        54   -2.001393E-05
        55    2.085353E-01
        56   -8.870977E-03
        57   -6.993143E-04
        58    6.917241E-02
        59   -2.286823E-04
        60    2.299674E-04
        61   -1.285048E-06
        62   -2.739499E-07