[Molden Format]
[Title]
ADC(2) - opt by CAM-B3LYP gaussian                                              
[Atoms] AU
 c     1    6 0.12589710753986E+01 0.22825551554713E+01 -.28105798744860E-01
 c     2    6 0.25558923691721E+01 0.80431469000000E-06 -.26811997747980E-01
 c     3    6 0.12589700738438E+01 -.22825573262942E+01 -.28139341383720E-01
 c     4    6 -.13331755585332E+01 -.22837561874501E+01 -.30470167390540E-01
 c     5    6 -.26866009864883E+01 0.27696298600000E-05 -.30311128039200E-01
 c     6    6 -.13331783742251E+01 0.22837572858534E+01 -.30432977580250E-01
 h     7    1 0.22993222678978E+01 0.40366379181686E+01 -.25216785432900E-01
 h     8    1 0.22993197734593E+01 -.40366408826765E+01 -.25273722881290E-01
 h     9    1 -.23520966897676E+01 -.40562070503646E+01 -.33235309154490E-01
 h    10    1 -.23520900190344E+01 0.40562136478709E+01 -.33159965773570E-01
 n    11    7 0.52762255328692E+01 0.25629411000000E-06 -.20783601308720E-01
 o    12    8 0.63803680214636E+01 -.20270720034092E+01 -.18188232540560E-01
 o    13    8 0.63803692875801E+01 0.20270718545932E+01 -.18282964511600E-01
 n    14    7 -.52484248103301E+01 -.66967170000000E-06 -.81289589624650E-01
 h    15    1 -.62019351690707E+01 -.16149791988436E+01 0.21484054874156E+00
 h    16    1 -.62019367942352E+01 0.16149736265137E+01 0.21486103337284E+00
[GTO]
    1 0
 s    6 1.00
 0.13575349682000E+05 0.60645503603591E-03
 0.20352333680000E+04 0.46979088884982E-02
 0.46322562359000E+03 0.24332477647552E-01
 0.13120019598000E+03 0.97399968307759E-01
 0.42853015891000E+02 0.30195584253780E+00
 0.15584185766000E+02 0.66233609137875E+00
 s    2 1.00
 0.62067138508000E+01 0.65595308539952E+00
 0.25764896527000E+01 0.37585633285142E+00
 s    1 1.00
 0.57696339419000E+00 0.10000000000000E+01
 s    1 1.00
 0.22972831358000E+00 0.10000000000000E+01
 s    1 1.00
 0.95164440028000E-01 0.10000000000000E+01
 s    1 1.00
 0.48475401370000E-01 0.10000000000000E+01
 p    4 1.00
 0.34697232244000E+02 0.11327220003114E-01
 0.79582622826000E+01 0.76169659202087E-01
 0.23780826883000E+01 0.30192252202676E+00
 0.81433208183000E+00 0.72785027349547E+00
 p    1 1.00
 0.28887547253000E+00 0.10000000000000E+01
 p    1 1.00
 0.10056823671000E+00 0.10000000000000E+01
 d    1 1.00
 0.10970000000000E+01 0.10000000000000E+01
 d    1 1.00
 0.31800000000000E+00 0.10000000000000E+01
 d    1 1.00
 0.90985336424000E-01 0.10000000000000E+01
 f    1 1.00
 0.76100000000000E+00 0.10000000000000E+01
 
    2 0
 s    6 1.00
 0.13575349682000E+05 0.60645503603591E-03
 0.20352333680000E+04 0.46979088884982E-02
 0.46322562359000E+03 0.24332477647552E-01
 0.13120019598000E+03 0.97399968307759E-01
 0.42853015891000E+02 0.30195584253780E+00
 0.15584185766000E+02 0.66233609137875E+00
 s    2 1.00
 0.62067138508000E+01 0.65595308539952E+00
 0.25764896527000E+01 0.37585633285142E+00
 s    1 1.00
 0.57696339419000E+00 0.10000000000000E+01
 s    1 1.00
 0.22972831358000E+00 0.10000000000000E+01
 s    1 1.00
 0.95164440028000E-01 0.10000000000000E+01
 s    1 1.00
 0.48475401370000E-01 0.10000000000000E+01
 p    4 1.00
 0.34697232244000E+02 0.11327220003114E-01
 0.79582622826000E+01 0.76169659202087E-01
 0.23780826883000E+01 0.30192252202676E+00
 0.81433208183000E+00 0.72785027349547E+00
 p    1 1.00
 0.28887547253000E+00 0.10000000000000E+01
 p    1 1.00
 0.10056823671000E+00 0.10000000000000E+01
 d    1 1.00
 0.10970000000000E+01 0.10000000000000E+01
 d    1 1.00
 0.31800000000000E+00 0.10000000000000E+01
 d    1 1.00
 0.90985336424000E-01 0.10000000000000E+01
 f    1 1.00
 0.76100000000000E+00 0.10000000000000E+01
 
    3 0
 s    6 1.00
 0.13575349682000E+05 0.60645503603591E-03
 0.20352333680000E+04 0.46979088884982E-02
 0.46322562359000E+03 0.24332477647552E-01
 0.13120019598000E+03 0.97399968307759E-01
 0.42853015891000E+02 0.30195584253780E+00
 0.15584185766000E+02 0.66233609137875E+00
 s    2 1.00
 0.62067138508000E+01 0.65595308539952E+00
 0.25764896527000E+01 0.37585633285142E+00
 s    1 1.00
 0.57696339419000E+00 0.10000000000000E+01
 s    1 1.00
 0.22972831358000E+00 0.10000000000000E+01
 s    1 1.00
 0.95164440028000E-01 0.10000000000000E+01
 s    1 1.00
 0.48475401370000E-01 0.10000000000000E+01
 p    4 1.00
 0.34697232244000E+02 0.11327220003114E-01
 0.79582622826000E+01 0.76169659202087E-01
 0.23780826883000E+01 0.30192252202676E+00
 0.81433208183000E+00 0.72785027349547E+00
 p    1 1.00
 0.28887547253000E+00 0.10000000000000E+01
 p    1 1.00
 0.10056823671000E+00 0.10000000000000E+01
 d    1 1.00
 0.10970000000000E+01 0.10000000000000E+01
 d    1 1.00
 0.31800000000000E+00 0.10000000000000E+01
 d    1 1.00
 0.90985336424000E-01 0.10000000000000E+01
 f    1 1.00
 0.76100000000000E+00 0.10000000000000E+01
 
    4 0
 s    6 1.00
 0.13575349682000E+05 0.60645503603591E-03
 0.20352333680000E+04 0.46979088884982E-02
 0.46322562359000E+03 0.24332477647552E-01
 0.13120019598000E+03 0.97399968307759E-01
 0.42853015891000E+02 0.30195584253780E+00
 0.15584185766000E+02 0.66233609137875E+00
 s    2 1.00
 0.62067138508000E+01 0.65595308539952E+00
 0.25764896527000E+01 0.37585633285142E+00
 s    1 1.00
 0.57696339419000E+00 0.10000000000000E+01
 s    1 1.00
 0.22972831358000E+00 0.10000000000000E+01
 s    1 1.00
 0.95164440028000E-01 0.10000000000000E+01
 s    1 1.00
 0.48475401370000E-01 0.10000000000000E+01
 p    4 1.00
 0.34697232244000E+02 0.11327220003114E-01
 0.79582622826000E+01 0.76169659202087E-01
 0.23780826883000E+01 0.30192252202676E+00
 0.81433208183000E+00 0.72785027349547E+00
 p    1 1.00
 0.28887547253000E+00 0.10000000000000E+01
 p    1 1.00
 0.10056823671000E+00 0.10000000000000E+01
 d    1 1.00
 0.10970000000000E+01 0.10000000000000E+01
 d    1 1.00
 0.31800000000000E+00 0.10000000000000E+01
 d    1 1.00
 0.90985336424000E-01 0.10000000000000E+01
 f    1 1.00
 0.76100000000000E+00 0.10000000000000E+01
 
    5 0
 s    6 1.00
 0.13575349682000E+05 0.60645503603591E-03
 0.20352333680000E+04 0.46979088884982E-02
 0.46322562359000E+03 0.24332477647552E-01
 0.13120019598000E+03 0.97399968307759E-01
 0.42853015891000E+02 0.30195584253780E+00
 0.15584185766000E+02 0.66233609137875E+00
 s    2 1.00
 0.62067138508000E+01 0.65595308539952E+00
 0.25764896527000E+01 0.37585633285142E+00
 s    1 1.00
 0.57696339419000E+00 0.10000000000000E+01
 s    1 1.00
 0.22972831358000E+00 0.10000000000000E+01
 s    1 1.00
 0.95164440028000E-01 0.10000000000000E+01
 s    1 1.00
 0.48475401370000E-01 0.10000000000000E+01
 p    4 1.00
 0.34697232244000E+02 0.11327220003114E-01
 0.79582622826000E+01 0.76169659202087E-01
 0.23780826883000E+01 0.30192252202676E+00
 0.81433208183000E+00 0.72785027349547E+00
 p    1 1.00
 0.28887547253000E+00 0.10000000000000E+01
 p    1 1.00
 0.10056823671000E+00 0.10000000000000E+01
 d    1 1.00
 0.10970000000000E+01 0.10000000000000E+01
 d    1 1.00
 0.31800000000000E+00 0.10000000000000E+01
 d    1 1.00
 0.90985336424000E-01 0.10000000000000E+01
 f    1 1.00
 0.76100000000000E+00 0.10000000000000E+01
 
    6 0
 s    6 1.00
 0.13575349682000E+05 0.60645503603591E-03
 0.20352333680000E+04 0.46979088884982E-02
 0.46322562359000E+03 0.24332477647552E-01
 0.13120019598000E+03 0.97399968307759E-01
 0.42853015891000E+02 0.30195584253780E+00
 0.15584185766000E+02 0.66233609137875E+00
 s    2 1.00
 0.62067138508000E+01 0.65595308539952E+00
 0.25764896527000E+01 0.37585633285142E+00
 s    1 1.00
 0.57696339419000E+00 0.10000000000000E+01
 s    1 1.00
 0.22972831358000E+00 0.10000000000000E+01
 s    1 1.00
 0.95164440028000E-01 0.10000000000000E+01
 s    1 1.00
 0.48475401370000E-01 0.10000000000000E+01
 p    4 1.00
 0.34697232244000E+02 0.11327220003114E-01
 0.79582622826000E+01 0.76169659202087E-01
 0.23780826883000E+01 0.30192252202676E+00
 0.81433208183000E+00 0.72785027349547E+00
 p    1 1.00
 0.28887547253000E+00 0.10000000000000E+01
 p    1 1.00
 0.10056823671000E+00 0.10000000000000E+01
 d    1 1.00
 0.10970000000000E+01 0.10000000000000E+01
 d    1 1.00
 0.31800000000000E+00 0.10000000000000E+01
 d    1 1.00
 0.90985336424000E-01 0.10000000000000E+01
 f    1 1.00
 0.76100000000000E+00 0.10000000000000E+01
 
    7 0
 s    3 1.00
 0.34061341000000E+02 0.25439307208879E-01
 0.51235746000000E+01 0.19008594890375E+00
 0.11646626000000E+01 0.85244113011042E+00
 s    1 1.00
 0.32723041000000E+00 0.10000000000000E+01
 s    1 1.00
 0.10307241000000E+00 0.10000000000000E+01
 p    1 1.00
 0.80000000000000E+00 0.10000000000000E+01
 p    1 1.00
 0.95774129632000E-01 0.10000000000000E+01
 
    8 0
 s    3 1.00
 0.34061341000000E+02 0.25439307208879E-01
 0.51235746000000E+01 0.19008594890375E+00
 0.11646626000000E+01 0.85244113011042E+00
 s    1 1.00
 0.32723041000000E+00 0.10000000000000E+01
 s    1 1.00
 0.10307241000000E+00 0.10000000000000E+01
 p    1 1.00
 0.80000000000000E+00 0.10000000000000E+01
 p    1 1.00
 0.95774129632000E-01 0.10000000000000E+01
 
    9 0
 s    3 1.00
 0.34061341000000E+02 0.25439307208879E-01
 0.51235746000000E+01 0.19008594890375E+00
 0.11646626000000E+01 0.85244113011042E+00
 s    1 1.00
 0.32723041000000E+00 0.10000000000000E+01
 s    1 1.00
 0.10307241000000E+00 0.10000000000000E+01
 p    1 1.00
 0.80000000000000E+00 0.10000000000000E+01
 p    1 1.00
 0.95774129632000E-01 0.10000000000000E+01
 
   10 0
 s    3 1.00
 0.34061341000000E+02 0.25439307208879E-01
 0.51235746000000E+01 0.19008594890375E+00
 0.11646626000000E+01 0.85244113011042E+00
 s    1 1.00
 0.32723041000000E+00 0.10000000000000E+01
 s    1 1.00
 0.10307241000000E+00 0.10000000000000E+01
 p    1 1.00
 0.80000000000000E+00 0.10000000000000E+01
 p    1 1.00
 0.95774129632000E-01 0.10000000000000E+01
 
   11 0
 s    6 1.00
 0.19730800647000E+05 0.58626402628763E-03
 0.29578958745000E+04 0.45428820586397E-02
 0.67322133595000E+03 0.23558413450084E-01
 0.19068249494000E+03 0.94709193292923E-01
 0.62295441898000E+02 0.29719784913376E+00
 0.22654161182000E+02 0.66916246895232E+00
 s    2 1.00
 0.89791477428000E+01 0.64596683630063E+00
 0.36863002370000E+01 0.38700574393705E+00
 s    1 1.00
 0.84660076805000E+00 0.10000000000000E+01
 s    1 1.00
 0.33647133771000E+00 0.10000000000000E+01
 s    1 1.00
 0.13647653675000E+00 0.10000000000000E+01
 s    1 1.00
 0.68441605847000E-01 0.10000000000000E+01
 p    4 1.00
 0.49200380510000E+02 0.11448825101764E-01
 0.11346790537000E+02 0.78422337970864E-01
 0.34273972411000E+01 0.30818094738830E+00
 0.11785525134000E+01 0.72027196368413E+00
 p    1 1.00
 0.41642204972000E+00 0.10000000000000E+01
 p    1 1.00
 0.14260826011000E+00 0.10000000000000E+01
 d    1 1.00
 0.16540000000000E+01 0.10000000000000E+01
 d    1 1.00
 0.46900000000000E+00 0.10000000000000E+01
 d    1 1.00
 0.12829642058000E+00 0.10000000000000E+01
 f    1 1.00
 0.10930000000000E+01 0.10000000000000E+01
 
   12 0
 s    6 1.00
 0.27032382631000E+05 0.57227335211155E-03
 0.40523871392000E+04 0.44353233492995E-02
 0.92232722710000E+03 0.23020107706038E-01
 0.26124070989000E+03 0.92822490667928E-01
 0.85354641351000E+02 0.29378500009671E+00
 0.31035035245000E+02 0.67401604501641E+00
 s    2 1.00
 0.12260860728000E+02 0.63839937025506E+00
 0.49987076005000E+01 0.39534587125718E+00
 s    1 1.00
 0.11703108158000E+01 0.10000000000000E+01
 s    1 1.00
 0.46474740994000E+00 0.10000000000000E+01
 s    1 1.00
 0.18504536357000E+00 0.10000000000000E+01
 s    1 1.00
 0.70288026270000E-01 0.10000000000000E+01
 p    4 1.00
 0.63274954801000E+02 0.12018332222616E-01
 0.14627049379000E+02 0.83005421790056E-01
 0.44501223456000E+01 0.31991743925964E+00
 0.15275799647000E+01 0.70715542916104E+00
 p    1 1.00
 0.52935117943000E+00 0.10000000000000E+01
 p    1 1.00
 0.17478421270000E+00 0.10000000000000E+01
 p    1 1.00
 0.51112745706000E-01 0.10000000000000E+01
 d    1 1.00
 0.23140000000000E+01 0.10000000000000E+01
 d    1 1.00
 0.64500000000000E+00 0.10000000000000E+01
 d    1 1.00
 0.14696477366000E+00 0.10000000000000E+01
 f    1 1.00
 0.14280000000000E+01 0.10000000000000E+01
 
   13 0
 s    6 1.00
 0.27032382631000E+05 0.57227335211155E-03
 0.40523871392000E+04 0.44353233492995E-02
 0.92232722710000E+03 0.23020107706038E-01
 0.26124070989000E+03 0.92822490667928E-01
 0.85354641351000E+02 0.29378500009671E+00
 0.31035035245000E+02 0.67401604501641E+00
 s    2 1.00
 0.12260860728000E+02 0.63839937025506E+00
 0.49987076005000E+01 0.39534587125718E+00
 s    1 1.00
 0.11703108158000E+01 0.10000000000000E+01
 s    1 1.00
 0.46474740994000E+00 0.10000000000000E+01
 s    1 1.00
 0.18504536357000E+00 0.10000000000000E+01
 s    1 1.00
 0.70288026270000E-01 0.10000000000000E+01
 p    4 1.00
 0.63274954801000E+02 0.12018332222616E-01
 0.14627049379000E+02 0.83005421790056E-01
 0.44501223456000E+01 0.31991743925964E+00
 0.15275799647000E+01 0.70715542916104E+00
 p    1 1.00
 0.52935117943000E+00 0.10000000000000E+01
 p    1 1.00
 0.17478421270000E+00 0.10000000000000E+01
 p    1 1.00
 0.51112745706000E-01 0.10000000000000E+01
 d    1 1.00
 0.23140000000000E+01 0.10000000000000E+01
 d    1 1.00
 0.64500000000000E+00 0.10000000000000E+01
 d    1 1.00
 0.14696477366000E+00 0.10000000000000E+01
 f    1 1.00
 0.14280000000000E+01 0.10000000000000E+01
 
   14 0
 s    6 1.00
 0.19730800647000E+05 0.58626402628763E-03
 0.29578958745000E+04 0.45428820586397E-02
 0.67322133595000E+03 0.23558413450084E-01
 0.19068249494000E+03 0.94709193292923E-01
 0.62295441898000E+02 0.29719784913376E+00
 0.22654161182000E+02 0.66916246895232E+00
 s    2 1.00
 0.89791477428000E+01 0.64596683630063E+00
 0.36863002370000E+01 0.38700574393705E+00
 s    1 1.00
 0.84660076805000E+00 0.10000000000000E+01
 s    1 1.00
 0.33647133771000E+00 0.10000000000000E+01
 s    1 1.00
 0.13647653675000E+00 0.10000000000000E+01
 s    1 1.00
 0.68441605847000E-01 0.10000000000000E+01
 p    4 1.00
 0.49200380510000E+02 0.11448825101764E-01
 0.11346790537000E+02 0.78422337970864E-01
 0.34273972411000E+01 0.30818094738830E+00
 0.11785525134000E+01 0.72027196368413E+00
 p    1 1.00
 0.41642204972000E+00 0.10000000000000E+01
 p    1 1.00
 0.14260826011000E+00 0.10000000000000E+01
 d    1 1.00
 0.16540000000000E+01 0.10000000000000E+01
 d    1 1.00
 0.46900000000000E+00 0.10000000000000E+01
 d    1 1.00
 0.12829642058000E+00 0.10000000000000E+01
 f    1 1.00
 0.10930000000000E+01 0.10000000000000E+01
 
   15 0
 s    3 1.00
 0.34061341000000E+02 0.25439307208879E-01
 0.51235746000000E+01 0.19008594890375E+00
 0.11646626000000E+01 0.85244113011042E+00
 s    1 1.00
 0.32723041000000E+00 0.10000000000000E+01
 s    1 1.00
 0.10307241000000E+00 0.10000000000000E+01
 p    1 1.00
 0.80000000000000E+00 0.10000000000000E+01
 p    1 1.00
 0.95774129632000E-01 0.10000000000000E+01
 
   16 0
 s    3 1.00
 0.34061341000000E+02 0.25439307208879E-01
 0.51235746000000E+01 0.19008594890375E+00
 0.11646626000000E+01 0.85244113011042E+00
 s    1 1.00
 0.32723041000000E+00 0.10000000000000E+01
 s    1 1.00
 0.10307241000000E+00 0.10000000000000E+01
 p    1 1.00
 0.80000000000000E+00 0.10000000000000E+01
 p    1 1.00
 0.95774129632000E-01 0.10000000000000E+01
 
[MO]
 Sym= X
 Ene= -0.893943
 Spin= Alpha
 Occup= -0.893943
         1    2.099025E-04
         2    4.877001E-04
         3   -1.353425E-03
         4    2.915991E-03
         5    5.009077E-03
         6    1.255571E-02
         7    1.854054E-03
         8    2.145156E-04
         9   -2.242870E-02
        10   -2.719451E-03
        11    4.679790E-04
        12   -2.061606E-02
        13   -3.834303E-02
        14    1.205552E-02
        15   -4.379431E-03
        16   -4.604810E-06
        17    1.613872E-05
        18   -1.153391E-05
        19    1.621867E-05
        20   -6.207577E-03
        21    3.694707E-03
        22    7.309794E-04
        23   -4.414497E-04
        24   -2.895297E-04
        25    8.029947E-04
        26   -1.401512E-02
        27    6.996960E-03
        28    5.359613E-03
        29   -5.045282E-03
        30   -3.143311E-04
        31   -1.354934E-03
        32    2.215141E-03
        33   -1.065916E-02
        34   -2.164279E-05
        35    7.872177E-06
        36    8.091225E-05
        37    8.543865E-06
        38   -7.920258E-06
        39    7.097444E-04
        40    2.049298E-05
        41   -2.641375E-06
        42   -8.182996E-04
        43    6.734629E-04
        44   -2.628590E-05
        45   -5.697056E-05
        46   -1.748861E-04
        47    3.221704E-03
        48    5.651246E-02
        49   -6.324596E-03
        50    4.172047E-04
        51    3.103030E-06
        52   -1.953640E-01
        53   -5.232386E-04
        54    1.451716E-05
        55   -2.027754E-01
        56   -1.814924E-02
        57   -6.668917E-04
        58   -1.978229E-01
        59   -4.222391E-05
        60    3.942262E-05
        61    2.801288E-06
        62   -1.321692E-07
        63   -7.247965E-04
        64    5.861675E-07
        65   -4.292245E-04
        66    7.086540E-04
        67   -2.794294E-04
        68   -3.111693E-06
        69   -3.309803E-03
        70    1.041201E-06
        71   -1.067743E-02
        72    1.198574E-02
        73   -1.308307E-03
        74    1.027650E-04
        75    4.630450E-03
        76   -4.407084E-06
        77    8.367232E-06
        78    4.737490E-08
        79    1.083456E-03
        80   -8.127391E-06
        81    1.728222E-08
        82   -6.485051E-04
        83   -3.098428E-06
        84   -8.084232E-08
        85   -8.051033E-04
        86   -8.192464E-08
        87    2.106976E-04
        88    4.894527E-04
        89   -1.355974E-03
        90    2.921185E-03
        91    2.931185E-03
        92    1.253756E-02
        93    1.853703E-03
        94   -2.151666E-04
        95   -2.245925E-02
        96   -2.685433E-03
        97   -4.639356E-04
        98   -2.064605E-02
        99   -3.840597E-02
       100   -1.272072E-02
       101   -4.419993E-03
       102   -4.637424E-06
       103    1.611889E-05
       104   -1.148147E-05
       105   -1.635635E-05
       106   -6.207005E-03
       107   -3.694860E-03
       108    7.234243E-04
       109   -4.346658E-04
       110   -2.887584E-04
       111   -8.011084E-04
       112   -1.401329E-02
       113   -6.996258E-03
       114    5.435435E-03
       115   -5.137246E-03
       116   -2.981893E-04
       117    1.275463E-03
       118    2.218664E-03
       119    1.066206E-02
       120   -2.161893E-05
       121   -7.841089E-06
       122    8.105241E-05
       123    8.653557E-06
       124    7.866083E-06
       125    7.095876E-04
       126    2.035128E-05
       127    2.653841E-06
       128   -8.183308E-04
       129   -6.734091E-04
       130   -1.386545E-04
       131   -2.998679E-04
       132   -6.243579E-04
       133    1.162927E-02
       134   -2.743177E-02
       135   -1.423689E-02
       136   -1.501332E-03
       137    8.122630E-04
       138    1.531063E-01
       139   -1.019675E-02
       140    6.964236E-03
       141    1.559194E-01
       142   -2.460598E-02
       143   -8.073630E-03
       144    9.358045E-02
       145   -1.654711E-04
       146    1.995969E-04
       147   -3.412574E-05
       148    2.759389E-06
       149   -7.987013E-04
       150    2.956679E-03
       151   -6.978368E-04
       152    8.445076E-04
       153   -1.466708E-04
       154   -1.886185E-03
       155   -4.072599E-03
       156    4.937728E-03
       157   -9.078559E-03
       158    7.117775E-03
       159    1.960785E-03
       160    1.014711E-02
       161    3.752203E-03
       162   -1.276956E-02
       163   -1.662317E-05
       164    1.140705E-05
       165   -8.609685E-04
       166   -2.152720E-05
       167    1.848392E-05
       168    2.163183E-04
       169    4.382952E-05
       170   -3.378808E-05
       171    9.387922E-04
       172   -3.299590E-04
       173    1.266485E-03
       174    2.884830E-03
       175   -2.960531E-03
       176   -2.447699E-02
       177    2.221115E-02
       178   -9.849433E-03
       179    1.021469E-02
       180   -1.322608E-06
       181    1.106508E-01
       182    6.851855E-04
       183   -7.430361E-06
       184    1.136211E-01
       185   -3.188629E-02
       186    8.919064E-04
       187    1.351703E-01
       188   -5.429314E-04
       189    3.021038E-04
       190    2.408276E-04
       191   -3.234711E-07
       192    1.004423E-02
       193    6.872989E-07
       194    2.040404E-03
       195   -4.542903E-03
       196    2.502499E-03
       197   -1.116354E-06
       198    2.469467E-02
       199   -9.225679E-08
       200    6.661649E-03
       201   -8.024334E-03
       202    1.362685E-03
       203    1.250247E-04
       204    1.849458E-02
       205   -7.839720E-06
       206    1.320811E-04
       207    2.411970E-08
       208   -2.918913E-04
       209   -9.316999E-05
       210   -4.571986E-08
       211   -1.088429E-03
       212   -8.403538E-05
       213    1.335989E-08
       214    1.480042E-03
       215    4.623306E-08
       216   -1.390516E-04
       217   -3.005886E-04
       218   -6.234145E-04
       219    1.164556E-02
       220   -2.974253E-02
       221   -1.424247E-02
       222   -1.501834E-03
       223   -8.077157E-04
       224    1.531346E-01
       225   -1.021547E-02
       226   -6.966946E-03
       227    1.559506E-01
       228   -2.446098E-02
       229    8.998369E-03
       230    9.358369E-02
       231   -1.653209E-04
       232    2.000432E-04
       233   -3.472226E-05
       234   -3.057790E-06
       235   -7.981609E-04
       236   -2.956797E-03
       237   -7.036640E-04
       238    8.486399E-04
       239   -1.449758E-04
       240    1.887825E-03
       241   -4.069355E-03
       242   -4.938001E-03
       243   -9.039225E-03
       244    7.072333E-03
       245    1.966891E-03
       246   -1.024618E-02
       247    3.747205E-03
       248    1.277208E-02
       249   -1.679443E-05
       250   -1.147604E-05
       251   -8.612694E-04
       252   -2.152306E-05
       253   -1.840530E-05
       254    2.166570E-04
       255    4.405515E-05
       256    3.380203E-05
       257    9.388572E-04
       258    3.299457E-04
       259    3.951793E-04
       260    2.249027E-04
       261    1.923925E-02
       262   -1.305791E-05
       263    3.095288E-06
       264   -8.895661E-04
       265   -5.854017E-03
       266   -3.801685E-04
       267    6.520209E-03
       268    3.954643E-04
       269    2.150584E-04
       270    1.918595E-02
       271   -1.219374E-05
       272   -4.382099E-06
       273   -8.908082E-04
       274   -5.926555E-03
       275    3.494781E-04
       276    6.521928E-03
       277    4.648474E-04
       278    2.632603E-03
       279   -3.833699E-02
       280   -1.400271E-05
       281    1.110773E-04
       282    6.207514E-03
       283   -1.879027E-03
       284   -3.063028E-03
       285   -1.950329E-03
       286    4.689739E-04
       287    2.636490E-03
       288   -3.867214E-02
       289   -1.355778E-05
       290   -1.111057E-04
       291    6.209146E-03
       292   -1.887870E-03
       293    3.105624E-03
       294   -1.950884E-03
       295    4.774385E-05
       296    1.104973E-04
       297   -9.363121E-05
       298   -4.139232E-04
       299    7.836889E-03
       300   -8.387983E-04
       301    4.549834E-04
       302   -5.210978E-07
       303   -1.821118E-02
       304    1.106151E-04
       305    5.016656E-08
       306   -2.061362E-02
       307   -3.442767E-03
       308    3.713311E-05
       309   -7.494014E-03
       310   -1.880109E-05
       311    4.267187E-06
       312    1.453391E-05
       313    9.933266E-08
       314    4.253826E-03
       315   -2.037276E-08
       316    9.047919E-06
       317   -7.600707E-05
       318    6.695915E-05
       319    8.012837E-07
       320    1.279524E-02
       321   -1.329119E-07
       322    1.030671E-03
       323   -3.128120E-03
       324    2.097449E-03
       325   -2.330603E-05
       326    2.885875E-03
       327    2.575074E-06
       328    7.255082E-06
       329   -1.163521E-08
       330   -7.422851E-06
       331   -5.297069E-06
       332    6.375891E-08
       333   -6.736555E-04
       334   -4.436645E-06
       335   -4.814863E-08
       336    6.836143E-04
       337   -1.797608E-08
       338    1.415487E-05
       339    3.050723E-05
       340    5.325346E-06
       341   -5.690874E-04
       342    6.586944E-03
       343    1.116902E-03
       344   -1.693891E-04
       345    1.293354E-04
       346    7.566538E-02
       347   -2.770101E-04
       348    2.747543E-04
       349    7.017691E-02
       350   -1.514475E-03
       351    5.873087E-04
       352    5.684438E-02
       353   -2.014075E-04
       354    2.401388E-04
       355    6.946880E-03
       356   -3.894019E-06
       357    4.650252E-06
       358   -7.562326E-07
       359   -7.405942E-09
       360    4.658660E-06
       361    4.654738E-04
       362    1.292433E-05
       363    1.140210E-05
       364   -2.432642E-05
       365   -1.136211E-05
       366   -5.131025E-04
       367    1.539909E-03
       368    8.258418E-05
       369   -4.990443E-05
       370   -3.267975E-05
       371   -7.674098E-05
       372   -2.223144E-04
       373    2.646488E-04
       374    7.622263E-07
       375    1.817525E-06
       376   -6.295456E-05
       377   -1.384116E-06
       378   -5.372455E-07
       379   -8.195127E-05
       380    3.614823E-07
       381   -1.901220E-06
       382    1.664137E-04
       383   -1.316985E-04
       384    1.411569E-05
       385    3.045349E-05
       386    4.859964E-06
       387   -5.648873E-04
       388    6.573785E-03
       389    1.088642E-03
       390   -1.579510E-04
       391   -1.318017E-04
       392    7.566269E-02
       393   -2.662714E-04
       394   -2.766093E-04
       395    7.017481E-02
       396   -1.480663E-03
       397   -5.811365E-04
       398    5.683812E-02
       399   -1.865640E-04
       400   -2.440835E-04
       401    6.948494E-03
       402   -3.932999E-06
       403    4.668314E-06
       404   -7.353156E-07
       405    2.259573E-08
       406    4.639676E-06
       407   -4.654512E-04
       408    1.258144E-05
       409    1.137824E-05
       410   -2.395967E-05
       411    1.080962E-05
       412   -5.130133E-04
       413   -1.539867E-03
       414    8.246835E-05
       415   -5.141667E-05
       416   -3.105168E-05
       417    7.557280E-05
       418   -2.228159E-04
       419   -2.637291E-04
       420    7.594530E-07
       421   -1.817114E-06
       422   -6.295481E-05
       423   -1.361019E-06
       424    5.625976E-07
       425   -8.194505E-05
       426    3.421058E-07
       427    1.875316E-06
       428    1.664078E-04
       429    1.316953E-04
       430   -5.602023E-03
       431   -1.328364E-02
       432    2.060603E-02
       433    3.226035E-02
       434    2.294434E-02
       435    7.536007E-02
       436   -1.965799E-02
       437    1.074694E-05
       438   -2.608512E-01
       439   -2.234803E-02
       440    3.798146E-06
       441   -2.574404E-01
       442   -2.143020E-02
       443   -1.058596E-04
       444   -2.102949E-01
       445    1.185673E-04
       446    2.655812E-05
       447   -1.451254E-04
       448   -2.529265E-07
       449    7.551511E-04
       450    2.814992E-07
       451    2.711079E-04
       452    1.749232E-03
       453   -2.020340E-03
       454    3.588662E-06
       455    3.556514E-03
       456    1.314913E-06
       457    2.031801E-03
       458    3.604567E-03
       459   -5.636367E-03
       460   -8.850993E-08
       461    2.254583E-03
       462    7.198553E-06
       463   -1.550250E-04
       464    3.527217E-08
       465    1.031728E-03
       466   -1.004853E-04
       467    1.613597E-08
       468   -5.588392E-04
       469    3.084731E-04
       470   -6.345856E-08
       471   -8.253695E-04
       472    1.671704E-08
       473   -1.039528E-02
       474   -1.993515E-02
       475   -3.411799E-02
       476   -2.523415E-03
       477   -2.101562E-03
       478   -1.314754E-02
       479    1.263758E-03
       480   -3.953983E-03
       481   -1.500374E-02
       482   -1.038887E-02
       483   -1.986818E-02
       484   -3.394105E-02
       485   -2.519584E-03
       486    2.095494E-03
       487   -1.315048E-02
       488    1.282703E-03
       489    3.921852E-03
       490   -1.501403E-02
 Sym= X
 Ene= 0.893943
 Spin= Alpha
 Occup= 0.893943
         1   -5.501490E-03
         2   -1.194265E-02
         3    3.377771E-03
         4    2.551381E-01
         5    8.773063E+00
         6    3.764907E-02
         7    1.749986E-02
         8    4.735815E-02
         9   -1.823944E-03
        10    8.470098E-02
        11    6.985148E-03
        12   -9.660687E-04
        13    4.095896E+00
        14   -3.979293E+00
        15   -9.047025E-03
        16    9.147800E-04
        17   -1.202471E-04
        18   -7.945329E-04
        19   -2.021525E-03
        20   -9.449783E-05
        21    2.194153E-05
        22   -1.579832E-02
        23    2.140022E-02
        24   -5.601907E-03
        25   -1.988745E-02
        26   -3.771550E-04
        27   -2.330790E-04
        28   -1.511672E+00
        29    1.466110E+00
        30    4.556233E-02
        31   -1.133803E+00
        32    2.973420E-03
        33    5.913069E-03
        34    1.102166E-04
        35   -2.850146E-04
        36   -1.754957E-05
        37    6.685809E-04
        38    5.173249E-04
        39    3.397095E-05
        40   -8.164520E-04
        41   -1.349377E-04
        42   -1.042573E-05
        43    3.572905E-06
        44    1.658835E-07
        45    1.263260E-07
        46    3.005018E-06
        47   -5.416677E-05
        48   -2.626910E-03
        49    4.565362E-04
        50    9.729725E-06
        51    1.535981E-02
        52    3.639161E-06
        53   -8.206736E-06
        54   -9.570473E-02
        55    6.050258E-06
        56    2.599876E-04
        57   -9.191194E+00
        58   -1.110239E-04
        59   -1.622375E-06
        60    2.020772E-07
        61    1.420298E-06
        62    1.855797E-03