[Molden Format]
[Title]
ADC(2) - opt by CAM-B3LYP gaussian                                              
[Atoms] AU
 c     1    6 0.12589710753986E+01 0.22825551554713E+01 -.28105798744860E-01
 c     2    6 0.25558923691721E+01 0.80431469000000E-06 -.26811997747980E-01
 c     3    6 0.12589700738438E+01 -.22825573262942E+01 -.28139341383720E-01
 c     4    6 -.13331755585332E+01 -.22837561874501E+01 -.30470167390540E-01
 c     5    6 -.26866009864883E+01 0.27696298600000E-05 -.30311128039200E-01
 c     6    6 -.13331783742251E+01 0.22837572858534E+01 -.30432977580250E-01
 h     7    1 0.22993222678978E+01 0.40366379181686E+01 -.25216785432900E-01
 h     8    1 0.22993197734593E+01 -.40366408826765E+01 -.25273722881290E-01
 h     9    1 -.23520966897676E+01 -.40562070503646E+01 -.33235309154490E-01
 h    10    1 -.23520900190344E+01 0.40562136478709E+01 -.33159965773570E-01
 n    11    7 0.52762255328692E+01 0.25629411000000E-06 -.20783601308720E-01
 o    12    8 0.63803680214636E+01 -.20270720034092E+01 -.18188232540560E-01
 o    13    8 0.63803692875801E+01 0.20270718545932E+01 -.18282964511600E-01
 n    14    7 -.52484248103301E+01 -.66967170000000E-06 -.81289589624650E-01
 h    15    1 -.62019351690707E+01 -.16149791988436E+01 0.21484054874156E+00
 h    16    1 -.62019367942352E+01 0.16149736265137E+01 0.21486103337284E+00
[GTO]
    1 0
 s    6 1.00
 0.13575349682000E+05 0.60645503603591E-03
 0.20352333680000E+04 0.46979088884982E-02
 0.46322562359000E+03 0.24332477647552E-01
 0.13120019598000E+03 0.97399968307759E-01
 0.42853015891000E+02 0.30195584253780E+00
 0.15584185766000E+02 0.66233609137875E+00
 s    2 1.00
 0.62067138508000E+01 0.65595308539952E+00
 0.25764896527000E+01 0.37585633285142E+00
 s    1 1.00
 0.57696339419000E+00 0.10000000000000E+01
 s    1 1.00
 0.22972831358000E+00 0.10000000000000E+01
 s    1 1.00
 0.95164440028000E-01 0.10000000000000E+01
 s    1 1.00
 0.48475401370000E-01 0.10000000000000E+01
 p    4 1.00
 0.34697232244000E+02 0.11327220003114E-01
 0.79582622826000E+01 0.76169659202087E-01
 0.23780826883000E+01 0.30192252202676E+00
 0.81433208183000E+00 0.72785027349547E+00
 p    1 1.00
 0.28887547253000E+00 0.10000000000000E+01
 p    1 1.00
 0.10056823671000E+00 0.10000000000000E+01
 d    1 1.00
 0.10970000000000E+01 0.10000000000000E+01
 d    1 1.00
 0.31800000000000E+00 0.10000000000000E+01
 d    1 1.00
 0.90985336424000E-01 0.10000000000000E+01
 f    1 1.00
 0.76100000000000E+00 0.10000000000000E+01
 
    2 0
 s    6 1.00
 0.13575349682000E+05 0.60645503603591E-03
 0.20352333680000E+04 0.46979088884982E-02
 0.46322562359000E+03 0.24332477647552E-01
 0.13120019598000E+03 0.97399968307759E-01
 0.42853015891000E+02 0.30195584253780E+00
 0.15584185766000E+02 0.66233609137875E+00
 s    2 1.00
 0.62067138508000E+01 0.65595308539952E+00
 0.25764896527000E+01 0.37585633285142E+00
 s    1 1.00
 0.57696339419000E+00 0.10000000000000E+01
 s    1 1.00
 0.22972831358000E+00 0.10000000000000E+01
 s    1 1.00
 0.95164440028000E-01 0.10000000000000E+01
 s    1 1.00
 0.48475401370000E-01 0.10000000000000E+01
 p    4 1.00
 0.34697232244000E+02 0.11327220003114E-01
 0.79582622826000E+01 0.76169659202087E-01
 0.23780826883000E+01 0.30192252202676E+00
 0.81433208183000E+00 0.72785027349547E+00
 p    1 1.00
 0.28887547253000E+00 0.10000000000000E+01
 p    1 1.00
 0.10056823671000E+00 0.10000000000000E+01
 d    1 1.00
 0.10970000000000E+01 0.10000000000000E+01
 d    1 1.00
 0.31800000000000E+00 0.10000000000000E+01
 d    1 1.00
 0.90985336424000E-01 0.10000000000000E+01
 f    1 1.00
 0.76100000000000E+00 0.10000000000000E+01
 
    3 0
 s    6 1.00
 0.13575349682000E+05 0.60645503603591E-03
 0.20352333680000E+04 0.46979088884982E-02
 0.46322562359000E+03 0.24332477647552E-01
 0.13120019598000E+03 0.97399968307759E-01
 0.42853015891000E+02 0.30195584253780E+00
 0.15584185766000E+02 0.66233609137875E+00
 s    2 1.00
 0.62067138508000E+01 0.65595308539952E+00
 0.25764896527000E+01 0.37585633285142E+00
 s    1 1.00
 0.57696339419000E+00 0.10000000000000E+01
 s    1 1.00
 0.22972831358000E+00 0.10000000000000E+01
 s    1 1.00
 0.95164440028000E-01 0.10000000000000E+01
 s    1 1.00
 0.48475401370000E-01 0.10000000000000E+01
 p    4 1.00
 0.34697232244000E+02 0.11327220003114E-01
 0.79582622826000E+01 0.76169659202087E-01
 0.23780826883000E+01 0.30192252202676E+00
 0.81433208183000E+00 0.72785027349547E+00
 p    1 1.00
 0.28887547253000E+00 0.10000000000000E+01
 p    1 1.00
 0.10056823671000E+00 0.10000000000000E+01
 d    1 1.00
 0.10970000000000E+01 0.10000000000000E+01
 d    1 1.00
 0.31800000000000E+00 0.10000000000000E+01
 d    1 1.00
 0.90985336424000E-01 0.10000000000000E+01
 f    1 1.00
 0.76100000000000E+00 0.10000000000000E+01
 
    4 0
 s    6 1.00
 0.13575349682000E+05 0.60645503603591E-03
 0.20352333680000E+04 0.46979088884982E-02
 0.46322562359000E+03 0.24332477647552E-01
 0.13120019598000E+03 0.97399968307759E-01
 0.42853015891000E+02 0.30195584253780E+00
 0.15584185766000E+02 0.66233609137875E+00
 s    2 1.00
 0.62067138508000E+01 0.65595308539952E+00
 0.25764896527000E+01 0.37585633285142E+00
 s    1 1.00
 0.57696339419000E+00 0.10000000000000E+01
 s    1 1.00
 0.22972831358000E+00 0.10000000000000E+01
 s    1 1.00
 0.95164440028000E-01 0.10000000000000E+01
 s    1 1.00
 0.48475401370000E-01 0.10000000000000E+01
 p    4 1.00
 0.34697232244000E+02 0.11327220003114E-01
 0.79582622826000E+01 0.76169659202087E-01
 0.23780826883000E+01 0.30192252202676E+00
 0.81433208183000E+00 0.72785027349547E+00
 p    1 1.00
 0.28887547253000E+00 0.10000000000000E+01
 p    1 1.00
 0.10056823671000E+00 0.10000000000000E+01
 d    1 1.00
 0.10970000000000E+01 0.10000000000000E+01
 d    1 1.00
 0.31800000000000E+00 0.10000000000000E+01
 d    1 1.00
 0.90985336424000E-01 0.10000000000000E+01
 f    1 1.00
 0.76100000000000E+00 0.10000000000000E+01
 
    5 0
 s    6 1.00
 0.13575349682000E+05 0.60645503603591E-03
 0.20352333680000E+04 0.46979088884982E-02
 0.46322562359000E+03 0.24332477647552E-01
 0.13120019598000E+03 0.97399968307759E-01
 0.42853015891000E+02 0.30195584253780E+00
 0.15584185766000E+02 0.66233609137875E+00
 s    2 1.00
 0.62067138508000E+01 0.65595308539952E+00
 0.25764896527000E+01 0.37585633285142E+00
 s    1 1.00
 0.57696339419000E+00 0.10000000000000E+01
 s    1 1.00
 0.22972831358000E+00 0.10000000000000E+01
 s    1 1.00
 0.95164440028000E-01 0.10000000000000E+01
 s    1 1.00
 0.48475401370000E-01 0.10000000000000E+01
 p    4 1.00
 0.34697232244000E+02 0.11327220003114E-01
 0.79582622826000E+01 0.76169659202087E-01
 0.23780826883000E+01 0.30192252202676E+00
 0.81433208183000E+00 0.72785027349547E+00
 p    1 1.00
 0.28887547253000E+00 0.10000000000000E+01
 p    1 1.00
 0.10056823671000E+00 0.10000000000000E+01
 d    1 1.00
 0.10970000000000E+01 0.10000000000000E+01
 d    1 1.00
 0.31800000000000E+00 0.10000000000000E+01
 d    1 1.00
 0.90985336424000E-01 0.10000000000000E+01
 f    1 1.00
 0.76100000000000E+00 0.10000000000000E+01
 
    6 0
 s    6 1.00
 0.13575349682000E+05 0.60645503603591E-03
 0.20352333680000E+04 0.46979088884982E-02
 0.46322562359000E+03 0.24332477647552E-01
 0.13120019598000E+03 0.97399968307759E-01
 0.42853015891000E+02 0.30195584253780E+00
 0.15584185766000E+02 0.66233609137875E+00
 s    2 1.00
 0.62067138508000E+01 0.65595308539952E+00
 0.25764896527000E+01 0.37585633285142E+00
 s    1 1.00
 0.57696339419000E+00 0.10000000000000E+01
 s    1 1.00
 0.22972831358000E+00 0.10000000000000E+01
 s    1 1.00
 0.95164440028000E-01 0.10000000000000E+01
 s    1 1.00
 0.48475401370000E-01 0.10000000000000E+01
 p    4 1.00
 0.34697232244000E+02 0.11327220003114E-01
 0.79582622826000E+01 0.76169659202087E-01
 0.23780826883000E+01 0.30192252202676E+00
 0.81433208183000E+00 0.72785027349547E+00
 p    1 1.00
 0.28887547253000E+00 0.10000000000000E+01
 p    1 1.00
 0.10056823671000E+00 0.10000000000000E+01
 d    1 1.00
 0.10970000000000E+01 0.10000000000000E+01
 d    1 1.00
 0.31800000000000E+00 0.10000000000000E+01
 d    1 1.00
 0.90985336424000E-01 0.10000000000000E+01
 f    1 1.00
 0.76100000000000E+00 0.10000000000000E+01
 
    7 0
 s    3 1.00
 0.34061341000000E+02 0.25439307208879E-01
 0.51235746000000E+01 0.19008594890375E+00
 0.11646626000000E+01 0.85244113011042E+00
 s    1 1.00
 0.32723041000000E+00 0.10000000000000E+01
 s    1 1.00
 0.10307241000000E+00 0.10000000000000E+01
 p    1 1.00
 0.80000000000000E+00 0.10000000000000E+01
 p    1 1.00
 0.95774129632000E-01 0.10000000000000E+01
 
    8 0
 s    3 1.00
 0.34061341000000E+02 0.25439307208879E-01
 0.51235746000000E+01 0.19008594890375E+00
 0.11646626000000E+01 0.85244113011042E+00
 s    1 1.00
 0.32723041000000E+00 0.10000000000000E+01
 s    1 1.00
 0.10307241000000E+00 0.10000000000000E+01
 p    1 1.00
 0.80000000000000E+00 0.10000000000000E+01
 p    1 1.00
 0.95774129632000E-01 0.10000000000000E+01
 
    9 0
 s    3 1.00
 0.34061341000000E+02 0.25439307208879E-01
 0.51235746000000E+01 0.19008594890375E+00
 0.11646626000000E+01 0.85244113011042E+00
 s    1 1.00
 0.32723041000000E+00 0.10000000000000E+01
 s    1 1.00
 0.10307241000000E+00 0.10000000000000E+01
 p    1 1.00
 0.80000000000000E+00 0.10000000000000E+01
 p    1 1.00
 0.95774129632000E-01 0.10000000000000E+01
 
   10 0
 s    3 1.00
 0.34061341000000E+02 0.25439307208879E-01
 0.51235746000000E+01 0.19008594890375E+00
 0.11646626000000E+01 0.85244113011042E+00
 s    1 1.00
 0.32723041000000E+00 0.10000000000000E+01
 s    1 1.00
 0.10307241000000E+00 0.10000000000000E+01
 p    1 1.00
 0.80000000000000E+00 0.10000000000000E+01
 p    1 1.00
 0.95774129632000E-01 0.10000000000000E+01
 
   11 0
 s    6 1.00
 0.19730800647000E+05 0.58626402628763E-03
 0.29578958745000E+04 0.45428820586397E-02
 0.67322133595000E+03 0.23558413450084E-01
 0.19068249494000E+03 0.94709193292923E-01
 0.62295441898000E+02 0.29719784913376E+00
 0.22654161182000E+02 0.66916246895232E+00
 s    2 1.00
 0.89791477428000E+01 0.64596683630063E+00
 0.36863002370000E+01 0.38700574393705E+00
 s    1 1.00
 0.84660076805000E+00 0.10000000000000E+01
 s    1 1.00
 0.33647133771000E+00 0.10000000000000E+01
 s    1 1.00
 0.13647653675000E+00 0.10000000000000E+01
 s    1 1.00
 0.68441605847000E-01 0.10000000000000E+01
 p    4 1.00
 0.49200380510000E+02 0.11448825101764E-01
 0.11346790537000E+02 0.78422337970864E-01
 0.34273972411000E+01 0.30818094738830E+00
 0.11785525134000E+01 0.72027196368413E+00
 p    1 1.00
 0.41642204972000E+00 0.10000000000000E+01
 p    1 1.00
 0.14260826011000E+00 0.10000000000000E+01
 d    1 1.00
 0.16540000000000E+01 0.10000000000000E+01
 d    1 1.00
 0.46900000000000E+00 0.10000000000000E+01
 d    1 1.00
 0.12829642058000E+00 0.10000000000000E+01
 f    1 1.00
 0.10930000000000E+01 0.10000000000000E+01
 
   12 0
 s    6 1.00
 0.27032382631000E+05 0.57227335211155E-03
 0.40523871392000E+04 0.44353233492995E-02
 0.92232722710000E+03 0.23020107706038E-01
 0.26124070989000E+03 0.92822490667928E-01
 0.85354641351000E+02 0.29378500009671E+00
 0.31035035245000E+02 0.67401604501641E+00
 s    2 1.00
 0.12260860728000E+02 0.63839937025506E+00
 0.49987076005000E+01 0.39534587125718E+00
 s    1 1.00
 0.11703108158000E+01 0.10000000000000E+01
 s    1 1.00
 0.46474740994000E+00 0.10000000000000E+01
 s    1 1.00
 0.18504536357000E+00 0.10000000000000E+01
 s    1 1.00
 0.70288026270000E-01 0.10000000000000E+01
 p    4 1.00
 0.63274954801000E+02 0.12018332222616E-01
 0.14627049379000E+02 0.83005421790056E-01
 0.44501223456000E+01 0.31991743925964E+00
 0.15275799647000E+01 0.70715542916104E+00
 p    1 1.00
 0.52935117943000E+00 0.10000000000000E+01
 p    1 1.00
 0.17478421270000E+00 0.10000000000000E+01
 p    1 1.00
 0.51112745706000E-01 0.10000000000000E+01
 d    1 1.00
 0.23140000000000E+01 0.10000000000000E+01
 d    1 1.00
 0.64500000000000E+00 0.10000000000000E+01
 d    1 1.00
 0.14696477366000E+00 0.10000000000000E+01
 f    1 1.00
 0.14280000000000E+01 0.10000000000000E+01
 
   13 0
 s    6 1.00
 0.27032382631000E+05 0.57227335211155E-03
 0.40523871392000E+04 0.44353233492995E-02
 0.92232722710000E+03 0.23020107706038E-01
 0.26124070989000E+03 0.92822490667928E-01
 0.85354641351000E+02 0.29378500009671E+00
 0.31035035245000E+02 0.67401604501641E+00
 s    2 1.00
 0.12260860728000E+02 0.63839937025506E+00
 0.49987076005000E+01 0.39534587125718E+00
 s    1 1.00
 0.11703108158000E+01 0.10000000000000E+01
 s    1 1.00
 0.46474740994000E+00 0.10000000000000E+01
 s    1 1.00
 0.18504536357000E+00 0.10000000000000E+01
 s    1 1.00
 0.70288026270000E-01 0.10000000000000E+01
 p    4 1.00
 0.63274954801000E+02 0.12018332222616E-01
 0.14627049379000E+02 0.83005421790056E-01
 0.44501223456000E+01 0.31991743925964E+00
 0.15275799647000E+01 0.70715542916104E+00
 p    1 1.00
 0.52935117943000E+00 0.10000000000000E+01
 p    1 1.00
 0.17478421270000E+00 0.10000000000000E+01
 p    1 1.00
 0.51112745706000E-01 0.10000000000000E+01
 d    1 1.00
 0.23140000000000E+01 0.10000000000000E+01
 d    1 1.00
 0.64500000000000E+00 0.10000000000000E+01
 d    1 1.00
 0.14696477366000E+00 0.10000000000000E+01
 f    1 1.00
 0.14280000000000E+01 0.10000000000000E+01
 
   14 0
 s    6 1.00
 0.19730800647000E+05 0.58626402628763E-03
 0.29578958745000E+04 0.45428820586397E-02
 0.67322133595000E+03 0.23558413450084E-01
 0.19068249494000E+03 0.94709193292923E-01
 0.62295441898000E+02 0.29719784913376E+00
 0.22654161182000E+02 0.66916246895232E+00
 s    2 1.00
 0.89791477428000E+01 0.64596683630063E+00
 0.36863002370000E+01 0.38700574393705E+00
 s    1 1.00
 0.84660076805000E+00 0.10000000000000E+01
 s    1 1.00
 0.33647133771000E+00 0.10000000000000E+01
 s    1 1.00
 0.13647653675000E+00 0.10000000000000E+01
 s    1 1.00
 0.68441605847000E-01 0.10000000000000E+01
 p    4 1.00
 0.49200380510000E+02 0.11448825101764E-01
 0.11346790537000E+02 0.78422337970864E-01
 0.34273972411000E+01 0.30818094738830E+00
 0.11785525134000E+01 0.72027196368413E+00
 p    1 1.00
 0.41642204972000E+00 0.10000000000000E+01
 p    1 1.00
 0.14260826011000E+00 0.10000000000000E+01
 d    1 1.00
 0.16540000000000E+01 0.10000000000000E+01
 d    1 1.00
 0.46900000000000E+00 0.10000000000000E+01
 d    1 1.00
 0.12829642058000E+00 0.10000000000000E+01
 f    1 1.00
 0.10930000000000E+01 0.10000000000000E+01
 
   15 0
 s    3 1.00
 0.34061341000000E+02 0.25439307208879E-01
 0.51235746000000E+01 0.19008594890375E+00
 0.11646626000000E+01 0.85244113011042E+00
 s    1 1.00
 0.32723041000000E+00 0.10000000000000E+01
 s    1 1.00
 0.10307241000000E+00 0.10000000000000E+01
 p    1 1.00
 0.80000000000000E+00 0.10000000000000E+01
 p    1 1.00
 0.95774129632000E-01 0.10000000000000E+01
 
   16 0
 s    3 1.00
 0.34061341000000E+02 0.25439307208879E-01
 0.51235746000000E+01 0.19008594890375E+00
 0.11646626000000E+01 0.85244113011042E+00
 s    1 1.00
 0.32723041000000E+00 0.10000000000000E+01
 s    1 1.00
 0.10307241000000E+00 0.10000000000000E+01
 p    1 1.00
 0.80000000000000E+00 0.10000000000000E+01
 p    1 1.00
 0.95774129632000E-01 0.10000000000000E+01
 
[MO]
 Sym= X
 Ene= -0.272317
 Spin= Alpha
 Occup= -0.272317
         1    2.434596E-05
         2    5.531400E-05
         3   -1.563628E-04
         4    3.061418E-04
         5    1.064220E-02
         6    6.363601E-04
         7   -1.121290E-04
         8   -1.690480E-04
         9    1.892750E-01
        10   -6.885243E-04
        11   -1.955446E-05
        12    1.898215E-01
        13    3.953606E-03
        14   -6.756336E-03
        15    1.111697E-01
        16    8.540341E-06
        17   -2.507615E-06
        18   -6.032726E-06
        19   -5.369817E-07
        20   -4.976078E-03
        21   -5.516425E-04
        22    1.309247E-04
        23   -8.129559E-05
        24   -4.962915E-05
        25   -1.851559E-05
        26   -9.516758E-03
        27    4.002065E-04
        28   -8.878486E-04
        29    1.035240E-03
        30   -1.473917E-04
        31   -4.955529E-04
        32   -2.959012E-03
        33   -2.629842E-04
        34   -5.247223E-06
        35   -6.801868E-07
        36   -1.175977E-03
        37    1.408017E-06
        38   -1.970163E-07
        39    1.420734E-03
        40    5.631871E-06
        41    1.109583E-06
        42    1.570045E-04
        43   -2.893598E-07
        44   -2.002225E-06
        45   -4.659057E-06
        46    1.516484E-05
        47   -1.957112E-05
        48   -2.927426E-03
        49   -2.186275E-04
        50    1.785887E-05
        51    1.289432E-04
        52   -3.347960E-05
        53    3.448099E-05
        54    2.824671E-04
        55   -4.002689E-05
        56    1.299270E-03
        57   -1.020838E-02
        58   -4.971608E-05
        59    8.734650E-07
        60   -9.299309E-07
        61    5.646589E-08
        62   -1.019247E-05
        63   -2.143466E-07
        64    7.126043E-03
        65    2.253165E-06
        66   -8.688184E-06
        67    6.435019E-06
        68   -9.601409E-05
        69    1.007840E-06
        70    1.607197E-02
        71   -7.871862E-05
        72    1.678847E-05
        73    6.193015E-05
        74    1.431155E-03
        75    5.138537E-06
        76    1.738351E-03
        77    8.733265E-08
        78    3.151987E-07
        79    2.898900E-07
        80    9.200605E-08
        81    1.896514E-06
        82   -1.729596E-07
        83   -2.091751E-07
        84   -2.319398E-06
        85   -2.159687E-07
        86   -1.015962E-03
        87   -2.319431E-05
        88   -5.255467E-05
        89    1.328901E-04
        90   -2.264545E-04
        91   -5.014472E-03
        92   -3.062292E-04
        93    1.030803E-04
        94   -1.735091E-04
        95   -1.892891E-01
        96    6.057440E-04
        97    1.852579E-05
        98   -1.898330E-01
        99   -5.580930E-03
       100   -4.282706E-03
       101   -1.110876E-01
       102   -7.880564E-06
       103    1.624152E-06
       104    6.256412E-06
       105   -1.969076E-07
       106    4.974732E-03
       107   -5.530969E-04
       108   -1.089850E-04
       109    7.381250E-05
       110    3.517253E-05
       111   -6.859476E-06
       112    9.513592E-03
       113    4.002410E-04
       114    8.536496E-04
       115   -8.931320E-04
       116    3.948237E-05
       117   -6.379914E-04
       118    2.944293E-03
       119   -2.453760E-04
       120    4.574355E-06
       121   -5.695307E-07
       122    1.176136E-03
       123   -9.904824E-07
       124    1.089125E-07
       125   -1.420730E-03
       126   -5.146659E-06
       127    6.551931E-07
       128   -1.572214E-04
       129   -3.950322E-07
       130    1.602424E-05
       131    3.847395E-05
       132   -1.569617E-04
       133    7.752496E-04
       134    9.406773E-03
       135    3.818962E-04
       136    2.168915E-04
       137    4.169120E-05
       138   -2.005948E-01
       139    4.724902E-04
       140    1.465926E-04
       141   -2.033310E-01
       142   -6.712161E-03
       143    6.807639E-03
       144   -1.303061E-01
       145    1.530585E-05
       146    1.564871E-06
       147   -1.687072E-05
       148   -6.483906E-06
       149   -4.672742E-03
       150   -4.880650E-04
       151    1.660843E-04
       152   -5.414841E-05
       153   -1.119359E-04
       154   -7.767964E-05
       155   -8.322782E-03
       156   -6.863543E-04
       157   -2.053246E-04
       158    4.230383E-04
       159   -2.177137E-04
       160   -1.129117E-03
       161    4.425751E-04
       162   -2.775784E-03
       163    6.046407E-06
       164    1.198451E-06
       165    1.316026E-03
       166   -3.599051E-06
       167    5.448698E-07
       168   -1.467840E-03
       169   -4.513055E-06
       170   -2.152761E-06
       171   -2.977948E-04
       172    4.652652E-05
       173   -2.337174E-08
       174    1.223979E-07
       175   -1.042945E-05
       176    2.476131E-05
       177    3.584617E-03
       178    2.555010E-04
       179    7.664193E-07
       180   -9.506582E-05
       181    1.605310E-05
       182    2.637065E-05
       183   -7.836155E-05
       184    2.018257E-05
       185    1.361657E-03
       186    1.661324E-02
       187    3.135958E-05
       188   -4.082517E-07
       189    1.035257E-07
       190    3.047260E-07
       191    2.535357E-05
       192    6.254548E-07
       193    7.526380E-03
       194    7.452596E-08
       195    9.661083E-06
       196   -9.735609E-06
       197    9.388953E-05
       198    3.158615E-06
       199    1.570653E-02
       200    8.066239E-05
       201    3.910448E-06
       202   -8.457284E-05
       203    2.500027E-03
       204    3.079264E-06
       205   -4.004413E-03
       206   -9.132341E-08
       207    5.098984E-06
       208   -1.049908E-07
       209    3.480305E-07
       210   -4.509105E-06
       211   -1.282590E-08
       212   -2.255073E-07
       213   -2.331901E-06
       214    1.536858E-07
       215    1.184364E-03
       216   -1.778198E-05
       217   -4.258929E-05
       218    1.858519E-04
       219   -8.662486E-04
       220   -1.560202E-02
       221   -7.252757E-04
       222   -2.135997E-04
       223    4.154821E-05
       224    2.006220E-01
       225   -5.385090E-04
       226    1.963865E-04
       227    2.033582E-01
       228    5.325050E-03
       229    9.477183E-03
       230    1.302352E-01
       231   -1.521923E-05
       232   -1.139267E-06
       233    1.635850E-05
       234   -6.725780E-06
       235    4.672475E-03
       236   -4.889776E-04
       237   -1.870844E-04
       238    5.745411E-05
       239    1.296303E-04
       240   -8.972591E-05
       241    8.321328E-03
       242   -6.855968E-04
       243    2.280203E-04
       244   -5.609442E-04
       245    3.329239E-04
       246   -1.002626E-03
       247   -4.529757E-04
       248   -2.764482E-03
       249   -6.721015E-06
       250    1.448852E-06
       251   -1.316180E-03
       252    4.178147E-06
       253    7.189413E-07
       254    1.467890E-03
       255    4.839041E-06
       256   -2.662780E-06
       257    2.979514E-04
       258    4.657533E-05
       259   -1.584854E-05
       260   -2.428767E-06
       261    9.027325E-04
       262   -1.128450E-05
       263   -4.476529E-06
       264    7.759313E-03
       265    5.633296E-05
       266   -3.512527E-04
       267    7.392999E-03
       268    1.223681E-05
       269    2.350473E-05
       270   -1.218210E-04
       271    9.971392E-06
       272   -2.103530E-06
       273   -7.759669E-03
       274   -1.264510E-04
       275   -1.332541E-04
       276   -7.381626E-03
       277    4.571137E-06
       278    3.025075E-05
       279    1.924890E-03
       280    2.056938E-05
       281    6.380841E-06
       282   -8.638634E-03
       283    4.334203E-04
       284    1.025500E-04
       285   -9.615624E-03
       286   -1.332127E-06
       287   -4.323282E-05
       288   -2.725062E-03
       289   -2.110895E-05
       290    8.293131E-06
       291    8.639731E-03
       292   -5.329009E-04
       293    3.221248E-04
       294    9.614387E-03
       295   -4.033962E-07
       296   -9.897795E-07
       297    1.718285E-06
       298   -2.540847E-06
       299   -5.137703E-05
       300    1.311874E-04
       301   -1.669475E-05
       302   -3.930293E-05
       303   -7.550980E-06
       304   -1.249578E-05
       305   -1.092892E-05
       306   -7.205141E-06
       307    6.712144E-06
       308    3.338215E-04
       309   -3.294615E-06
       310    1.631419E-06
       311   -1.868702E-06
       312    2.372822E-07
       313   -4.906627E-06
       314    6.654385E-07
       315   -5.638344E-04
       316    4.351473E-06
       317   -4.403008E-06
       318    5.153476E-08
       319   -2.661059E-05
       320    2.101334E-06
       321   -1.247607E-03
       322    3.769365E-06
       323    8.499734E-06
       324   -1.226910E-05
       325   -1.636396E-04
       326    2.609292E-06
       327   -2.036323E-03
       328    1.334424E-08
       329    2.498388E-07
       330    3.149827E-08
       331   -6.150444E-08
       332    6.631591E-07
       333   -1.251993E-07
       334    4.360126E-08
       335   -9.983531E-07
       336    8.293997E-08
       337   -2.660978E-04
       338   -1.460401E-06
       339   -3.728771E-06
       340    6.866164E-06
       341   -9.469201E-06
       342    3.895848E-05
       343    1.741109E-06
       344    8.099430E-05
       345    1.263835E-04
       346    2.203366E-02
       347    7.592640E-05
       348    1.134824E-04
       349    2.077605E-02
       350   -5.471065E-05
       351    4.500024E-05
       352    1.442724E-02
       353   -8.864339E-06
       354   -7.530418E-06
       355   -2.684698E-04
       356   -1.395617E-06
       357    1.750805E-06
       358   -3.551882E-07
       359   -3.669755E-07
       360   -3.544096E-05
       361    1.632719E-04
       362   -1.092659E-06
       363    3.454327E-06
       364   -2.361668E-06
       365   -2.921963E-06
       366   -1.617152E-04
       367    7.173401E-04
       368    5.624033E-06
       369   -1.544481E-05
       370    9.820772E-06
       371   -9.229927E-06
       372    3.817350E-04
       373   -3.476310E-04
       374    3.047555E-07
       375    4.025253E-07
       376   -1.718844E-05
       377   -4.718430E-07
       378   -1.436870E-07
       379   -2.657528E-05
       380    6.297059E-08
       381   -3.963573E-07
       382    4.963600E-05
       383   -5.675848E-05
       384    1.502378E-06
       385    3.879744E-06
       386   -7.103330E-06
       387    1.475147E-05
       388   -8.701986E-05
       389   -5.914569E-05
       390    5.106453E-06
       391    1.093739E-04
       392   -2.201391E-02
       393    1.384637E-06
       394    9.762773E-05
       395   -2.075723E-02
       396    1.148986E-04
       397    4.329759E-05
       398   -1.441301E-02
       399    1.935738E-05
       400   -3.670443E-06
       401    2.706931E-04
       402    1.104905E-06
       403   -1.707139E-06
       404    6.022345E-07
       405   -1.052127E-06
       406    3.550616E-05
       407    1.632323E-04
       408    1.592298E-07
       409   -3.031687E-06
       410    2.872457E-06
       411   -4.819168E-06
       412    1.617193E-04
       413    7.171792E-04
       414   -6.631901E-06
       415    1.464365E-05
       416   -8.011751E-06
       417   -9.467212E-06
       418   -3.822731E-04
       419   -3.466314E-04
       420   -3.926388E-07
       421    2.655858E-07
       422    1.719303E-05
       423    6.349371E-07
       424    1.202760E-07
       425    2.655155E-05
       426   -1.081569E-07
       427   -4.765968E-07
       428   -4.961842E-05
       429   -5.674599E-05
       430   -9.114071E-08
       431   -1.391844E-07
       432   -8.193890E-07
       433    1.252930E-05
       434    1.354315E-05
       435   -7.782262E-05
       436   -2.800190E-06
       437   -9.963955E-04
       438   -1.471942E-05
       439    6.637672E-07
       440   -1.263014E-03
       441   -1.438622E-05
       442   -5.055632E-05
       443   -1.563024E-03
       444   -1.300979E-05
       445   -2.109301E-08
       446    6.662340E-08
       447   -4.553040E-08
       448   -2.041053E-05
       449    1.458132E-07
       450    3.000316E-04
       451   -5.232683E-08
       452   -6.216881E-07
       453    6.740149E-07
       454    4.296916E-05
       455    7.965742E-07
       456    6.464579E-04
       457   -1.498595E-05
       458    6.195040E-06
       459    8.790914E-06
       460    5.428600E-04
       461   -4.321250E-07
       462   -9.161590E-04
       463   -6.567099E-09
       464   -4.437872E-06
       465    5.288169E-08
       466   -3.113328E-08
       467   -1.573473E-05
       468    6.680724E-09
       469    3.994397E-08
       470    2.168876E-05
       471   -7.762896E-08
       472    1.336003E-04
       473   -6.924829E-05
       474   -5.831021E-04
       475   -3.572549E-03
       476   -7.198435E-05
       477   -7.959054E-05
       478   -3.722003E-04
       479   -2.406045E-04
       480   -7.740477E-04
       481   -1.854467E-03
       482    6.852671E-05
       483    5.841325E-04
       484    3.534726E-03
       485    7.242326E-05
       486   -7.975447E-05
       487    3.704261E-04
       488    2.207705E-04
       489   -7.774649E-04
       490    1.848914E-03
 Sym= X
 Ene= -0.621950
 Spin= Alpha
 Occup= -0.621950
         1   -1.731352E-04
         2   -4.022803E-04
         3    1.160070E-03
         4   -2.744980E-03
         5   -6.673212E-03
         6   -1.105974E-02
         7   -1.625870E-03
         8   -2.087743E-04
         9    3.856979E-02
        10    2.433145E-03
        11   -4.172663E-04
        12    3.651403E-02
        13    3.551015E-02
        14   -1.180495E-02
        15    1.071477E-02
        16    1.505114E-06
        17   -1.359056E-05
        18    1.208545E-05
        19   -1.088521E-05
        20    6.328048E-03
        21   -4.231296E-03
        22   -6.656150E-04
        23    3.972219E-04
        24    2.683930E-04
        25   -6.946250E-04
        26    1.433492E-02
        27   -7.898793E-03
        28   -5.100939E-03
        29    4.802105E-03
        30    2.988336E-04
        31    1.076082E-03
        32   -1.429503E-03
        33    9.893438E-03
        34    1.980306E-05
        35   -6.777928E-06
        36   -2.157499E-04
        37   -8.689203E-06
        38    6.750124E-06
        39   -6.423505E-04
        40   -1.787939E-05
        41    2.343420E-06
        42    9.318093E-04
        43   -7.391569E-04
        44    3.233725E-05
        45    7.099151E-05
        46    1.093854E-04
        47   -2.726783E-03
        48   -5.447801E-02
        49    5.005430E-03
        50   -4.488344E-04
        51   -3.399860E-06
        52    2.214710E-01
        53    3.446064E-04
        54   -1.784010E-05
        55    2.291040E-01
        56    1.686170E-02
        57    5.883515E-04
        58    2.058481E-01
        59    3.764962E-05
        60   -3.507766E-05
        61   -2.571960E-06
        62    1.511353E-07