 operating system is UNIX !
 hostname is         dlt16.abaxnet

 dscf (dlt16.abaxnet) : TURBOMOLE V6.6( 19103 ) 21 May 2014 at 15:45:05
 Copyright (C) 2014 TURBOMOLE GmbH, Karlsruhe


    2023-02-13 00:52:50.934 



                             d s c f - program

                   idea & directorship : reinhart ahlrichs
                   program development : marco haeser
                                         michael baer
                           dft version : oliver treutler


                          quantum chemistry group
                          universitaet  karlsruhe
                                  germany




                          References             
                                                 
          TURBOMOLE:                             
              R. Ahlrichs, M. Baer, M. Haeser, H. Horn, and
              C. Koelmel
              Electronic structure calculations on workstation
              computers: the program system TURBOMOLE
              Chem. Phys. Lett. 162: 165 (1989)
          Density Functional:                              
              O. Treutler and R. Ahlrichs                      
              Efficient Molecular Numerical Integration Schemes
              J. Chem. Phys. 102: 346 (1995)                   
          Parallel Version:                                
              Performance of parallel TURBOMOLE for Density    
              Functional Calculations                          
              M. v. Arnim and R. Ahlrichs                      
              J. Comp. Chem. 19: 1746 (1998)                   
                                         




              +--------------------------------------------------+
              | Atomic coordinate, charge and isotop information |
              +--------------------------------------------------+

                    atomic coordinates            atom    charge  isotop
         -1.25887898   -2.28332963   -0.02494864    c      6.000     0
         -2.55749311    0.00000000   -0.02369197    c      6.000     0
         -1.25887709    2.28332963   -0.02495431    c      6.000     0
          1.33208862    2.28500771   -0.02695175    c      6.000     0
          2.68682384    0.00000000   -0.02643774    c      6.000     0
          1.33208673   -2.28500771   -0.02694608    c      6.000     0
         -2.29779371   -4.03823136   -0.02237105    h      1.000     0
         -2.29779182    4.03823325   -0.02238050    h      1.000     0
          2.35121792    4.05719665   -0.02923454    h      1.000     0
          2.35121792   -4.05719476   -0.02922320    h      1.000     0
         -5.27331869    0.00000000   -0.01799633    n      7.000     0
         -6.38120465    2.02694482   -0.01556804    o      8.000     0
         -6.38120276   -2.02694671   -0.01558315    o      8.000     0
          5.24411273    0.00000000   -0.07034742    n      7.000     0
          6.20450746    1.61720306    0.18832019    h      1.000     0
          6.20450557   -1.61720495    0.18831452    h      1.000     0
 
       center of nuclear mass  :   -1.36593396   -0.00000021   -0.02395682
       center of nuclear charge:   -1.22407413   -0.00000018   -0.02108018

   *************************************************************************
   ADC(2) - opt by CAM-B3LYP gaussian                                       
   *************************************************************************



              +--------------------------------------------------+
              |               basis set information              |
              +--------------------------------------------------+

              we will work with the 1s 3p 5d 7f 9g ... basis set
              ...i.e. with spherical basis functions...

   type   atoms  prim   cont   basis
   ---------------------------------------------------------------------------
    c        6     52     37   def2-TZVPD   [6s3p3d1f|12s6p3d1f]
    h        6     11      9   def2-TZVPD   [3s2p|5s2p]
    n        2     52     37   def2-TZVPD   [6s3p3d1f|12s6p3d1f]
    o        2     55     40   def2-TZVPD   [6s4p3d1f|12s7p3d1f]
   ---------------------------------------------------------------------------
   total:   16    592    430
   ---------------------------------------------------------------------------

   total number of primitive shells          :   74
   total number of contracted shells         :  162
   total number of cartesian basis functions :  490
   total number of SCF-basis functions       :  430

 ==============================================================================
                      COSMO switched on
 ==============================================================================
 COSMO stati: segments per atom: H   32 other atoms   92

 symmetry group of the molecule :   c1 

 the group has the following generators :
   c1(z)

    1 symmetry operations found
 COSMO statistics: nps    667 npspher:    311

 symmetry group of the molecule :   c1 

 the group has the following generators :
   c1(z)

    1 symmetry operations found
 COSMO surface:
   number of segments:  667
   area (bohr**2):      572.846375
   volume (bohr**3):   1038.421860
 COSMO: check number of disjunct cavities:

       ... OK contiguous cavity found

 integral neglect threshold       :  0.68E-11
 integral storage threshold THIZE :  0.10E-04
 integral storage threshold THIME :         5


 DENSITY CONVERGENCE CHECK SWITCHED ON !
 SCF CONVERGENCE IF RMS(delta[D]) <     0.1000000000E-07


 symmetry group of the molecule :   c1 

 the group has the following generators :
   c1(z)

    1 symmetry operations found

 there are 1 real representations :   a   

 maximum number of shells which are related by symmetry :  1


    mo occupation :
   irrep   mo's   occupied
    a      430       36
 
 number of basis functions   :          430
 number of occupied orbitals :           36
 

          ------------------------
          nuclear repulsion energy  :   498.683037867    
          ------------------------

 
          -----------------
          -S,T+V- integrals
          -----------------

 1e-integrals will be neglected if expon. factor < 0.682033E-12
 
   Difference densities algorithm switched on.
   The maximal number of linear combinations of
   difference densities is          20 .

 automatic virtual orbital shift switched on 
      shift if e(lumo)-e(homo) < 0.10000000    


 DIIS switched on: error vector is FDS-SDF
 Max. Iterations for DIIS is     :   5
 DIIS matrix (see manual) 
    Scaling factor of diagonals  :  1.200
    threshold for scaling factor :  0.000

 scf convergence criterion : increment of total energy < .1000000D-06
                  and increment of one-electron energy < .1000000D-03


 <geterg> : there is no data group $energy 

  MOs are in ASCII format !


 reading orbital data $scfmo  from file mos . 

 orbital characterization : expanded
 
 mo provided and orthogonalized by Cholesky decomposition

 DSCF restart information will be dumped onto file mos

 
                                              current damping :  0.300
 ITERATION  ENERGY          1e-ENERGY        2e-ENERGY     RMS[dD(SAO)]   TOL
   1  -487.45919351640    -1642.1985362     656.05630483    0.000D+00 0.680D-11
                          Ediel =    -0.078092659319
          max. resid. norm for Fia-block=  4.106D-01 for orbital     22a         
          max. resid. fock norm         =  1.095D+01 for orbital    296a         
          Delta Eig. =   933.4594169113 eV 
 
                                              current damping :  0.250
 ITERATION  ENERGY          1e-ENERGY        2e-ENERGY     RMS[dD(SAO)]   TOL
   2  -489.21451337171    -1654.4087584     666.51120717    0.481D-01 0.672D-11
                          Ediel =    -0.036864839711
          Norm of current diis error:  2.5344    
          max. resid. norm for Fia-block=  1.494D-01 for orbital     11a         
          max. resid. fock norm         =  3.260D-01 for orbital    415a         
          Delta Eig. =   212.6235106405 eV 
 
                                              current damping :  0.150
 ITERATION  ENERGY          1e-ENERGY        2e-ENERGY     RMS[dD(SAO)]   TOL
   3  -489.37904334868    -1655.4501533     667.38807208    0.119D-01 0.442D-11
                          Ediel =    -0.032239985915
          Norm of current diis error: 0.98468    
          max. resid. norm for Fia-block=  6.096D-02 for orbital     24a         
          max. resid. fock norm         =  6.797D-02 for orbital     24a         
          Delta Eig. =    50.1838998824 eV 
 
                                              current damping :  0.100
 ITERATION  ENERGY          1e-ENERGY        2e-ENERGY     RMS[dD(SAO)]   TOL
   4  -489.41752673028    -1655.7498578     667.64929317    0.345D-02 0.346D-11
                          Ediel =    -0.027757526534
          Norm of current diis error: 0.27665    
          max. resid. norm for Fia-block=  1.739D-02 for orbital     22a         
          max. resid. fock norm         =  1.977D-02 for orbital     11a         
          Delta Eig. =     5.8337356744 eV 
 
                                              current damping :  0.100
 ITERATION  ENERGY          1e-ENERGY        2e-ENERGY     RMS[dD(SAO)]   TOL
   5  -489.42175648232    -1655.9800968     667.87530242    0.999D-03 0.310D-11
                          Ediel =    -0.026951607818
          Norm of current diis error: 0.83034E-01
          max. resid. norm for Fia-block=  6.504D-03 for orbital     36a         
          max. resid. fock norm         =  8.029D-03 for orbital    425a         
 mo-orthogonalization: Cholesky decomposition
          Delta Eig. =     0.6079081361 eV 
 
                                              current damping :  0.150
 ITERATION  ENERGY          1e-ENERGY        2e-ENERGY     RMS[dD(SAO)]   TOL
   6  -489.42238540988    -1655.9490263     667.84360307    0.330D-03 0.289D-11
                          Ediel =    -0.026469456991
          Norm of current diis error: 0.35602E-01
          max. resid. norm for Fia-block=  3.928D-03 for orbital     36a         
          max. resid. fock norm         =  4.074D-03 for orbital     36a         
          Delta Eig. =     0.0949899219 eV 
 
                                              current damping :  0.100
 ITERATION  ENERGY          1e-ENERGY        2e-ENERGY     RMS[dD(SAO)]   TOL
   7  -489.42254350795    -1655.9463057     667.84072433    0.170D-03 0.272D-11
                          Ediel =    -0.026140435689
          Norm of current diis error: 0.17277E-01
          max. resid. norm for Fia-block=  2.213D-03 for orbital     36a         
          max. resid. fock norm         =  2.310D-03 for orbital     36a         
          Delta Eig. =     0.0528954039 eV 
 
                                              current damping :  0.150
 ITERATION  ENERGY          1e-ENERGY        2e-ENERGY     RMS[dD(SAO)]   TOL
   8  -489.42258483532    -1655.9477135     667.84209078    0.929D-04 0.256D-11
                          Ediel =    -0.025929807073
          Norm of current diis error: 0.62535E-02
          max. resid. norm for Fia-block=  9.156D-04 for orbital     36a         
          max. resid. fock norm         =  9.345D-04 for orbital     36a         
          Delta Eig. =     0.0186140543 eV 
 
                                              current damping :  0.200
 ITERATION  ENERGY          1e-ENERGY        2e-ENERGY     RMS[dD(SAO)]   TOL
   9  -489.42259081431    -1655.9435155     667.83788681    0.309D-04 0.246D-11
                          Ediel =    -0.025808780265
          Norm of current diis error: 0.26853E-02
          max. resid. norm for Fia-block=  4.056D-04 for orbital     36a         
          max. resid. fock norm         =  4.123D-04 for orbital     36a         
          Delta Eig. =     0.0065243402 eV 
 
                                              current damping :  0.100
 ITERATION  ENERGY          1e-ENERGY        2e-ENERGY     RMS[dD(SAO)]   TOL
  10  -489.42259192244    -1655.9429060     667.83727623    0.112D-04 0.238D-11
                          Ediel =    -0.025753264764
          Norm of current diis error: 0.12444E-02
          max. resid. norm for Fia-block=  2.154D-04 for orbital     36a         
          max. resid. fock norm         =  2.165D-04 for orbital     36a         
 mo-orthogonalization: Cholesky decomposition
          Delta Eig. =     0.0026503869 eV 
 
                                              current damping :  0.100
 ITERATION  ENERGY          1e-ENERGY        2e-ENERGY     RMS[dD(SAO)]   TOL
  11  -489.42259221862    -1655.9423201     667.83669000    0.645D-05 0.228D-11
                          Ediel =    -0.025717409518
          Norm of current diis error: 0.57407E-03
          max. resid. norm for Fia-block=  9.811D-05 for orbital     36a         
          max. resid. fock norm         =  1.027D-04 for orbital     37a         
          Delta Eig. =     0.0018358662 eV 
 
                                              current damping :  0.100
 ITERATION  ENERGY          1e-ENERGY        2e-ENERGY     RMS[dD(SAO)]   TOL
  12  -489.42259228329    -1655.9419759     667.83634570    0.312D-05 0.219D-11
                          Ediel =    -0.025701305070
          Norm of current diis error: 0.27287E-03
          max. resid. norm for Fia-block=  4.627D-05 for orbital     36a         
          max. resid. fock norm         =  4.695D-05 for orbital     36a         
          Delta Eig. =     0.0010832779 eV 
 
                                              current damping :  0.100
 ITERATION  ENERGY          1e-ENERGY        2e-ENERGY     RMS[dD(SAO)]   TOL
  13  -489.42259229743    -1655.9419064     667.83627628    0.136D-05 0.212D-11
                          Ediel =    -0.025695278696
          Norm of current diis error: 0.15040E-03
          max. resid. norm for Fia-block=  2.276D-05 for orbital     36a         
          max. resid. fock norm         =  2.467D-05 for orbital     37a         
          Delta Eig. =     0.0006230742 eV 
 
                                              current damping :  0.100
 ITERATION  ENERGY          1e-ENERGY        2e-ENERGY     RMS[dD(SAO)]   TOL
  14  -489.42259230185    -1655.9418802     667.83625001    0.841D-06 0.205D-11
                          Ediel =    -0.025692361667
          Norm of current diis error: 0.74452E-04
          max. resid. norm for Fia-block=  1.118D-05 for orbital     36a         
          max. resid. fock norm         =  2.137D-05 for orbital    187a         
          Delta Eig. =     0.0002696527 eV 
 
                                              current damping :  0.100
 ITERATION  ENERGY          1e-ENERGY        2e-ENERGY     RMS[dD(SAO)]   TOL
  15  -489.42259230279    -1655.9418568     667.83622660    0.458D-06 0.198D-11
                          Ediel =    -0.025691586381
          Norm of current diis error: 0.32497E-04
          max. resid. norm for Fia-block=  4.854D-06 for orbital     35a         
          max. resid. fock norm         =  1.991D-05 for orbital    187a         
 mo-orthogonalization: Cholesky decomposition
          Delta Eig. =     0.0002334824 eV 
 
                                              current damping :  0.150
 ITERATION  ENERGY          1e-ENERGY        2e-ENERGY     RMS[dD(SAO)]   TOL
  16  -489.42259230346    -1655.9418669     667.83623672    0.362D-06 0.194D-11
                          Ediel =    -0.025691347095
          Norm of current diis error: 0.13556E-04
          max. resid. norm for Fia-block=  2.043D-06 for orbital     35a         
          max. resid. fock norm         =  8.153D-06 for orbital    145a         
          Delta Eig. =     0.0000615379 eV 

 ENERGY & DENSITY CONVERGED !

 
                                              current damping :  0.200
 ITERATION  ENERGY          1e-ENERGY        2e-ENERGY     RMS[dD(SAO)]   TOL
  17  -489.42259230297    -1655.9418647     667.83623449    0.230D-06 0.194D-11
                          Ediel =    -0.025691371969
          max. resid. norm for Fia-block=  3.599D-07 for orbital     35a         
          max. resid. fock norm         =  1.572D-05 for orbital    187a         
 COSMO: write data to file cosmo_transfer.tmp

 convergence criteria satisfied after 17 iterations


   *************************************************************************
   ADC(2) - opt by CAM-B3LYP gaussian                                       
   *************************************************************************


                  ------------------------------------------ 
                 |  total energy      =   -489.42259230297  |
                  ------------------------------------------ 
                 :  kinetic energy    =    488.91146005625  :
                 :  potential energy  =   -978.33405235922  :
                 :  virial theorem    =      1.99895564231  :
                 :  wavefunction norm =      1.00000000000  :
                  .......................................... 


 <geterg> : there is no data group $energy 


 <skperg> : $end is missing 


 orbitals $scfmo  will be written to file mos

    irrep                 32a         33a         34a         35a         36a   
 eigenvalues H         -0.49405    -0.47204    -0.46670    -0.36577    -0.31307
            eV         -13.4440    -12.8449    -12.6996     -9.9532     -8.5190
 occupation              2.0000      2.0000      2.0000      2.0000      2.0000 

    irrep                 37a         38a         39a         40a         41a   
 eigenvalues H          0.04425     0.06787     0.08017     0.08364     0.10282
            eV           1.2040      1.8468      2.1817      2.2759      2.7979
 
 ==============================================================================
                                  COSMO RESULTS
 ==============================================================================
  PARAMETER:
    nppa:      1082
    nspa:        92
    nsph:        32
    nps:        667
    npspher:    311
    disex:   10.0000    
    disex2:  4409.67    
    rsolv [A]: 1.3000
    routf:     0.8500
    phsran:    0.0    
    ampran:   0.10E-04
    cavity:  closed
    epsilon:    35.688
    refind:     1.300
    fepsi:      0.9585498
  CAVITY VOLUME/AREA [a.u.]:
    surface: V1.0, A matrix: V1.0
    area:   572.85
    volume:  1038.42
  SCREENING CHARGE:
    cosmo      :  -0.025639
    correction :   0.024865
    total      :  -0.000775
  ENERGIES [a.u.]:
    Total energy            =     -489.4225923030
    Total energy + OC corr. =     -489.4228737976
    Dielectric energy       =       -0.0256913720
    Diel. energy + OC corr. =       -0.0259728666
  ELEMENT RADIUS [A]: ATOM LIST
    c  2.00: 1-6
    h  1.30: 7-10,15,16
    n  1.83: 11,14
    o  1.72: 12,13
 ==============================================================================
 
 
 
 ==============================================================================
                           electrostatic moments
 ==============================================================================
 
              nuc           elec       ->  total
 ------------------------------------------------------------------------------
                          charge      
 ------------------------------------------------------------------------------
          72.000000     -72.000000      -0.000000
 
 ------------------------------------------------------------------------------
                       dipole moment  
 ------------------------------------------------------------------------------
   x     -88.133337      92.223699       4.090362
   y      -0.000013      -0.000382      -0.000395
   z      -1.517773       1.726831       0.209058
 
   | dipole moment | =     4.0957 a.u. =    10.4102 debye 
 
 ------------------------------------------------------------------------------
                     quadrupole moment
 ------------------------------------------------------------------------------
  xx    1260.153924   -1313.235183     -53.081260
  yy     261.721411    -300.259204     -38.537793
  zz       0.138174     -45.528555     -45.390380
  xy       0.000117      -0.001203      -0.001086
  xz       1.857908      -0.543221       1.314687
  yz       0.000015      -0.000626      -0.000612
 
     1/3  trace=     -45.669811
     anisotropy=      12.806061
 
 ==============================================================================
 


    ------------------------------------------------------------------------
         total  cpu-time : 20 minutes and  3 seconds
         total wall-time : 20 minutes and 12 seconds
    ------------------------------------------------------------------------


   ****  dscf : all done  ****


    2023-02-13 01:13:02.749 

