 operating system is UNIX !
 hostname is         dlt16.abaxnet

 dscf (dlt16.abaxnet) : TURBOMOLE V6.6( 19103 ) 21 May 2014 at 15:45:05
 Copyright (C) 2014 TURBOMOLE GmbH, Karlsruhe


    2023-02-13 19:43:47.317 



                             d s c f - program

                   idea & directorship : reinhart ahlrichs
                   program development : marco haeser
                                         michael baer
                           dft version : oliver treutler


                          quantum chemistry group
                          universitaet  karlsruhe
                                  germany




                          References             
                                                 
          TURBOMOLE:                             
              R. Ahlrichs, M. Baer, M. Haeser, H. Horn, and
              C. Koelmel
              Electronic structure calculations on workstation
              computers: the program system TURBOMOLE
              Chem. Phys. Lett. 162: 165 (1989)
          Density Functional:                              
              O. Treutler and R. Ahlrichs                      
              Efficient Molecular Numerical Integration Schemes
              J. Chem. Phys. 102: 346 (1995)                   
          Parallel Version:                                
              Performance of parallel TURBOMOLE for Density    
              Functional Calculations                          
              M. v. Arnim and R. Ahlrichs                      
              J. Comp. Chem. 19: 1746 (1998)                   
                                         




              +--------------------------------------------------+
              | Atomic coordinate, charge and isotop information |
              +--------------------------------------------------+

                    atomic coordinates            atom    charge  isotop
         -1.25887898   -2.28332963   -0.02494864    c      6.000     0
         -2.55749311    0.00000000   -0.02369197    c      6.000     0
         -1.25887709    2.28332963   -0.02495431    c      6.000     0
          1.33208862    2.28500771   -0.02695175    c      6.000     0
          2.68682384    0.00000000   -0.02643774    c      6.000     0
          1.33208673   -2.28500771   -0.02694608    c      6.000     0
         -2.29779371   -4.03823136   -0.02237105    h      1.000     0
         -2.29779182    4.03823325   -0.02238050    h      1.000     0
          2.35121792    4.05719665   -0.02923454    h      1.000     0
          2.35121792   -4.05719476   -0.02922320    h      1.000     0
         -5.27331869    0.00000000   -0.01799633    n      7.000     0
         -6.38120465    2.02694482   -0.01556804    o      8.000     0
         -6.38120276   -2.02694671   -0.01558315    o      8.000     0
          5.24411273    0.00000000   -0.07034742    n      7.000     0
          6.20450746    1.61720306    0.18832019    h      1.000     0
          6.20450557   -1.61720495    0.18831452    h      1.000     0
 
       center of nuclear mass  :   -1.36593396   -0.00000021   -0.02395682
       center of nuclear charge:   -1.22407413   -0.00000018   -0.02108018

   *************************************************************************
   ADC(2) - opt by CAM-B3LYP gaussian                                       
   *************************************************************************



              +--------------------------------------------------+
              |               basis set information              |
              +--------------------------------------------------+

              we will work with the 1s 3p 5d 7f 9g ... basis set
              ...i.e. with spherical basis functions...

   type   atoms  prim   cont   basis
   ---------------------------------------------------------------------------
    c        6     52     37   def2-TZVPD   [6s3p3d1f|12s6p3d1f]
    h        6     11      9   def2-TZVPD   [3s2p|5s2p]
    n        2     52     37   def2-TZVPD   [6s3p3d1f|12s6p3d1f]
    o        2     55     40   def2-TZVPD   [6s4p3d1f|12s7p3d1f]
   ---------------------------------------------------------------------------
   total:   16    592    430
   ---------------------------------------------------------------------------

   total number of primitive shells          :   74
   total number of contracted shells         :  162
   total number of cartesian basis functions :  490
   total number of SCF-basis functions       :  430

 ==============================================================================
                      COSMO switched on
 ==============================================================================
 COSMO: skip init. and read data from file
 This run uses frozen charges (from previous solvent iteration)
 Work to create reaction field =   2.239561803405677E-002

 integral neglect threshold       :  0.68E-11
 integral storage threshold THIZE :  0.10E-04
 integral storage threshold THIME :         5


 DENSITY CONVERGENCE CHECK SWITCHED ON !
 SCF CONVERGENCE IF RMS(delta[D]) <     0.1000000000E-07


 symmetry group of the molecule :   c1 

 the group has the following generators :
   c1(z)

    1 symmetry operations found

 there are 1 real representations :   a   

 maximum number of shells which are related by symmetry :  1


    mo occupation :
   irrep   mo's   occupied
    a      430       36
 
 number of basis functions   :          430
 number of occupied orbitals :           36
 

          ------------------------
          nuclear repulsion energy  :   498.683037867    
          ------------------------

 
          -----------------
          -S,T+V- integrals
          -----------------

 1e-integrals will be neglected if expon. factor < 0.682033E-12
 
   Difference densities algorithm switched on.
   The maximal number of linear combinations of
   difference densities is          20 .

 automatic virtual orbital shift switched on 
      shift if e(lumo)-e(homo) < 0.10000000    


 DIIS switched on: error vector is FDS-SDF
 Max. Iterations for DIIS is     :   5
 DIIS matrix (see manual) 
    Scaling factor of diagonals  :  1.200
    threshold for scaling factor :  0.000

 scf convergence criterion : increment of total energy < .1000000D-06
                  and increment of one-electron energy < .1000000D-03

  MOs are in ASCII format !


 reading orbital data $scfmo  from file mos . 

 orbital characterization : scfconv=7
 

 DSCF restart information will be dumped onto file mos

 COSMO: use frozen qcos
 
                                              current damping :  0.300
 ITERATION  ENERGY          1e-ENERGY        2e-ENERGY     RMS[dD(SAO)]   TOL
   1  -489.42223372547    -1655.9614459     667.85617428    0.000D+00 0.680D-11
                          Ediel =    -0.024892930364
          max. resid. norm for Fia-block=  3.445D-04 for orbital     31a         
          max. resid. fock norm         =  7.396D-04 for orbital    120a         
          Delta Eig. =     0.0150460129 eV 
 COSMO: use frozen qcos
 
                                              current damping :  0.250
 ITERATION  ENERGY          1e-ENERGY        2e-ENERGY     RMS[dD(SAO)]   TOL
   2  -489.42223502500    -1655.9651773     667.85990443    0.420D-04 0.431D-11
                          Ediel =    -0.024836141523
          Norm of current diis error: 0.16872E-02
          max. resid. norm for Fia-block=  1.285D-04 for orbital     31a         
          max. resid. fock norm         =  1.598D-04 for orbital     31a         
          Delta Eig. =     0.0069176804 eV 
 COSMO: use frozen qcos
 
                                              current damping :  0.200
 ITERATION  ENERGY          1e-ENERGY        2e-ENERGY     RMS[dD(SAO)]   TOL
   3  -489.42223525543    -1655.9645424     667.85926924    0.140D-04 0.343D-11
                          Ediel =    -0.024814469526
          Norm of current diis error: 0.74362E-03
          max. resid. norm for Fia-block=  6.857D-05 for orbital     36a         
          max. resid. fock norm         =  9.225D-05 for orbital     37a         
          Delta Eig. =     0.0023566310 eV 
 COSMO: use frozen qcos
 
                                              current damping :  0.250
 ITERATION  ENERGY          1e-ENERGY        2e-ENERGY     RMS[dD(SAO)]   TOL
   4  -489.42223532605    -1655.9648832     667.85960997    0.538D-05 0.295D-11
                          Ediel =    -0.024802322471
          Norm of current diis error: 0.39889E-03
          max. resid. norm for Fia-block=  4.473D-05 for orbital     36a         
          max. resid. fock norm         =  5.280D-05 for orbital     37a         
          Delta Eig. =     0.0011989662 eV 
 COSMO: use frozen qcos
 
                                              current damping :  0.300
 ITERATION  ENERGY          1e-ENERGY        2e-ENERGY     RMS[dD(SAO)]   TOL
   5  -489.42223534655    -1655.9648225     667.85954932    0.203D-05 0.270D-11
                          Ediel =    -0.024796831494
          Norm of current diis error: 0.22269E-03
          max. resid. norm for Fia-block=  2.639D-05 for orbital     36a         
          max. resid. fock norm         =  3.361D-05 for orbital     37a         
 mo-orthogonalization: Cholesky decomposition
          Delta Eig. =     0.0007219316 eV 
 COSMO: use frozen qcos
 
                                              current damping :  0.150
 ITERATION  ENERGY          1e-ENERGY        2e-ENERGY     RMS[dD(SAO)]   TOL
   6  -489.42223535370    -1655.9648211     667.85954785    0.130D-05 0.252D-11
                          Ediel =    -0.024794189864
          Norm of current diis error: 0.12230E-03
          max. resid. norm for Fia-block=  2.004D-05 for orbital     36a         
          max. resid. fock norm         =  2.173D-05 for orbital     37a         
          Delta Eig. =     0.0002532575 eV 
 COSMO: use frozen qcos
 
                                              current damping :  0.100
 ITERATION  ENERGY          1e-ENERGY        2e-ENERGY     RMS[dD(SAO)]   TOL
   7  -489.42223535687    -1655.9647951     667.85952183    0.102D-05 0.234D-11
                          Ediel =    -0.024792534124
          Norm of current diis error: 0.57475E-04
          max. resid. norm for Fia-block=  9.024D-06 for orbital     36a         
          max. resid. fock norm         =  9.604D-06 for orbital     37a         
          Delta Eig. =     0.0001996453 eV 
 COSMO: use frozen qcos

 ENERGY & DENSITY CONVERGED !

 
                                              current damping :  0.100
 ITERATION  ENERGY          1e-ENERGY        2e-ENERGY     RMS[dD(SAO)]   TOL
   8  -489.42223535818    -1655.9647914     667.85951815    0.495D-06 0.222D-11
                          Ediel =    -0.024791944382
          max. resid. norm for Fia-block=  1.801D-06 for orbital     36a         
          max. resid. fock norm         =  5.487D-06 for orbital    187a         
 COSMO: write data to file cosmotransfer

 convergence criteria satisfied after  8 iterations


   *************************************************************************
   ADC(2) - opt by CAM-B3LYP gaussian                                       
   *************************************************************************


                  ------------------------------------------ 
                 |  total energy      =   -489.42223535818  |
                  ------------------------------------------ 
                 :  kinetic energy    =    488.91187201576  :
                 :  potential energy  =   -978.33410737395  :
                 :  virial theorem    =      1.99895721260  :
                 :  wavefunction norm =      1.00000000000  :
                  .......................................... 


 orbitals $scfmo  will be written to file mos

    irrep                 32a         33a         34a         35a         36a   
 eigenvalues H         -0.49213    -0.47304    -0.46357    -0.36705    -0.31364
            eV         -13.3916    -12.8722    -12.6145     -9.9881     -8.5347
 occupation              2.0000      2.0000      2.0000      2.0000      2.0000 

    irrep                 37a         38a         39a         40a         41a   
 eigenvalues H          0.04533     0.06824     0.08090     0.08374     0.10341
            eV           1.2336      1.8569      2.2015      2.2788      2.8140
 
 ==============================================================================
                                  COSMO RESULTS
 ==============================================================================
  PARAMETER:
    nppa:      1082
    nspa:        92
    nsph:        32
    nps:        667
    npspher:    311
    disex:   10.0000    
    disex2:  4409.67    
    rsolv [A]: 1.3000
    routf:     0.8500
    phsran:    0.0    
    ampran:   0.10E-04
    cavity:  closed
    epsilon:    35.688
    refind:     1.300
    fepsi:      0.9585498
  CAVITY VOLUME/AREA [a.u.]:
    surface: V1.0, A matrix: V1.0
    area:   572.85
    volume:  1038.42
  SCREENING CHARGE:
    cosmo      :  -0.029786
    correction :   0.029109
    total      :  -0.000677
  ENERGIES [a.u.]:
    Total energy            =     -489.4222353582
    Total energy + OC corr. =     -489.4218761895
    Dielectric energy       =       -0.0247919444
    Diel. energy + OC corr. =       -0.0244327756
  ELEMENT RADIUS [A]: ATOM LIST
    c  2.00: 1-6
    h  1.30: 7-10,15,16
    n  1.83: 11,14
    o  1.72: 12,13
 ==============================================================================
 
 
 
 ==============================================================================
                           electrostatic moments
 ==============================================================================
 
              nuc           elec       ->  total
 ------------------------------------------------------------------------------
                          charge      
 ------------------------------------------------------------------------------
          72.000000     -72.000000      -0.000000
 
 ------------------------------------------------------------------------------
                       dipole moment  
 ------------------------------------------------------------------------------
   x     -88.133337      92.169971       4.036634
   y      -0.000013      -0.000131      -0.000145
   z      -1.517773       1.724390       0.206617
 
   | dipole moment | =     4.0419 a.u. =    10.2735 debye 
 
 ------------------------------------------------------------------------------
                     quadrupole moment
 ------------------------------------------------------------------------------
  xx    1260.153924   -1312.687387     -52.533464
  yy     261.721411    -300.285020     -38.563609
  zz       0.138174     -45.540093     -45.401919
  xy       0.000117      -0.001103      -0.000986
  xz       1.857908      -0.553418       1.304490
  yz       0.000015      -0.000177      -0.000162
 
     1/3  trace=     -45.499664
     anisotropy=      12.308298
 
 ==============================================================================
 


    ------------------------------------------------------------------------
         total  cpu-time :  8 minutes and 54 seconds
         total wall-time :  8 minutes and 56 seconds
    ------------------------------------------------------------------------


   ****  dscf : all done  ****


    2023-02-13 19:52:43.213 

