 operating system is UNIX !
 hostname is         dlt16.abaxnet

 dscf (dlt16.abaxnet) : TURBOMOLE V6.6( 19103 ) 21 May 2014 at 15:45:05
 Copyright (C) 2014 TURBOMOLE GmbH, Karlsruhe


    2023-02-14 04:16:15.993 



                             d s c f - program

                   idea & directorship : reinhart ahlrichs
                   program development : marco haeser
                                         michael baer
                           dft version : oliver treutler


                          quantum chemistry group
                          universitaet  karlsruhe
                                  germany




                          References             
                                                 
          TURBOMOLE:                             
              R. Ahlrichs, M. Baer, M. Haeser, H. Horn, and
              C. Koelmel
              Electronic structure calculations on workstation
              computers: the program system TURBOMOLE
              Chem. Phys. Lett. 162: 165 (1989)
          Density Functional:                              
              O. Treutler and R. Ahlrichs                      
              Efficient Molecular Numerical Integration Schemes
              J. Chem. Phys. 102: 346 (1995)                   
          Parallel Version:                                
              Performance of parallel TURBOMOLE for Density    
              Functional Calculations                          
              M. v. Arnim and R. Ahlrichs                      
              J. Comp. Chem. 19: 1746 (1998)                   
                                         




              +--------------------------------------------------+
              | Atomic coordinate, charge and isotop information |
              +--------------------------------------------------+

                    atomic coordinates            atom    charge  isotop
         -1.25887898   -2.28332963   -0.02494864    c      6.000     0
         -2.55749311    0.00000000   -0.02369197    c      6.000     0
         -1.25887709    2.28332963   -0.02495431    c      6.000     0
          1.33208862    2.28500771   -0.02695175    c      6.000     0
          2.68682384    0.00000000   -0.02643774    c      6.000     0
          1.33208673   -2.28500771   -0.02694608    c      6.000     0
         -2.29779371   -4.03823136   -0.02237105    h      1.000     0
         -2.29779182    4.03823325   -0.02238050    h      1.000     0
          2.35121792    4.05719665   -0.02923454    h      1.000     0
          2.35121792   -4.05719476   -0.02922320    h      1.000     0
         -5.27331869    0.00000000   -0.01799633    n      7.000     0
         -6.38120465    2.02694482   -0.01556804    o      8.000     0
         -6.38120276   -2.02694671   -0.01558315    o      8.000     0
          5.24411273    0.00000000   -0.07034742    n      7.000     0
          6.20450746    1.61720306    0.18832019    h      1.000     0
          6.20450557   -1.61720495    0.18831452    h      1.000     0
 
       center of nuclear mass  :   -1.36593396   -0.00000021   -0.02395682
       center of nuclear charge:   -1.22407413   -0.00000018   -0.02108018

   *************************************************************************
   ADC(2) - opt by CAM-B3LYP gaussian                                       
   *************************************************************************



              +--------------------------------------------------+
              |               basis set information              |
              +--------------------------------------------------+

              we will work with the 1s 3p 5d 7f 9g ... basis set
              ...i.e. with spherical basis functions...

   type   atoms  prim   cont   basis
   ---------------------------------------------------------------------------
    c        6     52     37   def2-TZVPD   [6s3p3d1f|12s6p3d1f]
    h        6     11      9   def2-TZVPD   [3s2p|5s2p]
    n        2     52     37   def2-TZVPD   [6s3p3d1f|12s6p3d1f]
    o        2     55     40   def2-TZVPD   [6s4p3d1f|12s7p3d1f]
   ---------------------------------------------------------------------------
   total:   16    592    430
   ---------------------------------------------------------------------------

   total number of primitive shells          :   74
   total number of contracted shells         :  162
   total number of cartesian basis functions :  490
   total number of SCF-basis functions       :  430

 ==============================================================================
                      COSMO switched on
 ==============================================================================
 COSMO: skip init. and read data from file
 This run uses frozen charges (from previous solvent iteration)
 Work to create reaction field =   2.227709831993715E-002

 integral neglect threshold       :  0.68E-11
 integral storage threshold THIZE :  0.10E-04
 integral storage threshold THIME :         5


 DENSITY CONVERGENCE CHECK SWITCHED ON !
 SCF CONVERGENCE IF RMS(delta[D]) <     0.1000000000E-07


 symmetry group of the molecule :   c1 

 the group has the following generators :
   c1(z)

    1 symmetry operations found

 there are 1 real representations :   a   

 maximum number of shells which are related by symmetry :  1


    mo occupation :
   irrep   mo's   occupied
    a      430       36
 
 number of basis functions   :          430
 number of occupied orbitals :           36
 

          ------------------------
          nuclear repulsion energy  :   498.683037867    
          ------------------------

 
          -----------------
          -S,T+V- integrals
          -----------------

 1e-integrals will be neglected if expon. factor < 0.682033E-12
 
   Difference densities algorithm switched on.
   The maximal number of linear combinations of
   difference densities is          20 .

 automatic virtual orbital shift switched on 
      shift if e(lumo)-e(homo) < 0.10000000    


 DIIS switched on: error vector is FDS-SDF
 Max. Iterations for DIIS is     :   5
 DIIS matrix (see manual) 
    Scaling factor of diagonals  :  1.200
    threshold for scaling factor :  0.000

 scf convergence criterion : increment of total energy < .1000000D-06
                  and increment of one-electron energy < .1000000D-03

  MOs are in ASCII format !


 reading orbital data $scfmo  from file mos . 

 orbital characterization : scfconv=7
 

 DSCF restart information will be dumped onto file mos

 COSMO: use frozen qcos
 
                                              current damping :  0.300
 ITERATION  ENERGY          1e-ENERGY        2e-ENERGY     RMS[dD(SAO)]   TOL
   1  -489.42221905840    -1655.9647751     667.85951815    0.000D+00 0.680D-11
                          Ediel =    -0.024775645757
          max. resid. norm for Fia-block=  8.233D-05 for orbital     31a         
          max. resid. fock norm         =  1.924D-04 for orbital    120a         
          Delta Eig. =     0.0042955346 eV 
 COSMO: use frozen qcos
 
                                              current damping :  0.300
 ITERATION  ENERGY          1e-ENERGY        2e-ENERGY     RMS[dD(SAO)]   TOL
   2  -489.42221914119    -1655.9653769     667.86011989    0.838D-05 0.431D-11
                          Ediel =    -0.024758055892
          Norm of current diis error: 0.41857E-03
          max. resid. norm for Fia-block=  3.293D-05 for orbital     31a         
          max. resid. fock norm         =  4.086D-05 for orbital    301a         
          Delta Eig. =     0.0017602498 eV 
 COSMO: use frozen qcos
 
                                              current damping :  0.350
 ITERATION  ENERGY          1e-ENERGY        2e-ENERGY     RMS[dD(SAO)]   TOL
   3  -489.42221915543    -1655.9652417     667.85998464    0.258D-05 0.345D-11
                          Ediel =    -0.024752395828
          Norm of current diis error: 0.18287E-03
          max. resid. norm for Fia-block=  2.069D-05 for orbital     36a         
          max. resid. fock norm         =  2.469D-05 for orbital     37a         
          Delta Eig. =     0.0003253650 eV 
 COSMO: use frozen qcos
 
                                              current damping :  0.400
 ITERATION  ENERGY          1e-ENERGY        2e-ENERGY     RMS[dD(SAO)]   TOL
   4  -489.42221915961    -1655.9652778     667.86002075    0.101D-05 0.297D-11
                          Ediel =    -0.024749033689
          Norm of current diis error: 0.10319E-03
          max. resid. norm for Fia-block=  1.301D-05 for orbital     36a         
          max. resid. fock norm         =  1.596D-05 for orbital    187a         
          Delta Eig. =     0.0002570520 eV 
 COSMO: use frozen qcos
 
                                              current damping :  0.450
 ITERATION  ENERGY          1e-ENERGY        2e-ENERGY     RMS[dD(SAO)]   TOL
   5  -489.42221916031    -1655.9652683     667.86001123    0.589D-06 0.267D-11
                          Ediel =    -0.024747408465
          Norm of current diis error: 0.58425E-04
          max. resid. norm for Fia-block=  8.852D-06 for orbital     36a         
          max. resid. fock norm         =  1.468D-05 for orbital    131a         
 mo-orthogonalization: Cholesky decomposition
          Delta Eig. =     0.0001732591 eV 
 COSMO: use frozen qcos

 ENERGY & DENSITY CONVERGED !

 
                                              current damping :  0.300
 ITERATION  ENERGY          1e-ENERGY        2e-ENERGY     RMS[dD(SAO)]   TOL
   6  -489.42221915865    -1655.9652646     667.86000754    0.480D-06 0.244D-11
                          Ediel =    -0.024746542270
          max. resid. norm for Fia-block=  2.919D-06 for orbital     36a         
          max. resid. fock norm         =  1.647D-05 for orbital    131a         
 COSMO: write data to file cosmotransfer

 convergence criteria satisfied after  6 iterations


   *************************************************************************
   ADC(2) - opt by CAM-B3LYP gaussian                                       
   *************************************************************************


                  ------------------------------------------ 
                 |  total energy      =   -489.42221915865  |
                  ------------------------------------------ 
                 :  kinetic energy    =    488.91186621360  :
                 :  potential energy  =   -978.33408537225  :
                 :  virial theorem    =      1.99895723381  :
                 :  wavefunction norm =      1.00000000000  :
                  .......................................... 


 orbitals $scfmo  will be written to file mos

    irrep                 32a         33a         34a         35a         36a   
 eigenvalues H         -0.49205    -0.47311    -0.46345    -0.36713    -0.31370
            eV         -13.3894    -12.8740    -12.6112     -9.9903     -8.5364
 occupation              2.0000      2.0000      2.0000      2.0000      2.0000 

    irrep                 37a         38a         39a         40a         41a   
 eigenvalues H          0.04537     0.06823     0.08091     0.08373     0.10341
            eV           1.2346      1.8567      2.2018      2.2785      2.8139
 
 ==============================================================================
                                  COSMO RESULTS
 ==============================================================================
  PARAMETER:
    nppa:      1082
    nspa:        92
    nsph:        32
    nps:        667
    npspher:    311
    disex:   10.0000    
    disex2:  4409.67    
    rsolv [A]: 1.3000
    routf:     0.8500
    phsran:    0.0    
    ampran:   0.10E-04
    cavity:  closed
    epsilon:    35.688
    refind:     1.300
    fepsi:      0.9585498
  CAVITY VOLUME/AREA [a.u.]:
    surface: V1.0, A matrix: V1.0
    area:   572.85
    volume:  1038.42
  SCREENING CHARGE:
    cosmo      :  -0.029772
    correction :   0.029097
    total      :  -0.000675
  ENERGIES [a.u.]:
    Total energy            =     -489.4222191586
    Total energy + OC corr. =     -489.4218587845
    Dielectric energy       =       -0.0247465423
    Diel. energy + OC corr. =       -0.0243861681
  ELEMENT RADIUS [A]: ATOM LIST
    c  2.00: 1-6
    h  1.30: 7-10,15,16
    n  1.83: 11,14
    o  1.72: 12,13
 ==============================================================================
 
 
 
 ==============================================================================
                           electrostatic moments
 ==============================================================================
 
              nuc           elec       ->  total
 ------------------------------------------------------------------------------
                          charge      
 ------------------------------------------------------------------------------
          72.000000     -72.000000      -0.000000
 
 ------------------------------------------------------------------------------
                       dipole moment  
 ------------------------------------------------------------------------------
   x     -88.133337      92.165973       4.032635
   y      -0.000013      -0.000100      -0.000113
   z      -1.517773       1.724230       0.206457
 
   | dipole moment | =     4.0379 a.u. =    10.2634 debye 
 
 ------------------------------------------------------------------------------
                     quadrupole moment
 ------------------------------------------------------------------------------
  xx    1260.153924   -1312.664099     -52.510175
  yy     261.721411    -300.285983     -38.564572
  zz       0.138174     -45.540948     -45.402774
  xy       0.000117      -0.001123      -0.001007
  xz       1.857908      -0.553655       1.304253
  yz       0.000015      -0.000160      -0.000145
 
     1/3  trace=     -45.492507
     anisotropy=      12.287442
 
 ==============================================================================
 


    ------------------------------------------------------------------------
         total  cpu-time :  6 minutes and 33 seconds
         total wall-time :  6 minutes and 35 seconds
    ------------------------------------------------------------------------


   ****  dscf : all done  ****


    2023-02-14 04:22:50.756 

