 operating system is UNIX !
 hostname is         dlt16.abaxnet

 dscf (dlt16.abaxnet) : TURBOMOLE V6.6( 19103 ) 21 May 2014 at 15:45:05
 Copyright (C) 2014 TURBOMOLE GmbH, Karlsruhe


    2023-02-13 01:13:05.283 



                             d s c f - program

                   idea & directorship : reinhart ahlrichs
                   program development : marco haeser
                                         michael baer
                           dft version : oliver treutler


                          quantum chemistry group
                          universitaet  karlsruhe
                                  germany




                          References             
                                                 
          TURBOMOLE:                             
              R. Ahlrichs, M. Baer, M. Haeser, H. Horn, and
              C. Koelmel
              Electronic structure calculations on workstation
              computers: the program system TURBOMOLE
              Chem. Phys. Lett. 162: 165 (1989)
          Density Functional:                              
              O. Treutler and R. Ahlrichs                      
              Efficient Molecular Numerical Integration Schemes
              J. Chem. Phys. 102: 346 (1995)                   
          Parallel Version:                                
              Performance of parallel TURBOMOLE for Density    
              Functional Calculations                          
              M. v. Arnim and R. Ahlrichs                      
              J. Comp. Chem. 19: 1746 (1998)                   
                                         




              +--------------------------------------------------+
              | Atomic coordinate, charge and isotop information |
              +--------------------------------------------------+

                    atomic coordinates            atom    charge  isotop
         -1.25887898   -2.28332963   -0.02494864    c      6.000     0
         -2.55749311    0.00000000   -0.02369197    c      6.000     0
         -1.25887709    2.28332963   -0.02495431    c      6.000     0
          1.33208862    2.28500771   -0.02695175    c      6.000     0
          2.68682384    0.00000000   -0.02643774    c      6.000     0
          1.33208673   -2.28500771   -0.02694608    c      6.000     0
         -2.29779371   -4.03823136   -0.02237105    h      1.000     0
         -2.29779182    4.03823325   -0.02238050    h      1.000     0
          2.35121792    4.05719665   -0.02923454    h      1.000     0
          2.35121792   -4.05719476   -0.02922320    h      1.000     0
         -5.27331869    0.00000000   -0.01799633    n      7.000     0
         -6.38120465    2.02694482   -0.01556804    o      8.000     0
         -6.38120276   -2.02694671   -0.01558315    o      8.000     0
          5.24411273    0.00000000   -0.07034742    n      7.000     0
          6.20450746    1.61720306    0.18832019    h      1.000     0
          6.20450557   -1.61720495    0.18831452    h      1.000     0
 
       center of nuclear mass  :   -1.36593396   -0.00000021   -0.02395682
       center of nuclear charge:   -1.22407413   -0.00000018   -0.02108018

   *************************************************************************
   ADC(2) - opt by CAM-B3LYP gaussian                                       
   *************************************************************************



              +--------------------------------------------------+
              |               basis set information              |
              +--------------------------------------------------+

              we will work with the 1s 3p 5d 7f 9g ... basis set
              ...i.e. with spherical basis functions...

   type   atoms  prim   cont   basis
   ---------------------------------------------------------------------------
    c        6     52     37   def2-TZVPD   [6s3p3d1f|12s6p3d1f]
    h        6     11      9   def2-TZVPD   [3s2p|5s2p]
    n        2     52     37   def2-TZVPD   [6s3p3d1f|12s6p3d1f]
    o        2     55     40   def2-TZVPD   [6s4p3d1f|12s7p3d1f]
   ---------------------------------------------------------------------------
   total:   16    592    430
   ---------------------------------------------------------------------------

   total number of primitive shells          :   74
   total number of contracted shells         :  162
   total number of cartesian basis functions :  490
   total number of SCF-basis functions       :  430

 ==============================================================================
                      COSMO switched on
 ==============================================================================
 COSMO stati: segments per atom: H   32 other atoms   92

 symmetry group of the molecule :   c1 

 the group has the following generators :
   c1(z)

    1 symmetry operations found
 COSMO statistics: nps    667 npspher:    311

 symmetry group of the molecule :   c1 

 the group has the following generators :
   c1(z)

    1 symmetry operations found
 COSMO surface:
   number of segments:  667
   area (bohr**2):      572.846375
   volume (bohr**3):   1038.421860
 COSMO: check number of disjunct cavities:

       ... OK contiguous cavity found

 integral neglect threshold       :  0.68E-11
 integral storage threshold THIZE :  0.10E-04
 integral storage threshold THIME :         5


 DENSITY CONVERGENCE CHECK SWITCHED ON !
 SCF CONVERGENCE IF RMS(delta[D]) <     0.1000000000E-07


 symmetry group of the molecule :   c1 

 the group has the following generators :
   c1(z)

    1 symmetry operations found

 there are 1 real representations :   a   

 maximum number of shells which are related by symmetry :  1


    mo occupation :
   irrep   mo's   occupied
    a      430       36
 
 number of basis functions   :          430
 number of occupied orbitals :           36
 

          ------------------------
          nuclear repulsion energy  :   498.683037867    
          ------------------------

 
          -----------------
          -S,T+V- integrals
          -----------------

 1e-integrals will be neglected if expon. factor < 0.682033E-12
 
   Difference densities algorithm switched on.
   The maximal number of linear combinations of
   difference densities is          20 .

 automatic virtual orbital shift switched on 
      shift if e(lumo)-e(homo) < 0.10000000    


 DIIS switched on: error vector is FDS-SDF
 Max. Iterations for DIIS is     :   5
 DIIS matrix (see manual) 
    Scaling factor of diagonals  :  1.200
    threshold for scaling factor :  0.000

 scf convergence criterion : increment of total energy < .1000000D-06
                  and increment of one-electron energy < .1000000D-03

  MOs are in ASCII format !


 reading orbital data $scfmo  from file mos . 

 orbital characterization : scfconv=7
 

 DSCF restart information will be dumped onto file mos

 
                                              current damping :  0.300
 ITERATION  ENERGY          1e-ENERGY        2e-ENERGY     RMS[dD(SAO)]   TOL
   1  -489.42259230068    -1655.9418647     667.83623449    0.000D+00 0.680D-11
                          Ediel =    -0.025691371965
          max. resid. norm for Fia-block=  3.599D-07 for orbital     35a         
          max. resid. fock norm         =  7.010D-05 for orbital    187a         
          Delta Eig. =     0.0003742572 eV 
 
                                              current damping :  0.300
 ITERATION  ENERGY          1e-ENERGY        2e-ENERGY     RMS[dD(SAO)]   TOL
   2  -489.42259229991    -1655.9418658     667.83623568    0.105D-05 0.431D-11
                          Ediel =    -0.025691393938
          Norm of current diis error: 0.35534E-05
          max. resid. norm for Fia-block=  3.844D-07 for orbital     22a         
          max. resid. fock norm         =  3.101D-05 for orbital    190a         
          Delta Eig. =     0.0002981550 eV 

 ENERGY & DENSITY CONVERGED !

 
                                              current damping :  0.350
 ITERATION  ENERGY          1e-ENERGY        2e-ENERGY     RMS[dD(SAO)]   TOL
   3  -489.42259230296    -1655.9418658     667.83623562    0.600D-06 0.337D-11
                          Ediel =    -0.025691416988
          max. resid. norm for Fia-block=  1.722D-07 for orbital     35a         
          max. resid. fock norm         =  1.417D-05 for orbital    187a         
 COSMO: write data to file cosmotransfer

 convergence criteria satisfied after  3 iterations


   *************************************************************************
   ADC(2) - opt by CAM-B3LYP gaussian                                       
   *************************************************************************


                  ------------------------------------------ 
                 |  total energy      =   -489.42259230296  |
                  ------------------------------------------ 
                 :  kinetic energy    =    488.91146062706  :
                 :  potential energy  =   -978.33405293002  :
                 :  virial theorem    =      1.99895564348  :
                 :  wavefunction norm =      1.00000000000  :
                  .......................................... 


 orbitals $scfmo  will be written to file mos

    irrep                 32a         33a         34a         35a         36a   
 eigenvalues H         -0.49405    -0.47204    -0.46670    -0.36577    -0.31307
            eV         -13.4440    -12.8449    -12.6996     -9.9532     -8.5190
 occupation              2.0000      2.0000      2.0000      2.0000      2.0000 

    irrep                 37a         38a         39a         40a         41a   
 eigenvalues H          0.04425     0.06787     0.08017     0.08364     0.10282
            eV           1.2040      1.8468      2.1817      2.2759      2.7979
 
 ==============================================================================
                                  COSMO RESULTS
 ==============================================================================
  PARAMETER:
    nppa:      1082
    nspa:        92
    nsph:        32
    nps:        667
    npspher:    311
    disex:   10.0000    
    disex2:  4409.67    
    rsolv [A]: 1.3000
    routf:     0.8500
    phsran:    0.0    
    ampran:   0.10E-04
    cavity:  closed
    epsilon:    35.688
    refind:     1.300
    fepsi:      0.9585498
  CAVITY VOLUME/AREA [a.u.]:
    surface: V1.0, A matrix: V1.0
    area:   572.85
    volume:  1038.42
  SCREENING CHARGE:
    cosmo      :  -0.025639
    correction :   0.024865
    total      :  -0.000775
  ENERGIES [a.u.]:
    Total energy            =     -489.4225923030
    Total energy + OC corr. =     -489.4228737981
    Dielectric energy       =       -0.0256914170
    Diel. energy + OC corr. =       -0.0259729121
  ELEMENT RADIUS [A]: ATOM LIST
    c  2.00: 1-6
    h  1.30: 7-10,15,16
    n  1.83: 11,14
    o  1.72: 12,13
 ==============================================================================
 
 
 
 ==============================================================================
                           electrostatic moments
 ==============================================================================
 
              nuc           elec       ->  total
 ------------------------------------------------------------------------------
                          charge      
 ------------------------------------------------------------------------------
          72.000000     -72.000000      -0.000000
 
 ------------------------------------------------------------------------------
                       dipole moment  
 ------------------------------------------------------------------------------
   x     -88.133337      92.223705       4.090367
   y      -0.000013      -0.000382      -0.000395
   z      -1.517773       1.726831       0.209058
 
   | dipole moment | =     4.0957 a.u. =    10.4102 debye 
 
 ------------------------------------------------------------------------------
                     quadrupole moment
 ------------------------------------------------------------------------------
  xx    1260.153924   -1313.235200     -53.081276
  yy     261.721411    -300.259200     -38.537789
  zz       0.138174     -45.528555     -45.390381
  xy       0.000117      -0.001203      -0.001086
  xz       1.857908      -0.543221       1.314687
  yz       0.000015      -0.000626      -0.000612
 
     1/3  trace=     -45.669815
     anisotropy=      12.806079
 
 ==============================================================================
 


    ------------------------------------------------------------------------
         total  cpu-time :  3 minutes and 19 seconds
         total wall-time :  3 minutes and 20 seconds
    ------------------------------------------------------------------------


   ****  dscf : all done  ****


    2023-02-13 01:16:24.864 

