 operating system is UNIX !
 hostname is         i74-desk

 ridft (i74-desk) : TURBOMOLE V6.6( 19103 ) 21 May 2014 at 15:45:05
 Copyright (C) 2014 TURBOMOLE GmbH, Karlsruhe


    2024-04-12 21:34:11.424 



                                  r i d f t

                        DFT program with RI approximation 
                                for coulomb part 




                                                 
                                 References:     
                                                 
          TURBOMOLE:                             
              R. Ahlrichs, M. Baer, M. Haeser, H. Horn, and
              C. Koelmel
              Electronic structure calculations on workstation
              computers: the program system TURBOMOLE
              Chem. Phys. Lett. 162: 165 (1989)
          Density Functional:                              
              O. Treutler and R. Ahlrichs                      
              Efficient Molecular Numerical Integration Schemes
              J. Chem. Phys. 102: 346 (1995)                   
          Parallel Version:                                
              Performance of parallel TURBOMOLE for Density    
              Functional Calculations                          
              M. v. Arnim and R. Ahlrichs                      
              J. Comp. Chem. 19: 1746 (1998)                   
          RI-J Method:                                     
              Auxiliary Basis Sets to approximate Coulomb      
              Potentials                                       
              Chem. Phys. Lett. 240: 283 (1995)                
              K. Eichkorn, O. Treutler, H. Oehm, M. Haeser     
              and R. Ahlrichs                                  
              Chem. Phys. Lett. 242: 652 (1995)                
                                                           
              Auxiliary Basis Sets for Main Row Atoms and their
              Use to approximate Coulomb Potentials            
              K. Eichkorn, F. Weigend, O. Treutler and         
              R. Ahlrichs                                      
              Theo. Chem. Acc. 97: 119 (1997)                   
                                                           
              Accurate Coulomb-fitting basis sets for H to Rn 
              F. Weigend                                        
              Phys. Chem. Chem. Phys. 8: 1057 (2006)            
                                                           
          Multipole accelerated RI-J (MARI-J):             
              Fast evaluation of the Coulomb potential for     
              electron densities using multipole accelerated   
              resolution of identity approximation             
              M. Sierka, A. Hogekamp and R. Ahlrichs           
              J. Chem. Phys. 118: 9136 (2003)                  
          RI-JK Method:                                     
              A fully direct RI-HF algorithm: Implementation,
              optimised auxiliary basis sets, demonstration of
              accuracy and efficiency                         
              F. Weigend                                      
              Phys. Chem. Chem. Phys. 4: 4285 (2002)           
          Two-component HF and DFT with spin-orbit coupling:  
              Self-consistent treatment of spin-orbit         
              interactions with efficient Hartree-Fock and    
              density functional methods                      
              M. K. Armbruster, F. Weigend, C. van Wüllen and 
              W. Klopper                                      
          Relativistic all-electron 2c calculations           
              An efficient implementation of two-component    
              relativistic exact-decoupling methods for large 
              molecules                                       
              D. Peng, N. Middendorf, F. Weigend, M. Reiher   
              J. Chem. Phys. 138, 184105 (2013)               
                                         


 


              +--------------------------------------------------+
              |      general information about current run       |
              +--------------------------------------------------+

 
 PBE functional
 exchange:    LDA + PBE
 correlation: LDA (PW) + PBE
 A DFT calculation using the RI-J approximation will be carried out.
 Allocatable memory for RI due to $ricore (MB):        1200
 Multipole approximation for Coulomb integrals is used


              +--------------------------------------------------+
              | Atomic coordinate, charge and isotop information |
              +--------------------------------------------------+

                    atomic coordinates            atom    charge  isotop
          2.62715396    0.00000000    0.00000000    c      6.000     0
          0.00000000    0.00000000    0.00000000    c      6.000     0
         -1.34248034    2.25824163    0.00000000    c      6.000     0
         -0.06302237    4.51094635    0.00056692    c      6.000     0
          2.59336566    4.55873753    0.00249444    c      6.000     0
          3.90971109    2.25090949    0.00056692    c      6.000     0
          3.63910231   -1.77057890    0.00147399    h      1.000     0
         -3.38155153    2.22333838    0.00147399    h      1.000     0
         -1.09938597    6.27304038   -0.00066140    h      1.000     0
          5.95399792    2.26052819   -0.00058582    h      1.000     0
         -1.34232916   -2.35962543    0.00300466    n      7.000     0
         -3.65236818   -2.32113171    0.00430858    o      8.000     0
         -0.12880373   -4.32558312    0.00430858    o      8.000     0
          3.85736567    6.78060193   -0.03705753    n      7.000     0
          2.92680783    8.41653784    0.21238632    h      1.000     0
          5.73909827    6.81669570    0.21240522    h      1.000     0
 
       center of nuclear mass  :    0.58932485    1.03593027    0.00097282
       center of nuclear charge:    0.65947663    1.15924567    0.00387263

              +--------------------------------------------------+
              |               basis set information              |
              +--------------------------------------------------+

              we will work with the 1s 3p 5d 7f 9g ... basis set
              ...i.e. with spherical basis functions...

   type   atoms  prim   cont   basis
   ---------------------------------------------------------------------------
    c        6     19      9   SV   [3s2p|7s4p]
    h        6      4      2   SV   [2s|4s]
    n        2     19      9   SV   [3s2p|7s4p]
    o        2     19      9   SV   [3s2p|7s4p]
   ---------------------------------------------------------------------------
   total:   16    214    102
   ---------------------------------------------------------------------------

   total number of primitive shells          :   37
   total number of contracted shells         :   62
   total number of cartesian basis functions :  102
   total number of SCF-basis functions       :  102


 integral neglect threshold       :  0.33E-09
 integral storage threshold THIZE :  0.10E-04
 integral storage threshold THIME :         5

 RI-J AUXILIARY BASIS SET information:

              we will work with the 1s 3p 5d 7f 9g ... basis set
              ...i.e. with spherical basis functions...

   type   atoms  prim   cont   basis
   ---------------------------------------------------------------------------
    c        6     39     37   SV   [6s3p3d1f|8s3p3d1f]
    h        6     10      5   SV   [2s1p|4s2p]
    n        2     70     49   universal   [6s4p3d1f1g|12s5p4d2f1g]
    o        2     70     49   universal   [6s4p3d1f1g|12s5p4d2f1g]
   ---------------------------------------------------------------------------
   total:   16    574    448
   ---------------------------------------------------------------------------

   total number of primitive shells          :   69
   total number of contracted shells         :  156
   total number of cartesian basis functions :  532
   total number of SCF-basis functions       :  448


 symmetry group of the molecule :   c1 

 the group has the following generators :
   c1(z)

    1 symmetry operations found

 there are 1 real representations :   a   

 maximum number of shells which are related by symmetry :  1


    mo occupation :
   irrep   mo's   occupied
    a      102       36
 
 number of basis functions   :          102
 number of occupied orbitals :           36
 
  
           ------------------
           density functional
           ------------------
 PBE functional
 exchange:    LDA + PBE
 correlation: LDA (PW) + PBE
 iterations will be done with small grid
  
 spherical integration : Lebedev's spherical grid
 spherical gridsize    :           3
    i.e. gridpoints    :         302
 value for diffuse not defined
 radial integration    : Chebyshev 2nd kind (scaling 3)
 radial gridsize       :           3
 integration cells     :          16
 partition function    : becke
 partition sharpness   :           3
  

 biggest AO integral is expected to be     4.776656448
  
           ------------------------
               RI-J - INFORMATION
           ------------------------
 
    +---------------- Multipole Accelerated RI-J ---------------+
    -------------------------------------------------------------
      Number of bins for density partition        :  8
      Maximum multipole moment used               : 14
      Multipole precision parameter               :  1.0000E-08
      Threshold for moment summation              :  1.0000E-24
      Minimum separation between boxes            :  0.0000E+00
      Maximum allowed extent                      :  2.0000E+01
    +-----------------------------------------------------------+
 
 Extensions and centers of shell-pairs:
  number of shells with a single center:     1668
  number of shells with double centers:       100
 Contributions to RI integral batches: 
  neglected integral batches:             185
  multipole/direct contribution:            0
  multipole/memory contribution:         1768
 Memory core needed for (P|Q) and Cholesky      2 MByte
 Memory core minimum needed except of (P|Q)     1 MByte
 Total minimum memory core needed (sum)         2 MByte
  
 ****************************************
 Memory allocated for RI-J    22 MByte
 ****************************************
                                            

          ------------------------
          nuclear repulsion energy  :   498.687353864    
          ------------------------

 
          -----------------
          -S,T+V- integrals
          -----------------

 1e-integrals will be neglected if expon. factor < 0.327643E-10

------------------------------------------------------------------------
 point charges
------------------------------------------------------------------------

 number of point charges read in =     323700

 distance threshold set to   0.10D-05

No check for symmetry or overlap of point charges - nocheck keyword found !


 nuclear electrostatic interaction energy :   0.777978362335    

 
   Difference densities algorithm switched on.
   The maximal number of linear combinations of
   difference densities is          20 .

 automatic virtual orbital shift switched on 
      shift if e(lumo)-e(homo) < 0.10000000    


 DIIS switched on: error vector is FDS-SDF
 Max. Iterations for DIIS is     :   4
 DIIS matrix (see manual) 
    Scaling factor of diagonals  :  1.200
    threshold for scaling factor :  0.000

 scf convergence criterion : increment of total energy < .1000000D-05
                  and increment of one-electron energy < .1000000D-02


 <geterg> : there is no data group $energy 

  MOs are in ASCII format !


 reading orbital data $scfmo  from file mos . 

 orbital characterization : expanded
 
 mo provided and orthogonalized by Cholesky decomposition

 DSCF restart information will be dumped onto file mos


 Starting SCF iterations

          Overall gridpoints after grid construction =         22615

 ITERATION  ENERGY          1e-ENERGY        2e-ENERGY     NORM[dD(SAO)]  TOL
   1  -489.41574169840    -1642.3653784     653.48430450    0.000D+00 0.327D-09
                            Exc = -64.3029395891     Coul =  717.787244089    
                              N = 71.996650286    
                            current damping = 0.700
 
          max. resid. norm for Fia-block=  3.737D-01 for orbital     22a         
          max. resid. fock norm         =  5.481D-01 for orbital     45a         

 ITERATION  ENERGY          1e-ENERGY        2e-ENERGY     NORM[dD(SAO)]  TOL
   2  -490.81938282685    -1651.5821839     661.29746884    0.245D+01 0.207D-09
                            Exc = -64.7126045965     Coul =  726.010073435    
                              N = 71.997817585    
                            current damping = 0.650
 
          Norm of current diis error:  1.2028    
          max. resid. norm for Fia-block=  1.533D-01 for orbital     11a         
          max. resid. fock norm         =  2.033D-01 for orbital     40a         

 ITERATION  ENERGY          1e-ENERGY        2e-ENERGY     NORM[dD(SAO)]  TOL
   3  -491.03775072343    -1655.4049515     664.90186853    0.872D+00 0.162D-09
                            Exc = -65.1132810088     Coul =  730.015149535    
                              N = 71.998233968    
                            current damping = 0.550
 
          Norm of current diis error: 0.60212    
          max. resid. norm for Fia-block=  5.093D-02 for orbital     13a         
          max. resid. fock norm         =  6.929D-02 for orbital     49a         

 ITERATION  ENERGY          1e-ENERGY        2e-ENERGY     NORM[dD(SAO)]  TOL
   4  -491.10289921558    -1655.8883726     665.32014114    0.406D+00 0.144D-09
                            Exc = -65.1176302995     Coul =  730.437771442    
                              N = 71.998382728    
                            current damping = 0.400
 
          Norm of current diis error: 0.23533    
          max. resid. norm for Fia-block=  2.884D-02 for orbital     11a         
          max. resid. fock norm         =  3.476D-02 for orbital     11a         

 ITERATION  ENERGY          1e-ENERGY        2e-ENERGY     NORM[dD(SAO)]  TOL
   5  -491.11353046787    -1657.0185258     666.43966309    0.174D+00 0.134D-09
                            Exc = -65.2241023795     Coul =  731.663765467    
                              N = 71.998482297    
                            current damping = 0.300
 
          Norm of current diis error: 0.10586    
          max. resid. norm for Fia-block=  7.912D-03 for orbital     13a         
          max. resid. fock norm         =  1.411D-02 for orbital     15a         
          mo-orthogonalization: Cholesky decomposition

 ITERATION  ENERGY          1e-ENERGY        2e-ENERGY     NORM[dD(SAO)]  TOL
   6  -491.11513558321    -1657.1920601     666.61159232    0.802D-01 0.128D-09
                            Exc = -65.2309870569     Coul =  731.842579373    
                              N = 71.998496332    
                            current damping = 0.150
 
          Norm of current diis error: 0.54777E-01
          max. resid. norm for Fia-block=  3.660D-03 for orbital     34a         
          max. resid. fock norm         =  6.337D-03 for orbital     15a         

 ITERATION  ENERGY          1e-ENERGY        2e-ENERGY     NORM[dD(SAO)]  TOL
   7  -491.11544073793    -1656.9923164     666.41154344    0.496D-01 0.127D-09
                            Exc = -65.2194885759     Coul =  731.631032015    
                              N = 71.998508729    
                            current damping = 0.200
 
          Norm of current diis error: 0.31744E-01
          max. resid. norm for Fia-block=  2.677D-03 for orbital     36a         
          max. resid. fock norm         =  4.410D-03 for orbital     23a         
          irrep a   : virtual orbitals shifted by    0.00088

 ITERATION  ENERGY          1e-ENERGY        2e-ENERGY     NORM[dD(SAO)]  TOL
   8  -491.11558435695    -1657.1291705     666.54825389    0.252D-01 0.126D-09
                            Exc = -65.2282342585     Coul =  731.776488145    
                              N = 71.998508881    
                            current damping = 0.250
 
          Norm of current diis error: 0.24547E-01
          max. resid. norm for Fia-block=  1.746D-03 for orbital     36a         
          max. resid. fock norm         =  2.419D-03 for orbital     23a         

 ITERATION  ENERGY          1e-ENERGY        2e-ENERGY     NORM[dD(SAO)]  TOL
   9  -491.11572589919    -1657.1566806     666.57562245    0.484D-02 0.125D-09
                            Exc = -65.2322152881     Coul =  731.807837740    
                              N = 71.998509434    
                            current damping = 0.100
 
          Norm of current diis error: 0.79223E-02
          max. resid. norm for Fia-block=  5.011D-04 for orbital     36a         
          max. resid. fock norm         =  6.660D-04 for orbital     23a         
          irrep a   : virtual orbitals shifted by    0.00774

 ITERATION  ENERGY          1e-ENERGY        2e-ENERGY     NORM[dD(SAO)]  TOL
  10  -491.11573217749    -1657.1292425     666.54817812    0.312D-02 0.125D-09
                            Exc = -65.2288561590     Coul =  731.777034278    
                              N = 71.998508909    
                            current damping = 0.150
 
          Norm of current diis error: 0.55886E-02
          max. resid. norm for Fia-block=  4.420D-04 for orbital     32a         
          max. resid. fock norm         =  5.889D-04 for orbital     32a         
          irrep a   : virtual orbitals shifted by    0.00344
          mo-orthogonalization: Cholesky decomposition

 ITERATION  ENERGY          1e-ENERGY        2e-ENERGY     NORM[dD(SAO)]  TOL
  11  -491.11573453711    -1657.1175335     666.53646676    0.255D-02 0.125D-09
                            Exc = -65.2284905405     Coul =  731.764957299    
                              N = 71.998509207    
                            current damping = 0.050
 
          Norm of current diis error: 0.39523E-02
          max. resid. norm for Fia-block=  3.312D-04 for orbital     32a         
          max. resid. fock norm         =  4.410D-04 for orbital     32a         
          irrep a   : virtual orbitals shifted by    0.01169

 ENERGY CONVERGED !

          Overall gridpoints after grid construction =         82402

 ITERATION  ENERGY          1e-ENERGY        2e-ENERGY     NORM[dD(SAO)]  TOL
  12  -491.11609141903    -1657.1191409     666.53771721    0.911D-03 0.124D-09
                            Exc = -65.2290800016     Coul =  731.766797215    
                              N = 72.000054422    
                            current damping = 0.100
 
          Norm of current diis error: 0.25632E-02
          max. resid. norm for Fia-block=  1.250D-04 for orbital     32a         
          max. resid. fock norm         =  2.222D-04 for orbital     15a         

 End of SCF iterations

   convergence criteria satisfied after   12 iterations


                  ------------------------------------------ 
                 |  total energy      =   -491.11609141903  |
                  ------------------------------------------ 
                 :  kinetic energy    =    488.38331299670  :
                 :  potential energy  =   -979.49940441573  :
                 :  virial theorem    =      1.99443557548  :
                 :  wavefunction norm =      1.00000000000  :
                  .......................................... 


 <geterg> : there is no data group $energy 


 <skperg> : $end is missing 


 orbitals $scfmo  will be written to file mos

    irrep                 32a         33a         34a         35a         36a   
 eigenvalues H         -0.28362    -0.27258    -0.25245    -0.24868    -0.20194
            eV          -7.7179     -7.4174     -6.8695     -6.7671     -5.4950
 occupation              2.0000      2.0000      2.0000      2.0000      2.0000 

    irrep                 37a         38a         39a         40a         41a   
 eigenvalues H         -0.11802    -0.04878    -0.01510     0.04821     0.06881
            eV          -3.2116     -1.3273     -0.4108      1.3119      1.8723
 

------------------------------------------------------------------------
 point charges
------------------------------------------------------------------------

 number of point charges read in =     323700

 distance threshold set to   0.10D-05

No check for symmetry or overlap of point charges - nocheck keyword found !

 
 
 
 ==============================================================================
                           electrostatic moments
 ==============================================================================
 
              nuc           elec       ->  sum     point charges -> total
 ------------------------------------------------------------------------------
                          charge      
 ------------------------------------------------------------------------------
          72.000000     -72.000000       0.000000       0.000000       0.000000
 
 ------------------------------------------------------------------------------
                       dipole moment  
 ------------------------------------------------------------------------------
   x      47.482317     -45.208488       2.273829      -5.958811      -3.684982
   y      83.465688     -79.346325       4.119363     -51.740247     -47.620884
   z       0.278829      -0.070232       0.208597      -7.408050      -7.199453
 
   | dipole moment | =    48.3028 a.u. =   122.7734 debye 
 
 ------------------------------------------------------------------------------
                     quadrupole moment
 ------------------------------------------------------------------------------
  xx     510.776340    -547.622643     -36.846304     748.077774     711.231470
  yy    1031.223834   -1061.104187     -29.880352     150.150930     120.270577
  zz       0.100243     -44.073090     -43.972847     397.832651     353.859804
  xy     437.734791    -432.008560       5.726231    -127.829373    -122.103142
  xz       0.730970       0.284482       1.015452    -268.161870    -267.146418
  yz       1.284244       0.440557       1.724801    -109.253297    -107.528496
 
     1/3  trace=     395.120617
     anisotropy=     747.845503
 
 ==============================================================================
 


    ------------------------------------------------------------------------
         total  cpu-time :  24.57 seconds
         total wall-time :  24.65 seconds
    ------------------------------------------------------------------------


   ****  ridft : all done  ****


    2024-04-12 21:34:36.072 

