[Molden Format]
[Title]
ADC(2) - opt by CAM-B3LYP gaussian                                              
[Atoms] AU
 c     1    6 -.12588789760523E+01 -.22833296301999E+01 -.24948636837890E-01
 c     2    6 -.25574931053929E+01 0.00000000000000E+00 -.23691968959520E-01
 c     3    6 -.12588770863262E+01 0.22833296301999E+01 -.24954306016290E-01
 c     4    6 0.13320886199507E+01 0.22850077070059E+01 -.26951746538750E-01
 c     5    6 0.26868238359857E+01 0.00000000000000E+00 -.26437741030600E-01
 c     6    6 0.13320867302245E+01 -.22850077070059E+01 -.26946077360350E-01
 h     7    1 -.22977937121289E+01 -.40382313624087E+01 -.22371050392630E-01
 h     8    1 -.22977918224027E+01 0.40382332521348E+01 -.22380499023300E-01
 h     9    1 0.23512179234159E+01 0.40571966538783E+01 -.29234535707270E-01
 h    10    1 0.23512179234159E+01 -.40571947641522E+01 -.29223197350470E-01
 n    11    7 -.52733186864479E+01 0.00000000000000E+00 -.17996334395000E-01
 o    12    8 -.63812046469225E+01 0.20269448165729E+01 -.15568036314240E-01
 o    13    8 -.63812027571964E+01 -.20269467062990E+01 -.15583154123310E-01
 n    14    7 0.52441127328484E+01 0.00000000000000E+00 -.70347417454330E-01
 h    15    1 0.62045074583774E+01 0.16172030580838E+01 0.18832018534119E+00
 h    16    1 0.62045055686513E+01 -.16172049478099E+01 0.18831451616279E+00
[GTO]
    1 0
 s    6 1.00
 0.13575349682000E+05 0.60645503603591E-03
 0.20352333680000E+04 0.46979088884982E-02
 0.46322562359000E+03 0.24332477647552E-01
 0.13120019598000E+03 0.97399968307759E-01
 0.42853015891000E+02 0.30195584253780E+00
 0.15584185766000E+02 0.66233609137875E+00
 s    2 1.00
 0.62067138508000E+01 0.65595308539952E+00
 0.25764896527000E+01 0.37585633285142E+00
 s    1 1.00
 0.57696339419000E+00 0.10000000000000E+01
 s    1 1.00
 0.22972831358000E+00 0.10000000000000E+01
 s    1 1.00
 0.95164440028000E-01 0.10000000000000E+01
 s    1 1.00
 0.48475401370000E-01 0.10000000000000E+01
 p    4 1.00
 0.34697232244000E+02 0.11327220003114E-01
 0.79582622826000E+01 0.76169659202087E-01
 0.23780826883000E+01 0.30192252202676E+00
 0.81433208183000E+00 0.72785027349547E+00
 p    1 1.00
 0.28887547253000E+00 0.10000000000000E+01
 p    1 1.00
 0.10056823671000E+00 0.10000000000000E+01
 d    1 1.00
 0.10970000000000E+01 0.10000000000000E+01
 d    1 1.00
 0.31800000000000E+00 0.10000000000000E+01
 d    1 1.00
 0.90985336424000E-01 0.10000000000000E+01
 f    1 1.00
 0.76100000000000E+00 0.10000000000000E+01
 
    2 0
 s    6 1.00
 0.13575349682000E+05 0.60645503603591E-03
 0.20352333680000E+04 0.46979088884982E-02
 0.46322562359000E+03 0.24332477647552E-01
 0.13120019598000E+03 0.97399968307759E-01
 0.42853015891000E+02 0.30195584253780E+00
 0.15584185766000E+02 0.66233609137875E+00
 s    2 1.00
 0.62067138508000E+01 0.65595308539952E+00
 0.25764896527000E+01 0.37585633285142E+00
 s    1 1.00
 0.57696339419000E+00 0.10000000000000E+01
 s    1 1.00
 0.22972831358000E+00 0.10000000000000E+01
 s    1 1.00
 0.95164440028000E-01 0.10000000000000E+01
 s    1 1.00
 0.48475401370000E-01 0.10000000000000E+01
 p    4 1.00
 0.34697232244000E+02 0.11327220003114E-01
 0.79582622826000E+01 0.76169659202087E-01
 0.23780826883000E+01 0.30192252202676E+00
 0.81433208183000E+00 0.72785027349547E+00
 p    1 1.00
 0.28887547253000E+00 0.10000000000000E+01
 p    1 1.00
 0.10056823671000E+00 0.10000000000000E+01
 d    1 1.00
 0.10970000000000E+01 0.10000000000000E+01
 d    1 1.00
 0.31800000000000E+00 0.10000000000000E+01
 d    1 1.00
 0.90985336424000E-01 0.10000000000000E+01
 f    1 1.00
 0.76100000000000E+00 0.10000000000000E+01
 
    3 0
 s    6 1.00
 0.13575349682000E+05 0.60645503603591E-03
 0.20352333680000E+04 0.46979088884982E-02
 0.46322562359000E+03 0.24332477647552E-01
 0.13120019598000E+03 0.97399968307759E-01
 0.42853015891000E+02 0.30195584253780E+00
 0.15584185766000E+02 0.66233609137875E+00
 s    2 1.00
 0.62067138508000E+01 0.65595308539952E+00
 0.25764896527000E+01 0.37585633285142E+00
 s    1 1.00
 0.57696339419000E+00 0.10000000000000E+01
 s    1 1.00
 0.22972831358000E+00 0.10000000000000E+01
 s    1 1.00
 0.95164440028000E-01 0.10000000000000E+01
 s    1 1.00
 0.48475401370000E-01 0.10000000000000E+01
 p    4 1.00
 0.34697232244000E+02 0.11327220003114E-01
 0.79582622826000E+01 0.76169659202087E-01
 0.23780826883000E+01 0.30192252202676E+00
 0.81433208183000E+00 0.72785027349547E+00
 p    1 1.00
 0.28887547253000E+00 0.10000000000000E+01
 p    1 1.00
 0.10056823671000E+00 0.10000000000000E+01
 d    1 1.00
 0.10970000000000E+01 0.10000000000000E+01
 d    1 1.00
 0.31800000000000E+00 0.10000000000000E+01
 d    1 1.00
 0.90985336424000E-01 0.10000000000000E+01
 f    1 1.00
 0.76100000000000E+00 0.10000000000000E+01
 
    4 0
 s    6 1.00
 0.13575349682000E+05 0.60645503603591E-03
 0.20352333680000E+04 0.46979088884982E-02
 0.46322562359000E+03 0.24332477647552E-01
 0.13120019598000E+03 0.97399968307759E-01
 0.42853015891000E+02 0.30195584253780E+00
 0.15584185766000E+02 0.66233609137875E+00
 s    2 1.00
 0.62067138508000E+01 0.65595308539952E+00
 0.25764896527000E+01 0.37585633285142E+00
 s    1 1.00
 0.57696339419000E+00 0.10000000000000E+01
 s    1 1.00
 0.22972831358000E+00 0.10000000000000E+01
 s    1 1.00
 0.95164440028000E-01 0.10000000000000E+01
 s    1 1.00
 0.48475401370000E-01 0.10000000000000E+01
 p    4 1.00
 0.34697232244000E+02 0.11327220003114E-01
 0.79582622826000E+01 0.76169659202087E-01
 0.23780826883000E+01 0.30192252202676E+00
 0.81433208183000E+00 0.72785027349547E+00
 p    1 1.00
 0.28887547253000E+00 0.10000000000000E+01
 p    1 1.00
 0.10056823671000E+00 0.10000000000000E+01
 d    1 1.00
 0.10970000000000E+01 0.10000000000000E+01
 d    1 1.00
 0.31800000000000E+00 0.10000000000000E+01
 d    1 1.00
 0.90985336424000E-01 0.10000000000000E+01
 f    1 1.00
 0.76100000000000E+00 0.10000000000000E+01
 
    5 0
 s    6 1.00
 0.13575349682000E+05 0.60645503603591E-03
 0.20352333680000E+04 0.46979088884982E-02
 0.46322562359000E+03 0.24332477647552E-01
 0.13120019598000E+03 0.97399968307759E-01
 0.42853015891000E+02 0.30195584253780E+00
 0.15584185766000E+02 0.66233609137875E+00
 s    2 1.00
 0.62067138508000E+01 0.65595308539952E+00
 0.25764896527000E+01 0.37585633285142E+00
 s    1 1.00
 0.57696339419000E+00 0.10000000000000E+01
 s    1 1.00
 0.22972831358000E+00 0.10000000000000E+01
 s    1 1.00
 0.95164440028000E-01 0.10000000000000E+01
 s    1 1.00
 0.48475401370000E-01 0.10000000000000E+01
 p    4 1.00
 0.34697232244000E+02 0.11327220003114E-01
 0.79582622826000E+01 0.76169659202087E-01
 0.23780826883000E+01 0.30192252202676E+00
 0.81433208183000E+00 0.72785027349547E+00
 p    1 1.00
 0.28887547253000E+00 0.10000000000000E+01
 p    1 1.00
 0.10056823671000E+00 0.10000000000000E+01
 d    1 1.00
 0.10970000000000E+01 0.10000000000000E+01
 d    1 1.00
 0.31800000000000E+00 0.10000000000000E+01
 d    1 1.00
 0.90985336424000E-01 0.10000000000000E+01
 f    1 1.00
 0.76100000000000E+00 0.10000000000000E+01
 
    6 0
 s    6 1.00
 0.13575349682000E+05 0.60645503603591E-03
 0.20352333680000E+04 0.46979088884982E-02
 0.46322562359000E+03 0.24332477647552E-01
 0.13120019598000E+03 0.97399968307759E-01
 0.42853015891000E+02 0.30195584253780E+00
 0.15584185766000E+02 0.66233609137875E+00
 s    2 1.00
 0.62067138508000E+01 0.65595308539952E+00
 0.25764896527000E+01 0.37585633285142E+00
 s    1 1.00
 0.57696339419000E+00 0.10000000000000E+01
 s    1 1.00
 0.22972831358000E+00 0.10000000000000E+01
 s    1 1.00
 0.95164440028000E-01 0.10000000000000E+01
 s    1 1.00
 0.48475401370000E-01 0.10000000000000E+01
 p    4 1.00
 0.34697232244000E+02 0.11327220003114E-01
 0.79582622826000E+01 0.76169659202087E-01
 0.23780826883000E+01 0.30192252202676E+00
 0.81433208183000E+00 0.72785027349547E+00
 p    1 1.00
 0.28887547253000E+00 0.10000000000000E+01
 p    1 1.00
 0.10056823671000E+00 0.10000000000000E+01
 d    1 1.00
 0.10970000000000E+01 0.10000000000000E+01
 d    1 1.00
 0.31800000000000E+00 0.10000000000000E+01
 d    1 1.00
 0.90985336424000E-01 0.10000000000000E+01
 f    1 1.00
 0.76100000000000E+00 0.10000000000000E+01
 
    7 0
 s    3 1.00
 0.34061341000000E+02 0.25439307208879E-01
 0.51235746000000E+01 0.19008594890375E+00
 0.11646626000000E+01 0.85244113011042E+00
 s    1 1.00
 0.32723041000000E+00 0.10000000000000E+01
 s    1 1.00
 0.10307241000000E+00 0.10000000000000E+01
 p    1 1.00
 0.80000000000000E+00 0.10000000000000E+01
 p    1 1.00
 0.95774129632000E-01 0.10000000000000E+01
 
    8 0
 s    3 1.00
 0.34061341000000E+02 0.25439307208879E-01
 0.51235746000000E+01 0.19008594890375E+00
 0.11646626000000E+01 0.85244113011042E+00
 s    1 1.00
 0.32723041000000E+00 0.10000000000000E+01
 s    1 1.00
 0.10307241000000E+00 0.10000000000000E+01
 p    1 1.00
 0.80000000000000E+00 0.10000000000000E+01
 p    1 1.00
 0.95774129632000E-01 0.10000000000000E+01
 
    9 0
 s    3 1.00
 0.34061341000000E+02 0.25439307208879E-01
 0.51235746000000E+01 0.19008594890375E+00
 0.11646626000000E+01 0.85244113011042E+00
 s    1 1.00
 0.32723041000000E+00 0.10000000000000E+01
 s    1 1.00
 0.10307241000000E+00 0.10000000000000E+01
 p    1 1.00
 0.80000000000000E+00 0.10000000000000E+01
 p    1 1.00
 0.95774129632000E-01 0.10000000000000E+01
 
   10 0
 s    3 1.00
 0.34061341000000E+02 0.25439307208879E-01
 0.51235746000000E+01 0.19008594890375E+00
 0.11646626000000E+01 0.85244113011042E+00
 s    1 1.00
 0.32723041000000E+00 0.10000000000000E+01
 s    1 1.00
 0.10307241000000E+00 0.10000000000000E+01
 p    1 1.00
 0.80000000000000E+00 0.10000000000000E+01
 p    1 1.00
 0.95774129632000E-01 0.10000000000000E+01
 
   11 0
 s    6 1.00
 0.19730800647000E+05 0.58626402628763E-03
 0.29578958745000E+04 0.45428820586397E-02
 0.67322133595000E+03 0.23558413450084E-01
 0.19068249494000E+03 0.94709193292923E-01
 0.62295441898000E+02 0.29719784913376E+00
 0.22654161182000E+02 0.66916246895232E+00
 s    2 1.00
 0.89791477428000E+01 0.64596683630063E+00
 0.36863002370000E+01 0.38700574393705E+00
 s    1 1.00
 0.84660076805000E+00 0.10000000000000E+01
 s    1 1.00
 0.33647133771000E+00 0.10000000000000E+01
 s    1 1.00
 0.13647653675000E+00 0.10000000000000E+01
 s    1 1.00
 0.68441605847000E-01 0.10000000000000E+01
 p    4 1.00
 0.49200380510000E+02 0.11448825101764E-01
 0.11346790537000E+02 0.78422337970864E-01
 0.34273972411000E+01 0.30818094738830E+00
 0.11785525134000E+01 0.72027196368413E+00
 p    1 1.00
 0.41642204972000E+00 0.10000000000000E+01
 p    1 1.00
 0.14260826011000E+00 0.10000000000000E+01
 d    1 1.00
 0.16540000000000E+01 0.10000000000000E+01
 d    1 1.00
 0.46900000000000E+00 0.10000000000000E+01
 d    1 1.00
 0.12829642058000E+00 0.10000000000000E+01
 f    1 1.00
 0.10930000000000E+01 0.10000000000000E+01
 
   12 0
 s    6 1.00
 0.27032382631000E+05 0.57227335211155E-03
 0.40523871392000E+04 0.44353233492995E-02
 0.92232722710000E+03 0.23020107706038E-01
 0.26124070989000E+03 0.92822490667928E-01
 0.85354641351000E+02 0.29378500009671E+00
 0.31035035245000E+02 0.67401604501641E+00
 s    2 1.00
 0.12260860728000E+02 0.63839937025506E+00
 0.49987076005000E+01 0.39534587125718E+00
 s    1 1.00
 0.11703108158000E+01 0.10000000000000E+01
 s    1 1.00
 0.46474740994000E+00 0.10000000000000E+01
 s    1 1.00
 0.18504536357000E+00 0.10000000000000E+01
 s    1 1.00
 0.70288026270000E-01 0.10000000000000E+01
 p    4 1.00
 0.63274954801000E+02 0.12018332222616E-01
 0.14627049379000E+02 0.83005421790056E-01
 0.44501223456000E+01 0.31991743925964E+00
 0.15275799647000E+01 0.70715542916104E+00
 p    1 1.00
 0.52935117943000E+00 0.10000000000000E+01
 p    1 1.00
 0.17478421270000E+00 0.10000000000000E+01
 p    1 1.00
 0.51112745706000E-01 0.10000000000000E+01
 d    1 1.00
 0.23140000000000E+01 0.10000000000000E+01
 d    1 1.00
 0.64500000000000E+00 0.10000000000000E+01
 d    1 1.00
 0.14696477366000E+00 0.10000000000000E+01
 f    1 1.00
 0.14280000000000E+01 0.10000000000000E+01
 
   13 0
 s    6 1.00
 0.27032382631000E+05 0.57227335211155E-03
 0.40523871392000E+04 0.44353233492995E-02
 0.92232722710000E+03 0.23020107706038E-01
 0.26124070989000E+03 0.92822490667928E-01
 0.85354641351000E+02 0.29378500009671E+00
 0.31035035245000E+02 0.67401604501641E+00
 s    2 1.00
 0.12260860728000E+02 0.63839937025506E+00
 0.49987076005000E+01 0.39534587125718E+00
 s    1 1.00
 0.11703108158000E+01 0.10000000000000E+01
 s    1 1.00
 0.46474740994000E+00 0.10000000000000E+01
 s    1 1.00
 0.18504536357000E+00 0.10000000000000E+01
 s    1 1.00
 0.70288026270000E-01 0.10000000000000E+01
 p    4 1.00
 0.63274954801000E+02 0.12018332222616E-01
 0.14627049379000E+02 0.83005421790056E-01
 0.44501223456000E+01 0.31991743925964E+00
 0.15275799647000E+01 0.70715542916104E+00
 p    1 1.00
 0.52935117943000E+00 0.10000000000000E+01
 p    1 1.00
 0.17478421270000E+00 0.10000000000000E+01
 p    1 1.00
 0.51112745706000E-01 0.10000000000000E+01
 d    1 1.00
 0.23140000000000E+01 0.10000000000000E+01
 d    1 1.00
 0.64500000000000E+00 0.10000000000000E+01
 d    1 1.00
 0.14696477366000E+00 0.10000000000000E+01
 f    1 1.00
 0.14280000000000E+01 0.10000000000000E+01
 
   14 0
 s    6 1.00
 0.19730800647000E+05 0.58626402628763E-03
 0.29578958745000E+04 0.45428820586397E-02
 0.67322133595000E+03 0.23558413450084E-01
 0.19068249494000E+03 0.94709193292923E-01
 0.62295441898000E+02 0.29719784913376E+00
 0.22654161182000E+02 0.66916246895232E+00
 s    2 1.00
 0.89791477428000E+01 0.64596683630063E+00
 0.36863002370000E+01 0.38700574393705E+00
 s    1 1.00
 0.84660076805000E+00 0.10000000000000E+01
 s    1 1.00
 0.33647133771000E+00 0.10000000000000E+01
 s    1 1.00
 0.13647653675000E+00 0.10000000000000E+01
 s    1 1.00
 0.68441605847000E-01 0.10000000000000E+01
 p    4 1.00
 0.49200380510000E+02 0.11448825101764E-01
 0.11346790537000E+02 0.78422337970864E-01
 0.34273972411000E+01 0.30818094738830E+00
 0.11785525134000E+01 0.72027196368413E+00
 p    1 1.00
 0.41642204972000E+00 0.10000000000000E+01
 p    1 1.00
 0.14260826011000E+00 0.10000000000000E+01
 d    1 1.00
 0.16540000000000E+01 0.10000000000000E+01
 d    1 1.00
 0.46900000000000E+00 0.10000000000000E+01
 d    1 1.00
 0.12829642058000E+00 0.10000000000000E+01
 f    1 1.00
 0.10930000000000E+01 0.10000000000000E+01
 
   15 0
 s    3 1.00
 0.34061341000000E+02 0.25439307208879E-01
 0.51235746000000E+01 0.19008594890375E+00
 0.11646626000000E+01 0.85244113011042E+00
 s    1 1.00
 0.32723041000000E+00 0.10000000000000E+01
 s    1 1.00
 0.10307241000000E+00 0.10000000000000E+01
 p    1 1.00
 0.80000000000000E+00 0.10000000000000E+01
 p    1 1.00
 0.95774129632000E-01 0.10000000000000E+01
 
   16 0
 s    3 1.00
 0.34061341000000E+02 0.25439307208879E-01
 0.51235746000000E+01 0.19008594890375E+00
 0.11646626000000E+01 0.85244113011042E+00
 s    1 1.00
 0.32723041000000E+00 0.10000000000000E+01
 s    1 1.00
 0.10307241000000E+00 0.10000000000000E+01
 p    1 1.00
 0.80000000000000E+00 0.10000000000000E+01
 p    1 1.00
 0.95774129632000E-01 0.10000000000000E+01
 
[MO]
 Sym= X
 Ene= -0.808033
 Spin= Alpha
 Occup= -0.808033
         1    1.080603E-05
         2    2.465681E-05
         3   -5.581586E-05
         4    3.390366E-05
         5    2.384020E-03
         6    2.883570E-04
         7    5.147721E-05
         8    1.127296E-04
         9    7.246940E-02
        10    1.397682E-04
        11    7.840485E-05
        12    7.263541E-02
        13   -5.741734E-04
        14    1.527173E-03
        15    5.123611E-02
        16    2.590358E-06
        17   -1.099151E-06
        18   -1.491206E-06
        19   -2.931099E-06
        20    1.674537E-03
        21    2.517883E-04
        22    2.088135E-05
        23   -1.244462E-05
        24   -8.436727E-06
        25   -1.187931E-05
        26    2.039043E-03
        27    1.894725E-04
        28    4.058261E-05
        29   -3.231308E-05
        30   -8.269528E-06
        31   -6.928255E-05
        32   -2.149184E-03
        33    3.121471E-03
        34    1.669368E-06
        35    3.201520E-07
        36   -5.140677E-04
        37   -3.229431E-07
        38    1.123776E-07
        39    6.016113E-04
        40   -1.916749E-06
        41   -5.419065E-07
        42    8.808288E-05
        43   -5.606393E-05
        44   -1.626266E-06
        45   -3.623101E-06
        46    5.986962E-06
        47    1.695471E-05
        48   -8.401732E-04
        49   -8.789992E-05
        50    3.951685E-06
        51   -7.998198E-05
        52    2.842015E-05
        53    4.553395E-06
        54   -6.082069E-05
        55    2.540345E-05
        56   -3.394217E-04
        57    2.049054E-03
        58   -2.067483E-05
        59   -2.305364E-07
        60    4.090318E-07
        61   -1.784954E-07
        62   -6.662121E-06
        63    2.443234E-07
        64   -3.408813E-03
        65   -8.406540E-07
        66   -8.175699E-07
        67    1.658224E-06
        68   -2.155763E-05
        69   -2.515102E-07
        70   -6.075631E-03
        71    9.201071E-06
        72   -2.225652E-05
        73    1.305545E-05
        74    2.498257E-05
        75   -5.356449E-06
        76    5.324172E-03
        77    6.198004E-08
        78    2.132427E-07
        79   -1.452593E-07
        80   -8.121282E-09
        81   -4.792342E-07
        82    6.023225E-08
        83   -7.503367E-08
        84    1.931392E-07
        85    1.346535E-07
        86   -2.442238E-04
        87   -1.141097E-05
        88   -2.603516E-05
        89    5.678790E-05
        90   -3.590076E-05
        91   -8.464243E-04
        92   -1.923476E-04
        93   -6.531886E-05
        94    1.097060E-04
        95   -7.244240E-02
        96   -1.391131E-04
        97    7.106514E-05
        98   -7.260836E-02
        99    9.596358E-04
       100    8.254904E-04
       101   -5.115615E-02
       102   -3.272542E-06
       103    1.754675E-06
       104    1.517867E-06
       105   -2.682958E-06
       106   -1.675532E-03
       107    2.507724E-04
       108   -1.612551E-05
       109    9.693314E-06
       110    6.432201E-06
       111   -9.844221E-06
       112   -2.040983E-03
       113    1.860486E-04
       114   -4.455230E-05
       115    5.090134E-05
       116   -6.349047E-06
       117   -1.028440E-04
       118    2.161501E-03
       119    3.101642E-03
       120   -1.624062E-06
       121    2.854350E-07
       122    5.138707E-04
       123    3.290115E-07
       124    3.007539E-08
       125   -6.016322E-04
       126    1.849897E-06
       127   -4.130266E-07
       128   -8.779764E-05
       129   -5.584835E-05
       130    8.279437E-06
       131    1.912303E-05
       132   -5.347097E-05
       133    1.705014E-04
       134    6.551058E-04
       135    2.682437E-04
       136   -5.017958E-05
       137   -4.520150E-05
       138   -7.313625E-02
       139   -7.716297E-05
       140   -8.864778E-05
       141   -7.468583E-02
       142    1.164587E-03
       143   -9.038169E-04
       144   -4.814233E-02
       145    4.912272E-06
       146   -1.976258E-08
       147   -4.892509E-06
       148   -4.533913E-06
       149    1.738274E-03
       150    1.837103E-04
       151    3.397397E-05
       152   -5.200959E-06
       153   -2.877301E-05
       154   -2.792958E-05
       155    3.593049E-03
       156    1.964984E-04
       157    2.720763E-04
       158   -2.383776E-04
       159   -3.369875E-05
       160   -1.319514E-04
       161    2.873211E-05
       162   -1.279161E-03
       163   -1.624044E-06
       164   -4.110255E-07
       165    4.868978E-04
       166    1.064278E-06
       167   -2.234320E-07
       168   -5.587928E-04
       169    1.114606E-06
       170    7.748805E-07
       171   -9.444909E-05
       172    8.041109E-06
       173    1.209297E-06
       174    2.753516E-06
       175   -6.415003E-06
       176   -3.020070E-06
       177    1.131707E-03
       178    8.917738E-05
       179   -5.534614E-06
       180    6.542301E-05
       181   -1.363771E-05
       182   -7.734212E-06
       183    3.568839E-05
       184   -1.091139E-05
       185   -4.238944E-04
       186   -2.733539E-03
       187    7.568534E-06
       188   -5.069834E-07
       189    2.954664E-07
       190    2.115170E-07
       191    8.478581E-06
       192    2.923719E-07
       193   -2.710552E-03
       194    1.666469E-07
       195    2.060642E-06
       196   -2.227289E-06
       197    4.498984E-05
       198   -1.419445E-07
       199   -5.911723E-03
       200   -4.429441E-07
       201    2.385163E-05
       202   -2.340869E-05
       203    5.377716E-05
       204   -6.469757E-07
       205    6.820252E-04
       206   -1.739152E-08
       207   -2.036632E-06
       208    4.184733E-08
       209   -2.788226E-08
       210    2.070977E-06
       211    1.043938E-08
       212    5.121543E-08
       213    6.614513E-07
       214   -6.658347E-08
       215    4.381485E-04
       216   -7.326833E-06
       217   -1.697374E-05
       218    5.211652E-05
       219   -1.742477E-04
       220   -2.516422E-03
       221   -3.664496E-04
       222    6.149887E-05
       223   -4.794896E-05
       224    7.312150E-02
       225    9.776187E-05
       226   -1.006663E-04
       227    7.466962E-02
       228   -8.709332E-04
       229   -1.699611E-03
       230    4.806558E-02
       231   -5.324098E-06
       232    4.938420E-07
       233    4.830256E-06
       234   -4.780086E-06
       235   -1.739210E-03
       236    1.833222E-04
       237   -3.790896E-05
       238    6.435386E-06
       239    3.147357E-05
       240   -3.048559E-05
       241   -3.594798E-03
       242    1.941138E-04
       243   -2.499659E-04
       244    1.934010E-04
       245    5.656487E-05
       246   -9.971461E-05
       247   -2.151400E-05
       248   -1.290871E-03
       249    1.739355E-06
       250   -4.677908E-07
       251   -4.868544E-04
       252   -1.128438E-06
       253   -2.779378E-07
       254    5.589013E-04
       255   -1.205151E-06
       256    9.055450E-07
       257    9.428238E-05
       258    7.884477E-06
       259   -3.634750E-05
       260   -5.343676E-05
       261    6.513773E-04
       262   -2.265451E-08
       263   -2.228272E-06
       264    3.271455E-03
       265    1.922640E-04
       266    2.638972E-05
       267    3.108913E-03
       268    3.895018E-05
       269    6.884287E-05
       270   -3.847643E-04
       271    3.723967E-07
       272   -3.584424E-06
       273   -3.270314E-03
       274   -1.662380E-04
       275   -2.546943E-05
       276   -3.091296E-03
       277   -1.752335E-05
       278   -3.575089E-05
       279    6.711223E-04
       280   -2.354138E-06
       281   -7.200842E-07
       282   -3.111639E-03
       283   -4.212511E-04
       284    8.644493E-05
       285   -1.297275E-03
       286    2.149575E-05
       287    3.660715E-05
       288   -8.886197E-04
       289    2.680993E-06
       290   -9.401309E-07
       291    3.110925E-03
       292    4.374195E-04
       293    2.044335E-05
       294    1.291970E-03
       295   -1.499218E-06
       296   -3.585353E-06
       297    6.310335E-06
       298    2.667142E-06
       299   -6.923820E-05
       300    6.560619E-05
       301   -6.647405E-06
       302    1.594377E-05
       303   -2.479682E-06
       304   -4.754593E-06
       305    1.327368E-05
       306   -2.471839E-06
       307    8.557697E-06
       308   -2.812664E-04
       309    1.131162E-06
       310   -4.819810E-08
       311    1.250061E-07
       312   -7.680799E-08
       313   -2.562687E-05
       314    5.999522E-07
       315   -1.099946E-02
       316    9.346834E-07
       317   -4.659177E-07
       318   -4.687657E-07
       319   -7.803728E-05
       320    1.814388E-06
       321   -3.214789E-02
       322   -5.703491E-06
       323    1.018083E-05
       324   -4.477334E-06
       325   -3.248548E-05
       326    3.047304E-06
       327   -8.544697E-04
       328    3.144129E-08
       329    1.983464E-07
       330    1.721354E-08
       331   -5.354199E-08
       332    6.869840E-06
       333    8.529660E-08
       334    1.135907E-08
       335   -7.135950E-06
       336   -1.083910E-07
       337    1.867212E-03
       338    1.813889E-06
       339    4.358571E-06
       340   -5.292273E-06
       341   -2.142175E-05
       342    7.851414E-05
       343   -3.041720E-05
       344   -6.534709E-04
       345   -2.833697E-05
       346   -2.990901E-01
       347   -5.998718E-04
       348   -2.317595E-05
       349   -2.742987E-01
       350   -4.066946E-04
       351   -4.569222E-05
       352   -2.030461E-01
       353   -6.608173E-05
       354    4.178467E-07
       355   -2.875558E-02
       356   -6.435237E-06
       357    5.565370E-07
       358    5.878700E-06
       359    5.050330E-06
       360   -1.617788E-03
       361    2.453346E-03
       362   -1.953784E-05
       363    1.092416E-06
       364    1.844543E-05
       365    1.660974E-05
       366   -5.190739E-03
       367    8.250557E-03
       368   -1.293704E-05
       369   -1.263688E-06
       370    1.420073E-05
       371    6.629780E-06
       372   -4.635740E-03
       373    6.622888E-03
       374    1.937927E-07
       375   -6.540234E-08
       376    4.571133E-04
       377   -1.324835E-06
       378    3.092202E-06
       379    5.968933E-05
       380    1.064835E-06
       381   -3.004456E-06
       382   -6.729712E-04
       383    8.125124E-04
       384    1.536781E-06
       385    3.851997E-06
       386   -6.885374E-06
       387    2.226736E-06
       388   -1.020133E-04
       389    8.039845E-06
       390    6.565412E-04
       391   -1.669617E-05
       392    2.990668E-01
       393    6.023917E-04
       394   -1.377300E-05
       395    2.742771E-01
       396    4.046017E-04
       397   -2.805713E-05
       398    2.030330E-01
       399    6.531182E-05
       400   -1.288187E-06
       401    2.875514E-02
       402    6.247775E-06
       403   -3.086377E-07
       404   -5.939137E-06
       405    5.218145E-06
       406    1.617731E-03
       407    2.453094E-03
       408    1.891223E-05
       409    5.063776E-08
       410   -1.896287E-05
       411    1.761953E-05
       412    5.190528E-03
       413    8.249868E-03
       414    1.035238E-05
       415    5.118649E-06
       416   -1.547103E-05
       417    9.522450E-06
       418    4.635584E-03
       419    6.623381E-03
       420   -2.939378E-07
       421   -8.480469E-10
       422   -4.570767E-04
       423    1.379768E-06
       424    3.072185E-06
       425   -5.966461E-05
       426   -9.854091E-07
       427   -3.071047E-06
       428    6.728973E-04
       429    8.124540E-04
       430   -1.140267E-06
       431   -2.753139E-06
       432    4.297751E-06
       433    6.178156E-06
       434    3.180919E-05
       435   -3.500006E-05
       436    1.159981E-05
       437    3.457311E-04
       438    1.705814E-06
       439    9.843414E-06
       440    4.785124E-04
       441    1.726006E-06
       442    1.594289E-05
       443    6.753264E-04
       444    4.077790E-06
       445   -2.127115E-07
       446    2.711362E-07
       447   -5.842466E-08
       448   -7.249401E-06
       449    2.442552E-07
       450   -1.100995E-04
       451   -4.730850E-07
       452    3.773862E-07
       453    9.569871E-08
       454    4.327887E-05
       455    5.293476E-07
       456   -1.884136E-04
       457   -5.595103E-06
       458    7.508933E-07
       459    4.844210E-06
       460    2.454078E-04
       461   -3.968282E-07
       462    4.117915E-04
       463    1.884125E-08
       464    1.916174E-06
       465    5.067709E-09
       466    3.249901E-08
       467    5.312973E-06
       468   -2.441437E-08
       469   -5.777721E-08
       470   -7.883790E-06
       471    1.761533E-08
       472    4.699390E-05
       473   -1.777882E-06
       474   -2.927841E-04
       475   -9.709787E-04
       476    2.830291E-05
       477    4.504015E-05
       478   -1.420288E-04
       479   -6.902038E-05
       480    3.176576E-04
       481   -5.784282E-04
       482    1.029866E-05
       483    3.046848E-04
       484    9.833027E-04
       485   -2.874185E-05
       486    4.664939E-05
       487    1.420000E-04
       488    7.463413E-05
       489    3.238086E-04
       490    5.784158E-04
 Sym= X
 Ene= 0.808033
 Spin= Alpha
 Occup= 0.808033
         1   -2.537281E-05
         2   -5.981942E-05
         3    1.553340E-04
         4    1.227385E-04
         5   -4.090188E-02
         6    2.523412E-03
         7    2.429976E-04
         8    5.822561E-05
         9    1.076330E-01
        10    5.099968E-04
        11   -5.118789E-06
        12    1.074721E-01
        13   -2.410104E-02
        14    2.151757E-02
        15    5.038114E-02
        16    1.073755E-05
        17   -3.102096E-06
        18   -7.635453E-06
        19    1.852424E-06
        20    7.498238E-05
        21    9.976620E-06
        22   -9.118022E-05
        23    2.538377E-05
        24    6.579644E-05
        25    1.040387E-05
        26   -4.579730E-03
        27   -1.298964E-03
        28   -9.480690E-03
        29    1.021491E-02
        30   -7.342183E-04
        31   -1.280966E-03
        32   -8.722859E-03
        33   -2.437553E-02
        34   -2.647252E-06
        35    1.257042E-06
        36   -1.661098E-04
        37    3.957552E-06
        38    2.794979E-07
        39   -1.450370E-04
        40   -4.058903E-07
        41   -1.965996E-06
        42    3.678967E-04
        43    1.193810E-04
        44   -8.914700E-06
        45   -1.532437E-05
        46   -1.384458E-04
        47    2.596333E-03
        48   -8.222119E-02
        49   -1.083392E-02
        50   -3.128918E-05
        51   -5.329023E-06
        52   -2.913382E-02
        53    2.732284E-04
        54    3.170725E-05
        55   -2.720540E-02
        56   -2.906984E-02
        57    2.135682E-03
        58    6.024292E-02
        59    3.612795E-05
        60    5.635301E-06
        61   -4.176325E-05
        62   -1.543268E-07