[Molden Format]
[Title]
ADC(2) - opt by CAM-B3LYP gaussian                                              
[Atoms] AU
 c     1    6 -.12588789760523E+01 -.22833296301999E+01 -.24948636837890E-01
 c     2    6 -.25574931053929E+01 0.00000000000000E+00 -.23691968959520E-01
 c     3    6 -.12588770863262E+01 0.22833296301999E+01 -.24954306016290E-01
 c     4    6 0.13320886199507E+01 0.22850077070059E+01 -.26951746538750E-01
 c     5    6 0.26868238359857E+01 0.00000000000000E+00 -.26437741030600E-01
 c     6    6 0.13320867302245E+01 -.22850077070059E+01 -.26946077360350E-01
 h     7    1 -.22977937121289E+01 -.40382313624087E+01 -.22371050392630E-01
 h     8    1 -.22977918224027E+01 0.40382332521348E+01 -.22380499023300E-01
 h     9    1 0.23512179234159E+01 0.40571966538783E+01 -.29234535707270E-01
 h    10    1 0.23512179234159E+01 -.40571947641522E+01 -.29223197350470E-01
 n    11    7 -.52733186864479E+01 0.00000000000000E+00 -.17996334395000E-01
 o    12    8 -.63812046469225E+01 0.20269448165729E+01 -.15568036314240E-01
 o    13    8 -.63812027571964E+01 -.20269467062990E+01 -.15583154123310E-01
 n    14    7 0.52441127328484E+01 0.00000000000000E+00 -.70347417454330E-01
 h    15    1 0.62045074583774E+01 0.16172030580838E+01 0.18832018534119E+00
 h    16    1 0.62045055686513E+01 -.16172049478099E+01 0.18831451616279E+00
[GTO]
    1 0
 s    6 1.00
 0.13575349682000E+05 0.60645503603591E-03
 0.20352333680000E+04 0.46979088884982E-02
 0.46322562359000E+03 0.24332477647552E-01
 0.13120019598000E+03 0.97399968307759E-01
 0.42853015891000E+02 0.30195584253780E+00
 0.15584185766000E+02 0.66233609137875E+00
 s    2 1.00
 0.62067138508000E+01 0.65595308539952E+00
 0.25764896527000E+01 0.37585633285142E+00
 s    1 1.00
 0.57696339419000E+00 0.10000000000000E+01
 s    1 1.00
 0.22972831358000E+00 0.10000000000000E+01
 s    1 1.00
 0.95164440028000E-01 0.10000000000000E+01
 s    1 1.00
 0.48475401370000E-01 0.10000000000000E+01
 p    4 1.00
 0.34697232244000E+02 0.11327220003114E-01
 0.79582622826000E+01 0.76169659202087E-01
 0.23780826883000E+01 0.30192252202676E+00
 0.81433208183000E+00 0.72785027349547E+00
 p    1 1.00
 0.28887547253000E+00 0.10000000000000E+01
 p    1 1.00
 0.10056823671000E+00 0.10000000000000E+01
 d    1 1.00
 0.10970000000000E+01 0.10000000000000E+01
 d    1 1.00
 0.31800000000000E+00 0.10000000000000E+01
 d    1 1.00
 0.90985336424000E-01 0.10000000000000E+01
 f    1 1.00
 0.76100000000000E+00 0.10000000000000E+01
 
    2 0
 s    6 1.00
 0.13575349682000E+05 0.60645503603591E-03
 0.20352333680000E+04 0.46979088884982E-02
 0.46322562359000E+03 0.24332477647552E-01
 0.13120019598000E+03 0.97399968307759E-01
 0.42853015891000E+02 0.30195584253780E+00
 0.15584185766000E+02 0.66233609137875E+00
 s    2 1.00
 0.62067138508000E+01 0.65595308539952E+00
 0.25764896527000E+01 0.37585633285142E+00
 s    1 1.00
 0.57696339419000E+00 0.10000000000000E+01
 s    1 1.00
 0.22972831358000E+00 0.10000000000000E+01
 s    1 1.00
 0.95164440028000E-01 0.10000000000000E+01
 s    1 1.00
 0.48475401370000E-01 0.10000000000000E+01
 p    4 1.00
 0.34697232244000E+02 0.11327220003114E-01
 0.79582622826000E+01 0.76169659202087E-01
 0.23780826883000E+01 0.30192252202676E+00
 0.81433208183000E+00 0.72785027349547E+00
 p    1 1.00
 0.28887547253000E+00 0.10000000000000E+01
 p    1 1.00
 0.10056823671000E+00 0.10000000000000E+01
 d    1 1.00
 0.10970000000000E+01 0.10000000000000E+01
 d    1 1.00
 0.31800000000000E+00 0.10000000000000E+01
 d    1 1.00
 0.90985336424000E-01 0.10000000000000E+01
 f    1 1.00
 0.76100000000000E+00 0.10000000000000E+01
 
    3 0
 s    6 1.00
 0.13575349682000E+05 0.60645503603591E-03
 0.20352333680000E+04 0.46979088884982E-02
 0.46322562359000E+03 0.24332477647552E-01
 0.13120019598000E+03 0.97399968307759E-01
 0.42853015891000E+02 0.30195584253780E+00
 0.15584185766000E+02 0.66233609137875E+00
 s    2 1.00
 0.62067138508000E+01 0.65595308539952E+00
 0.25764896527000E+01 0.37585633285142E+00
 s    1 1.00
 0.57696339419000E+00 0.10000000000000E+01
 s    1 1.00
 0.22972831358000E+00 0.10000000000000E+01
 s    1 1.00
 0.95164440028000E-01 0.10000000000000E+01
 s    1 1.00
 0.48475401370000E-01 0.10000000000000E+01
 p    4 1.00
 0.34697232244000E+02 0.11327220003114E-01
 0.79582622826000E+01 0.76169659202087E-01
 0.23780826883000E+01 0.30192252202676E+00
 0.81433208183000E+00 0.72785027349547E+00
 p    1 1.00
 0.28887547253000E+00 0.10000000000000E+01
 p    1 1.00
 0.10056823671000E+00 0.10000000000000E+01
 d    1 1.00
 0.10970000000000E+01 0.10000000000000E+01
 d    1 1.00
 0.31800000000000E+00 0.10000000000000E+01
 d    1 1.00
 0.90985336424000E-01 0.10000000000000E+01
 f    1 1.00
 0.76100000000000E+00 0.10000000000000E+01
 
    4 0
 s    6 1.00
 0.13575349682000E+05 0.60645503603591E-03
 0.20352333680000E+04 0.46979088884982E-02
 0.46322562359000E+03 0.24332477647552E-01
 0.13120019598000E+03 0.97399968307759E-01
 0.42853015891000E+02 0.30195584253780E+00
 0.15584185766000E+02 0.66233609137875E+00
 s    2 1.00
 0.62067138508000E+01 0.65595308539952E+00
 0.25764896527000E+01 0.37585633285142E+00
 s    1 1.00
 0.57696339419000E+00 0.10000000000000E+01
 s    1 1.00
 0.22972831358000E+00 0.10000000000000E+01
 s    1 1.00
 0.95164440028000E-01 0.10000000000000E+01
 s    1 1.00
 0.48475401370000E-01 0.10000000000000E+01
 p    4 1.00
 0.34697232244000E+02 0.11327220003114E-01
 0.79582622826000E+01 0.76169659202087E-01
 0.23780826883000E+01 0.30192252202676E+00
 0.81433208183000E+00 0.72785027349547E+00
 p    1 1.00
 0.28887547253000E+00 0.10000000000000E+01
 p    1 1.00
 0.10056823671000E+00 0.10000000000000E+01
 d    1 1.00
 0.10970000000000E+01 0.10000000000000E+01
 d    1 1.00
 0.31800000000000E+00 0.10000000000000E+01
 d    1 1.00
 0.90985336424000E-01 0.10000000000000E+01
 f    1 1.00
 0.76100000000000E+00 0.10000000000000E+01
 
    5 0
 s    6 1.00
 0.13575349682000E+05 0.60645503603591E-03
 0.20352333680000E+04 0.46979088884982E-02
 0.46322562359000E+03 0.24332477647552E-01
 0.13120019598000E+03 0.97399968307759E-01
 0.42853015891000E+02 0.30195584253780E+00
 0.15584185766000E+02 0.66233609137875E+00
 s    2 1.00
 0.62067138508000E+01 0.65595308539952E+00
 0.25764896527000E+01 0.37585633285142E+00
 s    1 1.00
 0.57696339419000E+00 0.10000000000000E+01
 s    1 1.00
 0.22972831358000E+00 0.10000000000000E+01
 s    1 1.00
 0.95164440028000E-01 0.10000000000000E+01
 s    1 1.00
 0.48475401370000E-01 0.10000000000000E+01
 p    4 1.00
 0.34697232244000E+02 0.11327220003114E-01
 0.79582622826000E+01 0.76169659202087E-01
 0.23780826883000E+01 0.30192252202676E+00
 0.81433208183000E+00 0.72785027349547E+00
 p    1 1.00
 0.28887547253000E+00 0.10000000000000E+01
 p    1 1.00
 0.10056823671000E+00 0.10000000000000E+01
 d    1 1.00
 0.10970000000000E+01 0.10000000000000E+01
 d    1 1.00
 0.31800000000000E+00 0.10000000000000E+01
 d    1 1.00
 0.90985336424000E-01 0.10000000000000E+01
 f    1 1.00
 0.76100000000000E+00 0.10000000000000E+01
 
    6 0
 s    6 1.00
 0.13575349682000E+05 0.60645503603591E-03
 0.20352333680000E+04 0.46979088884982E-02
 0.46322562359000E+03 0.24332477647552E-01
 0.13120019598000E+03 0.97399968307759E-01
 0.42853015891000E+02 0.30195584253780E+00
 0.15584185766000E+02 0.66233609137875E+00
 s    2 1.00
 0.62067138508000E+01 0.65595308539952E+00
 0.25764896527000E+01 0.37585633285142E+00
 s    1 1.00
 0.57696339419000E+00 0.10000000000000E+01
 s    1 1.00
 0.22972831358000E+00 0.10000000000000E+01
 s    1 1.00
 0.95164440028000E-01 0.10000000000000E+01
 s    1 1.00
 0.48475401370000E-01 0.10000000000000E+01
 p    4 1.00
 0.34697232244000E+02 0.11327220003114E-01
 0.79582622826000E+01 0.76169659202087E-01
 0.23780826883000E+01 0.30192252202676E+00
 0.81433208183000E+00 0.72785027349547E+00
 p    1 1.00
 0.28887547253000E+00 0.10000000000000E+01
 p    1 1.00
 0.10056823671000E+00 0.10000000000000E+01
 d    1 1.00
 0.10970000000000E+01 0.10000000000000E+01
 d    1 1.00
 0.31800000000000E+00 0.10000000000000E+01
 d    1 1.00
 0.90985336424000E-01 0.10000000000000E+01
 f    1 1.00
 0.76100000000000E+00 0.10000000000000E+01
 
    7 0
 s    3 1.00
 0.34061341000000E+02 0.25439307208879E-01
 0.51235746000000E+01 0.19008594890375E+00
 0.11646626000000E+01 0.85244113011042E+00
 s    1 1.00
 0.32723041000000E+00 0.10000000000000E+01
 s    1 1.00
 0.10307241000000E+00 0.10000000000000E+01
 p    1 1.00
 0.80000000000000E+00 0.10000000000000E+01
 p    1 1.00
 0.95774129632000E-01 0.10000000000000E+01
 
    8 0
 s    3 1.00
 0.34061341000000E+02 0.25439307208879E-01
 0.51235746000000E+01 0.19008594890375E+00
 0.11646626000000E+01 0.85244113011042E+00
 s    1 1.00
 0.32723041000000E+00 0.10000000000000E+01
 s    1 1.00
 0.10307241000000E+00 0.10000000000000E+01
 p    1 1.00
 0.80000000000000E+00 0.10000000000000E+01
 p    1 1.00
 0.95774129632000E-01 0.10000000000000E+01
 
    9 0
 s    3 1.00
 0.34061341000000E+02 0.25439307208879E-01
 0.51235746000000E+01 0.19008594890375E+00
 0.11646626000000E+01 0.85244113011042E+00
 s    1 1.00
 0.32723041000000E+00 0.10000000000000E+01
 s    1 1.00
 0.10307241000000E+00 0.10000000000000E+01
 p    1 1.00
 0.80000000000000E+00 0.10000000000000E+01
 p    1 1.00
 0.95774129632000E-01 0.10000000000000E+01
 
   10 0
 s    3 1.00
 0.34061341000000E+02 0.25439307208879E-01
 0.51235746000000E+01 0.19008594890375E+00
 0.11646626000000E+01 0.85244113011042E+00
 s    1 1.00
 0.32723041000000E+00 0.10000000000000E+01
 s    1 1.00
 0.10307241000000E+00 0.10000000000000E+01
 p    1 1.00
 0.80000000000000E+00 0.10000000000000E+01
 p    1 1.00
 0.95774129632000E-01 0.10000000000000E+01
 
   11 0
 s    6 1.00
 0.19730800647000E+05 0.58626402628763E-03
 0.29578958745000E+04 0.45428820586397E-02
 0.67322133595000E+03 0.23558413450084E-01
 0.19068249494000E+03 0.94709193292923E-01
 0.62295441898000E+02 0.29719784913376E+00
 0.22654161182000E+02 0.66916246895232E+00
 s    2 1.00
 0.89791477428000E+01 0.64596683630063E+00
 0.36863002370000E+01 0.38700574393705E+00
 s    1 1.00
 0.84660076805000E+00 0.10000000000000E+01
 s    1 1.00
 0.33647133771000E+00 0.10000000000000E+01
 s    1 1.00
 0.13647653675000E+00 0.10000000000000E+01
 s    1 1.00
 0.68441605847000E-01 0.10000000000000E+01
 p    4 1.00
 0.49200380510000E+02 0.11448825101764E-01
 0.11346790537000E+02 0.78422337970864E-01
 0.34273972411000E+01 0.30818094738830E+00
 0.11785525134000E+01 0.72027196368413E+00
 p    1 1.00
 0.41642204972000E+00 0.10000000000000E+01
 p    1 1.00
 0.14260826011000E+00 0.10000000000000E+01
 d    1 1.00
 0.16540000000000E+01 0.10000000000000E+01
 d    1 1.00
 0.46900000000000E+00 0.10000000000000E+01
 d    1 1.00
 0.12829642058000E+00 0.10000000000000E+01
 f    1 1.00
 0.10930000000000E+01 0.10000000000000E+01
 
   12 0
 s    6 1.00
 0.27032382631000E+05 0.57227335211155E-03
 0.40523871392000E+04 0.44353233492995E-02
 0.92232722710000E+03 0.23020107706038E-01
 0.26124070989000E+03 0.92822490667928E-01
 0.85354641351000E+02 0.29378500009671E+00
 0.31035035245000E+02 0.67401604501641E+00
 s    2 1.00
 0.12260860728000E+02 0.63839937025506E+00
 0.49987076005000E+01 0.39534587125718E+00
 s    1 1.00
 0.11703108158000E+01 0.10000000000000E+01
 s    1 1.00
 0.46474740994000E+00 0.10000000000000E+01
 s    1 1.00
 0.18504536357000E+00 0.10000000000000E+01
 s    1 1.00
 0.70288026270000E-01 0.10000000000000E+01
 p    4 1.00
 0.63274954801000E+02 0.12018332222616E-01
 0.14627049379000E+02 0.83005421790056E-01
 0.44501223456000E+01 0.31991743925964E+00
 0.15275799647000E+01 0.70715542916104E+00
 p    1 1.00
 0.52935117943000E+00 0.10000000000000E+01
 p    1 1.00
 0.17478421270000E+00 0.10000000000000E+01
 p    1 1.00
 0.51112745706000E-01 0.10000000000000E+01
 d    1 1.00
 0.23140000000000E+01 0.10000000000000E+01
 d    1 1.00
 0.64500000000000E+00 0.10000000000000E+01
 d    1 1.00
 0.14696477366000E+00 0.10000000000000E+01
 f    1 1.00
 0.14280000000000E+01 0.10000000000000E+01
 
   13 0
 s    6 1.00
 0.27032382631000E+05 0.57227335211155E-03
 0.40523871392000E+04 0.44353233492995E-02
 0.92232722710000E+03 0.23020107706038E-01
 0.26124070989000E+03 0.92822490667928E-01
 0.85354641351000E+02 0.29378500009671E+00
 0.31035035245000E+02 0.67401604501641E+00
 s    2 1.00
 0.12260860728000E+02 0.63839937025506E+00
 0.49987076005000E+01 0.39534587125718E+00
 s    1 1.00
 0.11703108158000E+01 0.10000000000000E+01
 s    1 1.00
 0.46474740994000E+00 0.10000000000000E+01
 s    1 1.00
 0.18504536357000E+00 0.10000000000000E+01
 s    1 1.00
 0.70288026270000E-01 0.10000000000000E+01
 p    4 1.00
 0.63274954801000E+02 0.12018332222616E-01
 0.14627049379000E+02 0.83005421790056E-01
 0.44501223456000E+01 0.31991743925964E+00
 0.15275799647000E+01 0.70715542916104E+00
 p    1 1.00
 0.52935117943000E+00 0.10000000000000E+01
 p    1 1.00
 0.17478421270000E+00 0.10000000000000E+01
 p    1 1.00
 0.51112745706000E-01 0.10000000000000E+01
 d    1 1.00
 0.23140000000000E+01 0.10000000000000E+01
 d    1 1.00
 0.64500000000000E+00 0.10000000000000E+01
 d    1 1.00
 0.14696477366000E+00 0.10000000000000E+01
 f    1 1.00
 0.14280000000000E+01 0.10000000000000E+01
 
   14 0
 s    6 1.00
 0.19730800647000E+05 0.58626402628763E-03
 0.29578958745000E+04 0.45428820586397E-02
 0.67322133595000E+03 0.23558413450084E-01
 0.19068249494000E+03 0.94709193292923E-01
 0.62295441898000E+02 0.29719784913376E+00
 0.22654161182000E+02 0.66916246895232E+00
 s    2 1.00
 0.89791477428000E+01 0.64596683630063E+00
 0.36863002370000E+01 0.38700574393705E+00
 s    1 1.00
 0.84660076805000E+00 0.10000000000000E+01
 s    1 1.00
 0.33647133771000E+00 0.10000000000000E+01
 s    1 1.00
 0.13647653675000E+00 0.10000000000000E+01
 s    1 1.00
 0.68441605847000E-01 0.10000000000000E+01
 p    4 1.00
 0.49200380510000E+02 0.11448825101764E-01
 0.11346790537000E+02 0.78422337970864E-01
 0.34273972411000E+01 0.30818094738830E+00
 0.11785525134000E+01 0.72027196368413E+00
 p    1 1.00
 0.41642204972000E+00 0.10000000000000E+01
 p    1 1.00
 0.14260826011000E+00 0.10000000000000E+01
 d    1 1.00
 0.16540000000000E+01 0.10000000000000E+01
 d    1 1.00
 0.46900000000000E+00 0.10000000000000E+01
 d    1 1.00
 0.12829642058000E+00 0.10000000000000E+01
 f    1 1.00
 0.10930000000000E+01 0.10000000000000E+01
 
   15 0
 s    3 1.00
 0.34061341000000E+02 0.25439307208879E-01
 0.51235746000000E+01 0.19008594890375E+00
 0.11646626000000E+01 0.85244113011042E+00
 s    1 1.00
 0.32723041000000E+00 0.10000000000000E+01
 s    1 1.00
 0.10307241000000E+00 0.10000000000000E+01
 p    1 1.00
 0.80000000000000E+00 0.10000000000000E+01
 p    1 1.00
 0.95774129632000E-01 0.10000000000000E+01
 
   16 0
 s    3 1.00
 0.34061341000000E+02 0.25439307208879E-01
 0.51235746000000E+01 0.19008594890375E+00
 0.11646626000000E+01 0.85244113011042E+00
 s    1 1.00
 0.32723041000000E+00 0.10000000000000E+01
 s    1 1.00
 0.10307241000000E+00 0.10000000000000E+01
 p    1 1.00
 0.80000000000000E+00 0.10000000000000E+01
 p    1 1.00
 0.95774129632000E-01 0.10000000000000E+01
 
[MO]
 Sym= X
 Ene= -0.895843
 Spin= Alpha
 Occup= -0.895843
         1    5.509458E-03
         2    1.263689E-02
         3   -2.601803E-02
         4    7.928679E-03
         5   -1.995714E-01
         6   -3.331941E-02
         7    3.580406E-02
         8    2.294136E-03
         9   -1.052873E-04
        10    4.581605E-02
        11    3.629085E-03
        12   -1.075845E-04
        13    8.672052E-02
        14   -9.818357E-02
        15   -1.220564E-04
        16    1.208895E-03
        17   -1.428472E-03
        18    2.195771E-04
        19    2.435600E-04
        20   -1.646508E-06
        21    5.928184E-07
        22    9.480587E-03
        23   -6.464442E-03
        24   -3.016146E-03
        25   -1.118908E-03
        26   -1.861007E-05
        27    8.936063E-07
        28    1.243018E-03
        29   -4.898171E-03
        30    3.655153E-03
        31    1.675213E-02
        32    8.272693E-06
        33   -5.409514E-06
        34    2.751897E-05
        35   -1.359047E-04
        36    4.319918E-07
        37    6.192912E-05
        38    2.028981E-04
        39   -3.027183E-07
        40   -9.884968E-05
        41   -2.056282E-05
        42   -2.768595E-07
        43   -5.117752E-07
        44   -1.282231E-07
        45   -2.922572E-07
        46    2.534948E-07
        47    3.481308E-06
        48    3.118417E-05
        49   -4.333457E-06
        50   -8.831613E-07
        51    2.725580E-02
        52   -1.513063E-05
        53    7.604895E-07
        54    3.696302E-02
        55   -1.575938E-05
        56    1.361067E-05
        57   -2.294842E-01
        58   -3.495075E-05
        59    3.812544E-08
        60   -2.383684E-08
        61   -1.428860E-08
        62    1.977336E-03
        63    7.701059E-08
        64   -4.666545E-07
        65   -3.081781E-07
        66    3.833678E-07
        67   -7.518971E-08
        68   -2.684143E-03
        69    6.284460E-07
        70    1.102985E-05
        71    2.775025E-06
        72   -2.170525E-06
        73   -6.044993E-07
        74   -4.031418E-02
        75   -1.292404E-06
        76    5.505301E-05
        77   -9.255125E-09
        78    5.247759E-04
        79    1.087338E-07
        80    1.456750E-08
        81   -5.161819E-04
        82   -8.559504E-08
        83   -2.150443E-09
        84   -1.878789E-04
        85   -6.028665E-08
        86    8.556180E-07
        87   -5.509428E-03
        88   -1.263682E-02
        89    2.601797E-02
        90   -7.927611E-03
        91    1.995536E-01
        92    3.332656E-02
        93   -3.580431E-02
        94    2.294558E-03
        95    1.012778E-04
        96   -4.581401E-02
        97    3.631023E-03
        98    1.043664E-04
        99   -8.671653E-02
       100   -9.815515E-02
       101    1.158433E-04
       102   -1.208888E-03
       103    1.428468E-03
       104   -2.195803E-04
       105    2.435674E-04
       106    2.563864E-06
       107    1.159219E-06
       108   -9.480208E-03
       109    6.464152E-03
       110    3.016056E-03
       111   -1.119570E-03
       112    2.067483E-05
       113    1.842446E-06
       114   -1.238976E-03
       115    4.892553E-03
       116   -3.653577E-03
       117    1.675426E-02
       118   -1.573172E-05
       119   -1.406734E-05
       120   -2.752104E-05
       121   -1.358926E-04
       122   -4.235173E-07
       123   -6.192790E-05
       124    2.028909E-04
       125    4.171685E-07
       126    9.885125E-05
       127   -2.057195E-05
       128    1.510396E-07
       129   -6.137658E-07
       130    2.729919E-03
       131    6.200013E-03
       132   -1.215974E-02
       133    1.252921E-02
       134   -7.893995E-02
       135   -1.118797E-02
       136    2.193764E-02
       137   -2.053175E-04
       138    6.025302E-05
       139   -6.649526E-03
       140    6.287598E-03
       141    4.997291E-05
       142   -5.562572E-02
       143    3.549539E-02
       144    8.236212E-05
       145   -5.537668E-04
       146    4.585000E-04
       147    9.526676E-05
       148   -1.367721E-04
       149   -1.046457E-06
       150   -7.151276E-07
       151    4.946590E-03
       152   -3.339695E-03
       153   -1.606895E-03
       154    2.199510E-04
       155   -1.678049E-05
       156    1.076559E-05
       157    1.250137E-02
       158   -1.344768E-02
       159    9.463057E-04
       160    4.683884E-03
       161    3.103901E-06
       162    2.077580E-05
       163   -1.474491E-05
       164    3.340242E-05
       165    1.114184E-07
       166    1.774387E-05
       167   -3.167744E-05
       168    1.382978E-07
       169    2.038505E-06
       170   -1.313660E-05
       171   -2.877813E-07
       172    8.009530E-07
       173    7.760029E-08
       174    1.806934E-07
       175   -2.428225E-07
       176   -1.760331E-06
       177   -3.274865E-05
       178    2.087901E-06
       179   -5.967187E-07
       180    9.924521E-03
       181    8.067977E-06
       182   -8.448739E-07
       183    1.680312E-02
       184    8.130062E-06
       185    1.887999E-05
       186    9.341037E-02
       187    9.730304E-06
       188   -3.289391E-08
       189    1.038820E-08
       190    2.250570E-08
       191    1.226169E-04
       192   -6.675470E-07
       193   -2.562752E-06
       194   -1.338130E-07
       195    1.003010E-08
       196    1.237829E-07
       197   -3.191339E-03
       198   -1.709255E-06
       199    3.145648E-05
       200   -3.120061E-06
       201    2.155603E-06
       202    9.644586E-07
       203   -1.387885E-02
       204   -2.907988E-07
       205    6.800861E-06
       206   -1.121446E-08
       207    1.255359E-04
       208   -2.941846E-08
       209    5.098519E-09
       210   -1.131544E-04
       211   -6.726288E-08
       212    9.947263E-09
       213   -5.526969E-05
       214    1.067319E-07
       215   -1.652835E-07
       216   -2.729970E-03
       217   -6.200126E-03
       218    1.216013E-02
       219   -1.253151E-02
       220    7.896410E-02
       221    1.118217E-02
       222   -2.193772E-02
       223   -2.052859E-04
       224   -3.870797E-05
       225    6.650984E-03
       226    6.287669E-03
       227   -2.911689E-05
       228    5.562761E-02
       229    3.551852E-02
       230   -5.202549E-05
       231    5.537431E-04
       232   -4.584896E-04
       233   -9.525354E-05
       234   -1.367578E-04
       235    1.206586E-06
       236   -2.984980E-07
       237   -4.946929E-03
       238    3.339988E-03
       239    1.606941E-03
       240    2.201504E-04
       241    1.728255E-05
       242    1.141870E-05
       243   -1.250678E-02
       244    1.345488E-02
       245   -9.481022E-04
       246    4.678509E-03
       247   -8.360033E-06
       248    1.752037E-05
       249    1.474954E-05
       250    3.341211E-05
       251   -2.403139E-07
       252   -1.775093E-05
       253   -3.168878E-05
       254   -9.838199E-08
       255   -2.037660E-06
       256   -1.313827E-05
       257    4.207969E-07
       258    8.539814E-07
       259   -1.246282E-02
       260   -1.698461E-02
       261   -3.523983E-02
       262   -1.646482E-03
       263   -2.215589E-03
       264    9.602470E-07
       265   -4.648115E-03
       266   -9.993653E-04
       267    3.045900E-05
       268    1.246291E-02
       269    1.698408E-02
       270    3.524439E-02
       271    1.646469E-03
       272   -2.215531E-03
       273   -1.229786E-06
       274    4.649512E-03
       275   -9.980483E-04
       276   -2.269548E-05
       277    2.448695E-03
       278    4.601721E-03
       279    1.805240E-02
       280    2.471181E-04
       281   -3.403441E-04
       282    3.261121E-06
       283   -2.640351E-03
       284    2.023103E-04
       285   -2.503373E-05
       286   -2.448735E-03
       287   -4.601580E-03
       288   -1.806689E-02
       289   -2.471198E-04
       290   -3.403103E-04
       291   -2.317863E-06
       292    2.641069E-03
       293    2.037099E-04
       294    2.584047E-05
       295    6.375272E-09
       296    1.253132E-08
       297    1.781264E-08
       298   -5.856223E-07
       299    9.161348E-07
       300    6.721577E-07
       301    4.930602E-07
       302    3.412136E-02
       303   -3.247006E-06
       304    7.683401E-07
       305    2.582599E-02
       306   -4.470229E-06
       307    1.954328E-06
       308   -3.972825E-03
       309   -7.903700E-06
       310    9.390355E-08
       311   -1.198771E-07
       312    2.597355E-08
       313   -9.472046E-03
       314   -4.589854E-07
       315    2.037124E-05
       316    3.499664E-07
       317   -2.909266E-07
       318   -5.903976E-08
       319   -2.637492E-02
       320   -6.223502E-07
       321    5.712956E-05
       322   -6.246627E-08
       323    1.103958E-07
       324   -4.792956E-08
       325    8.684651E-03
       326    5.076955E-06
       327   -1.991698E-05
       328   -4.251032E-09
       329   -2.224242E-03
       330    1.664557E-08
       331    7.058966E-09
       332    3.125223E-03
       333   -4.443260E-08
       334   -1.355608E-09
       335   -1.410889E-04
       336    2.210022E-08
       337   -8.115378E-06
       338   -1.421299E-03
       339   -3.617878E-03
       340    5.323781E-03
       341   -1.259463E-03
       342    1.196247E-02
       343   -1.541029E-02
       344   -2.628236E-01
       345   -2.280474E-01
       346    5.679814E-04
       347   -2.386784E-01
       348   -1.998968E-01
       349    5.150971E-04
       350   -1.806098E-01
       351   -1.466794E-01
       352    3.990418E-04
       353   -2.944950E-02
       354   -1.533957E-02
       355    6.578878E-05
       356   -2.107783E-03
       357    2.713395E-03
       358   -6.056123E-04
       359   -1.707469E-05
       360    3.675782E-06
       361    8.931806E-08
       362   -6.387004E-03
       363    7.068782E-03
       364   -6.817788E-04
       365    1.240720E-03
       366    1.378782E-05
       367   -2.917427E-06
       368   -7.129896E-03
       369    6.472379E-03
       370    6.575176E-04
       371    1.572855E-03
       372    1.505962E-05
       373   -7.828697E-06
       374   -2.483063E-04
       375   -7.878076E-04
       376    5.534374E-07
       377    4.511957E-04
       378    8.846896E-04
       379    2.613027E-07
       380   -1.180578E-04
       381    1.722653E-04
       382   -1.003817E-06
       383   -1.742923E-06
       384    1.421392E-03
       385    3.618110E-03
       386   -5.324147E-03
       387    1.258951E-03
       388   -1.196310E-02
       389    1.540971E-02
       390    2.628196E-01
       391   -2.280462E-01
       392   -5.563415E-04
       393    2.386748E-01
       394   -1.998957E-01
       395   -5.049511E-04
       396    1.806068E-01
       397   -1.466776E-01
       398   -3.752871E-04
       399    2.944901E-02
       400   -1.533923E-02
       401   -6.457515E-05
       402    2.107770E-03
       403   -2.713396E-03
       404    6.056260E-04
       405   -1.711439E-05
       406   -3.795611E-06
       407    9.418179E-08
       408    6.386929E-03
       409   -7.068755E-03
       410    6.818263E-04
       411    1.240643E-03
       412   -1.440084E-05
       413   -2.094183E-06
       414    7.129810E-03
       415   -6.472273E-03
       416   -6.575369E-04
       417    1.572955E-03
       418   -2.158998E-05
       419   -2.154972E-06
       420    2.483084E-04
       421   -7.877997E-04
       422   -6.402209E-07
       423   -4.512035E-04
       424    8.846748E-04
       425   -1.925206E-07
       426    1.180629E-04
       427    1.722694E-04
       428    1.051467E-06
       429   -1.805287E-06
       430   -3.173299E-07
       431   -7.535821E-07
       432    1.160254E-06
       433    2.145221E-06
       434    1.099665E-06
       435    4.010309E-06
       436    1.210420E-06
       437   -3.687411E-03
       438   -1.669894E-05
       439    1.072638E-06
       440   -2.296759E-03
       441   -1.648627E-05
       442   -6.014112E-07
       443   -4.035011E-03
       444   -1.423412E-05
       445    6.276361E-10
       446    6.190209E-09
       447   -6.817845E-09
       448   -2.301081E-04
       449   -5.936652E-08
       450   -3.612063E-05
       451    1.086319E-07
       452    3.894491E-09
       453   -1.125264E-07
       454   -9.980712E-04
       455   -2.648612E-07
       456   -5.010357E-05
       457    6.602989E-07
       458   -4.512952E-07
       459   -2.090037E-07
       460    1.125433E-03
       461   -3.253292E-07
       462   -5.790983E-05
       463    8.747040E-09
       464   -4.488856E-05
       465    6.629788E-08
       466    4.525851E-09
       467    5.552880E-05
       468   -3.354109E-08
       469   -1.626124E-08
       470    4.695522E-06
       471   -5.540684E-08
       472   -9.843697E-06
       473   -2.091636E-03
       474   -2.979286E-03
       475   -3.670082E-03
       476    1.262459E-04
       477    1.737766E-04
       478    3.555645E-05
       479    6.580424E-04
       480    2.894307E-04
       481    1.786816E-04
       482    2.090484E-03
       483    2.977903E-03
       484    3.672213E-03
       485   -1.260199E-04
       486    1.735920E-04
       487   -3.713735E-05
       488   -6.599819E-04
       489    2.891661E-04
       490   -1.802875E-04
 Sym= X
 Ene= 0.895843
 Spin= Alpha
 Occup= 0.895843
         1    1.929364E-05
         2    4.579690E-05
         3   -1.373290E-04
         4    9.601770E-05
         5    3.051247E-02
         6   -2.834535E-04
         7   -2.111211E-04
         8   -6.648687E-05
         9   -9.686704E-02
        10   -2.859132E-04
        11   -1.873461E-05
        12   -9.627365E-02
        13    2.055740E-02
        14   -1.520786E-02
        15   -5.438318E-02
        16   -6.346112E-06
        17    2.097590E-06
        18    4.248522E-06
        19   -2.587493E-06
        20    4.108604E-04
        21   -6.312482E-04
        22    9.543762E-05
        23   -3.162856E-05
        24   -6.380906E-05
        25    1.609226E-05
        26    5.301164E-03
        27    9.172163E-05
        28    6.498413E-03
        29   -6.890990E-03
        30    3.925772E-04
        31    2.426085E-04
        32    6.576252E-03
        33    1.456964E-02
        34    2.922376E-06
        35   -1.384049E-06
        36    1.844969E-04
        37   -3.595574E-06
        38    2.667502E-07
        39    1.428202E-04
        40   -3.252047E-07
        41    1.590146E-06
        42   -3.903488E-04
        43   -3.835998E-05
        44    5.821532E-06
        45    9.842644E-06
        46    8.372001E-05
        47   -1.648760E-03
        48    6.014051E-02
        49    6.037796E-03
        50   -2.132625E-05
        51   -4.170752E-08
        52   -6.365103E-04
        53   -2.296341E-04
        54    2.451416E-06
        55   -3.766420E-03
        56    2.008339E-02
        57   -5.938080E-05
        58   -6.054673E-02
        59   -3.345839E-05
        60   -3.867575E-06
        61    3.732597E-05
        62    6.468246E-08