[Molden Format]
[Title]
ADC(2) - opt by CAM-B3LYP gaussian                                              
[Atoms] AU
 c     1    6 -.12588789760523E+01 -.22833296301999E+01 -.24948636837890E-01
 c     2    6 -.25574931053929E+01 0.00000000000000E+00 -.23691968959520E-01
 c     3    6 -.12588770863262E+01 0.22833296301999E+01 -.24954306016290E-01
 c     4    6 0.13320886199507E+01 0.22850077070059E+01 -.26951746538750E-01
 c     5    6 0.26868238359857E+01 0.00000000000000E+00 -.26437741030600E-01
 c     6    6 0.13320867302245E+01 -.22850077070059E+01 -.26946077360350E-01
 h     7    1 -.22977937121289E+01 -.40382313624087E+01 -.22371050392630E-01
 h     8    1 -.22977918224027E+01 0.40382332521348E+01 -.22380499023300E-01
 h     9    1 0.23512179234159E+01 0.40571966538783E+01 -.29234535707270E-01
 h    10    1 0.23512179234159E+01 -.40571947641522E+01 -.29223197350470E-01
 n    11    7 -.52733186864479E+01 0.00000000000000E+00 -.17996334395000E-01
 o    12    8 -.63812046469225E+01 0.20269448165729E+01 -.15568036314240E-01
 o    13    8 -.63812027571964E+01 -.20269467062990E+01 -.15583154123310E-01
 n    14    7 0.52441127328484E+01 0.00000000000000E+00 -.70347417454330E-01
 h    15    1 0.62045074583774E+01 0.16172030580838E+01 0.18832018534119E+00
 h    16    1 0.62045055686513E+01 -.16172049478099E+01 0.18831451616279E+00
[GTO]
    1 0
 s    6 1.00
 0.13575349682000E+05 0.60645503603591E-03
 0.20352333680000E+04 0.46979088884982E-02
 0.46322562359000E+03 0.24332477647552E-01
 0.13120019598000E+03 0.97399968307759E-01
 0.42853015891000E+02 0.30195584253780E+00
 0.15584185766000E+02 0.66233609137875E+00
 s    2 1.00
 0.62067138508000E+01 0.65595308539952E+00
 0.25764896527000E+01 0.37585633285142E+00
 s    1 1.00
 0.57696339419000E+00 0.10000000000000E+01
 s    1 1.00
 0.22972831358000E+00 0.10000000000000E+01
 s    1 1.00
 0.95164440028000E-01 0.10000000000000E+01
 s    1 1.00
 0.48475401370000E-01 0.10000000000000E+01
 p    4 1.00
 0.34697232244000E+02 0.11327220003114E-01
 0.79582622826000E+01 0.76169659202087E-01
 0.23780826883000E+01 0.30192252202676E+00
 0.81433208183000E+00 0.72785027349547E+00
 p    1 1.00
 0.28887547253000E+00 0.10000000000000E+01
 p    1 1.00
 0.10056823671000E+00 0.10000000000000E+01
 d    1 1.00
 0.10970000000000E+01 0.10000000000000E+01
 d    1 1.00
 0.31800000000000E+00 0.10000000000000E+01
 d    1 1.00
 0.90985336424000E-01 0.10000000000000E+01
 f    1 1.00
 0.76100000000000E+00 0.10000000000000E+01
 
    2 0
 s    6 1.00
 0.13575349682000E+05 0.60645503603591E-03
 0.20352333680000E+04 0.46979088884982E-02
 0.46322562359000E+03 0.24332477647552E-01
 0.13120019598000E+03 0.97399968307759E-01
 0.42853015891000E+02 0.30195584253780E+00
 0.15584185766000E+02 0.66233609137875E+00
 s    2 1.00
 0.62067138508000E+01 0.65595308539952E+00
 0.25764896527000E+01 0.37585633285142E+00
 s    1 1.00
 0.57696339419000E+00 0.10000000000000E+01
 s    1 1.00
 0.22972831358000E+00 0.10000000000000E+01
 s    1 1.00
 0.95164440028000E-01 0.10000000000000E+01
 s    1 1.00
 0.48475401370000E-01 0.10000000000000E+01
 p    4 1.00
 0.34697232244000E+02 0.11327220003114E-01
 0.79582622826000E+01 0.76169659202087E-01
 0.23780826883000E+01 0.30192252202676E+00
 0.81433208183000E+00 0.72785027349547E+00
 p    1 1.00
 0.28887547253000E+00 0.10000000000000E+01
 p    1 1.00
 0.10056823671000E+00 0.10000000000000E+01
 d    1 1.00
 0.10970000000000E+01 0.10000000000000E+01
 d    1 1.00
 0.31800000000000E+00 0.10000000000000E+01
 d    1 1.00
 0.90985336424000E-01 0.10000000000000E+01
 f    1 1.00
 0.76100000000000E+00 0.10000000000000E+01
 
    3 0
 s    6 1.00
 0.13575349682000E+05 0.60645503603591E-03
 0.20352333680000E+04 0.46979088884982E-02
 0.46322562359000E+03 0.24332477647552E-01
 0.13120019598000E+03 0.97399968307759E-01
 0.42853015891000E+02 0.30195584253780E+00
 0.15584185766000E+02 0.66233609137875E+00
 s    2 1.00
 0.62067138508000E+01 0.65595308539952E+00
 0.25764896527000E+01 0.37585633285142E+00
 s    1 1.00
 0.57696339419000E+00 0.10000000000000E+01
 s    1 1.00
 0.22972831358000E+00 0.10000000000000E+01
 s    1 1.00
 0.95164440028000E-01 0.10000000000000E+01
 s    1 1.00
 0.48475401370000E-01 0.10000000000000E+01
 p    4 1.00
 0.34697232244000E+02 0.11327220003114E-01
 0.79582622826000E+01 0.76169659202087E-01
 0.23780826883000E+01 0.30192252202676E+00
 0.81433208183000E+00 0.72785027349547E+00
 p    1 1.00
 0.28887547253000E+00 0.10000000000000E+01
 p    1 1.00
 0.10056823671000E+00 0.10000000000000E+01
 d    1 1.00
 0.10970000000000E+01 0.10000000000000E+01
 d    1 1.00
 0.31800000000000E+00 0.10000000000000E+01
 d    1 1.00
 0.90985336424000E-01 0.10000000000000E+01
 f    1 1.00
 0.76100000000000E+00 0.10000000000000E+01
 
    4 0
 s    6 1.00
 0.13575349682000E+05 0.60645503603591E-03
 0.20352333680000E+04 0.46979088884982E-02
 0.46322562359000E+03 0.24332477647552E-01
 0.13120019598000E+03 0.97399968307759E-01
 0.42853015891000E+02 0.30195584253780E+00
 0.15584185766000E+02 0.66233609137875E+00
 s    2 1.00
 0.62067138508000E+01 0.65595308539952E+00
 0.25764896527000E+01 0.37585633285142E+00
 s    1 1.00
 0.57696339419000E+00 0.10000000000000E+01
 s    1 1.00
 0.22972831358000E+00 0.10000000000000E+01
 s    1 1.00
 0.95164440028000E-01 0.10000000000000E+01
 s    1 1.00
 0.48475401370000E-01 0.10000000000000E+01
 p    4 1.00
 0.34697232244000E+02 0.11327220003114E-01
 0.79582622826000E+01 0.76169659202087E-01
 0.23780826883000E+01 0.30192252202676E+00
 0.81433208183000E+00 0.72785027349547E+00
 p    1 1.00
 0.28887547253000E+00 0.10000000000000E+01
 p    1 1.00
 0.10056823671000E+00 0.10000000000000E+01
 d    1 1.00
 0.10970000000000E+01 0.10000000000000E+01
 d    1 1.00
 0.31800000000000E+00 0.10000000000000E+01
 d    1 1.00
 0.90985336424000E-01 0.10000000000000E+01
 f    1 1.00
 0.76100000000000E+00 0.10000000000000E+01
 
    5 0
 s    6 1.00
 0.13575349682000E+05 0.60645503603591E-03
 0.20352333680000E+04 0.46979088884982E-02
 0.46322562359000E+03 0.24332477647552E-01
 0.13120019598000E+03 0.97399968307759E-01
 0.42853015891000E+02 0.30195584253780E+00
 0.15584185766000E+02 0.66233609137875E+00
 s    2 1.00
 0.62067138508000E+01 0.65595308539952E+00
 0.25764896527000E+01 0.37585633285142E+00
 s    1 1.00
 0.57696339419000E+00 0.10000000000000E+01
 s    1 1.00
 0.22972831358000E+00 0.10000000000000E+01
 s    1 1.00
 0.95164440028000E-01 0.10000000000000E+01
 s    1 1.00
 0.48475401370000E-01 0.10000000000000E+01
 p    4 1.00
 0.34697232244000E+02 0.11327220003114E-01
 0.79582622826000E+01 0.76169659202087E-01
 0.23780826883000E+01 0.30192252202676E+00
 0.81433208183000E+00 0.72785027349547E+00
 p    1 1.00
 0.28887547253000E+00 0.10000000000000E+01
 p    1 1.00
 0.10056823671000E+00 0.10000000000000E+01
 d    1 1.00
 0.10970000000000E+01 0.10000000000000E+01
 d    1 1.00
 0.31800000000000E+00 0.10000000000000E+01
 d    1 1.00
 0.90985336424000E-01 0.10000000000000E+01
 f    1 1.00
 0.76100000000000E+00 0.10000000000000E+01
 
    6 0
 s    6 1.00
 0.13575349682000E+05 0.60645503603591E-03
 0.20352333680000E+04 0.46979088884982E-02
 0.46322562359000E+03 0.24332477647552E-01
 0.13120019598000E+03 0.97399968307759E-01
 0.42853015891000E+02 0.30195584253780E+00
 0.15584185766000E+02 0.66233609137875E+00
 s    2 1.00
 0.62067138508000E+01 0.65595308539952E+00
 0.25764896527000E+01 0.37585633285142E+00
 s    1 1.00
 0.57696339419000E+00 0.10000000000000E+01
 s    1 1.00
 0.22972831358000E+00 0.10000000000000E+01
 s    1 1.00
 0.95164440028000E-01 0.10000000000000E+01
 s    1 1.00
 0.48475401370000E-01 0.10000000000000E+01
 p    4 1.00
 0.34697232244000E+02 0.11327220003114E-01
 0.79582622826000E+01 0.76169659202087E-01
 0.23780826883000E+01 0.30192252202676E+00
 0.81433208183000E+00 0.72785027349547E+00
 p    1 1.00
 0.28887547253000E+00 0.10000000000000E+01
 p    1 1.00
 0.10056823671000E+00 0.10000000000000E+01
 d    1 1.00
 0.10970000000000E+01 0.10000000000000E+01
 d    1 1.00
 0.31800000000000E+00 0.10000000000000E+01
 d    1 1.00
 0.90985336424000E-01 0.10000000000000E+01
 f    1 1.00
 0.76100000000000E+00 0.10000000000000E+01
 
    7 0
 s    3 1.00
 0.34061341000000E+02 0.25439307208879E-01
 0.51235746000000E+01 0.19008594890375E+00
 0.11646626000000E+01 0.85244113011042E+00
 s    1 1.00
 0.32723041000000E+00 0.10000000000000E+01
 s    1 1.00
 0.10307241000000E+00 0.10000000000000E+01
 p    1 1.00
 0.80000000000000E+00 0.10000000000000E+01
 p    1 1.00
 0.95774129632000E-01 0.10000000000000E+01
 
    8 0
 s    3 1.00
 0.34061341000000E+02 0.25439307208879E-01
 0.51235746000000E+01 0.19008594890375E+00
 0.11646626000000E+01 0.85244113011042E+00
 s    1 1.00
 0.32723041000000E+00 0.10000000000000E+01
 s    1 1.00
 0.10307241000000E+00 0.10000000000000E+01
 p    1 1.00
 0.80000000000000E+00 0.10000000000000E+01
 p    1 1.00
 0.95774129632000E-01 0.10000000000000E+01
 
    9 0
 s    3 1.00
 0.34061341000000E+02 0.25439307208879E-01
 0.51235746000000E+01 0.19008594890375E+00
 0.11646626000000E+01 0.85244113011042E+00
 s    1 1.00
 0.32723041000000E+00 0.10000000000000E+01
 s    1 1.00
 0.10307241000000E+00 0.10000000000000E+01
 p    1 1.00
 0.80000000000000E+00 0.10000000000000E+01
 p    1 1.00
 0.95774129632000E-01 0.10000000000000E+01
 
   10 0
 s    3 1.00
 0.34061341000000E+02 0.25439307208879E-01
 0.51235746000000E+01 0.19008594890375E+00
 0.11646626000000E+01 0.85244113011042E+00
 s    1 1.00
 0.32723041000000E+00 0.10000000000000E+01
 s    1 1.00
 0.10307241000000E+00 0.10000000000000E+01
 p    1 1.00
 0.80000000000000E+00 0.10000000000000E+01
 p    1 1.00
 0.95774129632000E-01 0.10000000000000E+01
 
   11 0
 s    6 1.00
 0.19730800647000E+05 0.58626402628763E-03
 0.29578958745000E+04 0.45428820586397E-02
 0.67322133595000E+03 0.23558413450084E-01
 0.19068249494000E+03 0.94709193292923E-01
 0.62295441898000E+02 0.29719784913376E+00
 0.22654161182000E+02 0.66916246895232E+00
 s    2 1.00
 0.89791477428000E+01 0.64596683630063E+00
 0.36863002370000E+01 0.38700574393705E+00
 s    1 1.00
 0.84660076805000E+00 0.10000000000000E+01
 s    1 1.00
 0.33647133771000E+00 0.10000000000000E+01
 s    1 1.00
 0.13647653675000E+00 0.10000000000000E+01
 s    1 1.00
 0.68441605847000E-01 0.10000000000000E+01
 p    4 1.00
 0.49200380510000E+02 0.11448825101764E-01
 0.11346790537000E+02 0.78422337970864E-01
 0.34273972411000E+01 0.30818094738830E+00
 0.11785525134000E+01 0.72027196368413E+00
 p    1 1.00
 0.41642204972000E+00 0.10000000000000E+01
 p    1 1.00
 0.14260826011000E+00 0.10000000000000E+01
 d    1 1.00
 0.16540000000000E+01 0.10000000000000E+01
 d    1 1.00
 0.46900000000000E+00 0.10000000000000E+01
 d    1 1.00
 0.12829642058000E+00 0.10000000000000E+01
 f    1 1.00
 0.10930000000000E+01 0.10000000000000E+01
 
   12 0
 s    6 1.00
 0.27032382631000E+05 0.57227335211155E-03
 0.40523871392000E+04 0.44353233492995E-02
 0.92232722710000E+03 0.23020107706038E-01
 0.26124070989000E+03 0.92822490667928E-01
 0.85354641351000E+02 0.29378500009671E+00
 0.31035035245000E+02 0.67401604501641E+00
 s    2 1.00
 0.12260860728000E+02 0.63839937025506E+00
 0.49987076005000E+01 0.39534587125718E+00
 s    1 1.00
 0.11703108158000E+01 0.10000000000000E+01
 s    1 1.00
 0.46474740994000E+00 0.10000000000000E+01
 s    1 1.00
 0.18504536357000E+00 0.10000000000000E+01
 s    1 1.00
 0.70288026270000E-01 0.10000000000000E+01
 p    4 1.00
 0.63274954801000E+02 0.12018332222616E-01
 0.14627049379000E+02 0.83005421790056E-01
 0.44501223456000E+01 0.31991743925964E+00
 0.15275799647000E+01 0.70715542916104E+00
 p    1 1.00
 0.52935117943000E+00 0.10000000000000E+01
 p    1 1.00
 0.17478421270000E+00 0.10000000000000E+01
 p    1 1.00
 0.51112745706000E-01 0.10000000000000E+01
 d    1 1.00
 0.23140000000000E+01 0.10000000000000E+01
 d    1 1.00
 0.64500000000000E+00 0.10000000000000E+01
 d    1 1.00
 0.14696477366000E+00 0.10000000000000E+01
 f    1 1.00
 0.14280000000000E+01 0.10000000000000E+01
 
   13 0
 s    6 1.00
 0.27032382631000E+05 0.57227335211155E-03
 0.40523871392000E+04 0.44353233492995E-02
 0.92232722710000E+03 0.23020107706038E-01
 0.26124070989000E+03 0.92822490667928E-01
 0.85354641351000E+02 0.29378500009671E+00
 0.31035035245000E+02 0.67401604501641E+00
 s    2 1.00
 0.12260860728000E+02 0.63839937025506E+00
 0.49987076005000E+01 0.39534587125718E+00
 s    1 1.00
 0.11703108158000E+01 0.10000000000000E+01
 s    1 1.00
 0.46474740994000E+00 0.10000000000000E+01
 s    1 1.00
 0.18504536357000E+00 0.10000000000000E+01
 s    1 1.00
 0.70288026270000E-01 0.10000000000000E+01
 p    4 1.00
 0.63274954801000E+02 0.12018332222616E-01
 0.14627049379000E+02 0.83005421790056E-01
 0.44501223456000E+01 0.31991743925964E+00
 0.15275799647000E+01 0.70715542916104E+00
 p    1 1.00
 0.52935117943000E+00 0.10000000000000E+01
 p    1 1.00
 0.17478421270000E+00 0.10000000000000E+01
 p    1 1.00
 0.51112745706000E-01 0.10000000000000E+01
 d    1 1.00
 0.23140000000000E+01 0.10000000000000E+01
 d    1 1.00
 0.64500000000000E+00 0.10000000000000E+01
 d    1 1.00
 0.14696477366000E+00 0.10000000000000E+01
 f    1 1.00
 0.14280000000000E+01 0.10000000000000E+01
 
   14 0
 s    6 1.00
 0.19730800647000E+05 0.58626402628763E-03
 0.29578958745000E+04 0.45428820586397E-02
 0.67322133595000E+03 0.23558413450084E-01
 0.19068249494000E+03 0.94709193292923E-01
 0.62295441898000E+02 0.29719784913376E+00
 0.22654161182000E+02 0.66916246895232E+00
 s    2 1.00
 0.89791477428000E+01 0.64596683630063E+00
 0.36863002370000E+01 0.38700574393705E+00
 s    1 1.00
 0.84660076805000E+00 0.10000000000000E+01
 s    1 1.00
 0.33647133771000E+00 0.10000000000000E+01
 s    1 1.00
 0.13647653675000E+00 0.10000000000000E+01
 s    1 1.00
 0.68441605847000E-01 0.10000000000000E+01
 p    4 1.00
 0.49200380510000E+02 0.11448825101764E-01
 0.11346790537000E+02 0.78422337970864E-01
 0.34273972411000E+01 0.30818094738830E+00
 0.11785525134000E+01 0.72027196368413E+00
 p    1 1.00
 0.41642204972000E+00 0.10000000000000E+01
 p    1 1.00
 0.14260826011000E+00 0.10000000000000E+01
 d    1 1.00
 0.16540000000000E+01 0.10000000000000E+01
 d    1 1.00
 0.46900000000000E+00 0.10000000000000E+01
 d    1 1.00
 0.12829642058000E+00 0.10000000000000E+01
 f    1 1.00
 0.10930000000000E+01 0.10000000000000E+01
 
   15 0
 s    3 1.00
 0.34061341000000E+02 0.25439307208879E-01
 0.51235746000000E+01 0.19008594890375E+00
 0.11646626000000E+01 0.85244113011042E+00
 s    1 1.00
 0.32723041000000E+00 0.10000000000000E+01
 s    1 1.00
 0.10307241000000E+00 0.10000000000000E+01
 p    1 1.00
 0.80000000000000E+00 0.10000000000000E+01
 p    1 1.00
 0.95774129632000E-01 0.10000000000000E+01
 
   16 0
 s    3 1.00
 0.34061341000000E+02 0.25439307208879E-01
 0.51235746000000E+01 0.19008594890375E+00
 0.11646626000000E+01 0.85244113011042E+00
 s    1 1.00
 0.32723041000000E+00 0.10000000000000E+01
 s    1 1.00
 0.10307241000000E+00 0.10000000000000E+01
 p    1 1.00
 0.80000000000000E+00 0.10000000000000E+01
 p    1 1.00
 0.95774129632000E-01 0.10000000000000E+01
 
[MO]
 Sym= X
 Ene= -0.215621
 Spin= Alpha
 Occup= -0.215621
         1    1.582817E-04
         2    3.685339E-04
         3   -1.041940E-03
         4    2.288263E-03
         5    1.019758E-02
         6    9.935720E-03
         7   -1.517869E-03
         8   -2.322764E-04
         9   -3.773234E-02
        10    2.105135E-03
        11   -4.099389E-04
        12   -3.561218E-02
        13    3.303393E-02
        14   -9.591637E-03
        15   -7.692884E-03
        16   -2.414648E-06
        17    1.324616E-05
        18   -1.083152E-05
        19    1.294837E-05
        20    6.242025E-03
        21   -4.211672E-03
        22    5.934179E-04
        23   -3.577049E-04
        24   -2.357130E-04
        25    6.398753E-04
        26    1.415147E-02
        27   -7.854943E-03
        28    4.771671E-03
        29   -4.447239E-03
        30   -3.244319E-04
        31   -1.003030E-03
        32   -1.040612E-03
        33    1.063563E-02
        34    1.717894E-05
        35   -6.695701E-06
        36    2.217437E-04
        37   -7.160340E-06
        38    6.867631E-06
        39    6.253258E-04
        40   -1.588762E-05
        41    2.115595E-06
        42   -9.228262E-04
        43    7.307248E-04
        44   -1.993952E-05
        45   -4.319233E-05
        46   -1.375811E-04
        47    2.431874E-03
        48    4.797069E-02
        49   -4.561795E-03
        50   -4.334779E-04
        51    4.814021E-06
        52   -2.204483E-01
        53    3.010381E-04
        54   -1.497651E-05
        55   -2.281494E-01
        56    1.550686E-02
        57    1.166348E-03
        58   -2.095429E-01
        59   -3.509984E-05
        60    3.190421E-05
        61    3.195628E-06
        62    1.201234E-07
        63    4.584563E-04
        64   -5.591547E-07
        65   -3.338280E-04
        66    5.608688E-04
        67   -2.270408E-04
        68   -3.771666E-06
        69    3.015106E-03
        70   -8.178782E-07
        71   -8.132490E-03
        72    9.172719E-03
        73   -1.040228E-03
        74    2.014047E-04
        75   -5.698526E-03
        76    1.544944E-05
        77   -7.592383E-06
        78   -8.393540E-08
        79    1.278226E-03
        80    6.032338E-06
        81    3.591645E-08
        82   -7.549555E-04
        83    4.153913E-06
        84    7.669471E-08
        85   -9.599642E-04
        86   -6.196172E-08
        87    1.602645E-04
        88    3.730482E-04
        89   -1.057143E-03
        90    2.357489E-03
        91    8.171279E-03
        92    9.862687E-03
        93   -1.513580E-03
        94    2.147623E-04
        95   -3.775627E-02
        96    2.101092E-03
        97    3.813390E-04
        98   -3.563437E-02
        99    3.378291E-02
       100    1.084516E-02
       101   -7.780405E-03
       102   -2.053693E-06
       103    1.293080E-05
       104   -1.087711E-05
       105   -1.246172E-05
       106    6.242141E-03
       107    4.211844E-03
       108    5.916702E-04
       109   -3.543810E-04
       110   -2.372891E-04
       111   -6.352120E-04
       112    1.414917E-02
       113    7.854282E-03
       114    4.994874E-03
       115   -4.694438E-03
       116   -3.004364E-04
       117    8.492149E-04
       118   -1.042666E-03
       119   -1.061101E-02
       120    1.734270E-05
       121    6.667713E-06
       122    2.218525E-04
       123   -7.426299E-06
       124   -6.936226E-06
       125    6.252139E-04
       126   -1.584138E-05
       127   -2.009450E-06
       128   -9.228603E-04
       129   -7.306463E-04
       130   -1.070259E-04
       131   -2.303122E-04
       132   -5.389770E-04
       133    9.460226E-03
       134   -2.803028E-02
       135   -1.093488E-02
       136    1.175764E-03
       137   -6.256104E-04
       138    1.442061E-01
       139    8.160190E-03
       140   -5.590804E-03
       141    1.472423E-01
       142    2.398959E-02
       143    5.900519E-03
       144    8.951807E-02
       145   -1.321059E-04
       146    1.597359E-04
       147   -2.762997E-05
       148    2.611730E-06
       149    1.131837E-03
       150   -2.829225E-03
       151   -5.558576E-04
       152    6.817387E-04
       153   -1.258811E-04
       154   -1.525251E-03
       155    4.561261E-03
       156   -4.813874E-03
       157   -7.506844E-03
       158    5.886683E-03
       159    1.620161E-03
       160    7.644499E-03
       161   -3.368562E-03
       162    1.197358E-02
       163    1.303305E-05
       164   -9.148815E-06
       165   -7.787922E-04
       166    1.755083E-05
       167   -1.479723E-05
       168    1.365173E-04
       169   -3.503650E-05
       170    2.707166E-05
       171    9.083421E-04
       172   -3.451877E-04
       173    1.010836E-03
       174    2.303159E-03
       175   -2.341077E-03
       176   -1.990006E-02
       177    9.496162E-03
       178   -9.528413E-03
       179   -8.203273E-03
       180   -4.676092E-06
       181    1.087327E-01
       182   -6.395977E-04
       183    6.902421E-06
       184    1.115226E-01
       185    2.174746E-02
       186   -1.279842E-03
       187    1.310617E-01
       188   -4.323551E-04
       189    2.414416E-04
       190    1.909135E-04
       191   -7.018558E-08
       192   -9.435403E-03
       193   -3.083073E-07
       194    1.637396E-03
       195   -3.666014E-03
       196    2.028618E-03
       197   -2.577319E-06
       198   -2.334958E-02
       199    2.014190E-06
       200    5.223053E-03
       201   -6.477267E-03
       202    1.254214E-03
       203    2.162364E-04
       204   -1.862044E-02
       205    5.817993E-06
       206   -1.063604E-04
       207   -2.218050E-08
       208   -2.896000E-04
       209    7.483665E-05
       210    6.763733E-08
       211   -1.020000E-03
       212    6.786084E-05
       213   -3.787906E-08
       214    1.408539E-03
       215   -8.491720E-08
       216   -1.072286E-04
       217   -2.305226E-04
       218   -5.457186E-04
       219    9.537264E-03
       220   -3.028634E-02
       221   -1.098394E-02
       222    1.179090E-03
       223    6.242544E-04
       224    1.442149E-01
       225    8.160782E-03
       226    5.605211E-03
       227    1.472581E-01
       228    2.308264E-02
       229   -7.393188E-03
       230    8.946374E-02
       231   -1.318833E-04
       232    1.602497E-04
       233   -2.836649E-05
       234   -2.136710E-06
       235    1.131399E-03
       236    2.829316E-03
       237   -5.557392E-04
       238    6.824686E-04
       239   -1.267295E-04
       240    1.528122E-03
       241    4.558778E-03
       242    4.813827E-03
       243   -7.285754E-03
       244    5.651878E-03
       245    1.633876E-03
       246   -7.841984E-03
       247   -3.364378E-03
       248   -1.200981E-02
       249    1.295713E-05
       250    9.223686E-06
       251   -7.790842E-04
       252    1.774363E-05
       253    1.471424E-05
       254    1.368117E-04
       255   -3.512744E-05
       256   -2.708911E-05
       257    9.084395E-04
       258    3.451566E-04
       259    3.495765E-04
       260    2.327897E-04
       261    1.563502E-02
       262    1.273113E-05
       263    2.793595E-06
       264   -1.406843E-03
       265    4.738672E-03
       266    2.220005E-04
       267    6.892416E-03
       268    3.391627E-04
       269    2.101644E-04
       270    1.546202E-02
       271    1.067287E-05
       272   -8.031928E-07
       273   -1.408101E-03
       274    4.852700E-03
       275   -1.219554E-04
       276    6.873133E-03
       277    3.752800E-04
       278    2.104674E-03
       279   -3.011928E-02
       280    9.180093E-06
       281   -8.827937E-05
       282    5.927502E-03
       283    1.353644E-03
       284    2.408014E-03
       285   -1.516614E-03
       286    3.761430E-04
       287    2.105215E-03
       288   -3.049879E-02
       289    9.001342E-06
       290    8.820392E-05
       291    5.928227E-03
       292    1.269787E-03
       293   -2.530682E-03
       294   -1.543101E-03
       295    3.918854E-05
       296    9.050565E-05
       297   -7.237825E-05
       298   -3.824634E-04
       299    6.085340E-03
       300   -1.089096E-03
       301   -3.738856E-04
       302    1.148616E-07
       303   -1.450104E-02
       304   -1.091701E-04
       305   -9.127699E-07
       306   -1.721831E-02
       307    2.617789E-03
       308   -3.154122E-05
       309   -9.182664E-03
       310   -2.089262E-05
       311    4.530138E-06
       312    1.636248E-05
       313    3.633936E-07
       314   -4.873795E-03
       315   -1.020866E-07
       316   -1.019538E-05
       317   -5.740622E-05
       318    6.760160E-05
       319    1.783861E-06
       320   -1.453531E-02
       321   -1.023019E-07
       322    9.653130E-04
       323   -2.584989E-03
       324    1.619676E-03
       325   -3.462196E-05
       326   -3.512202E-03
       327   -3.800330E-06
       328   -6.661280E-06
       329    6.666104E-08
       330   -4.927050E-05
       331    4.770119E-06
       332   -1.193017E-07
       333   -7.435793E-04
       334    4.166926E-06
       335    2.986650E-08
       336    8.096826E-04
       337    2.073779E-09
       338    1.157237E-05
       339    2.503811E-05
       340    2.964540E-06
       341   -4.570734E-04
       342    5.229063E-03
       343    7.822238E-04
       344    2.259285E-04
       345   -9.150562E-05
       346    8.938599E-02
       347    2.967730E-04
       348   -2.114908E-04
       349    8.278561E-02
       350    1.374460E-03
       351   -3.975921E-04
       352    6.609485E-02
       353    1.404681E-04
       354   -1.936289E-04
       355    7.927073E-03
       356   -2.926615E-06
       357    3.677183E-06
       358   -7.505677E-07
       359   -6.499978E-07
       360    4.214452E-05
       361   -6.079673E-04
       362    1.287440E-05
       363    8.463472E-06
       364   -2.133788E-05
       365   -1.124786E-05
       366    7.180027E-04
       367   -1.980912E-03
       368    8.153307E-05
       369   -6.193560E-05
       370   -1.959747E-05
       371   -8.803698E-05
       372    3.326408E-04
       373   -3.518353E-04
       374   -7.338350E-07
       375   -1.370954E-06
       376   -8.828669E-05
       377    1.339029E-06
       378    8.623186E-08
       379   -9.141244E-05
       380   -3.544856E-07
       381    1.753097E-06
       382    2.098615E-04
       383   -1.708057E-04
       384    1.105914E-05
       385    2.382434E-05
       386    4.153416E-06
       387   -4.501841E-04
       388    5.230238E-03
       389    7.412400E-04
       390    2.027381E-04
       391    1.074430E-04
       392    8.938926E-02
       393    2.758495E-04
       394    2.245453E-04
       395    8.278898E-02
       396    1.323365E-03
       397    4.074660E-04
       398    6.609167E-02
       399    1.214807E-04
       400    1.983698E-04
       401    7.931917E-03
       402   -3.067999E-06
       403    3.868415E-06
       404   -8.004152E-07
       405    6.587039E-07
       406    4.220562E-05
       407    6.079925E-04
       408    1.209104E-05
       409    8.829437E-06
       410   -2.092048E-05
       411    1.052772E-05
       412    7.179664E-04
       413    1.981026E-03
       414    8.029963E-05
       415   -6.216571E-05
       416   -1.813392E-05
       417    8.731901E-05
       418    3.337365E-04
       419    3.510535E-04
       420   -7.489343E-07
       421    1.424712E-06
       422   -8.829770E-05
       423    1.342137E-06
       424   -1.609740E-07
       425   -9.140753E-05
       426   -3.373359E-07
       427   -1.750477E-06
       428    2.098713E-04
       429    1.708213E-04
       430   -4.494836E-03
       431   -1.066104E-02
       432    1.655906E-02
       433    2.557960E-02
       434    2.139588E-02
       435    6.418510E-02
       436    1.576396E-02
       437   -1.132594E-05
       438   -2.415892E-01
       439    1.791016E-02
       440   -1.860732E-06
       441   -2.388298E-01
       442    1.571151E-02
       443    1.073507E-04
       444   -1.968656E-01
       445    8.668250E-05
       446    1.104043E-05
       447   -9.772294E-05
       448   -2.102636E-07
       449   -7.770252E-04
       450   -2.621247E-07
       451    2.231769E-04
       452    1.364770E-03
       453   -1.587946E-03
       454    4.018412E-06
       455   -3.587641E-03
       456   -9.232591E-07
       457    1.804039E-03
       458    2.544412E-03
       459   -4.348452E-03
       460    1.022074E-05
       461   -2.029873E-03
       462   -9.566299E-06
       463    1.272814E-04
       464   -2.482691E-08
       465    9.541341E-04
       466    7.904642E-05
       467    6.674106E-09
       468   -5.043972E-04
       469   -2.498123E-04
       470    2.663469E-08
       471   -7.757080E-04
       472   -2.778626E-08
       473   -8.527918E-03
       474   -1.611954E-02
       475   -2.712456E-02
       476    2.039497E-03
       477    1.700229E-03
       478   -1.229591E-02
       479   -1.493518E-03
       480    3.268524E-03
       481   -1.452193E-02
       482   -8.520520E-03
       483   -1.604514E-02
       484   -2.685040E-02
       485    2.035773E-03
       486   -1.692867E-03
       487   -1.229966E-02
       488   -1.518524E-03
       489   -3.221777E-03
       490   -1.453566E-02
 Sym= X
 Ene= -0.692686
 Spin= Alpha
 Occup= -0.692686
         1   -1.737617E-05
         2   -3.919763E-05
         3    9.835516E-05
         4   -1.529013E-04
         5   -1.014986E-02
         6   -5.228124E-04
         7   -3.315518E-05
         8   -1.663790E-04
         9   -1.883517E-01
        10   -4.626437E-04
        11   -3.497075E-05
        12   -1.888289E-01
        13    3.960299E-03
        14   -6.473351E-03
        15   -1.100097E-01
        16   -4.534114E-06
        17   -9.965519E-07
        18    5.530666E-06
        19    2.563856E-06
        20   -4.965667E-03
        21   -5.421314E-04
        22   -8.433316E-05
        23    4.988269E-05
        24    3.445047E-05
        25    1.614190E-05
        26   -9.533329E-03
        27    4.146940E-04
        28    8.401653E-04
        29   -9.847235E-04
        30    1.445582E-04
        31    5.047438E-04
        32   -2.811519E-03
        33   -4.860393E-04
        34   -4.088551E-06
        35   -1.034907E-06
        36    1.162317E-03
        37    9.575103E-07
        38    4.252950E-07
        39   -1.405639E-03
        40    4.527857E-06
        41    9.631791E-07
        42   -1.537732E-04
        43   -3.130754E-06
        44   -2.056005E-07
        45   -4.319260E-07
        46    1.608537E-06
        47   -3.040867E-05
        48    2.150884E-03
        49    1.147561E-04
        50   -5.818411E-06
        51    1.778113E-04
        52    5.277475E-06
        53   -7.340785E-06
        54    2.924076E-04
        55    1.302335E-05
        56    1.016849E-03
        57   -1.009319E-02
        58    6.502476E-05
        59    7.459611E-08
        60   -1.868455E-07
        61    1.122494E-07
        62    1.347933E-05