[Molden Format]
[Title]
ADC(2) - opt by CAM-B3LYP gaussian                                              
[Atoms] AU
 c     1    6 -.12588789760523E+01 -.22833296301999E+01 -.24948636837890E-01
 c     2    6 -.25574931053929E+01 0.00000000000000E+00 -.23691968959520E-01
 c     3    6 -.12588770863262E+01 0.22833296301999E+01 -.24954306016290E-01
 c     4    6 0.13320886199507E+01 0.22850077070059E+01 -.26951746538750E-01
 c     5    6 0.26868238359857E+01 0.00000000000000E+00 -.26437741030600E-01
 c     6    6 0.13320867302245E+01 -.22850077070059E+01 -.26946077360350E-01
 h     7    1 -.22977937121289E+01 -.40382313624087E+01 -.22371050392630E-01
 h     8    1 -.22977918224027E+01 0.40382332521348E+01 -.22380499023300E-01
 h     9    1 0.23512179234159E+01 0.40571966538783E+01 -.29234535707270E-01
 h    10    1 0.23512179234159E+01 -.40571947641522E+01 -.29223197350470E-01
 n    11    7 -.52733186864479E+01 0.00000000000000E+00 -.17996334395000E-01
 o    12    8 -.63812046469225E+01 0.20269448165729E+01 -.15568036314240E-01
 o    13    8 -.63812027571964E+01 -.20269467062990E+01 -.15583154123310E-01
 n    14    7 0.52441127328484E+01 0.00000000000000E+00 -.70347417454330E-01
 h    15    1 0.62045074583774E+01 0.16172030580838E+01 0.18832018534119E+00
 h    16    1 0.62045055686513E+01 -.16172049478099E+01 0.18831451616279E+00
[GTO]
    1 0
 s    6 1.00
 0.13575349682000E+05 0.60645503603591E-03
 0.20352333680000E+04 0.46979088884982E-02
 0.46322562359000E+03 0.24332477647552E-01
 0.13120019598000E+03 0.97399968307759E-01
 0.42853015891000E+02 0.30195584253780E+00
 0.15584185766000E+02 0.66233609137875E+00
 s    2 1.00
 0.62067138508000E+01 0.65595308539952E+00
 0.25764896527000E+01 0.37585633285142E+00
 s    1 1.00
 0.57696339419000E+00 0.10000000000000E+01
 s    1 1.00
 0.22972831358000E+00 0.10000000000000E+01
 s    1 1.00
 0.95164440028000E-01 0.10000000000000E+01
 s    1 1.00
 0.48475401370000E-01 0.10000000000000E+01
 p    4 1.00
 0.34697232244000E+02 0.11327220003114E-01
 0.79582622826000E+01 0.76169659202087E-01
 0.23780826883000E+01 0.30192252202676E+00
 0.81433208183000E+00 0.72785027349547E+00
 p    1 1.00
 0.28887547253000E+00 0.10000000000000E+01
 p    1 1.00
 0.10056823671000E+00 0.10000000000000E+01
 d    1 1.00
 0.10970000000000E+01 0.10000000000000E+01
 d    1 1.00
 0.31800000000000E+00 0.10000000000000E+01
 d    1 1.00
 0.90985336424000E-01 0.10000000000000E+01
 f    1 1.00
 0.76100000000000E+00 0.10000000000000E+01
 
    2 0
 s    6 1.00
 0.13575349682000E+05 0.60645503603591E-03
 0.20352333680000E+04 0.46979088884982E-02
 0.46322562359000E+03 0.24332477647552E-01
 0.13120019598000E+03 0.97399968307759E-01
 0.42853015891000E+02 0.30195584253780E+00
 0.15584185766000E+02 0.66233609137875E+00
 s    2 1.00
 0.62067138508000E+01 0.65595308539952E+00
 0.25764896527000E+01 0.37585633285142E+00
 s    1 1.00
 0.57696339419000E+00 0.10000000000000E+01
 s    1 1.00
 0.22972831358000E+00 0.10000000000000E+01
 s    1 1.00
 0.95164440028000E-01 0.10000000000000E+01
 s    1 1.00
 0.48475401370000E-01 0.10000000000000E+01
 p    4 1.00
 0.34697232244000E+02 0.11327220003114E-01
 0.79582622826000E+01 0.76169659202087E-01
 0.23780826883000E+01 0.30192252202676E+00
 0.81433208183000E+00 0.72785027349547E+00
 p    1 1.00
 0.28887547253000E+00 0.10000000000000E+01
 p    1 1.00
 0.10056823671000E+00 0.10000000000000E+01
 d    1 1.00
 0.10970000000000E+01 0.10000000000000E+01
 d    1 1.00
 0.31800000000000E+00 0.10000000000000E+01
 d    1 1.00
 0.90985336424000E-01 0.10000000000000E+01
 f    1 1.00
 0.76100000000000E+00 0.10000000000000E+01
 
    3 0
 s    6 1.00
 0.13575349682000E+05 0.60645503603591E-03
 0.20352333680000E+04 0.46979088884982E-02
 0.46322562359000E+03 0.24332477647552E-01
 0.13120019598000E+03 0.97399968307759E-01
 0.42853015891000E+02 0.30195584253780E+00
 0.15584185766000E+02 0.66233609137875E+00
 s    2 1.00
 0.62067138508000E+01 0.65595308539952E+00
 0.25764896527000E+01 0.37585633285142E+00
 s    1 1.00
 0.57696339419000E+00 0.10000000000000E+01
 s    1 1.00
 0.22972831358000E+00 0.10000000000000E+01
 s    1 1.00
 0.95164440028000E-01 0.10000000000000E+01
 s    1 1.00
 0.48475401370000E-01 0.10000000000000E+01
 p    4 1.00
 0.34697232244000E+02 0.11327220003114E-01
 0.79582622826000E+01 0.76169659202087E-01
 0.23780826883000E+01 0.30192252202676E+00
 0.81433208183000E+00 0.72785027349547E+00
 p    1 1.00
 0.28887547253000E+00 0.10000000000000E+01
 p    1 1.00
 0.10056823671000E+00 0.10000000000000E+01
 d    1 1.00
 0.10970000000000E+01 0.10000000000000E+01
 d    1 1.00
 0.31800000000000E+00 0.10000000000000E+01
 d    1 1.00
 0.90985336424000E-01 0.10000000000000E+01
 f    1 1.00
 0.76100000000000E+00 0.10000000000000E+01
 
    4 0
 s    6 1.00
 0.13575349682000E+05 0.60645503603591E-03
 0.20352333680000E+04 0.46979088884982E-02
 0.46322562359000E+03 0.24332477647552E-01
 0.13120019598000E+03 0.97399968307759E-01
 0.42853015891000E+02 0.30195584253780E+00
 0.15584185766000E+02 0.66233609137875E+00
 s    2 1.00
 0.62067138508000E+01 0.65595308539952E+00
 0.25764896527000E+01 0.37585633285142E+00
 s    1 1.00
 0.57696339419000E+00 0.10000000000000E+01
 s    1 1.00
 0.22972831358000E+00 0.10000000000000E+01
 s    1 1.00
 0.95164440028000E-01 0.10000000000000E+01
 s    1 1.00
 0.48475401370000E-01 0.10000000000000E+01
 p    4 1.00
 0.34697232244000E+02 0.11327220003114E-01
 0.79582622826000E+01 0.76169659202087E-01
 0.23780826883000E+01 0.30192252202676E+00
 0.81433208183000E+00 0.72785027349547E+00
 p    1 1.00
 0.28887547253000E+00 0.10000000000000E+01
 p    1 1.00
 0.10056823671000E+00 0.10000000000000E+01
 d    1 1.00
 0.10970000000000E+01 0.10000000000000E+01
 d    1 1.00
 0.31800000000000E+00 0.10000000000000E+01
 d    1 1.00
 0.90985336424000E-01 0.10000000000000E+01
 f    1 1.00
 0.76100000000000E+00 0.10000000000000E+01
 
    5 0
 s    6 1.00
 0.13575349682000E+05 0.60645503603591E-03
 0.20352333680000E+04 0.46979088884982E-02
 0.46322562359000E+03 0.24332477647552E-01
 0.13120019598000E+03 0.97399968307759E-01
 0.42853015891000E+02 0.30195584253780E+00
 0.15584185766000E+02 0.66233609137875E+00
 s    2 1.00
 0.62067138508000E+01 0.65595308539952E+00
 0.25764896527000E+01 0.37585633285142E+00
 s    1 1.00
 0.57696339419000E+00 0.10000000000000E+01
 s    1 1.00
 0.22972831358000E+00 0.10000000000000E+01
 s    1 1.00
 0.95164440028000E-01 0.10000000000000E+01
 s    1 1.00
 0.48475401370000E-01 0.10000000000000E+01
 p    4 1.00
 0.34697232244000E+02 0.11327220003114E-01
 0.79582622826000E+01 0.76169659202087E-01
 0.23780826883000E+01 0.30192252202676E+00
 0.81433208183000E+00 0.72785027349547E+00
 p    1 1.00
 0.28887547253000E+00 0.10000000000000E+01
 p    1 1.00
 0.10056823671000E+00 0.10000000000000E+01
 d    1 1.00
 0.10970000000000E+01 0.10000000000000E+01
 d    1 1.00
 0.31800000000000E+00 0.10000000000000E+01
 d    1 1.00
 0.90985336424000E-01 0.10000000000000E+01
 f    1 1.00
 0.76100000000000E+00 0.10000000000000E+01
 
    6 0
 s    6 1.00
 0.13575349682000E+05 0.60645503603591E-03
 0.20352333680000E+04 0.46979088884982E-02
 0.46322562359000E+03 0.24332477647552E-01
 0.13120019598000E+03 0.97399968307759E-01
 0.42853015891000E+02 0.30195584253780E+00
 0.15584185766000E+02 0.66233609137875E+00
 s    2 1.00
 0.62067138508000E+01 0.65595308539952E+00
 0.25764896527000E+01 0.37585633285142E+00
 s    1 1.00
 0.57696339419000E+00 0.10000000000000E+01
 s    1 1.00
 0.22972831358000E+00 0.10000000000000E+01
 s    1 1.00
 0.95164440028000E-01 0.10000000000000E+01
 s    1 1.00
 0.48475401370000E-01 0.10000000000000E+01
 p    4 1.00
 0.34697232244000E+02 0.11327220003114E-01
 0.79582622826000E+01 0.76169659202087E-01
 0.23780826883000E+01 0.30192252202676E+00
 0.81433208183000E+00 0.72785027349547E+00
 p    1 1.00
 0.28887547253000E+00 0.10000000000000E+01
 p    1 1.00
 0.10056823671000E+00 0.10000000000000E+01
 d    1 1.00
 0.10970000000000E+01 0.10000000000000E+01
 d    1 1.00
 0.31800000000000E+00 0.10000000000000E+01
 d    1 1.00
 0.90985336424000E-01 0.10000000000000E+01
 f    1 1.00
 0.76100000000000E+00 0.10000000000000E+01
 
    7 0
 s    3 1.00
 0.34061341000000E+02 0.25439307208879E-01
 0.51235746000000E+01 0.19008594890375E+00
 0.11646626000000E+01 0.85244113011042E+00
 s    1 1.00
 0.32723041000000E+00 0.10000000000000E+01
 s    1 1.00
 0.10307241000000E+00 0.10000000000000E+01
 p    1 1.00
 0.80000000000000E+00 0.10000000000000E+01
 p    1 1.00
 0.95774129632000E-01 0.10000000000000E+01
 
    8 0
 s    3 1.00
 0.34061341000000E+02 0.25439307208879E-01
 0.51235746000000E+01 0.19008594890375E+00
 0.11646626000000E+01 0.85244113011042E+00
 s    1 1.00
 0.32723041000000E+00 0.10000000000000E+01
 s    1 1.00
 0.10307241000000E+00 0.10000000000000E+01
 p    1 1.00
 0.80000000000000E+00 0.10000000000000E+01
 p    1 1.00
 0.95774129632000E-01 0.10000000000000E+01
 
    9 0
 s    3 1.00
 0.34061341000000E+02 0.25439307208879E-01
 0.51235746000000E+01 0.19008594890375E+00
 0.11646626000000E+01 0.85244113011042E+00
 s    1 1.00
 0.32723041000000E+00 0.10000000000000E+01
 s    1 1.00
 0.10307241000000E+00 0.10000000000000E+01
 p    1 1.00
 0.80000000000000E+00 0.10000000000000E+01
 p    1 1.00
 0.95774129632000E-01 0.10000000000000E+01
 
   10 0
 s    3 1.00
 0.34061341000000E+02 0.25439307208879E-01
 0.51235746000000E+01 0.19008594890375E+00
 0.11646626000000E+01 0.85244113011042E+00
 s    1 1.00
 0.32723041000000E+00 0.10000000000000E+01
 s    1 1.00
 0.10307241000000E+00 0.10000000000000E+01
 p    1 1.00
 0.80000000000000E+00 0.10000000000000E+01
 p    1 1.00
 0.95774129632000E-01 0.10000000000000E+01
 
   11 0
 s    6 1.00
 0.19730800647000E+05 0.58626402628763E-03
 0.29578958745000E+04 0.45428820586397E-02
 0.67322133595000E+03 0.23558413450084E-01
 0.19068249494000E+03 0.94709193292923E-01
 0.62295441898000E+02 0.29719784913376E+00
 0.22654161182000E+02 0.66916246895232E+00
 s    2 1.00
 0.89791477428000E+01 0.64596683630063E+00
 0.36863002370000E+01 0.38700574393705E+00
 s    1 1.00
 0.84660076805000E+00 0.10000000000000E+01
 s    1 1.00
 0.33647133771000E+00 0.10000000000000E+01
 s    1 1.00
 0.13647653675000E+00 0.10000000000000E+01
 s    1 1.00
 0.68441605847000E-01 0.10000000000000E+01
 p    4 1.00
 0.49200380510000E+02 0.11448825101764E-01
 0.11346790537000E+02 0.78422337970864E-01
 0.34273972411000E+01 0.30818094738830E+00
 0.11785525134000E+01 0.72027196368413E+00
 p    1 1.00
 0.41642204972000E+00 0.10000000000000E+01
 p    1 1.00
 0.14260826011000E+00 0.10000000000000E+01
 d    1 1.00
 0.16540000000000E+01 0.10000000000000E+01
 d    1 1.00
 0.46900000000000E+00 0.10000000000000E+01
 d    1 1.00
 0.12829642058000E+00 0.10000000000000E+01
 f    1 1.00
 0.10930000000000E+01 0.10000000000000E+01
 
   12 0
 s    6 1.00
 0.27032382631000E+05 0.57227335211155E-03
 0.40523871392000E+04 0.44353233492995E-02
 0.92232722710000E+03 0.23020107706038E-01
 0.26124070989000E+03 0.92822490667928E-01
 0.85354641351000E+02 0.29378500009671E+00
 0.31035035245000E+02 0.67401604501641E+00
 s    2 1.00
 0.12260860728000E+02 0.63839937025506E+00
 0.49987076005000E+01 0.39534587125718E+00
 s    1 1.00
 0.11703108158000E+01 0.10000000000000E+01
 s    1 1.00
 0.46474740994000E+00 0.10000000000000E+01
 s    1 1.00
 0.18504536357000E+00 0.10000000000000E+01
 s    1 1.00
 0.70288026270000E-01 0.10000000000000E+01
 p    4 1.00
 0.63274954801000E+02 0.12018332222616E-01
 0.14627049379000E+02 0.83005421790056E-01
 0.44501223456000E+01 0.31991743925964E+00
 0.15275799647000E+01 0.70715542916104E+00
 p    1 1.00
 0.52935117943000E+00 0.10000000000000E+01
 p    1 1.00
 0.17478421270000E+00 0.10000000000000E+01
 p    1 1.00
 0.51112745706000E-01 0.10000000000000E+01
 d    1 1.00
 0.23140000000000E+01 0.10000000000000E+01
 d    1 1.00
 0.64500000000000E+00 0.10000000000000E+01
 d    1 1.00
 0.14696477366000E+00 0.10000000000000E+01
 f    1 1.00
 0.14280000000000E+01 0.10000000000000E+01
 
   13 0
 s    6 1.00
 0.27032382631000E+05 0.57227335211155E-03
 0.40523871392000E+04 0.44353233492995E-02
 0.92232722710000E+03 0.23020107706038E-01
 0.26124070989000E+03 0.92822490667928E-01
 0.85354641351000E+02 0.29378500009671E+00
 0.31035035245000E+02 0.67401604501641E+00
 s    2 1.00
 0.12260860728000E+02 0.63839937025506E+00
 0.49987076005000E+01 0.39534587125718E+00
 s    1 1.00
 0.11703108158000E+01 0.10000000000000E+01
 s    1 1.00
 0.46474740994000E+00 0.10000000000000E+01
 s    1 1.00
 0.18504536357000E+00 0.10000000000000E+01
 s    1 1.00
 0.70288026270000E-01 0.10000000000000E+01
 p    4 1.00
 0.63274954801000E+02 0.12018332222616E-01
 0.14627049379000E+02 0.83005421790056E-01
 0.44501223456000E+01 0.31991743925964E+00
 0.15275799647000E+01 0.70715542916104E+00
 p    1 1.00
 0.52935117943000E+00 0.10000000000000E+01
 p    1 1.00
 0.17478421270000E+00 0.10000000000000E+01
 p    1 1.00
 0.51112745706000E-01 0.10000000000000E+01
 d    1 1.00
 0.23140000000000E+01 0.10000000000000E+01
 d    1 1.00
 0.64500000000000E+00 0.10000000000000E+01
 d    1 1.00
 0.14696477366000E+00 0.10000000000000E+01
 f    1 1.00
 0.14280000000000E+01 0.10000000000000E+01
 
   14 0
 s    6 1.00
 0.19730800647000E+05 0.58626402628763E-03
 0.29578958745000E+04 0.45428820586397E-02
 0.67322133595000E+03 0.23558413450084E-01
 0.19068249494000E+03 0.94709193292923E-01
 0.62295441898000E+02 0.29719784913376E+00
 0.22654161182000E+02 0.66916246895232E+00
 s    2 1.00
 0.89791477428000E+01 0.64596683630063E+00
 0.36863002370000E+01 0.38700574393705E+00
 s    1 1.00
 0.84660076805000E+00 0.10000000000000E+01
 s    1 1.00
 0.33647133771000E+00 0.10000000000000E+01
 s    1 1.00
 0.13647653675000E+00 0.10000000000000E+01
 s    1 1.00
 0.68441605847000E-01 0.10000000000000E+01
 p    4 1.00
 0.49200380510000E+02 0.11448825101764E-01
 0.11346790537000E+02 0.78422337970864E-01
 0.34273972411000E+01 0.30818094738830E+00
 0.11785525134000E+01 0.72027196368413E+00
 p    1 1.00
 0.41642204972000E+00 0.10000000000000E+01
 p    1 1.00
 0.14260826011000E+00 0.10000000000000E+01
 d    1 1.00
 0.16540000000000E+01 0.10000000000000E+01
 d    1 1.00
 0.46900000000000E+00 0.10000000000000E+01
 d    1 1.00
 0.12829642058000E+00 0.10000000000000E+01
 f    1 1.00
 0.10930000000000E+01 0.10000000000000E+01
 
   15 0
 s    3 1.00
 0.34061341000000E+02 0.25439307208879E-01
 0.51235746000000E+01 0.19008594890375E+00
 0.11646626000000E+01 0.85244113011042E+00
 s    1 1.00
 0.32723041000000E+00 0.10000000000000E+01
 s    1 1.00
 0.10307241000000E+00 0.10000000000000E+01
 p    1 1.00
 0.80000000000000E+00 0.10000000000000E+01
 p    1 1.00
 0.95774129632000E-01 0.10000000000000E+01
 
   16 0
 s    3 1.00
 0.34061341000000E+02 0.25439307208879E-01
 0.51235746000000E+01 0.19008594890375E+00
 0.11646626000000E+01 0.85244113011042E+00
 s    1 1.00
 0.32723041000000E+00 0.10000000000000E+01
 s    1 1.00
 0.10307241000000E+00 0.10000000000000E+01
 p    1 1.00
 0.80000000000000E+00 0.10000000000000E+01
 p    1 1.00
 0.95774129632000E-01 0.10000000000000E+01
 
[MO]
 Sym= X
 Ene= -0.080922
 Spin= Alpha
 Occup= -0.080922
         1   -1.405045E-04
         2   -3.224451E-04
         3    9.386356E-04
         4   -2.201239E-03
         5   -9.772271E-03
         6   -9.540503E-03
         7    4.355127E-04
         8   -6.979044E-04
         9    2.944500E-02
        10   -2.729366E-03
        11   -3.821674E-04
        12    2.747228E-02
        13   -2.999801E-02
        14    8.680541E-03
        15    6.647008E-03
        16   -1.659612E-05
        17    3.703567E-06
        18    1.289255E-05
        19    2.421094E-05
        20   -6.534851E-03
        21    4.089532E-03
        22   -5.594026E-04
        23    3.270970E-04
        24    2.323056E-04
        25   -5.406225E-04
        26   -1.469731E-02
        27    7.686093E-03
        28   -4.612624E-03
        29    4.375847E-03
        30    2.367772E-04
        31    8.884380E-04
        32    1.233878E-03
        33   -9.238947E-03
        34   -1.969725E-05
        35    9.801201E-08
        36   -1.503856E-04
        37    7.799234E-06
        38   -1.942073E-06
        39   -6.908599E-04
        40    1.862739E-05
        41    1.810576E-06
        42    8.926233E-04
        43   -7.426091E-04
        44    1.074898E-04
        45    2.438873E-04
        46   -2.272389E-04
        47   -2.371263E-03
        48   -4.473257E-02
        49    4.430430E-03
        50   -1.643644E-04
        51    1.940876E-06
        52    2.178296E-01
        53   -6.404569E-04
        54    2.234016E-05
        55    2.254206E-01
        56   -1.513955E-02
        57   -1.216633E-03
        58    2.026927E-01
        59    1.639854E-05
        60   -1.989615E-05
        61    3.497607E-06
        62    1.742706E-07
        63   -1.047526E-03
        64    1.948326E-06
        65    2.763340E-04
        66   -4.814367E-04
        67    2.051027E-04
        68    4.652260E-06
        69   -4.073597E-03
        70    3.812533E-06
        71    6.941915E-03
        72   -7.910250E-03
        73    9.683351E-04
        74   -2.055480E-04
        75    5.374181E-03
        76   -1.336655E-05
        77    6.266376E-06
        78    8.407136E-08
        79   -1.289911E-03
        80   -7.648104E-06
        81   -2.385025E-09
        82    8.343578E-04
        83   -7.591224E-07
        84   -1.104085E-07
        85    8.962398E-04
        86    2.522537E-07
        87   -1.411561E-04
        88   -3.240485E-04
        89    9.493061E-04
        90   -2.275430E-03
        91   -7.614046E-03
        92   -9.464015E-03
        93    4.304129E-04
        94    6.984918E-04
        95    2.954284E-02
        96   -2.719197E-03
        97    3.992330E-04
        98    2.756833E-02
        99   -3.075649E-02
       100   -9.992275E-03
       101    6.788994E-03
       102   -1.694938E-05
       103    3.916149E-06
       104    1.303323E-05
       105   -2.412224E-05
       106   -6.533069E-03
       107   -4.089901E-03
       108   -5.563833E-04
       109    3.226259E-04
       110    2.337574E-04
       111    5.362626E-04
       112   -1.469120E-02
       113   -7.685481E-03
       114   -4.835819E-03
       115    4.624083E-03
       116    2.117366E-04
       117   -7.329285E-04
       118    1.242408E-03
       119    9.211273E-03
       120   -1.985090E-05
       121   -7.586675E-08
       122   -1.509522E-04
       123    8.080166E-06
       124    1.953764E-06
       125   -6.901995E-04
       126    1.855261E-05
       127   -1.851978E-06
       128    8.927232E-04
       129    7.425358E-04
       130    7.548813E-06
       131    8.179285E-06
       132    7.856286E-04
       133   -8.326292E-03
       134    2.773502E-02
       135    1.071827E-02
       136   -1.166193E-04
       137    1.674773E-04
       138   -1.571231E-01
       139   -6.820905E-03
       140    4.868158E-03
       141   -1.597843E-01
       142   -2.095892E-02
       143   -6.318440E-03
       144   -9.735296E-02
       145    7.549285E-05
       146   -9.208266E-05
       147    1.658982E-05
       148   -2.707251E-05
       149   -1.084362E-03
       150    3.181870E-03
       151    4.652198E-04
       152   -5.571808E-04
       153    9.196100E-05
       154    1.373745E-03
       155   -4.480138E-03
       156    5.436576E-03
       157    7.081573E-03
       158   -5.598493E-03
       159   -1.483081E-03
       160   -7.189997E-03
       161    3.198444E-03
       162   -1.055036E-02
       163   -1.348389E-05
       164    1.248177E-06
       165    8.983131E-04
       166   -1.101781E-05
       167    2.219143E-05
       168   -2.214029E-04
       169    2.910834E-05
       170   -2.386603E-05
       171   -9.838106E-04
       172    3.833811E-04
       173   -9.450420E-04
       174   -2.154464E-03
       175    2.214336E-03
       176    1.871903E-02
       177   -1.114549E-02
       178    8.084561E-03
       179    5.440348E-03
       180    8.128550E-06
       181   -1.274683E-01
       182   -9.539041E-04
       183   -3.212225E-06
       184   -1.295702E-01
       185   -1.976631E-02
       186    1.337840E-03
       187   -1.294476E-01
       188    2.935078E-04
       189   -1.300960E-04
       190   -1.634118E-04
       191   -1.641763E-07
       192    9.319461E-03
       193    1.739320E-06
       194   -1.636888E-03
       195    3.512162E-03
       196   -1.875274E-03
       197    2.020360E-06
       198    2.341386E-02
       199    8.513030E-07
       200   -4.154721E-03
       201    5.269337E-03
       202   -1.114616E-03
       203   -2.192912E-04
       204    1.878286E-02
       205   -8.922243E-06
       206    8.671005E-05
       207    3.947824E-08
       208    4.791316E-04
       209   -6.563218E-05
       210   -6.722979E-08
       211    8.555397E-04
       212   -5.070156E-05
       213    1.426418E-08
       214   -1.498362E-03
       215   -1.400082E-07
       216    8.449431E-06
       217    9.987082E-06
       218    7.892063E-04
       219   -8.403759E-03
       220    3.014097E-02
       221    1.077192E-02
       222   -1.244468E-04
       223   -1.707994E-04
       224   -1.572089E-01
       225   -6.829702E-03
       226   -4.885352E-03
       227   -1.598786E-01
       228   -2.003121E-02
       229    7.879124E-03
       230   -9.733870E-02
       231    7.535866E-05
       232   -9.275587E-05
       233    1.739721E-05
       234    2.668407E-05
       235   -1.082076E-03
       236   -3.182174E-03
       237    4.664890E-04
       238   -5.585544E-04
       239    9.206542E-05
       240   -1.376128E-03
       241   -4.474394E-03
       242   -5.436640E-03
       243    6.858977E-03
       244   -5.360536E-03
       245   -1.498441E-03
       246    7.392615E-03
       247    3.188556E-03
       248    1.058856E-02
       249   -1.345320E-05
       250   -1.288199E-06
       251    8.991233E-04
       252   -1.120112E-05
       253   -2.217164E-05
       254   -2.222746E-04
       255    2.925049E-05
       256    2.389994E-05
       257   -9.840258E-04
       258   -3.833618E-04
       259    3.131746E-04
       260    7.252811E-04
       261   -1.442545E-02
       262    2.520063E-05
       263    8.360969E-05
       264    1.154044E-03
       265   -4.573995E-03
       266   -9.175018E-05
       267   -5.875131E-03
       268    3.148151E-04
       269    7.359757E-04
       270   -1.424647E-02
       271    2.648998E-05
       272   -8.469726E-05
       273    1.158363E-03
       274   -4.684631E-03
       275   -7.318849E-06
       276   -5.848690E-03
       277   -1.624321E-04
       278   -1.725375E-03
       279    2.870153E-02
       280    2.355487E-07
       281    4.917763E-05
       282   -6.403248E-03
       283   -1.231162E-03
       284   -2.341775E-03
       285    3.675385E-04
       286   -1.636075E-04
       287   -1.726385E-03
       288    2.909826E-02
       289    1.334441E-07
       290   -4.920945E-05
       291   -6.407251E-03
       292   -1.148072E-03
       293    2.467108E-03
       294    3.949041E-04
       295   -1.942496E-05
       296   -4.555437E-05
       297   -1.224988E-06
       298    3.466015E-04
       299   -5.116118E-03
       300    1.837296E-03
       301    6.875997E-04
       302    1.331474E-06
       303    4.515167E-02
       304    3.707959E-04
       305    1.723237E-06
       306    4.618382E-02
       307   -2.613284E-03
       308    3.446236E-05
       309    1.633177E-02
       310    2.710645E-05
       311   -1.585096E-05
       312   -1.125549E-05
       313   -4.826485E-07
       314    4.341138E-03
       315   -1.945762E-07
       316    3.476921E-05
       317    3.446736E-05
       318   -6.923657E-05
       319   -1.848106E-06
       320    1.346897E-02
       321   -7.164611E-07
       322   -9.430315E-04
       323    2.441386E-03
       324   -1.498354E-03
       325    3.791839E-05
       326    4.145016E-03
       327    2.480887E-06
       328    6.282851E-06
       329   -1.088616E-07
       330   -1.597005E-04
       331   -2.318995E-06
       332    1.759532E-07
       333    7.813763E-04
       334   -6.110335E-06
       335   -2.989999E-08
       336   -5.671157E-04
       337    8.439846E-08
       338    5.666259E-05
       339    1.401926E-04
       340   -2.363869E-04
       341    9.522103E-05
       342   -5.127121E-03
       343   -9.159756E-04
       344   -2.427154E-04
       345    1.041691E-04
       346   -6.574417E-02
       347   -3.086166E-04
       348    2.256530E-04
       349   -6.136810E-02
       350   -1.339361E-03
       351    3.714547E-04
       352   -5.425146E-02
       353   -1.451908E-04
       354    2.017584E-04
       355   -7.263156E-03
       356    5.295056E-06
       357   -6.289314E-06
       358    9.942580E-07
       359    2.125031E-06
       360    1.897924E-04
       361    1.635264E-04
       362   -2.613186E-06
       363   -1.795133E-05
       364    2.056452E-05
       365    1.728434E-05
       366    2.768229E-05
       367    7.026356E-04
       368   -6.671851E-05
       369    5.327945E-05
       370    1.343906E-05
       371    8.118609E-05
       372   -2.106230E-05
       373   -1.396803E-04
       374    1.431895E-06
       375    1.886764E-06
       376    1.660184E-06
       377   -2.137134E-06
       378   -4.946194E-07
       379    8.360947E-05
       380    2.160446E-07
       381   -2.036741E-06
       382   -8.583685E-05
       383    5.497209E-05
       384    5.686917E-05
       385    1.406658E-04
       386   -2.364764E-04
       387    9.041142E-05
       388   -5.132595E-03
       389   -8.786166E-04
       390   -2.117295E-04
       391   -1.286153E-04
       392   -6.572855E-02
       393   -2.809219E-04
       394   -2.465338E-04
       395   -6.135372E-02
       396   -1.279066E-03
       397   -3.878188E-04
       398   -5.423760E-02
       399   -1.248500E-04
       400   -2.079832E-04
       401   -7.267985E-03
       402    5.484663E-06
       403   -6.574399E-06
       404    1.089736E-06
       405   -2.173339E-06
       406    1.898020E-04
       407   -1.633991E-04
       408   -1.534690E-06
       409   -1.869239E-05
       410    2.022708E-05
       411   -1.664033E-05
       412    2.794884E-05
       413   -7.022106E-04
       414   -6.507061E-05
       415    5.307964E-05
       416    1.199097E-05
       417   -7.944381E-05
       418   -2.244964E-05
       419    1.403697E-04
       420    1.456126E-06
       421   -1.968469E-06
       422    1.649839E-06
       423   -2.168390E-06
       424    5.955496E-07
       425    8.359184E-05
       426    2.147928E-07
       427    2.045428E-06
       428   -8.580533E-05
       429   -5.493837E-05
       430    4.221795E-03
       431    1.002602E-02
       432   -1.558825E-02
       433   -2.400469E-02
       434   -2.058943E-02
       435   -6.147988E-02
       436   -1.264814E-02
       437    5.910629E-06
       438    2.232477E-01
       439   -1.487779E-02
       440   -2.306651E-06
       441    2.212049E-01
       442   -1.342528E-02
       443   -1.056439E-04
       444    1.853376E-01
       445   -1.132286E-04
       446    3.563915E-05
       447    7.758940E-05
       448    6.199143E-08
       449    1.052008E-03
       450    2.620978E-07
       451   -2.669200E-04
       452   -1.169289E-03
       453    1.436209E-03
       454   -3.829815E-06
       455    4.257959E-03
       456    9.495887E-07
       457   -1.766537E-03
       458   -2.204996E-03
       459    3.971533E-03
       460   -7.933114E-06
       461    2.325974E-03
       462    9.446446E-06
       463   -1.175619E-04
       464    7.927993E-09
       465   -8.398489E-04
       466   -6.945602E-05
       467   -9.126355E-09
       468    3.928077E-04
       469    2.271819E-04
       470   -1.510163E-09
       471    7.339679E-04
       472   -2.819326E-09
       473    8.529886E-03
       474    1.574998E-02
       475    2.547376E-02
       476   -1.854738E-03
       477   -1.639037E-03
       478    1.149148E-02
       479    1.599328E-03
       480   -2.972370E-03
       481    1.433860E-02
       482    8.527007E-03
       483    1.568660E-02
       484    2.522037E-02
       485   -1.851738E-03
       486    1.632679E-03
       487    1.149483E-02
       488    1.623339E-03
       489    2.930562E-03
       490    1.435119E-02
 Sym= X
 Ene= -0.759986
 Spin= Alpha
 Occup= -0.759986
         1   -3.435874E-04
         2   -7.854828E-04
         3    1.606086E-03
         4   -9.179094E-04
         5    5.112845E-03
         6   -1.025067E-02
         7    6.016178E-03
         8    9.215567E-04
         9   -1.391089E-01
        10    1.445406E-03
        11    1.152076E-03
        12   -1.370403E-01
        13   -1.993003E-02
        14    1.597648E-03
        15   -5.190534E-02
        16    1.578393E-04
        17   -1.474867E-04
        18   -1.035262E-05
        19   -7.722766E-05
        20    3.791349E-04
        21   -4.318084E-03
        22   -3.084693E-04
        23    1.880412E-04
        24    1.204281E-04
        25   -7.830541E-04
        26    1.400294E-03
        27   -7.185928E-03
        28   -1.923626E-03
        29    1.703975E-03
        30    2.196514E-04
        31    1.671732E-03
        32    6.959985E-03
        33   -4.838235E-03
        34   -9.712036E-07
        35    1.407692E-05
        36    1.165599E-03
        37   -1.820451E-07
        38   -1.302096E-05
        39   -6.436617E-04
        40    1.485051E-06
        41   -5.865209E-06
        42   -9.201529E-04
        43    4.896787E-04
        44    1.936381E-04
        45    4.315854E-04
        46   -2.785162E-04
        47   -4.779307E-03
        48   -1.371077E-02
        49    9.325893E-03
        50   -1.080902E-03
        51    7.281341E-06
        52   -2.053411E-01
        53   -1.788197E-03
        54   -1.196393E-06
        55   -2.072153E-01
        56   -8.264967E-03
        57   -1.056745E-03
        58   -6.715156E-02
        59    1.924927E-04
        60   -1.958674E-04
        61    3.374682E-06
        62    3.181172E-07