[Molden Format]
[Title]
ADC(2) - opt by CAM-B3LYP gaussian                                              
[Atoms] AU
 c     1    6 -.12588789760523E+01 -.22833296301999E+01 -.24948636837890E-01
 c     2    6 -.25574931053929E+01 0.00000000000000E+00 -.23691968959520E-01
 c     3    6 -.12588770863262E+01 0.22833296301999E+01 -.24954306016290E-01
 c     4    6 0.13320886199507E+01 0.22850077070059E+01 -.26951746538750E-01
 c     5    6 0.26868238359857E+01 0.00000000000000E+00 -.26437741030600E-01
 c     6    6 0.13320867302245E+01 -.22850077070059E+01 -.26946077360350E-01
 h     7    1 -.22977937121289E+01 -.40382313624087E+01 -.22371050392630E-01
 h     8    1 -.22977918224027E+01 0.40382332521348E+01 -.22380499023300E-01
 h     9    1 0.23512179234159E+01 0.40571966538783E+01 -.29234535707270E-01
 h    10    1 0.23512179234159E+01 -.40571947641522E+01 -.29223197350470E-01
 n    11    7 -.52733186864479E+01 0.00000000000000E+00 -.17996334395000E-01
 o    12    8 -.63812046469225E+01 0.20269448165729E+01 -.15568036314240E-01
 o    13    8 -.63812027571964E+01 -.20269467062990E+01 -.15583154123310E-01
 n    14    7 0.52441127328484E+01 0.00000000000000E+00 -.70347417454330E-01
 h    15    1 0.62045074583774E+01 0.16172030580838E+01 0.18832018534119E+00
 h    16    1 0.62045055686513E+01 -.16172049478099E+01 0.18831451616279E+00
[GTO]
    1 0
 s    6 1.00
 0.13575349682000E+05 0.60645503603591E-03
 0.20352333680000E+04 0.46979088884982E-02
 0.46322562359000E+03 0.24332477647552E-01
 0.13120019598000E+03 0.97399968307759E-01
 0.42853015891000E+02 0.30195584253780E+00
 0.15584185766000E+02 0.66233609137875E+00
 s    2 1.00
 0.62067138508000E+01 0.65595308539952E+00
 0.25764896527000E+01 0.37585633285142E+00
 s    1 1.00
 0.57696339419000E+00 0.10000000000000E+01
 s    1 1.00
 0.22972831358000E+00 0.10000000000000E+01
 s    1 1.00
 0.95164440028000E-01 0.10000000000000E+01
 s    1 1.00
 0.48475401370000E-01 0.10000000000000E+01
 p    4 1.00
 0.34697232244000E+02 0.11327220003114E-01
 0.79582622826000E+01 0.76169659202087E-01
 0.23780826883000E+01 0.30192252202676E+00
 0.81433208183000E+00 0.72785027349547E+00
 p    1 1.00
 0.28887547253000E+00 0.10000000000000E+01
 p    1 1.00
 0.10056823671000E+00 0.10000000000000E+01
 d    1 1.00
 0.10970000000000E+01 0.10000000000000E+01
 d    1 1.00
 0.31800000000000E+00 0.10000000000000E+01
 d    1 1.00
 0.90985336424000E-01 0.10000000000000E+01
 f    1 1.00
 0.76100000000000E+00 0.10000000000000E+01
 
    2 0
 s    6 1.00
 0.13575349682000E+05 0.60645503603591E-03
 0.20352333680000E+04 0.46979088884982E-02
 0.46322562359000E+03 0.24332477647552E-01
 0.13120019598000E+03 0.97399968307759E-01
 0.42853015891000E+02 0.30195584253780E+00
 0.15584185766000E+02 0.66233609137875E+00
 s    2 1.00
 0.62067138508000E+01 0.65595308539952E+00
 0.25764896527000E+01 0.37585633285142E+00
 s    1 1.00
 0.57696339419000E+00 0.10000000000000E+01
 s    1 1.00
 0.22972831358000E+00 0.10000000000000E+01
 s    1 1.00
 0.95164440028000E-01 0.10000000000000E+01
 s    1 1.00
 0.48475401370000E-01 0.10000000000000E+01
 p    4 1.00
 0.34697232244000E+02 0.11327220003114E-01
 0.79582622826000E+01 0.76169659202087E-01
 0.23780826883000E+01 0.30192252202676E+00
 0.81433208183000E+00 0.72785027349547E+00
 p    1 1.00
 0.28887547253000E+00 0.10000000000000E+01
 p    1 1.00
 0.10056823671000E+00 0.10000000000000E+01
 d    1 1.00
 0.10970000000000E+01 0.10000000000000E+01
 d    1 1.00
 0.31800000000000E+00 0.10000000000000E+01
 d    1 1.00
 0.90985336424000E-01 0.10000000000000E+01
 f    1 1.00
 0.76100000000000E+00 0.10000000000000E+01
 
    3 0
 s    6 1.00
 0.13575349682000E+05 0.60645503603591E-03
 0.20352333680000E+04 0.46979088884982E-02
 0.46322562359000E+03 0.24332477647552E-01
 0.13120019598000E+03 0.97399968307759E-01
 0.42853015891000E+02 0.30195584253780E+00
 0.15584185766000E+02 0.66233609137875E+00
 s    2 1.00
 0.62067138508000E+01 0.65595308539952E+00
 0.25764896527000E+01 0.37585633285142E+00
 s    1 1.00
 0.57696339419000E+00 0.10000000000000E+01
 s    1 1.00
 0.22972831358000E+00 0.10000000000000E+01
 s    1 1.00
 0.95164440028000E-01 0.10000000000000E+01
 s    1 1.00
 0.48475401370000E-01 0.10000000000000E+01
 p    4 1.00
 0.34697232244000E+02 0.11327220003114E-01
 0.79582622826000E+01 0.76169659202087E-01
 0.23780826883000E+01 0.30192252202676E+00
 0.81433208183000E+00 0.72785027349547E+00
 p    1 1.00
 0.28887547253000E+00 0.10000000000000E+01
 p    1 1.00
 0.10056823671000E+00 0.10000000000000E+01
 d    1 1.00
 0.10970000000000E+01 0.10000000000000E+01
 d    1 1.00
 0.31800000000000E+00 0.10000000000000E+01
 d    1 1.00
 0.90985336424000E-01 0.10000000000000E+01
 f    1 1.00
 0.76100000000000E+00 0.10000000000000E+01
 
    4 0
 s    6 1.00
 0.13575349682000E+05 0.60645503603591E-03
 0.20352333680000E+04 0.46979088884982E-02
 0.46322562359000E+03 0.24332477647552E-01
 0.13120019598000E+03 0.97399968307759E-01
 0.42853015891000E+02 0.30195584253780E+00
 0.15584185766000E+02 0.66233609137875E+00
 s    2 1.00
 0.62067138508000E+01 0.65595308539952E+00
 0.25764896527000E+01 0.37585633285142E+00
 s    1 1.00
 0.57696339419000E+00 0.10000000000000E+01
 s    1 1.00
 0.22972831358000E+00 0.10000000000000E+01
 s    1 1.00
 0.95164440028000E-01 0.10000000000000E+01
 s    1 1.00
 0.48475401370000E-01 0.10000000000000E+01
 p    4 1.00
 0.34697232244000E+02 0.11327220003114E-01
 0.79582622826000E+01 0.76169659202087E-01
 0.23780826883000E+01 0.30192252202676E+00
 0.81433208183000E+00 0.72785027349547E+00
 p    1 1.00
 0.28887547253000E+00 0.10000000000000E+01
 p    1 1.00
 0.10056823671000E+00 0.10000000000000E+01
 d    1 1.00
 0.10970000000000E+01 0.10000000000000E+01
 d    1 1.00
 0.31800000000000E+00 0.10000000000000E+01
 d    1 1.00
 0.90985336424000E-01 0.10000000000000E+01
 f    1 1.00
 0.76100000000000E+00 0.10000000000000E+01
 
    5 0
 s    6 1.00
 0.13575349682000E+05 0.60645503603591E-03
 0.20352333680000E+04 0.46979088884982E-02
 0.46322562359000E+03 0.24332477647552E-01
 0.13120019598000E+03 0.97399968307759E-01
 0.42853015891000E+02 0.30195584253780E+00
 0.15584185766000E+02 0.66233609137875E+00
 s    2 1.00
 0.62067138508000E+01 0.65595308539952E+00
 0.25764896527000E+01 0.37585633285142E+00
 s    1 1.00
 0.57696339419000E+00 0.10000000000000E+01
 s    1 1.00
 0.22972831358000E+00 0.10000000000000E+01
 s    1 1.00
 0.95164440028000E-01 0.10000000000000E+01
 s    1 1.00
 0.48475401370000E-01 0.10000000000000E+01
 p    4 1.00
 0.34697232244000E+02 0.11327220003114E-01
 0.79582622826000E+01 0.76169659202087E-01
 0.23780826883000E+01 0.30192252202676E+00
 0.81433208183000E+00 0.72785027349547E+00
 p    1 1.00
 0.28887547253000E+00 0.10000000000000E+01
 p    1 1.00
 0.10056823671000E+00 0.10000000000000E+01
 d    1 1.00
 0.10970000000000E+01 0.10000000000000E+01
 d    1 1.00
 0.31800000000000E+00 0.10000000000000E+01
 d    1 1.00
 0.90985336424000E-01 0.10000000000000E+01
 f    1 1.00
 0.76100000000000E+00 0.10000000000000E+01
 
    6 0
 s    6 1.00
 0.13575349682000E+05 0.60645503603591E-03
 0.20352333680000E+04 0.46979088884982E-02
 0.46322562359000E+03 0.24332477647552E-01
 0.13120019598000E+03 0.97399968307759E-01
 0.42853015891000E+02 0.30195584253780E+00
 0.15584185766000E+02 0.66233609137875E+00
 s    2 1.00
 0.62067138508000E+01 0.65595308539952E+00
 0.25764896527000E+01 0.37585633285142E+00
 s    1 1.00
 0.57696339419000E+00 0.10000000000000E+01
 s    1 1.00
 0.22972831358000E+00 0.10000000000000E+01
 s    1 1.00
 0.95164440028000E-01 0.10000000000000E+01
 s    1 1.00
 0.48475401370000E-01 0.10000000000000E+01
 p    4 1.00
 0.34697232244000E+02 0.11327220003114E-01
 0.79582622826000E+01 0.76169659202087E-01
 0.23780826883000E+01 0.30192252202676E+00
 0.81433208183000E+00 0.72785027349547E+00
 p    1 1.00
 0.28887547253000E+00 0.10000000000000E+01
 p    1 1.00
 0.10056823671000E+00 0.10000000000000E+01
 d    1 1.00
 0.10970000000000E+01 0.10000000000000E+01
 d    1 1.00
 0.31800000000000E+00 0.10000000000000E+01
 d    1 1.00
 0.90985336424000E-01 0.10000000000000E+01
 f    1 1.00
 0.76100000000000E+00 0.10000000000000E+01
 
    7 0
 s    3 1.00
 0.34061341000000E+02 0.25439307208879E-01
 0.51235746000000E+01 0.19008594890375E+00
 0.11646626000000E+01 0.85244113011042E+00
 s    1 1.00
 0.32723041000000E+00 0.10000000000000E+01
 s    1 1.00
 0.10307241000000E+00 0.10000000000000E+01
 p    1 1.00
 0.80000000000000E+00 0.10000000000000E+01
 p    1 1.00
 0.95774129632000E-01 0.10000000000000E+01
 
    8 0
 s    3 1.00
 0.34061341000000E+02 0.25439307208879E-01
 0.51235746000000E+01 0.19008594890375E+00
 0.11646626000000E+01 0.85244113011042E+00
 s    1 1.00
 0.32723041000000E+00 0.10000000000000E+01
 s    1 1.00
 0.10307241000000E+00 0.10000000000000E+01
 p    1 1.00
 0.80000000000000E+00 0.10000000000000E+01
 p    1 1.00
 0.95774129632000E-01 0.10000000000000E+01
 
    9 0
 s    3 1.00
 0.34061341000000E+02 0.25439307208879E-01
 0.51235746000000E+01 0.19008594890375E+00
 0.11646626000000E+01 0.85244113011042E+00
 s    1 1.00
 0.32723041000000E+00 0.10000000000000E+01
 s    1 1.00
 0.10307241000000E+00 0.10000000000000E+01
 p    1 1.00
 0.80000000000000E+00 0.10000000000000E+01
 p    1 1.00
 0.95774129632000E-01 0.10000000000000E+01
 
   10 0
 s    3 1.00
 0.34061341000000E+02 0.25439307208879E-01
 0.51235746000000E+01 0.19008594890375E+00
 0.11646626000000E+01 0.85244113011042E+00
 s    1 1.00
 0.32723041000000E+00 0.10000000000000E+01
 s    1 1.00
 0.10307241000000E+00 0.10000000000000E+01
 p    1 1.00
 0.80000000000000E+00 0.10000000000000E+01
 p    1 1.00
 0.95774129632000E-01 0.10000000000000E+01
 
   11 0
 s    6 1.00
 0.19730800647000E+05 0.58626402628763E-03
 0.29578958745000E+04 0.45428820586397E-02
 0.67322133595000E+03 0.23558413450084E-01
 0.19068249494000E+03 0.94709193292923E-01
 0.62295441898000E+02 0.29719784913376E+00
 0.22654161182000E+02 0.66916246895232E+00
 s    2 1.00
 0.89791477428000E+01 0.64596683630063E+00
 0.36863002370000E+01 0.38700574393705E+00
 s    1 1.00
 0.84660076805000E+00 0.10000000000000E+01
 s    1 1.00
 0.33647133771000E+00 0.10000000000000E+01
 s    1 1.00
 0.13647653675000E+00 0.10000000000000E+01
 s    1 1.00
 0.68441605847000E-01 0.10000000000000E+01
 p    4 1.00
 0.49200380510000E+02 0.11448825101764E-01
 0.11346790537000E+02 0.78422337970864E-01
 0.34273972411000E+01 0.30818094738830E+00
 0.11785525134000E+01 0.72027196368413E+00
 p    1 1.00
 0.41642204972000E+00 0.10000000000000E+01
 p    1 1.00
 0.14260826011000E+00 0.10000000000000E+01
 d    1 1.00
 0.16540000000000E+01 0.10000000000000E+01
 d    1 1.00
 0.46900000000000E+00 0.10000000000000E+01
 d    1 1.00
 0.12829642058000E+00 0.10000000000000E+01
 f    1 1.00
 0.10930000000000E+01 0.10000000000000E+01
 
   12 0
 s    6 1.00
 0.27032382631000E+05 0.57227335211155E-03
 0.40523871392000E+04 0.44353233492995E-02
 0.92232722710000E+03 0.23020107706038E-01
 0.26124070989000E+03 0.92822490667928E-01
 0.85354641351000E+02 0.29378500009671E+00
 0.31035035245000E+02 0.67401604501641E+00
 s    2 1.00
 0.12260860728000E+02 0.63839937025506E+00
 0.49987076005000E+01 0.39534587125718E+00
 s    1 1.00
 0.11703108158000E+01 0.10000000000000E+01
 s    1 1.00
 0.46474740994000E+00 0.10000000000000E+01
 s    1 1.00
 0.18504536357000E+00 0.10000000000000E+01
 s    1 1.00
 0.70288026270000E-01 0.10000000000000E+01
 p    4 1.00
 0.63274954801000E+02 0.12018332222616E-01
 0.14627049379000E+02 0.83005421790056E-01
 0.44501223456000E+01 0.31991743925964E+00
 0.15275799647000E+01 0.70715542916104E+00
 p    1 1.00
 0.52935117943000E+00 0.10000000000000E+01
 p    1 1.00
 0.17478421270000E+00 0.10000000000000E+01
 p    1 1.00
 0.51112745706000E-01 0.10000000000000E+01
 d    1 1.00
 0.23140000000000E+01 0.10000000000000E+01
 d    1 1.00
 0.64500000000000E+00 0.10000000000000E+01
 d    1 1.00
 0.14696477366000E+00 0.10000000000000E+01
 f    1 1.00
 0.14280000000000E+01 0.10000000000000E+01
 
   13 0
 s    6 1.00
 0.27032382631000E+05 0.57227335211155E-03
 0.40523871392000E+04 0.44353233492995E-02
 0.92232722710000E+03 0.23020107706038E-01
 0.26124070989000E+03 0.92822490667928E-01
 0.85354641351000E+02 0.29378500009671E+00
 0.31035035245000E+02 0.67401604501641E+00
 s    2 1.00
 0.12260860728000E+02 0.63839937025506E+00
 0.49987076005000E+01 0.39534587125718E+00
 s    1 1.00
 0.11703108158000E+01 0.10000000000000E+01
 s    1 1.00
 0.46474740994000E+00 0.10000000000000E+01
 s    1 1.00
 0.18504536357000E+00 0.10000000000000E+01
 s    1 1.00
 0.70288026270000E-01 0.10000000000000E+01
 p    4 1.00
 0.63274954801000E+02 0.12018332222616E-01
 0.14627049379000E+02 0.83005421790056E-01
 0.44501223456000E+01 0.31991743925964E+00
 0.15275799647000E+01 0.70715542916104E+00
 p    1 1.00
 0.52935117943000E+00 0.10000000000000E+01
 p    1 1.00
 0.17478421270000E+00 0.10000000000000E+01
 p    1 1.00
 0.51112745706000E-01 0.10000000000000E+01
 d    1 1.00
 0.23140000000000E+01 0.10000000000000E+01
 d    1 1.00
 0.64500000000000E+00 0.10000000000000E+01
 d    1 1.00
 0.14696477366000E+00 0.10000000000000E+01
 f    1 1.00
 0.14280000000000E+01 0.10000000000000E+01
 
   14 0
 s    6 1.00
 0.19730800647000E+05 0.58626402628763E-03
 0.29578958745000E+04 0.45428820586397E-02
 0.67322133595000E+03 0.23558413450084E-01
 0.19068249494000E+03 0.94709193292923E-01
 0.62295441898000E+02 0.29719784913376E+00
 0.22654161182000E+02 0.66916246895232E+00
 s    2 1.00
 0.89791477428000E+01 0.64596683630063E+00
 0.36863002370000E+01 0.38700574393705E+00
 s    1 1.00
 0.84660076805000E+00 0.10000000000000E+01
 s    1 1.00
 0.33647133771000E+00 0.10000000000000E+01
 s    1 1.00
 0.13647653675000E+00 0.10000000000000E+01
 s    1 1.00
 0.68441605847000E-01 0.10000000000000E+01
 p    4 1.00
 0.49200380510000E+02 0.11448825101764E-01
 0.11346790537000E+02 0.78422337970864E-01
 0.34273972411000E+01 0.30818094738830E+00
 0.11785525134000E+01 0.72027196368413E+00
 p    1 1.00
 0.41642204972000E+00 0.10000000000000E+01
 p    1 1.00
 0.14260826011000E+00 0.10000000000000E+01
 d    1 1.00
 0.16540000000000E+01 0.10000000000000E+01
 d    1 1.00
 0.46900000000000E+00 0.10000000000000E+01
 d    1 1.00
 0.12829642058000E+00 0.10000000000000E+01
 f    1 1.00
 0.10930000000000E+01 0.10000000000000E+01
 
   15 0
 s    3 1.00
 0.34061341000000E+02 0.25439307208879E-01
 0.51235746000000E+01 0.19008594890375E+00
 0.11646626000000E+01 0.85244113011042E+00
 s    1 1.00
 0.32723041000000E+00 0.10000000000000E+01
 s    1 1.00
 0.10307241000000E+00 0.10000000000000E+01
 p    1 1.00
 0.80000000000000E+00 0.10000000000000E+01
 p    1 1.00
 0.95774129632000E-01 0.10000000000000E+01
 
   16 0
 s    3 1.00
 0.34061341000000E+02 0.25439307208879E-01
 0.51235746000000E+01 0.19008594890375E+00
 0.11646626000000E+01 0.85244113011042E+00
 s    1 1.00
 0.32723041000000E+00 0.10000000000000E+01
 s    1 1.00
 0.10307241000000E+00 0.10000000000000E+01
 p    1 1.00
 0.80000000000000E+00 0.10000000000000E+01
 p    1 1.00
 0.95774129632000E-01 0.10000000000000E+01
 
[MO]
 Sym= X
 Ene= -0.886645
 Spin= Alpha
 Occup= -0.886645
         1   -1.680865E-04
         2   -3.911058E-04
         3    1.098613E-03
         4   -2.382871E-03
         5   -9.983806E-03
         6   -1.038059E-02
         7    1.528686E-03
         8    1.854991E-04
         9    2.946215E-02
        10   -2.249740E-03
        11    3.798572E-04
        12    2.748456E-02
        13   -3.375472E-02
        14    9.555911E-03
        15    4.697719E-03
        16    2.800428E-06
        17   -1.367894E-05
        18    1.087851E-05
        19   -1.435366E-05
        20   -6.243254E-03
        21    3.962513E-03
        22   -6.178864E-04
        23    3.728037E-04
        24    2.450827E-04
        25   -6.716455E-04
        26   -1.411534E-02
        27    7.440568E-03
        28   -4.853640E-03
        29    4.530174E-03
        30    3.234662E-04
        31    1.064336E-03
        32    1.387325E-03
        33   -1.081002E-02
        34   -1.807898E-05
        35    6.645249E-06
        36   -1.510798E-04
        37    7.243804E-06
        38   -6.896314E-06
        39   -6.674564E-04
        40    1.701169E-05
        41   -2.019223E-06
        42    8.701513E-04
        43   -7.041045E-04
        44   -8.597243E-08
        45   -1.863542E-06
        46    2.150558E-04
        47   -2.474734E-03
        48   -4.833270E-02
        49    4.979675E-03
        50    3.242361E-04
        51    1.924231E-06
        52    2.085946E-01
        53   -4.296483E-04
        54    2.063465E-05
        55    2.162496E-01
        56   -1.585407E-02
        57   -1.231114E-03
        58    2.056356E-01
        59    3.811565E-05
        60   -3.398535E-05
        61   -4.130302E-06
        62    1.462017E-07
        63   -6.161377E-04
        64    6.903728E-07
        65    3.515796E-04
        66   -5.853157E-04
        67    2.337360E-04
        68    4.422915E-06
        69   -3.254566E-03
        70    1.013849E-06
        71    8.520318E-03
        72   -9.576439E-03
        73    1.056121E-03
        74   -2.077667E-04
        75    5.261523E-03
        76   -1.528809E-05
        77    6.559609E-06
        78    5.505355E-08
        79   -1.180434E-03
        80   -5.641844E-06
        81    2.591259E-08
        82    7.023850E-04
        83   -3.158795E-06
        84   -9.977468E-08
        85    8.813336E-04
        86    7.522138E-08
        87   -1.685272E-04
        88   -3.922191E-04
        89    1.108630E-03
        90   -2.460158E-03
        91   -7.832497E-03
        92   -1.030874E-02
        93    1.527885E-03
        94   -1.868853E-04
        95    2.949283E-02
        96   -2.241350E-03
        97   -3.659101E-04
        98    2.751349E-02
        99   -3.453417E-02
       100   -1.088072E-02
       101    4.793453E-03
       102    2.555751E-06
       103   -1.359576E-05
       104    1.104001E-05
       105    1.464503E-05
       106   -6.243202E-03
       107   -3.962693E-03
       108   -6.153725E-04
       109    3.686999E-04
       110    2.466725E-04
       111    6.679951E-04
       112   -1.411272E-02
       113   -7.440040E-03
       114   -5.081263E-03
       115    4.782587E-03
       116    2.986766E-04
       117   -9.025152E-04
       118    1.390757E-03
       119    1.078258E-02
       120   -1.825274E-05
       121   -6.629738E-06
       122   -1.512312E-04
       123    7.534255E-06
       124    6.909437E-06
       125   -6.672957E-04
       126    1.695436E-05
       127    1.985290E-06
       128    8.701937E-04
       129    7.040349E-04
       130    1.081357E-04
       131    2.328978E-04
       132    5.695697E-04
       133   -9.839865E-03
       134    2.812036E-02
       135    1.151811E-02
       136   -1.182272E-03
       137    6.880551E-04
       138   -1.484595E-01
       139   -8.498952E-03
       140    5.864728E-03
       141   -1.514443E-01
       142   -2.416545E-02
       143   -6.443517E-03
       144   -9.114529E-02
       145    1.379990E-04
       146   -1.666912E-04
       147    2.869222E-05
       148   -3.839784E-06
       149   -9.179792E-04
       150    2.853661E-03
       151    5.759253E-04
       152   -7.080388E-04
       153    1.321136E-04
       154    1.592430E-03
       155   -4.193247E-03
       156    4.825474E-03
       157    7.815866E-03
       158   -6.152458E-03
       159   -1.663408E-03
       160   -7.980135E-03
       161    3.494818E-03
       162   -1.248103E-02
       163   -1.360620E-05
       164    9.628590E-06
       165    8.153929E-04
       166   -1.819474E-05
       167    1.547973E-05
       168   -1.779775E-04
       169    3.644938E-05
       170   -2.839784E-05
       171   -9.159868E-04
       172    3.321184E-04
       173   -1.080358E-03
       174   -2.461012E-03
       175    2.548687E-03
       176    2.065415E-02
       177   -1.220333E-02
       178    9.353393E-03
       179    8.647556E-03
       180    1.419812E-06
       181   -1.074247E-01
       182    6.414420E-04
       183   -1.043113E-05
       184   -1.102755E-01
       185   -2.329289E-02
       186    1.330539E-03
       187   -1.322915E-01
       188    4.512622E-04
       189   -2.511977E-04
       190   -2.000644E-04
       191    1.162725E-07
       192    9.783985E-03
       193    4.323630E-07
       194   -1.732016E-03
       195    3.839932E-03
       196   -2.107916E-03
       197    2.880589E-06
       198    2.412228E-02
       199   -1.717397E-06
       200   -5.422812E-03
       201    6.666118E-03
       202   -1.243306E-03
       203   -2.248814E-04
       204    1.896343E-02
       205   -5.519938E-06
       206    1.113899E-04
       207    1.615322E-08
       208    2.761268E-04
       209   -7.840976E-05
       210   -7.639215E-08
       211    1.066265E-03
       212   -7.103547E-05
       213    5.472034E-08
       214   -1.436728E-03
       215    6.375833E-08
       216    1.085864E-04
       217    2.336977E-04
       218    5.753801E-04
       219   -9.920353E-03
       220    3.049394E-02
       221    1.156561E-02
       222   -1.184883E-03
       223   -6.825097E-04
       224   -1.484751E-01
       225   -8.500771E-03
       226   -5.876967E-03
       227   -1.514670E-01
       228   -2.323229E-02
       229    8.000246E-03
       230   -9.108959E-02
       231    1.378104E-04
       232   -1.672462E-04
       233    2.943578E-05
       234    3.866407E-06
       235   -9.173551E-04
       236   -2.853777E-03
       237    5.763047E-04
       238   -7.091762E-04
       239    1.328715E-04
       240   -1.594697E-03
       241   -4.190543E-03
       242   -4.825366E-03
       243    7.587150E-03
       244   -5.909508E-03
       245   -1.677642E-03
       246    8.183463E-03
       247    3.490274E-03
       248    1.251920E-02
       249   -1.353103E-05
       250   -9.671871E-06
       251    8.157298E-04
       252   -1.839141E-05
       253   -1.543220E-05
       254   -1.783211E-04
       255    3.654520E-05
       256    2.840838E-05
       257   -9.160953E-04
       258   -3.320879E-04
       259   -3.354177E-04
       260   -2.047886E-04
       261   -1.633873E-02
       262   -1.140902E-05
       263    1.180402E-06
       264    1.114872E-03
       265   -4.928899E-03
       266   -2.659535E-04
       267   -6.956497E-03
       268   -3.362084E-04
       269   -1.980034E-04
       270   -1.615334E-02
       271   -1.033563E-05
       272   -1.931126E-06
       273    1.116430E-03
       274   -5.044209E-03
       275    1.639488E-04
       276   -6.934131E-03
       277   -3.691135E-04
       278   -2.169218E-03
       279    3.162477E-02
       280   -1.108829E-05
       281    8.880853E-05
       282   -6.060017E-03
       283   -1.578146E-03
       284   -2.506265E-03
       285    1.909276E-03
       286   -3.729733E-04
       287   -2.174279E-03
       288    3.201544E-02
       289   -1.071818E-05
       290   -8.901072E-05
       291   -6.061018E-03
       292   -1.491802E-03
       293    2.632700E-03
       294    1.936925E-03
       295   -4.068968E-05
       296   -9.365480E-05
       297    7.106159E-05
       298    4.038264E-04
       299   -6.375412E-03
       300    9.150302E-04
       301    4.729128E-04
       302    3.389126E-07
       303    1.496048E-02
       304    1.849287E-04
       305    1.165386E-06
       306    1.768022E-02
       307   -2.753687E-03
       308    3.599426E-05
       309    8.730613E-03
       310    2.827173E-05
       311   -1.352028E-05
       312   -1.475146E-05
       313   -1.935223E-07
       314    4.656959E-03
       315    6.029100E-08
       316    2.795939E-05
       317    3.693685E-05
       318   -6.489624E-05
       319   -1.187161E-06
       320    1.390772E-02
       321   -1.626528E-09
       322   -9.818684E-04
       323    2.672024E-03
       324   -1.690156E-03
       325    3.651520E-05
       326    3.177766E-03
       327    3.410172E-06
       328    6.561062E-06
       329   -4.186775E-08
       330    4.719099E-05
       331   -4.498571E-06
       332    8.600871E-08
       333    7.101609E-04
       334   -4.304018E-06
       335   -2.983723E-08
       336   -7.734743E-04
       337    8.391581E-09
       338   -1.337269E-05
       339   -2.915885E-05
       340    1.636155E-06
       341    4.921899E-04
       342   -5.442520E-03
       343   -8.146612E-04
       344   -4.202029E-04
       345    6.721337E-05
       346   -8.571888E-02
       347   -4.719916E-04
       348    1.909047E-04
       349   -7.940008E-02
       350   -1.527720E-03
       351    4.037108E-04
       352   -6.366448E-02
       353   -1.624003E-04
       354    1.912100E-04
       355   -7.724184E-03
       356    2.583676E-06
       357   -3.931288E-06
       358    1.347612E-06
       359    2.424708E-06
       360   -3.360279E-05
       361    5.710522E-04
       362   -1.489161E-05
       363   -8.548437E-06
       364    2.344005E-05
       365    1.551997E-05
       366   -6.708742E-04
       367    1.866956E-03
       368   -8.262904E-05
       369    6.008201E-05
       370    2.254703E-05
       371    8.892941E-05
       372   -2.521015E-04
       373    3.414813E-04
       374    9.523711E-07
       375    1.137931E-06
       376    8.296968E-05
       377   -1.807089E-06
       378    4.411621E-07
       379    8.755294E-05
       380    5.293496E-07
       381   -1.967857E-06
       382   -1.988684E-04
       383    1.612896E-04
       384   -1.312518E-05
       385   -2.859476E-05
       386    1.394051E-06
       387    4.864812E-04
       388   -5.442618E-03
       389   -7.749900E-04
       390   -4.046075E-04
       391   -7.763740E-05
       392   -8.571970E-02
       393   -4.578930E-04
       394   -1.992645E-04
       395   -7.940108E-02
       396   -1.479785E-03
       397   -4.096359E-04
       398   -6.366045E-02
       399   -1.442374E-04
       400   -1.956303E-04
       401   -7.729135E-03
       402    2.659042E-06
       403   -4.052678E-06
       404    1.393636E-06
       405   -2.465768E-06
       406   -3.365220E-05
       407   -5.710580E-04
       408   -1.422901E-05
       409   -8.802765E-06
       410    2.303178E-05
       411   -1.494256E-05
       412   -6.708093E-04
       413   -1.866996E-03
       414   -8.164770E-05
       415    6.055222E-05
       416    2.109548E-05
       417   -8.795786E-05
       418   -2.532537E-04
       419   -3.408000E-04
       420    9.640038E-07
       421   -1.168714E-06
       422    8.297754E-05
       423   -1.806095E-06
       424   -3.969631E-07
       425    8.754668E-05
       426    5.127483E-07
       427    1.964958E-06
       428   -1.988727E-04
       429   -1.612983E-04
       430    4.729715E-03
       431    1.121735E-02
       432   -1.740957E-02
       433   -2.689086E-02
       434   -2.168948E-02
       435   -6.545291E-02
       436   -1.656851E-02
       437    9.633808E-06
       438    2.517338E-01
       439   -1.882084E-02
       440    5.657567E-08
       441    2.487376E-01
       442   -1.692329E-02
       443   -1.130585E-04
       444    2.038665E-01
       445   -9.036212E-05
       446   -1.779705E-05
       447    1.081592E-04
       448    2.166246E-07
       449    7.239379E-04
       450    2.651458E-07
       451   -2.179032E-04
       452   -1.448765E-03
       453    1.666668E-03
       454   -4.111404E-06
       455    3.499464E-03
       456    9.365031E-07
       457   -1.734407E-03
       458   -2.773292E-03
       459    4.507699E-03
       460   -1.040495E-05
       461    2.059854E-03
       462    9.799757E-06
       463   -1.308557E-04
       464    2.671660E-08
       465   -1.004655E-03
       466   -8.436027E-05
       467   -1.929136E-08
       468    5.446187E-04
       469    2.599216E-04
       470   -1.655273E-08
       471    8.032670E-04
       472    2.547493E-08
       473    8.738099E-03
       474    1.666323E-02
       475    2.812541E-02
       476   -2.130249E-03
       477   -1.760891E-03
       478    1.277702E-02
       479    1.371519E-03
       480   -3.339357E-03
       481    1.478876E-02
       482    8.731877E-03
       483    1.658747E-02
       484    2.783991E-02
       485   -2.126543E-03
       486    1.753439E-03
       487    1.278083E-02
       488    1.397868E-03
       489    3.290767E-03
       490    1.480318E-02
 Sym= X
 Ene= 0.886645
 Spin= Alpha
 Occup= 0.886645
         1   -4.626072E-03
         2   -1.111641E-02
         3    3.988179E-02
         4   -1.112878E-01
         5    6.802356E-01
         6   -4.928388E-01
         7    1.402628E-02
         8    5.616826E-03
         9   -3.013138E-03
        10   -5.002935E-02
        11   -1.166142E-03
        12   -4.540554E-03
        13    1.496813E+00
        14   -1.234012E-01
        15   -2.698843E-02
        16    8.878268E-04
        17   -6.863219E-04
        18   -2.015050E-04
        19    1.232105E-04
        20   -5.123456E-05
        21    1.407067E-04
        22   -1.776094E-02
        23    9.384819E-03
        24    8.376121E-03
        25   -1.574289E-03
        26   -5.278534E-04
        27    4.645574E-04
        28   -9.801743E-01
        29    1.010325E+00
        30   -3.015082E-02
        31   -6.890397E-02
        32    1.148689E-02
        33   -1.788640E-02
        34   -3.509337E-04
        35    2.639604E-04
        36   -2.221335E-05
        37    3.733179E-04
        38    1.243436E-05
        39   -2.298634E-06
        40    9.750906E-05
        41   -3.665745E-04
        42    3.210096E-05
        43   -1.715362E-05
        44    6.410749E-03
        45    1.371435E-02
        46    5.218761E-03
        47   -3.344172E-01
        48   -2.393529E+00
        49    5.615925E+00
        50    2.941699E-02
        51   -8.814352E-06
        52    4.716515E-03
        53    6.222231E-02
        54   -4.498236E-05
        55    2.146632E-03
        56   -2.146827E+00
        57    3.130404E-03
        58    8.832279E-02
        59   -1.009409E-03
        60    5.945156E-04
        61    4.148938E-04
        62    5.607282E-08