[Molden Format]
[Title]
ADC(2) - opt by CAM-B3LYP gaussian                                              
[Atoms] AU
 c     1    6 -.12588789760523E+01 -.22833296301999E+01 -.24948636837890E-01
 c     2    6 -.25574931053929E+01 0.00000000000000E+00 -.23691968959520E-01
 c     3    6 -.12588770863262E+01 0.22833296301999E+01 -.24954306016290E-01
 c     4    6 0.13320886199507E+01 0.22850077070059E+01 -.26951746538750E-01
 c     5    6 0.26868238359857E+01 0.00000000000000E+00 -.26437741030600E-01
 c     6    6 0.13320867302245E+01 -.22850077070059E+01 -.26946077360350E-01
 h     7    1 -.22977937121289E+01 -.40382313624087E+01 -.22371050392630E-01
 h     8    1 -.22977918224027E+01 0.40382332521348E+01 -.22380499023300E-01
 h     9    1 0.23512179234159E+01 0.40571966538783E+01 -.29234535707270E-01
 h    10    1 0.23512179234159E+01 -.40571947641522E+01 -.29223197350470E-01
 n    11    7 -.52733186864479E+01 0.00000000000000E+00 -.17996334395000E-01
 o    12    8 -.63812046469225E+01 0.20269448165729E+01 -.15568036314240E-01
 o    13    8 -.63812027571964E+01 -.20269467062990E+01 -.15583154123310E-01
 n    14    7 0.52441127328484E+01 0.00000000000000E+00 -.70347417454330E-01
 h    15    1 0.62045074583774E+01 0.16172030580838E+01 0.18832018534119E+00
 h    16    1 0.62045055686513E+01 -.16172049478099E+01 0.18831451616279E+00
[GTO]
    1 0
 s    6 1.00
 0.13575349682000E+05 0.60645503603591E-03
 0.20352333680000E+04 0.46979088884982E-02
 0.46322562359000E+03 0.24332477647552E-01
 0.13120019598000E+03 0.97399968307759E-01
 0.42853015891000E+02 0.30195584253780E+00
 0.15584185766000E+02 0.66233609137875E+00
 s    2 1.00
 0.62067138508000E+01 0.65595308539952E+00
 0.25764896527000E+01 0.37585633285142E+00
 s    1 1.00
 0.57696339419000E+00 0.10000000000000E+01
 s    1 1.00
 0.22972831358000E+00 0.10000000000000E+01
 s    1 1.00
 0.95164440028000E-01 0.10000000000000E+01
 s    1 1.00
 0.48475401370000E-01 0.10000000000000E+01
 p    4 1.00
 0.34697232244000E+02 0.11327220003114E-01
 0.79582622826000E+01 0.76169659202087E-01
 0.23780826883000E+01 0.30192252202676E+00
 0.81433208183000E+00 0.72785027349547E+00
 p    1 1.00
 0.28887547253000E+00 0.10000000000000E+01
 p    1 1.00
 0.10056823671000E+00 0.10000000000000E+01
 d    1 1.00
 0.10970000000000E+01 0.10000000000000E+01
 d    1 1.00
 0.31800000000000E+00 0.10000000000000E+01
 d    1 1.00
 0.90985336424000E-01 0.10000000000000E+01
 f    1 1.00
 0.76100000000000E+00 0.10000000000000E+01
 
    2 0
 s    6 1.00
 0.13575349682000E+05 0.60645503603591E-03
 0.20352333680000E+04 0.46979088884982E-02
 0.46322562359000E+03 0.24332477647552E-01
 0.13120019598000E+03 0.97399968307759E-01
 0.42853015891000E+02 0.30195584253780E+00
 0.15584185766000E+02 0.66233609137875E+00
 s    2 1.00
 0.62067138508000E+01 0.65595308539952E+00
 0.25764896527000E+01 0.37585633285142E+00
 s    1 1.00
 0.57696339419000E+00 0.10000000000000E+01
 s    1 1.00
 0.22972831358000E+00 0.10000000000000E+01
 s    1 1.00
 0.95164440028000E-01 0.10000000000000E+01
 s    1 1.00
 0.48475401370000E-01 0.10000000000000E+01
 p    4 1.00
 0.34697232244000E+02 0.11327220003114E-01
 0.79582622826000E+01 0.76169659202087E-01
 0.23780826883000E+01 0.30192252202676E+00
 0.81433208183000E+00 0.72785027349547E+00
 p    1 1.00
 0.28887547253000E+00 0.10000000000000E+01
 p    1 1.00
 0.10056823671000E+00 0.10000000000000E+01
 d    1 1.00
 0.10970000000000E+01 0.10000000000000E+01
 d    1 1.00
 0.31800000000000E+00 0.10000000000000E+01
 d    1 1.00
 0.90985336424000E-01 0.10000000000000E+01
 f    1 1.00
 0.76100000000000E+00 0.10000000000000E+01
 
    3 0
 s    6 1.00
 0.13575349682000E+05 0.60645503603591E-03
 0.20352333680000E+04 0.46979088884982E-02
 0.46322562359000E+03 0.24332477647552E-01
 0.13120019598000E+03 0.97399968307759E-01
 0.42853015891000E+02 0.30195584253780E+00
 0.15584185766000E+02 0.66233609137875E+00
 s    2 1.00
 0.62067138508000E+01 0.65595308539952E+00
 0.25764896527000E+01 0.37585633285142E+00
 s    1 1.00
 0.57696339419000E+00 0.10000000000000E+01
 s    1 1.00
 0.22972831358000E+00 0.10000000000000E+01
 s    1 1.00
 0.95164440028000E-01 0.10000000000000E+01
 s    1 1.00
 0.48475401370000E-01 0.10000000000000E+01
 p    4 1.00
 0.34697232244000E+02 0.11327220003114E-01
 0.79582622826000E+01 0.76169659202087E-01
 0.23780826883000E+01 0.30192252202676E+00
 0.81433208183000E+00 0.72785027349547E+00
 p    1 1.00
 0.28887547253000E+00 0.10000000000000E+01
 p    1 1.00
 0.10056823671000E+00 0.10000000000000E+01
 d    1 1.00
 0.10970000000000E+01 0.10000000000000E+01
 d    1 1.00
 0.31800000000000E+00 0.10000000000000E+01
 d    1 1.00
 0.90985336424000E-01 0.10000000000000E+01
 f    1 1.00
 0.76100000000000E+00 0.10000000000000E+01
 
    4 0
 s    6 1.00
 0.13575349682000E+05 0.60645503603591E-03
 0.20352333680000E+04 0.46979088884982E-02
 0.46322562359000E+03 0.24332477647552E-01
 0.13120019598000E+03 0.97399968307759E-01
 0.42853015891000E+02 0.30195584253780E+00
 0.15584185766000E+02 0.66233609137875E+00
 s    2 1.00
 0.62067138508000E+01 0.65595308539952E+00
 0.25764896527000E+01 0.37585633285142E+00
 s    1 1.00
 0.57696339419000E+00 0.10000000000000E+01
 s    1 1.00
 0.22972831358000E+00 0.10000000000000E+01
 s    1 1.00
 0.95164440028000E-01 0.10000000000000E+01
 s    1 1.00
 0.48475401370000E-01 0.10000000000000E+01
 p    4 1.00
 0.34697232244000E+02 0.11327220003114E-01
 0.79582622826000E+01 0.76169659202087E-01
 0.23780826883000E+01 0.30192252202676E+00
 0.81433208183000E+00 0.72785027349547E+00
 p    1 1.00
 0.28887547253000E+00 0.10000000000000E+01
 p    1 1.00
 0.10056823671000E+00 0.10000000000000E+01
 d    1 1.00
 0.10970000000000E+01 0.10000000000000E+01
 d    1 1.00
 0.31800000000000E+00 0.10000000000000E+01
 d    1 1.00
 0.90985336424000E-01 0.10000000000000E+01
 f    1 1.00
 0.76100000000000E+00 0.10000000000000E+01
 
    5 0
 s    6 1.00
 0.13575349682000E+05 0.60645503603591E-03
 0.20352333680000E+04 0.46979088884982E-02
 0.46322562359000E+03 0.24332477647552E-01
 0.13120019598000E+03 0.97399968307759E-01
 0.42853015891000E+02 0.30195584253780E+00
 0.15584185766000E+02 0.66233609137875E+00
 s    2 1.00
 0.62067138508000E+01 0.65595308539952E+00
 0.25764896527000E+01 0.37585633285142E+00
 s    1 1.00
 0.57696339419000E+00 0.10000000000000E+01
 s    1 1.00
 0.22972831358000E+00 0.10000000000000E+01
 s    1 1.00
 0.95164440028000E-01 0.10000000000000E+01
 s    1 1.00
 0.48475401370000E-01 0.10000000000000E+01
 p    4 1.00
 0.34697232244000E+02 0.11327220003114E-01
 0.79582622826000E+01 0.76169659202087E-01
 0.23780826883000E+01 0.30192252202676E+00
 0.81433208183000E+00 0.72785027349547E+00
 p    1 1.00
 0.28887547253000E+00 0.10000000000000E+01
 p    1 1.00
 0.10056823671000E+00 0.10000000000000E+01
 d    1 1.00
 0.10970000000000E+01 0.10000000000000E+01
 d    1 1.00
 0.31800000000000E+00 0.10000000000000E+01
 d    1 1.00
 0.90985336424000E-01 0.10000000000000E+01
 f    1 1.00
 0.76100000000000E+00 0.10000000000000E+01
 
    6 0
 s    6 1.00
 0.13575349682000E+05 0.60645503603591E-03
 0.20352333680000E+04 0.46979088884982E-02
 0.46322562359000E+03 0.24332477647552E-01
 0.13120019598000E+03 0.97399968307759E-01
 0.42853015891000E+02 0.30195584253780E+00
 0.15584185766000E+02 0.66233609137875E+00
 s    2 1.00
 0.62067138508000E+01 0.65595308539952E+00
 0.25764896527000E+01 0.37585633285142E+00
 s    1 1.00
 0.57696339419000E+00 0.10000000000000E+01
 s    1 1.00
 0.22972831358000E+00 0.10000000000000E+01
 s    1 1.00
 0.95164440028000E-01 0.10000000000000E+01
 s    1 1.00
 0.48475401370000E-01 0.10000000000000E+01
 p    4 1.00
 0.34697232244000E+02 0.11327220003114E-01
 0.79582622826000E+01 0.76169659202087E-01
 0.23780826883000E+01 0.30192252202676E+00
 0.81433208183000E+00 0.72785027349547E+00
 p    1 1.00
 0.28887547253000E+00 0.10000000000000E+01
 p    1 1.00
 0.10056823671000E+00 0.10000000000000E+01
 d    1 1.00
 0.10970000000000E+01 0.10000000000000E+01
 d    1 1.00
 0.31800000000000E+00 0.10000000000000E+01
 d    1 1.00
 0.90985336424000E-01 0.10000000000000E+01
 f    1 1.00
 0.76100000000000E+00 0.10000000000000E+01
 
    7 0
 s    3 1.00
 0.34061341000000E+02 0.25439307208879E-01
 0.51235746000000E+01 0.19008594890375E+00
 0.11646626000000E+01 0.85244113011042E+00
 s    1 1.00
 0.32723041000000E+00 0.10000000000000E+01
 s    1 1.00
 0.10307241000000E+00 0.10000000000000E+01
 p    1 1.00
 0.80000000000000E+00 0.10000000000000E+01
 p    1 1.00
 0.95774129632000E-01 0.10000000000000E+01
 
    8 0
 s    3 1.00
 0.34061341000000E+02 0.25439307208879E-01
 0.51235746000000E+01 0.19008594890375E+00
 0.11646626000000E+01 0.85244113011042E+00
 s    1 1.00
 0.32723041000000E+00 0.10000000000000E+01
 s    1 1.00
 0.10307241000000E+00 0.10000000000000E+01
 p    1 1.00
 0.80000000000000E+00 0.10000000000000E+01
 p    1 1.00
 0.95774129632000E-01 0.10000000000000E+01
 
    9 0
 s    3 1.00
 0.34061341000000E+02 0.25439307208879E-01
 0.51235746000000E+01 0.19008594890375E+00
 0.11646626000000E+01 0.85244113011042E+00
 s    1 1.00
 0.32723041000000E+00 0.10000000000000E+01
 s    1 1.00
 0.10307241000000E+00 0.10000000000000E+01
 p    1 1.00
 0.80000000000000E+00 0.10000000000000E+01
 p    1 1.00
 0.95774129632000E-01 0.10000000000000E+01
 
   10 0
 s    3 1.00
 0.34061341000000E+02 0.25439307208879E-01
 0.51235746000000E+01 0.19008594890375E+00
 0.11646626000000E+01 0.85244113011042E+00
 s    1 1.00
 0.32723041000000E+00 0.10000000000000E+01
 s    1 1.00
 0.10307241000000E+00 0.10000000000000E+01
 p    1 1.00
 0.80000000000000E+00 0.10000000000000E+01
 p    1 1.00
 0.95774129632000E-01 0.10000000000000E+01
 
   11 0
 s    6 1.00
 0.19730800647000E+05 0.58626402628763E-03
 0.29578958745000E+04 0.45428820586397E-02
 0.67322133595000E+03 0.23558413450084E-01
 0.19068249494000E+03 0.94709193292923E-01
 0.62295441898000E+02 0.29719784913376E+00
 0.22654161182000E+02 0.66916246895232E+00
 s    2 1.00
 0.89791477428000E+01 0.64596683630063E+00
 0.36863002370000E+01 0.38700574393705E+00
 s    1 1.00
 0.84660076805000E+00 0.10000000000000E+01
 s    1 1.00
 0.33647133771000E+00 0.10000000000000E+01
 s    1 1.00
 0.13647653675000E+00 0.10000000000000E+01
 s    1 1.00
 0.68441605847000E-01 0.10000000000000E+01
 p    4 1.00
 0.49200380510000E+02 0.11448825101764E-01
 0.11346790537000E+02 0.78422337970864E-01
 0.34273972411000E+01 0.30818094738830E+00
 0.11785525134000E+01 0.72027196368413E+00
 p    1 1.00
 0.41642204972000E+00 0.10000000000000E+01
 p    1 1.00
 0.14260826011000E+00 0.10000000000000E+01
 d    1 1.00
 0.16540000000000E+01 0.10000000000000E+01
 d    1 1.00
 0.46900000000000E+00 0.10000000000000E+01
 d    1 1.00
 0.12829642058000E+00 0.10000000000000E+01
 f    1 1.00
 0.10930000000000E+01 0.10000000000000E+01
 
   12 0
 s    6 1.00
 0.27032382631000E+05 0.57227335211155E-03
 0.40523871392000E+04 0.44353233492995E-02
 0.92232722710000E+03 0.23020107706038E-01
 0.26124070989000E+03 0.92822490667928E-01
 0.85354641351000E+02 0.29378500009671E+00
 0.31035035245000E+02 0.67401604501641E+00
 s    2 1.00
 0.12260860728000E+02 0.63839937025506E+00
 0.49987076005000E+01 0.39534587125718E+00
 s    1 1.00
 0.11703108158000E+01 0.10000000000000E+01
 s    1 1.00
 0.46474740994000E+00 0.10000000000000E+01
 s    1 1.00
 0.18504536357000E+00 0.10000000000000E+01
 s    1 1.00
 0.70288026270000E-01 0.10000000000000E+01
 p    4 1.00
 0.63274954801000E+02 0.12018332222616E-01
 0.14627049379000E+02 0.83005421790056E-01
 0.44501223456000E+01 0.31991743925964E+00
 0.15275799647000E+01 0.70715542916104E+00
 p    1 1.00
 0.52935117943000E+00 0.10000000000000E+01
 p    1 1.00
 0.17478421270000E+00 0.10000000000000E+01
 p    1 1.00
 0.51112745706000E-01 0.10000000000000E+01
 d    1 1.00
 0.23140000000000E+01 0.10000000000000E+01
 d    1 1.00
 0.64500000000000E+00 0.10000000000000E+01
 d    1 1.00
 0.14696477366000E+00 0.10000000000000E+01
 f    1 1.00
 0.14280000000000E+01 0.10000000000000E+01
 
   13 0
 s    6 1.00
 0.27032382631000E+05 0.57227335211155E-03
 0.40523871392000E+04 0.44353233492995E-02
 0.92232722710000E+03 0.23020107706038E-01
 0.26124070989000E+03 0.92822490667928E-01
 0.85354641351000E+02 0.29378500009671E+00
 0.31035035245000E+02 0.67401604501641E+00
 s    2 1.00
 0.12260860728000E+02 0.63839937025506E+00
 0.49987076005000E+01 0.39534587125718E+00
 s    1 1.00
 0.11703108158000E+01 0.10000000000000E+01
 s    1 1.00
 0.46474740994000E+00 0.10000000000000E+01
 s    1 1.00
 0.18504536357000E+00 0.10000000000000E+01
 s    1 1.00
 0.70288026270000E-01 0.10000000000000E+01
 p    4 1.00
 0.63274954801000E+02 0.12018332222616E-01
 0.14627049379000E+02 0.83005421790056E-01
 0.44501223456000E+01 0.31991743925964E+00
 0.15275799647000E+01 0.70715542916104E+00
 p    1 1.00
 0.52935117943000E+00 0.10000000000000E+01
 p    1 1.00
 0.17478421270000E+00 0.10000000000000E+01
 p    1 1.00
 0.51112745706000E-01 0.10000000000000E+01
 d    1 1.00
 0.23140000000000E+01 0.10000000000000E+01
 d    1 1.00
 0.64500000000000E+00 0.10000000000000E+01
 d    1 1.00
 0.14696477366000E+00 0.10000000000000E+01
 f    1 1.00
 0.14280000000000E+01 0.10000000000000E+01
 
   14 0
 s    6 1.00
 0.19730800647000E+05 0.58626402628763E-03
 0.29578958745000E+04 0.45428820586397E-02
 0.67322133595000E+03 0.23558413450084E-01
 0.19068249494000E+03 0.94709193292923E-01
 0.62295441898000E+02 0.29719784913376E+00
 0.22654161182000E+02 0.66916246895232E+00
 s    2 1.00
 0.89791477428000E+01 0.64596683630063E+00
 0.36863002370000E+01 0.38700574393705E+00
 s    1 1.00
 0.84660076805000E+00 0.10000000000000E+01
 s    1 1.00
 0.33647133771000E+00 0.10000000000000E+01
 s    1 1.00
 0.13647653675000E+00 0.10000000000000E+01
 s    1 1.00
 0.68441605847000E-01 0.10000000000000E+01
 p    4 1.00
 0.49200380510000E+02 0.11448825101764E-01
 0.11346790537000E+02 0.78422337970864E-01
 0.34273972411000E+01 0.30818094738830E+00
 0.11785525134000E+01 0.72027196368413E+00
 p    1 1.00
 0.41642204972000E+00 0.10000000000000E+01
 p    1 1.00
 0.14260826011000E+00 0.10000000000000E+01
 d    1 1.00
 0.16540000000000E+01 0.10000000000000E+01
 d    1 1.00
 0.46900000000000E+00 0.10000000000000E+01
 d    1 1.00
 0.12829642058000E+00 0.10000000000000E+01
 f    1 1.00
 0.10930000000000E+01 0.10000000000000E+01
 
   15 0
 s    3 1.00
 0.34061341000000E+02 0.25439307208879E-01
 0.51235746000000E+01 0.19008594890375E+00
 0.11646626000000E+01 0.85244113011042E+00
 s    1 1.00
 0.32723041000000E+00 0.10000000000000E+01
 s    1 1.00
 0.10307241000000E+00 0.10000000000000E+01
 p    1 1.00
 0.80000000000000E+00 0.10000000000000E+01
 p    1 1.00
 0.95774129632000E-01 0.10000000000000E+01
 
   16 0
 s    3 1.00
 0.34061341000000E+02 0.25439307208879E-01
 0.51235746000000E+01 0.19008594890375E+00
 0.11646626000000E+01 0.85244113011042E+00
 s    1 1.00
 0.32723041000000E+00 0.10000000000000E+01
 s    1 1.00
 0.10307241000000E+00 0.10000000000000E+01
 p    1 1.00
 0.80000000000000E+00 0.10000000000000E+01
 p    1 1.00
 0.95774129632000E-01 0.10000000000000E+01
 
[MO]
 Sym= X
 Ene= -0.056455
 Spin= Alpha
 Occup= -0.056455
         1   -9.055518E-04
         2   -2.044161E-03
         3    3.815827E-03
         4   -2.090799E-04
         5   -3.049185E-03
         6   -1.601815E-02
         7    7.498568E-03
         8   -6.221557E-04
         9   -5.135899E-03
        10    6.506595E-04
        11    4.928375E-05
        12   -6.780414E-03
        13   -4.444563E-02
        14    8.495318E-03
        15   -1.271023E-02
        16    2.043263E-04
        17   -1.698458E-04
        18   -3.448050E-05
        19   -1.703807E-05
        20   -3.210229E-03
        21    1.593054E-03
        22   -6.207513E-04
        23    3.855418E-04
        24    2.352095E-04
        25   -1.120627E-03
        26   -7.491714E-03
        27    3.195887E-03
        28   -5.332061E-03
        29    4.711085E-03
        30    6.209760E-04
        31    2.888828E-03
        32    4.627452E-03
        33   -1.495991E-02
        34   -3.348595E-06
        35    1.082857E-05
        36    6.963162E-05
        37   -4.742288E-06
        38   -1.304903E-05
        39   -4.471085E-04
        40    9.234900E-06
        41   -1.479013E-06
        42    3.536879E-04
        43   -2.725995E-04
        44    2.664153E-04
        45    6.091008E-04
        46   -4.802895E-04
        47   -6.631391E-03
        48   -4.651896E-02
        49    1.073007E-02
        50   -2.127866E-03
        51   -4.741893E-06
        52    8.486921E-02
        53   -2.846318E-03
        54    3.122742E-06
        55    8.818628E-02
        56   -1.857057E-02
        57   -1.153916E-03
        58    1.387110E-01
        59    2.674153E-04
        60   -2.598311E-04
        61   -7.584235E-06
        62   -1.482824E-07
        63   -8.089426E-04
        64   -9.430274E-07
        65    8.344742E-04
        66   -1.245813E-03
        67    4.113384E-04
        68    1.087766E-06
        69   -2.694845E-03
        70   -2.329075E-06
        71    1.598363E-02
        72   -1.714793E-02
        73    1.164303E-03
        74   -1.795544E-04
        75    1.479216E-03
        76   -2.253373E-05
        77   -2.703664E-06
        78   -5.887312E-08
        79   -4.126356E-04
        80   -1.038174E-05
        81    8.446999E-08
        82    2.637498E-04
        83    1.400909E-05
        84   -5.483421E-09
        85    2.898589E-04
        86   -1.387600E-07
        87   -9.024445E-04
        88   -2.037335E-03
        89    3.814535E-03
        90   -3.068739E-04
        91   -1.192866E-03
        92   -1.598446E-02
        93    7.508510E-03
        94    6.209096E-04
        95   -5.188860E-03
        96    6.332879E-04
        97   -4.813429E-05
        98   -6.834109E-03
        99   -4.520958E-02
       100   -9.689389E-03
       101   -1.271104E-02
       102    2.040972E-04
       103   -1.701125E-04
       104   -3.398466E-05
       105    1.735668E-05
       106   -3.211969E-03
       107   -1.592966E-03
       108   -6.244740E-04
       109    3.859325E-04
       110    2.385415E-04
       111    1.119655E-03
       112   -7.494190E-03
       113   -3.195657E-03
       114   -5.532952E-03
       115    4.931072E-03
       116    6.018800E-04
       117   -2.718284E-03
       118    4.604517E-03
       119    1.492910E-02
       120   -3.684151E-06
       121   -1.082949E-05
       122    6.999853E-05
       123   -4.375559E-06
       124    1.305660E-05
       125   -4.475637E-04
       126    9.318367E-06
       127    1.472694E-06
       128    3.536509E-04
       129    2.725781E-04
       130    7.167887E-04
       131    1.584395E-03
       132   -8.157276E-04
       133   -1.842472E-02
       134    1.653043E-02
       135    1.652073E-02
       136   -8.736038E-03
       137    1.840082E-03
       138   -7.425297E-02
       139   -1.833838E-02
       140    9.634385E-03
       141   -7.792124E-02
       142   -3.352437E-02
       143   -1.000870E-02
       144   -4.332248E-02
       145    5.002061E-04
       146   -5.974663E-04
       147    9.726016E-05
       148   -2.719598E-05
       149    1.084601E-03
       150    2.525434E-04
       151    1.027080E-03
       152   -1.399450E-03
       153    3.723703E-04
       154    2.545900E-03
       155   -5.851640E-05
       156    1.384072E-05
       157    1.098419E-02
       158   -8.728643E-03
       159   -2.255544E-03
       160   -1.228602E-02
       161    5.742885E-03
       162   -2.027903E-02
       163   -2.241275E-05
       164    2.944367E-05
       165    2.419345E-04
       166   -5.461045E-05
       167    9.806183E-06
       168   -2.366029E-05
       169    8.468031E-05
       170   -4.930902E-05
       171   -3.009290E-04
       172   -9.317013E-05
       173   -1.613527E-03
       174   -3.672726E-03
       175    3.821050E-03
       176    2.844631E-02
       177   -3.194656E-02
       178    1.295804E-02
       179    2.293627E-02
       180    3.205385E-06
       181    4.441096E-02
       182    7.019632E-03
       183   -1.467689E-05
       184    3.765560E-02
       185   -4.478873E-02
       186    1.058625E-03
       187   -1.116628E-01
       188    1.203410E-03
       189   -8.645571E-04
       190   -3.388527E-04
       191    1.491055E-07
       192    1.131774E-02
       193   -1.098840E-06
       194   -2.309063E-03
       195    5.478966E-03
       196   -3.169903E-03
       197    3.480899E-06
       198    2.500244E-02
       199   -3.140977E-06
       200   -1.182869E-02
       201    1.360043E-02
       202   -1.771743E-03
       203   -2.196219E-04
       204    1.566000E-02
       205    1.703316E-05
       206    2.213032E-04
       207    2.785438E-08
       208   -1.051151E-03
       209   -1.323990E-04
       210   -1.384129E-07
       211    2.207403E-03
       212   -1.645104E-04
       213    1.010423E-07
       214   -7.971365E-04
       215    2.488156E-07
       216    7.207798E-04
       217    1.593131E-03
       218   -8.185282E-04
       219   -1.853101E-02
       220    1.838490E-02
       221    1.652155E-02
       222   -8.742404E-03
       223   -1.827337E-03
       224   -7.418770E-02
       225   -1.831916E-02
       226   -9.643933E-03
       227   -7.785785E-02
       228   -3.276770E-02
       229    1.127121E-02
       230   -4.323580E-02
       231    5.001719E-04
       232   -5.981491E-04
       233    9.797726E-05
       234    2.751269E-05
       235    1.083257E-03
       236   -2.523637E-04
       237    1.020738E-03
       238   -1.398419E-03
       239    3.776807E-04
       240   -2.549330E-03
       241   -6.033010E-05
       242   -1.376329E-05
       243    1.075792E-02
       244   -8.497037E-03
       245   -2.260880E-03
       246    1.245104E-02
       247    5.774361E-03
       248    2.031132E-02
       249   -2.204918E-05
       250   -2.951368E-05
       251    2.416145E-04
       252   -5.507926E-05
       253   -9.765366E-06
       254   -2.328388E-05
       255    8.466134E-05
       256    4.936213E-05
       257   -3.008760E-04
       258    9.318647E-05
       259   -9.367282E-04
       260   -1.136832E-03
       261   -2.805756E-02
       262    7.911104E-05
       263   -9.969025E-05
       264   -2.764015E-04
       265   -6.616448E-03
       266   -1.737339E-03
       267   -8.983029E-03
       268   -9.434742E-04
       269   -1.140555E-03
       270   -2.784418E-02
       271    7.943631E-05
       272    1.000589E-04
       273   -2.784610E-04
       274   -6.723007E-03
       275    1.643641E-03
       276   -8.969611E-03
       277   -2.938409E-03
       278   -6.788389E-03
       279    4.791818E-02
       280   -6.544712E-06
       281    5.035197E-04
       282   -2.952663E-03
       283   -4.351652E-03
       284   -3.482474E-03
       285    1.022974E-02
       286   -2.950173E-03
       287   -6.802259E-03
       288    4.820981E-02
       289   -4.844926E-06
       290   -5.046903E-04
       291   -2.950113E-03
       292   -4.262475E-03
       293    3.595207E-03
       294    1.024046E-02
       295   -2.773942E-04
       296   -6.508298E-04
       297    8.231356E-04
       298    2.279831E-03
       299   -1.156627E-02
       300   -4.494226E-03
       301    3.811647E-03
       302    3.706329E-06
       303    1.069121E-02
       304    3.097048E-03
       305    2.202475E-06
       306    1.274762E-02
       307   -3.740523E-03
       308    3.072783E-05
       309   -5.913100E-04
       310    8.482922E-05
       311   -9.793867E-05
       312    1.310944E-05
       313    6.153125E-08
       314    2.052637E-03
       315    1.531482E-07
       316    1.894481E-04
       317   -1.509019E-04
       318   -3.854618E-05
       319   -4.352871E-08
       320    6.205287E-03
       321    2.865093E-07
       322   -1.074495E-03
       323    3.793842E-03
       324   -2.719348E-03
       325    3.541752E-05
       326   -8.484516E-05
       327    3.354839E-06
       328    1.143044E-05
       329    8.371366E-08
       330    2.551710E-05
       331   -1.212459E-06
       332   -8.764254E-08
       333    3.084646E-04
       334   -1.412309E-05
       335   -2.467112E-08
       336   -3.426994E-04
       337   -4.864091E-08
       338   -1.034775E-04
       339   -2.471061E-04
       340    3.197338E-04
       341    1.322378E-03
       342   -7.865183E-03
       343   -4.911125E-04
       344   -1.634495E-03
       345    9.352001E-04
       346   -3.932095E-02
       347   -1.594167E-03
       348    9.694689E-04
       349   -3.655364E-02
       350   -2.828083E-03
       351    1.006339E-03
       352   -2.966084E-02
       353   -3.912351E-04
       354    8.562370E-05
       355   -3.990735E-03
       356    1.841330E-05
       357   -3.294725E-05
       358    1.453395E-05
       359    1.298499E-05
       360    1.183889E-05
       361    2.197686E-04
       362    8.715805E-06
       363   -7.973265E-05
       364    7.101684E-05
       365    3.157874E-05
       366   -2.534190E-04
       367    7.091672E-04
       368   -1.101324E-04
       369    4.687426E-05
       370    6.325817E-05
       371    9.573517E-05
       372    4.599568E-04
       373    1.564543E-04
       374    4.123461E-06
       375    8.705057E-06
       376    3.188563E-05
       377   -7.974127E-06
       378   -4.337280E-06
       379    3.972601E-05
       380    2.441923E-06
       381   -7.341779E-06
       382   -8.250507E-05
       383    6.503223E-05
       384   -1.044074E-04
       385   -2.493978E-04
       386    3.234567E-04
       387    1.325687E-03
       388   -7.877587E-03
       389   -4.729172E-04
       390   -1.648168E-03
       391   -9.329509E-04
       392   -3.933049E-02
       393   -1.606721E-03
       394   -9.672608E-04
       395   -3.656289E-02
       396   -2.804613E-03
       397   -1.006910E-03
       398   -2.966317E-02
       399   -3.832036E-04
       400   -8.738758E-05
       401   -3.992346E-03
       402    1.830718E-05
       403   -3.292722E-05
       404    1.462003E-05
       405   -1.317563E-05
       406    1.180316E-05
       407   -2.198512E-04
       408    8.891024E-06
       409   -7.983601E-05
       410    7.094499E-05
       411   -3.184538E-05
       412   -2.535031E-04
       413   -7.094158E-04
       414   -1.105740E-04
       415    4.846732E-05
       416    6.210665E-05
       417   -9.398133E-05
       418    4.601888E-04
       419   -1.563590E-04
       420    4.144084E-06
       421   -8.678933E-06
       422    3.189758E-05
       423   -8.008174E-06
       424    4.286554E-06
       425    3.973300E-05
       426    2.448302E-06
       427    7.357456E-06
       428   -8.252810E-05
       429   -6.505963E-05
       430    6.994031E-03
       431    1.656132E-02
       432   -2.562379E-02
       433   -4.026949E-02
       434   -2.265198E-02
       435   -7.598813E-02
       436   -3.329899E-02
       437    1.778144E-05
       438    3.932325E-01
       439   -3.617539E-02
       440    3.375479E-06
       441    3.844131E-01
       442   -3.654216E-02
       443   -1.488368E-04
       444    2.861637E-01
       445   -4.717421E-05
       446   -2.465652E-04
       447    2.937395E-04
       448    4.479886E-07
       449   -1.592028E-03
       450    3.997534E-07
       451   -1.466226E-05
       452   -2.898234E-03
       453    2.912897E-03
       454   -6.924707E-06
       455   -2.201440E-03
       456    1.118707E-06
       457   -6.521159E-04
       458   -6.502863E-03
       459    7.154979E-03
       460   -2.361296E-05
       461    1.712727E-04
       462    9.391863E-06
       463   -1.769359E-04
       464    3.971509E-08
       465   -1.914760E-03
       466   -1.594583E-04
       467    6.380783E-12
       468    1.457870E-03
       469    3.968426E-04
       470   -5.328977E-08
       471    1.111050E-03
       472    5.423608E-08
       473    1.004726E-02
       474    2.182227E-02
       475    4.058279E-02
       476   -3.565479E-03
       477   -2.556706E-03
       478    1.882090E-02
       479   -9.404954E-04
       480   -4.757778E-03
       481    1.448122E-02
       482    1.003488E-02
       483    2.170039E-02
       484    4.015910E-02
       485   -3.559099E-03
       486    2.544734E-03
       487    1.882595E-02
       488   -9.059838E-04
       489    4.675282E-03
       490    1.450162E-02
 Sym= X
 Ene= -0.830022
 Spin= Alpha
 Occup= -0.830022
         1    2.573048E-05
         2    5.960153E-05
         3   -1.034442E-04
         4   -7.124064E-05
         5   -1.239425E-02
         6   -7.763376E-04
         7    7.119498E-04
         8   -2.115143E-04
         9   -1.882297E-01
        10    2.747875E-04
        11   -5.539343E-05
        12   -1.887066E-01
        13    4.925551E-03
        14   -7.559073E-03
        15   -1.098981E-01
        16    1.725371E-05
        17   -2.520119E-05
        18    7.947483E-06
        19    1.537214E-05
        20   -4.964178E-03
        21   -5.414211E-04
        22    3.944373E-06
        23   -1.640318E-05
        24    1.245881E-05
        25    2.570124E-05
        26   -9.537157E-03
        27    4.163922E-04
        28    8.508398E-04
        29   -1.031290E-03
        30    1.804500E-04
        31    6.971947E-04
        32   -2.828053E-03
        33   -4.710106E-04
        34   -2.751985E-06
        35   -2.788633E-06
        36    1.161252E-03
        37    1.851323E-06
        38    2.720340E-06
        39   -1.404491E-03
        40    1.840852E-06
        41    1.021003E-06
        42   -1.534923E-04
        43   -3.476008E-06
        44    2.017056E-07
        45    4.495979E-07
        46    6.651435E-07
        47   -3.325458E-05
        48    2.126299E-03
        49    1.149165E-04
        50   -3.875423E-06
        51    8.019489E-04
        52    1.192055E-05
        53   -6.006987E-06
        54    8.933251E-04
        55    2.049583E-05
        56    1.011400E-03
        57   -1.251991E-02
        58    8.972857E-05
        59    2.292157E-07
        60   -3.651958E-07
        61    1.359801E-07
        62    3.445080E-05