[Molden Format]
[Title]
ADC(2) - opt by CAM-B3LYP gaussian                                              
[Atoms] AU
 c     1    6 -.12588789760523E+01 -.22833296301999E+01 -.24948636837890E-01
 c     2    6 -.25574931053929E+01 0.00000000000000E+00 -.23691968959520E-01
 c     3    6 -.12588770863262E+01 0.22833296301999E+01 -.24954306016290E-01
 c     4    6 0.13320886199507E+01 0.22850077070059E+01 -.26951746538750E-01
 c     5    6 0.26868238359857E+01 0.00000000000000E+00 -.26437741030600E-01
 c     6    6 0.13320867302245E+01 -.22850077070059E+01 -.26946077360350E-01
 h     7    1 -.22977937121289E+01 -.40382313624087E+01 -.22371050392630E-01
 h     8    1 -.22977918224027E+01 0.40382332521348E+01 -.22380499023300E-01
 h     9    1 0.23512179234159E+01 0.40571966538783E+01 -.29234535707270E-01
 h    10    1 0.23512179234159E+01 -.40571947641522E+01 -.29223197350470E-01
 n    11    7 -.52733186864479E+01 0.00000000000000E+00 -.17996334395000E-01
 o    12    8 -.63812046469225E+01 0.20269448165729E+01 -.15568036314240E-01
 o    13    8 -.63812027571964E+01 -.20269467062990E+01 -.15583154123310E-01
 n    14    7 0.52441127328484E+01 0.00000000000000E+00 -.70347417454330E-01
 h    15    1 0.62045074583774E+01 0.16172030580838E+01 0.18832018534119E+00
 h    16    1 0.62045055686513E+01 -.16172049478099E+01 0.18831451616279E+00
[GTO]
    1 0
 s    6 1.00
 0.13575349682000E+05 0.60645503603591E-03
 0.20352333680000E+04 0.46979088884982E-02
 0.46322562359000E+03 0.24332477647552E-01
 0.13120019598000E+03 0.97399968307759E-01
 0.42853015891000E+02 0.30195584253780E+00
 0.15584185766000E+02 0.66233609137875E+00
 s    2 1.00
 0.62067138508000E+01 0.65595308539952E+00
 0.25764896527000E+01 0.37585633285142E+00
 s    1 1.00
 0.57696339419000E+00 0.10000000000000E+01
 s    1 1.00
 0.22972831358000E+00 0.10000000000000E+01
 s    1 1.00
 0.95164440028000E-01 0.10000000000000E+01
 s    1 1.00
 0.48475401370000E-01 0.10000000000000E+01
 p    4 1.00
 0.34697232244000E+02 0.11327220003114E-01
 0.79582622826000E+01 0.76169659202087E-01
 0.23780826883000E+01 0.30192252202676E+00
 0.81433208183000E+00 0.72785027349547E+00
 p    1 1.00
 0.28887547253000E+00 0.10000000000000E+01
 p    1 1.00
 0.10056823671000E+00 0.10000000000000E+01
 d    1 1.00
 0.10970000000000E+01 0.10000000000000E+01
 d    1 1.00
 0.31800000000000E+00 0.10000000000000E+01
 d    1 1.00
 0.90985336424000E-01 0.10000000000000E+01
 f    1 1.00
 0.76100000000000E+00 0.10000000000000E+01
 
    2 0
 s    6 1.00
 0.13575349682000E+05 0.60645503603591E-03
 0.20352333680000E+04 0.46979088884982E-02
 0.46322562359000E+03 0.24332477647552E-01
 0.13120019598000E+03 0.97399968307759E-01
 0.42853015891000E+02 0.30195584253780E+00
 0.15584185766000E+02 0.66233609137875E+00
 s    2 1.00
 0.62067138508000E+01 0.65595308539952E+00
 0.25764896527000E+01 0.37585633285142E+00
 s    1 1.00
 0.57696339419000E+00 0.10000000000000E+01
 s    1 1.00
 0.22972831358000E+00 0.10000000000000E+01
 s    1 1.00
 0.95164440028000E-01 0.10000000000000E+01
 s    1 1.00
 0.48475401370000E-01 0.10000000000000E+01
 p    4 1.00
 0.34697232244000E+02 0.11327220003114E-01
 0.79582622826000E+01 0.76169659202087E-01
 0.23780826883000E+01 0.30192252202676E+00
 0.81433208183000E+00 0.72785027349547E+00
 p    1 1.00
 0.28887547253000E+00 0.10000000000000E+01
 p    1 1.00
 0.10056823671000E+00 0.10000000000000E+01
 d    1 1.00
 0.10970000000000E+01 0.10000000000000E+01
 d    1 1.00
 0.31800000000000E+00 0.10000000000000E+01
 d    1 1.00
 0.90985336424000E-01 0.10000000000000E+01
 f    1 1.00
 0.76100000000000E+00 0.10000000000000E+01
 
    3 0
 s    6 1.00
 0.13575349682000E+05 0.60645503603591E-03
 0.20352333680000E+04 0.46979088884982E-02
 0.46322562359000E+03 0.24332477647552E-01
 0.13120019598000E+03 0.97399968307759E-01
 0.42853015891000E+02 0.30195584253780E+00
 0.15584185766000E+02 0.66233609137875E+00
 s    2 1.00
 0.62067138508000E+01 0.65595308539952E+00
 0.25764896527000E+01 0.37585633285142E+00
 s    1 1.00
 0.57696339419000E+00 0.10000000000000E+01
 s    1 1.00
 0.22972831358000E+00 0.10000000000000E+01
 s    1 1.00
 0.95164440028000E-01 0.10000000000000E+01
 s    1 1.00
 0.48475401370000E-01 0.10000000000000E+01
 p    4 1.00
 0.34697232244000E+02 0.11327220003114E-01
 0.79582622826000E+01 0.76169659202087E-01
 0.23780826883000E+01 0.30192252202676E+00
 0.81433208183000E+00 0.72785027349547E+00
 p    1 1.00
 0.28887547253000E+00 0.10000000000000E+01
 p    1 1.00
 0.10056823671000E+00 0.10000000000000E+01
 d    1 1.00
 0.10970000000000E+01 0.10000000000000E+01
 d    1 1.00
 0.31800000000000E+00 0.10000000000000E+01
 d    1 1.00
 0.90985336424000E-01 0.10000000000000E+01
 f    1 1.00
 0.76100000000000E+00 0.10000000000000E+01
 
    4 0
 s    6 1.00
 0.13575349682000E+05 0.60645503603591E-03
 0.20352333680000E+04 0.46979088884982E-02
 0.46322562359000E+03 0.24332477647552E-01
 0.13120019598000E+03 0.97399968307759E-01
 0.42853015891000E+02 0.30195584253780E+00
 0.15584185766000E+02 0.66233609137875E+00
 s    2 1.00
 0.62067138508000E+01 0.65595308539952E+00
 0.25764896527000E+01 0.37585633285142E+00
 s    1 1.00
 0.57696339419000E+00 0.10000000000000E+01
 s    1 1.00
 0.22972831358000E+00 0.10000000000000E+01
 s    1 1.00
 0.95164440028000E-01 0.10000000000000E+01
 s    1 1.00
 0.48475401370000E-01 0.10000000000000E+01
 p    4 1.00
 0.34697232244000E+02 0.11327220003114E-01
 0.79582622826000E+01 0.76169659202087E-01
 0.23780826883000E+01 0.30192252202676E+00
 0.81433208183000E+00 0.72785027349547E+00
 p    1 1.00
 0.28887547253000E+00 0.10000000000000E+01
 p    1 1.00
 0.10056823671000E+00 0.10000000000000E+01
 d    1 1.00
 0.10970000000000E+01 0.10000000000000E+01
 d    1 1.00
 0.31800000000000E+00 0.10000000000000E+01
 d    1 1.00
 0.90985336424000E-01 0.10000000000000E+01
 f    1 1.00
 0.76100000000000E+00 0.10000000000000E+01
 
    5 0
 s    6 1.00
 0.13575349682000E+05 0.60645503603591E-03
 0.20352333680000E+04 0.46979088884982E-02
 0.46322562359000E+03 0.24332477647552E-01
 0.13120019598000E+03 0.97399968307759E-01
 0.42853015891000E+02 0.30195584253780E+00
 0.15584185766000E+02 0.66233609137875E+00
 s    2 1.00
 0.62067138508000E+01 0.65595308539952E+00
 0.25764896527000E+01 0.37585633285142E+00
 s    1 1.00
 0.57696339419000E+00 0.10000000000000E+01
 s    1 1.00
 0.22972831358000E+00 0.10000000000000E+01
 s    1 1.00
 0.95164440028000E-01 0.10000000000000E+01
 s    1 1.00
 0.48475401370000E-01 0.10000000000000E+01
 p    4 1.00
 0.34697232244000E+02 0.11327220003114E-01
 0.79582622826000E+01 0.76169659202087E-01
 0.23780826883000E+01 0.30192252202676E+00
 0.81433208183000E+00 0.72785027349547E+00
 p    1 1.00
 0.28887547253000E+00 0.10000000000000E+01
 p    1 1.00
 0.10056823671000E+00 0.10000000000000E+01
 d    1 1.00
 0.10970000000000E+01 0.10000000000000E+01
 d    1 1.00
 0.31800000000000E+00 0.10000000000000E+01
 d    1 1.00
 0.90985336424000E-01 0.10000000000000E+01
 f    1 1.00
 0.76100000000000E+00 0.10000000000000E+01
 
    6 0
 s    6 1.00
 0.13575349682000E+05 0.60645503603591E-03
 0.20352333680000E+04 0.46979088884982E-02
 0.46322562359000E+03 0.24332477647552E-01
 0.13120019598000E+03 0.97399968307759E-01
 0.42853015891000E+02 0.30195584253780E+00
 0.15584185766000E+02 0.66233609137875E+00
 s    2 1.00
 0.62067138508000E+01 0.65595308539952E+00
 0.25764896527000E+01 0.37585633285142E+00
 s    1 1.00
 0.57696339419000E+00 0.10000000000000E+01
 s    1 1.00
 0.22972831358000E+00 0.10000000000000E+01
 s    1 1.00
 0.95164440028000E-01 0.10000000000000E+01
 s    1 1.00
 0.48475401370000E-01 0.10000000000000E+01
 p    4 1.00
 0.34697232244000E+02 0.11327220003114E-01
 0.79582622826000E+01 0.76169659202087E-01
 0.23780826883000E+01 0.30192252202676E+00
 0.81433208183000E+00 0.72785027349547E+00
 p    1 1.00
 0.28887547253000E+00 0.10000000000000E+01
 p    1 1.00
 0.10056823671000E+00 0.10000000000000E+01
 d    1 1.00
 0.10970000000000E+01 0.10000000000000E+01
 d    1 1.00
 0.31800000000000E+00 0.10000000000000E+01
 d    1 1.00
 0.90985336424000E-01 0.10000000000000E+01
 f    1 1.00
 0.76100000000000E+00 0.10000000000000E+01
 
    7 0
 s    3 1.00
 0.34061341000000E+02 0.25439307208879E-01
 0.51235746000000E+01 0.19008594890375E+00
 0.11646626000000E+01 0.85244113011042E+00
 s    1 1.00
 0.32723041000000E+00 0.10000000000000E+01
 s    1 1.00
 0.10307241000000E+00 0.10000000000000E+01
 p    1 1.00
 0.80000000000000E+00 0.10000000000000E+01
 p    1 1.00
 0.95774129632000E-01 0.10000000000000E+01
 
    8 0
 s    3 1.00
 0.34061341000000E+02 0.25439307208879E-01
 0.51235746000000E+01 0.19008594890375E+00
 0.11646626000000E+01 0.85244113011042E+00
 s    1 1.00
 0.32723041000000E+00 0.10000000000000E+01
 s    1 1.00
 0.10307241000000E+00 0.10000000000000E+01
 p    1 1.00
 0.80000000000000E+00 0.10000000000000E+01
 p    1 1.00
 0.95774129632000E-01 0.10000000000000E+01
 
    9 0
 s    3 1.00
 0.34061341000000E+02 0.25439307208879E-01
 0.51235746000000E+01 0.19008594890375E+00
 0.11646626000000E+01 0.85244113011042E+00
 s    1 1.00
 0.32723041000000E+00 0.10000000000000E+01
 s    1 1.00
 0.10307241000000E+00 0.10000000000000E+01
 p    1 1.00
 0.80000000000000E+00 0.10000000000000E+01
 p    1 1.00
 0.95774129632000E-01 0.10000000000000E+01
 
   10 0
 s    3 1.00
 0.34061341000000E+02 0.25439307208879E-01
 0.51235746000000E+01 0.19008594890375E+00
 0.11646626000000E+01 0.85244113011042E+00
 s    1 1.00
 0.32723041000000E+00 0.10000000000000E+01
 s    1 1.00
 0.10307241000000E+00 0.10000000000000E+01
 p    1 1.00
 0.80000000000000E+00 0.10000000000000E+01
 p    1 1.00
 0.95774129632000E-01 0.10000000000000E+01
 
   11 0
 s    6 1.00
 0.19730800647000E+05 0.58626402628763E-03
 0.29578958745000E+04 0.45428820586397E-02
 0.67322133595000E+03 0.23558413450084E-01
 0.19068249494000E+03 0.94709193292923E-01
 0.62295441898000E+02 0.29719784913376E+00
 0.22654161182000E+02 0.66916246895232E+00
 s    2 1.00
 0.89791477428000E+01 0.64596683630063E+00
 0.36863002370000E+01 0.38700574393705E+00
 s    1 1.00
 0.84660076805000E+00 0.10000000000000E+01
 s    1 1.00
 0.33647133771000E+00 0.10000000000000E+01
 s    1 1.00
 0.13647653675000E+00 0.10000000000000E+01
 s    1 1.00
 0.68441605847000E-01 0.10000000000000E+01
 p    4 1.00
 0.49200380510000E+02 0.11448825101764E-01
 0.11346790537000E+02 0.78422337970864E-01
 0.34273972411000E+01 0.30818094738830E+00
 0.11785525134000E+01 0.72027196368413E+00
 p    1 1.00
 0.41642204972000E+00 0.10000000000000E+01
 p    1 1.00
 0.14260826011000E+00 0.10000000000000E+01
 d    1 1.00
 0.16540000000000E+01 0.10000000000000E+01
 d    1 1.00
 0.46900000000000E+00 0.10000000000000E+01
 d    1 1.00
 0.12829642058000E+00 0.10000000000000E+01
 f    1 1.00
 0.10930000000000E+01 0.10000000000000E+01
 
   12 0
 s    6 1.00
 0.27032382631000E+05 0.57227335211155E-03
 0.40523871392000E+04 0.44353233492995E-02
 0.92232722710000E+03 0.23020107706038E-01
 0.26124070989000E+03 0.92822490667928E-01
 0.85354641351000E+02 0.29378500009671E+00
 0.31035035245000E+02 0.67401604501641E+00
 s    2 1.00
 0.12260860728000E+02 0.63839937025506E+00
 0.49987076005000E+01 0.39534587125718E+00
 s    1 1.00
 0.11703108158000E+01 0.10000000000000E+01
 s    1 1.00
 0.46474740994000E+00 0.10000000000000E+01
 s    1 1.00
 0.18504536357000E+00 0.10000000000000E+01
 s    1 1.00
 0.70288026270000E-01 0.10000000000000E+01
 p    4 1.00
 0.63274954801000E+02 0.12018332222616E-01
 0.14627049379000E+02 0.83005421790056E-01
 0.44501223456000E+01 0.31991743925964E+00
 0.15275799647000E+01 0.70715542916104E+00
 p    1 1.00
 0.52935117943000E+00 0.10000000000000E+01
 p    1 1.00
 0.17478421270000E+00 0.10000000000000E+01
 p    1 1.00
 0.51112745706000E-01 0.10000000000000E+01
 d    1 1.00
 0.23140000000000E+01 0.10000000000000E+01
 d    1 1.00
 0.64500000000000E+00 0.10000000000000E+01
 d    1 1.00
 0.14696477366000E+00 0.10000000000000E+01
 f    1 1.00
 0.14280000000000E+01 0.10000000000000E+01
 
   13 0
 s    6 1.00
 0.27032382631000E+05 0.57227335211155E-03
 0.40523871392000E+04 0.44353233492995E-02
 0.92232722710000E+03 0.23020107706038E-01
 0.26124070989000E+03 0.92822490667928E-01
 0.85354641351000E+02 0.29378500009671E+00
 0.31035035245000E+02 0.67401604501641E+00
 s    2 1.00
 0.12260860728000E+02 0.63839937025506E+00
 0.49987076005000E+01 0.39534587125718E+00
 s    1 1.00
 0.11703108158000E+01 0.10000000000000E+01
 s    1 1.00
 0.46474740994000E+00 0.10000000000000E+01
 s    1 1.00
 0.18504536357000E+00 0.10000000000000E+01
 s    1 1.00
 0.70288026270000E-01 0.10000000000000E+01
 p    4 1.00
 0.63274954801000E+02 0.12018332222616E-01
 0.14627049379000E+02 0.83005421790056E-01
 0.44501223456000E+01 0.31991743925964E+00
 0.15275799647000E+01 0.70715542916104E+00
 p    1 1.00
 0.52935117943000E+00 0.10000000000000E+01
 p    1 1.00
 0.17478421270000E+00 0.10000000000000E+01
 p    1 1.00
 0.51112745706000E-01 0.10000000000000E+01
 d    1 1.00
 0.23140000000000E+01 0.10000000000000E+01
 d    1 1.00
 0.64500000000000E+00 0.10000000000000E+01
 d    1 1.00
 0.14696477366000E+00 0.10000000000000E+01
 f    1 1.00
 0.14280000000000E+01 0.10000000000000E+01
 
   14 0
 s    6 1.00
 0.19730800647000E+05 0.58626402628763E-03
 0.29578958745000E+04 0.45428820586397E-02
 0.67322133595000E+03 0.23558413450084E-01
 0.19068249494000E+03 0.94709193292923E-01
 0.62295441898000E+02 0.29719784913376E+00
 0.22654161182000E+02 0.66916246895232E+00
 s    2 1.00
 0.89791477428000E+01 0.64596683630063E+00
 0.36863002370000E+01 0.38700574393705E+00
 s    1 1.00
 0.84660076805000E+00 0.10000000000000E+01
 s    1 1.00
 0.33647133771000E+00 0.10000000000000E+01
 s    1 1.00
 0.13647653675000E+00 0.10000000000000E+01
 s    1 1.00
 0.68441605847000E-01 0.10000000000000E+01
 p    4 1.00
 0.49200380510000E+02 0.11448825101764E-01
 0.11346790537000E+02 0.78422337970864E-01
 0.34273972411000E+01 0.30818094738830E+00
 0.11785525134000E+01 0.72027196368413E+00
 p    1 1.00
 0.41642204972000E+00 0.10000000000000E+01
 p    1 1.00
 0.14260826011000E+00 0.10000000000000E+01
 d    1 1.00
 0.16540000000000E+01 0.10000000000000E+01
 d    1 1.00
 0.46900000000000E+00 0.10000000000000E+01
 d    1 1.00
 0.12829642058000E+00 0.10000000000000E+01
 f    1 1.00
 0.10930000000000E+01 0.10000000000000E+01
 
   15 0
 s    3 1.00
 0.34061341000000E+02 0.25439307208879E-01
 0.51235746000000E+01 0.19008594890375E+00
 0.11646626000000E+01 0.85244113011042E+00
 s    1 1.00
 0.32723041000000E+00 0.10000000000000E+01
 s    1 1.00
 0.10307241000000E+00 0.10000000000000E+01
 p    1 1.00
 0.80000000000000E+00 0.10000000000000E+01
 p    1 1.00
 0.95774129632000E-01 0.10000000000000E+01
 
   16 0
 s    3 1.00
 0.34061341000000E+02 0.25439307208879E-01
 0.51235746000000E+01 0.19008594890375E+00
 0.11646626000000E+01 0.85244113011042E+00
 s    1 1.00
 0.32723041000000E+00 0.10000000000000E+01
 s    1 1.00
 0.10307241000000E+00 0.10000000000000E+01
 p    1 1.00
 0.80000000000000E+00 0.10000000000000E+01
 p    1 1.00
 0.95774129632000E-01 0.10000000000000E+01
 
[MO]
 Sym= X
 Ene= -0.893818
 Spin= Alpha
 Occup= -0.893818
         1   -1.830418E-04
         2   -4.251694E-04
         3    1.163325E-03
         4   -2.384899E-03
         5   -9.430964E-03
         6   -1.082429E-02
         7    1.601546E-03
         8    1.932333E-04
         9    2.077777E-02
        10   -2.301059E-03
        11    3.997078E-04
        12    1.894468E-02
        13   -3.424078E-02
        14    9.559433E-03
        15    1.820144E-03
        16    3.684769E-06
        17   -1.389601E-05
        18    1.021125E-05
        19   -1.401648E-05
        20   -6.266521E-03
        21    3.711157E-03
        22   -6.292904E-04
        23    3.815116E-04
        24    2.477788E-04
        25   -6.948679E-04
        26   -1.411855E-02
        27    7.026024E-03
        28   -4.902887E-03
        29    4.585557E-03
        30    3.173292E-04
        31    1.135008E-03
        32    1.751933E-03
        33   -1.078082E-02
        34   -1.829508E-05
        35    6.996426E-06
        36   -7.760082E-05
        37    7.009671E-06
        38   -7.281556E-06
        39   -7.119760E-04
        40    1.753575E-05
        41   -2.105134E-06
        42    8.160884E-04
        43   -6.797637E-04
        44    2.218161E-05
        45    4.813323E-05
        46    1.500168E-04
        47   -2.706724E-03
        48   -4.862882E-02
        49    5.422651E-03
        50    4.014990E-04
        51    9.294808E-07
        52    1.970865E-01
        53   -4.114180E-04
        54    1.930948E-05
        55    2.046402E-01
        56   -1.617331E-02
        57   -1.285600E-03
        58    2.006767E-01
        59    3.557278E-05
        60   -3.322989E-05
        61   -2.342889E-06
        62    9.644452E-08
        63   -8.533155E-04
        64    1.110760E-06
        65    3.684499E-04
        66   -6.097809E-04
        67    2.413310E-04
        68    4.404345E-06
        69   -3.636307E-03
        70    1.857401E-06
        71    8.877035E-03
        72   -9.944292E-03
        73    1.067257E-03
        74   -2.129250E-04
        75    4.802899E-03
        76   -1.490568E-05
        77    7.585600E-06
        78    4.476161E-08
        79   -1.093753E-03
        80   -6.938253E-06
        81    3.137420E-08
        82    6.684151E-04
        83   -3.238898E-06
        84   -9.142819E-08
        85    7.990088E-04
        86    1.295569E-07
        87   -1.835146E-04
        88   -4.263448E-04
        89    1.173107E-03
        90   -2.460890E-03
        91   -7.148992E-03
        92   -1.075534E-02
        93    1.601484E-03
        94   -1.930546E-04
        95    2.083064E-02
        96   -2.290663E-03
        97   -3.851098E-04
        98    1.899582E-02
        99   -3.503560E-02
       100   -1.093993E-02
       101    1.933990E-03
       102    3.452577E-06
       103   -1.382281E-05
       104    1.037024E-05
       105    1.420927E-05
       106   -6.265896E-03
       107   -3.711386E-03
       108   -6.261475E-04
       109    3.770133E-04
       110    2.491342E-04
       111    6.913139E-04
       112   -1.411482E-02
       113   -7.025608E-03
       114   -5.133267E-03
       115    4.841525E-03
       116    2.917418E-04
       117   -9.694941E-04
       118    1.757401E-03
       119    1.075043E-02
       120   -1.845897E-05
       121   -6.976083E-06
       122   -7.789033E-05
       123    7.295950E-06
       124    7.286562E-06
       125   -7.116514E-04
       126    1.746935E-05
       127    2.072836E-06
       128    8.161523E-04
       129    6.797027E-04
       130    1.217721E-04
       131    2.631713E-04
       132    5.507657E-04
       133   -1.018661E-02
       134    2.785697E-02
       135    1.208395E-02
       136   -1.287628E-03
       137    6.956251E-04
       138   -1.535113E-01
       139   -8.806254E-03
       140    6.029823E-03
       141   -1.564020E-01
       142   -2.415048E-02
       143   -6.863401E-03
       144   -9.338671E-02
       145    1.446689E-04
       146   -1.748021E-04
       147    3.013312E-05
       148   -4.082751E-06
       149   -7.085454E-04
       150    2.906426E-03
       151    5.893228E-04
       152   -7.272203E-04
       153    1.378975E-04
       154    1.645728E-03
       155   -3.828362E-03
       156    4.889336E-03
       157    8.063190E-03
       158   -6.371368E-03
       159   -1.691822E-03
       160   -8.285030E-03
       161    3.603151E-03
       162   -1.277398E-02
       163   -1.403678E-05
       164    9.910071E-06
       165    8.604061E-04
       166   -1.907599E-05
       167    1.585198E-05
       168   -2.253406E-04
       169    3.790831E-05
       170   -2.914774E-05
       171   -9.290153E-04
       172    3.230275E-04
       173   -1.103027E-03
       174   -2.512686E-03
       175    2.608759E-03
       176    2.103556E-02
       177   -1.472772E-02
       178    9.017229E-03
       179    8.950781E-03
       180    2.087204E-06
       181   -1.078241E-01
       182    5.885655E-04
       183   -1.025472E-05
       184   -1.106598E-01
       185   -2.470776E-02
       186    1.373091E-03
       187   -1.329774E-01
       188    4.672500E-04
       189   -2.626252E-04
       190   -2.046248E-04
       191    9.596589E-08
       192    1.008784E-02
       193    8.580709E-07
       194   -1.804956E-03
       195    3.964995E-03
       196   -2.160038E-03
       197    2.974367E-06
       198    2.482353E-02
       199   -7.901358E-07
       200   -5.576963E-03
       201    6.800783E-03
       202   -1.223820E-03
       203   -2.313120E-04
       204    1.926648E-02
       205   -5.523117E-06
       206    1.137862E-04
       207    1.334878E-08
       208    2.813323E-04
       209   -7.978411E-05
       210   -7.184238E-08
       211    1.092330E-03
       212   -7.287611E-05
       213    5.393311E-08
       214   -1.469777E-03
       215   -5.352673E-09
       216    1.221395E-04
       217    2.637830E-04
       218    5.567850E-04
       219   -1.026715E-02
       220    3.034857E-02
       221    1.212967E-02
       222   -1.289424E-03
       223   -6.917500E-04
       224   -1.535499E-01
       225   -8.809407E-03
       226   -6.044119E-03
       227   -1.564480E-01
       228   -2.320608E-02
       229    8.474080E-03
       230   -9.333936E-02
       231    1.444494E-04
       232   -1.753308E-04
       233    3.088145E-05
       234    4.016086E-06
       235   -7.073523E-04
       236   -2.906608E-03
       237    5.901863E-04
       238   -7.286540E-04
       239    1.384678E-04
       240   -1.648119E-03
       241   -3.824747E-03
       242   -4.889210E-03
       243    7.830132E-03
       244   -6.123276E-03
       245   -1.706856E-03
       246    8.491029E-03
       247    3.597763E-03
       248    1.281403E-02
       249   -1.396990E-05
       250   -9.958033E-06
       251    8.608954E-04
       252   -1.926874E-05
       253   -1.580408E-05
       254   -2.258535E-04
       255    3.801132E-05
       256    2.916418E-05
       257   -9.291589E-04
       258   -3.230006E-04
       259   -3.426136E-04
       260   -2.096109E-04
       261   -1.696079E-02
       262   -1.231818E-05
       263    7.614038E-07
       264    8.131927E-04
       265   -5.090624E-03
       266   -3.117343E-04
       267   -6.868547E-03
       268   -3.426549E-04
       269   -2.011772E-04
       270   -1.676502E-02
       271   -1.114553E-05
       272   -1.612885E-06
       273    8.156814E-04
       274   -5.205762E-03
       275    2.087960E-04
       276   -6.842272E-03
       277   -4.149949E-04
       278   -2.293567E-03
       279    3.290190E-02
       280   -9.675110E-06
       281    9.705091E-05
       282   -6.222260E-03
       283   -1.768426E-03
       284   -2.591708E-03
       285    2.145525E-03
       286   -4.176924E-04
       287   -2.296563E-03
       288    3.330451E-02
       289   -9.388388E-06
       290   -9.709623E-05
       291   -6.224230E-03
       292   -1.681578E-03
       293    2.720946E-03
       294    2.173872E-03
       295   -4.152346E-05
       296   -9.592047E-05
       297    7.704621E-05
       298    3.988459E-04
       299   -6.768246E-03
       300    7.874592E-04
       301    3.995892E-04
       302   -4.721648E-08
       303    2.069936E-02
       304    1.049668E-04
       305    6.149871E-07
       306    2.312057E-02
       307   -2.989227E-03
       308    3.941956E-05
       309    9.507794E-03
       310    1.801248E-05
       311   -3.514461E-06
       312   -1.449802E-05
       313   -6.329026E-08
       314    4.358188E-03
       315   -3.445991E-08
       316   -4.229010E-06
       317    6.746123E-05
       318   -6.323222E-05
       319   -7.601973E-07
       320    1.312516E-02
       321   -2.494909E-07
       322   -9.742211E-04
       323    2.734122E-03
       324   -1.759901E-03
       325    3.847554E-05
       326    2.975867E-03
       327    2.847883E-06
       328    6.603252E-06
       329   -7.943178E-09
       330    8.518158E-06
       331   -4.782062E-06
       332    3.690368E-08
       333    6.851787E-04
       334   -4.077130E-06
       335   -2.624679E-08
       336   -6.966070E-04
       337    3.529090E-08
       338   -1.229260E-05
       339   -2.653941E-05
       340   -3.905879E-06
       341    4.893767E-04
       342   -5.636437E-03
       343   -8.734139E-04
       344   -1.613862E-04
       345    1.108355E-04
       346   -7.807419E-02
       347   -2.489275E-04
       348    2.384781E-04
       349   -7.241458E-02
       350   -1.377180E-03
       351    4.732262E-04
       352   -5.923948E-02
       353   -1.598425E-04
       354    2.013263E-04
       355   -7.404230E-03
       356    3.482152E-06
       357   -3.990134E-06
       358    5.079820E-07
       359    1.638163E-09
       360    1.476303E-05
       361    4.588161E-04
       362   -1.178269E-05
       363   -9.836742E-06
       364    2.161943E-05
       365    1.037131E-05
       366   -4.965467E-04
       367    1.536172E-03
       368   -7.794295E-05
       369    5.365813E-05
       370    2.428483E-05
       371    8.104585E-05
       372   -1.219834E-04
       373    2.446406E-04
       374    7.015855E-07
       375    1.543695E-06
       376    6.282243E-05
       377   -1.265646E-06
       378   -3.982669E-07
       379    8.251841E-05
       380    3.243708E-07
       381   -1.672818E-06
       382   -1.668035E-04
       383    1.320858E-04
       384   -1.211691E-05
       385   -2.615415E-05
       386   -3.882307E-06
       387    4.839269E-04
       388   -5.637599E-03
       389   -8.356333E-04
       390   -1.537356E-04
       391   -1.148533E-04
       392   -7.806909E-02
       393   -2.421776E-04
       394   -2.413559E-04
       395   -7.240998E-02
       396   -1.332797E-03
       397   -4.753685E-04
       398   -5.923245E-02
       399   -1.426284E-04
       400   -2.053939E-04
       401   -7.409231E-03
       402    3.490578E-06
       403   -4.032277E-06
       404    5.416991E-07
       405   -4.696281E-08
       406    1.473725E-05
       407   -4.587750E-04
       408   -1.127826E-05
       409   -9.939166E-06
       410    2.121743E-05
       411   -9.852707E-06
       412   -4.964137E-04
       413   -1.536037E-03
       414   -7.722271E-05
       415    5.437098E-05
       416    2.285172E-05
       417   -7.967676E-05
       418   -1.232348E-04
       419   -2.440596E-04
       420    7.062140E-07
       421   -1.553483E-06
       422    6.282324E-05
       423   -1.256271E-06
       424    4.176835E-07
       425    8.250847E-05
       426    3.087853E-07
       427    1.666533E-06
       428   -1.667947E-04
       429   -1.320787E-04
       430    4.825340E-03
       431    1.144360E-02
       432   -1.776694E-02
       433   -2.747598E-02
       434   -2.160719E-02
       435   -6.630030E-02
       436   -1.696897E-02
       437    1.038026E-05
       438    2.591804E-01
       439   -1.934607E-02
       440    4.927468E-07
       441    2.560332E-01
       442   -1.785984E-02
       443   -1.171632E-04
       444    2.090397E-01
       445   -9.528922E-05
       446   -1.690944E-05
       447    1.121987E-04
       448    2.292434E-07
       449    6.996661E-04
       450    2.947389E-07
       451   -2.116109E-04
       452   -1.504325E-03
       453    1.715936E-03
       454   -4.224577E-06
       455    3.475849E-03
       456    9.965567E-07
       457   -1.668419E-03
       458   -2.962179E-03
       459    4.630598E-03
       460   -1.039315E-05
       461    2.113899E-03
       462    9.957707E-06
       463   -1.344616E-04
       464    2.792099E-08
       465   -1.040284E-03
       466   -8.631728E-05
       467   -1.906954E-08
       468    5.712296E-04
       469    2.667165E-04
       470   -1.839041E-08
       471    8.244582E-04
       472    1.895828E-08
       473    9.017276E-03
       474    1.721259E-02
       475    2.892732E-02
       476   -2.203979E-03
       477   -1.826451E-03
       478    1.313215E-02
       479    1.257417E-03
       480   -3.384737E-03
       481    1.499529E-02
       482    9.010474E-03
       483    1.713397E-02
       484    2.863427E-02
       485   -2.200096E-03
       486    1.818736E-03
       487    1.313602E-02
       488    1.284652E-03
       489    3.334916E-03
       490    1.501009E-02
 Sym= X
 Ene= 0.893818
 Spin= Alpha
 Occup= 0.893818
         1    6.091853E-03
         2    1.321229E-02
         3   -3.127822E-03
         4   -2.852752E-01
         5   -8.705725E+00
         6    3.807469E-01
         7    1.829708E-02
         8    4.982916E-02
         9    1.287243E-03
        10    8.591447E-02
        11    7.335602E-03
        12    5.801389E-04
        13    3.931014E+00
        14   -3.846433E+00
        15    6.279732E-03
        16   -9.353868E-04
        17    8.587428E-05
        18    8.495125E-04
        19    1.946681E-03
        20   -6.368065E-05
        21    1.771662E-05
        22    1.545878E-02
        23   -2.125871E-02
        24    5.799925E-03
        25    2.023232E-02
        26   -2.783219E-04
        27   -1.834453E-04
        28    1.518559E+00
        29   -1.446005E+00
        30   -7.255372E-02
        31    1.046987E+00
        32    1.774638E-03
        33    4.297056E-03
        34    8.383878E-05
        35   -2.725471E-04
        36    1.340017E-05
        37    6.980483E-04
        38    4.832358E-04
        39   -2.484737E-05
        40   -8.105298E-04
        41   -1.175755E-04
        42    6.869148E-06
        43   -2.779524E-06
        44    2.044567E-07
        45    7.416242E-07
        46   -3.675374E-06
        47    6.379729E-05
        48    1.888592E-03
        49   -9.751554E-04
        50    1.601460E-05
        51    1.407906E-02
        52   -3.438876E-07
        53   -5.818190E-06
        54   -1.018300E-01
        55   -3.964150E-06
        56   -7.392887E-05
        57   -8.816560E+00
        58    7.420852E-05
        59    2.442557E-06
        60   -5.741072E-07
        61   -1.868450E-06
        62   -1.853010E-03