[Molden Format]
[Title]
ADC(2) - opt by CAM-B3LYP gaussian                                              
[Atoms] AU
 c     1    6 -.12588789760523E+01 -.22833296301999E+01 -.24948636837890E-01
 c     2    6 -.25574931053929E+01 0.00000000000000E+00 -.23691968959520E-01
 c     3    6 -.12588770863262E+01 0.22833296301999E+01 -.24954306016290E-01
 c     4    6 0.13320886199507E+01 0.22850077070059E+01 -.26951746538750E-01
 c     5    6 0.26868238359857E+01 0.00000000000000E+00 -.26437741030600E-01
 c     6    6 0.13320867302245E+01 -.22850077070059E+01 -.26946077360350E-01
 h     7    1 -.22977937121289E+01 -.40382313624087E+01 -.22371050392630E-01
 h     8    1 -.22977918224027E+01 0.40382332521348E+01 -.22380499023300E-01
 h     9    1 0.23512179234159E+01 0.40571966538783E+01 -.29234535707270E-01
 h    10    1 0.23512179234159E+01 -.40571947641522E+01 -.29223197350470E-01
 n    11    7 -.52733186864479E+01 0.00000000000000E+00 -.17996334395000E-01
 o    12    8 -.63812046469225E+01 0.20269448165729E+01 -.15568036314240E-01
 o    13    8 -.63812027571964E+01 -.20269467062990E+01 -.15583154123310E-01
 n    14    7 0.52441127328484E+01 0.00000000000000E+00 -.70347417454330E-01
 h    15    1 0.62045074583774E+01 0.16172030580838E+01 0.18832018534119E+00
 h    16    1 0.62045055686513E+01 -.16172049478099E+01 0.18831451616279E+00
[GTO]
    1 0
 s    6 1.00
 0.13575349682000E+05 0.60645503603591E-03
 0.20352333680000E+04 0.46979088884982E-02
 0.46322562359000E+03 0.24332477647552E-01
 0.13120019598000E+03 0.97399968307759E-01
 0.42853015891000E+02 0.30195584253780E+00
 0.15584185766000E+02 0.66233609137875E+00
 s    2 1.00
 0.62067138508000E+01 0.65595308539952E+00
 0.25764896527000E+01 0.37585633285142E+00
 s    1 1.00
 0.57696339419000E+00 0.10000000000000E+01
 s    1 1.00
 0.22972831358000E+00 0.10000000000000E+01
 s    1 1.00
 0.95164440028000E-01 0.10000000000000E+01
 s    1 1.00
 0.48475401370000E-01 0.10000000000000E+01
 p    4 1.00
 0.34697232244000E+02 0.11327220003114E-01
 0.79582622826000E+01 0.76169659202087E-01
 0.23780826883000E+01 0.30192252202676E+00
 0.81433208183000E+00 0.72785027349547E+00
 p    1 1.00
 0.28887547253000E+00 0.10000000000000E+01
 p    1 1.00
 0.10056823671000E+00 0.10000000000000E+01
 d    1 1.00
 0.10970000000000E+01 0.10000000000000E+01
 d    1 1.00
 0.31800000000000E+00 0.10000000000000E+01
 d    1 1.00
 0.90985336424000E-01 0.10000000000000E+01
 f    1 1.00
 0.76100000000000E+00 0.10000000000000E+01
 
    2 0
 s    6 1.00
 0.13575349682000E+05 0.60645503603591E-03
 0.20352333680000E+04 0.46979088884982E-02
 0.46322562359000E+03 0.24332477647552E-01
 0.13120019598000E+03 0.97399968307759E-01
 0.42853015891000E+02 0.30195584253780E+00
 0.15584185766000E+02 0.66233609137875E+00
 s    2 1.00
 0.62067138508000E+01 0.65595308539952E+00
 0.25764896527000E+01 0.37585633285142E+00
 s    1 1.00
 0.57696339419000E+00 0.10000000000000E+01
 s    1 1.00
 0.22972831358000E+00 0.10000000000000E+01
 s    1 1.00
 0.95164440028000E-01 0.10000000000000E+01
 s    1 1.00
 0.48475401370000E-01 0.10000000000000E+01
 p    4 1.00
 0.34697232244000E+02 0.11327220003114E-01
 0.79582622826000E+01 0.76169659202087E-01
 0.23780826883000E+01 0.30192252202676E+00
 0.81433208183000E+00 0.72785027349547E+00
 p    1 1.00
 0.28887547253000E+00 0.10000000000000E+01
 p    1 1.00
 0.10056823671000E+00 0.10000000000000E+01
 d    1 1.00
 0.10970000000000E+01 0.10000000000000E+01
 d    1 1.00
 0.31800000000000E+00 0.10000000000000E+01
 d    1 1.00
 0.90985336424000E-01 0.10000000000000E+01
 f    1 1.00
 0.76100000000000E+00 0.10000000000000E+01
 
    3 0
 s    6 1.00
 0.13575349682000E+05 0.60645503603591E-03
 0.20352333680000E+04 0.46979088884982E-02
 0.46322562359000E+03 0.24332477647552E-01
 0.13120019598000E+03 0.97399968307759E-01
 0.42853015891000E+02 0.30195584253780E+00
 0.15584185766000E+02 0.66233609137875E+00
 s    2 1.00
 0.62067138508000E+01 0.65595308539952E+00
 0.25764896527000E+01 0.37585633285142E+00
 s    1 1.00
 0.57696339419000E+00 0.10000000000000E+01
 s    1 1.00
 0.22972831358000E+00 0.10000000000000E+01
 s    1 1.00
 0.95164440028000E-01 0.10000000000000E+01
 s    1 1.00
 0.48475401370000E-01 0.10000000000000E+01
 p    4 1.00
 0.34697232244000E+02 0.11327220003114E-01
 0.79582622826000E+01 0.76169659202087E-01
 0.23780826883000E+01 0.30192252202676E+00
 0.81433208183000E+00 0.72785027349547E+00
 p    1 1.00
 0.28887547253000E+00 0.10000000000000E+01
 p    1 1.00
 0.10056823671000E+00 0.10000000000000E+01
 d    1 1.00
 0.10970000000000E+01 0.10000000000000E+01
 d    1 1.00
 0.31800000000000E+00 0.10000000000000E+01
 d    1 1.00
 0.90985336424000E-01 0.10000000000000E+01
 f    1 1.00
 0.76100000000000E+00 0.10000000000000E+01
 
    4 0
 s    6 1.00
 0.13575349682000E+05 0.60645503603591E-03
 0.20352333680000E+04 0.46979088884982E-02
 0.46322562359000E+03 0.24332477647552E-01
 0.13120019598000E+03 0.97399968307759E-01
 0.42853015891000E+02 0.30195584253780E+00
 0.15584185766000E+02 0.66233609137875E+00
 s    2 1.00
 0.62067138508000E+01 0.65595308539952E+00
 0.25764896527000E+01 0.37585633285142E+00
 s    1 1.00
 0.57696339419000E+00 0.10000000000000E+01
 s    1 1.00
 0.22972831358000E+00 0.10000000000000E+01
 s    1 1.00
 0.95164440028000E-01 0.10000000000000E+01
 s    1 1.00
 0.48475401370000E-01 0.10000000000000E+01
 p    4 1.00
 0.34697232244000E+02 0.11327220003114E-01
 0.79582622826000E+01 0.76169659202087E-01
 0.23780826883000E+01 0.30192252202676E+00
 0.81433208183000E+00 0.72785027349547E+00
 p    1 1.00
 0.28887547253000E+00 0.10000000000000E+01
 p    1 1.00
 0.10056823671000E+00 0.10000000000000E+01
 d    1 1.00
 0.10970000000000E+01 0.10000000000000E+01
 d    1 1.00
 0.31800000000000E+00 0.10000000000000E+01
 d    1 1.00
 0.90985336424000E-01 0.10000000000000E+01
 f    1 1.00
 0.76100000000000E+00 0.10000000000000E+01
 
    5 0
 s    6 1.00
 0.13575349682000E+05 0.60645503603591E-03
 0.20352333680000E+04 0.46979088884982E-02
 0.46322562359000E+03 0.24332477647552E-01
 0.13120019598000E+03 0.97399968307759E-01
 0.42853015891000E+02 0.30195584253780E+00
 0.15584185766000E+02 0.66233609137875E+00
 s    2 1.00
 0.62067138508000E+01 0.65595308539952E+00
 0.25764896527000E+01 0.37585633285142E+00
 s    1 1.00
 0.57696339419000E+00 0.10000000000000E+01
 s    1 1.00
 0.22972831358000E+00 0.10000000000000E+01
 s    1 1.00
 0.95164440028000E-01 0.10000000000000E+01
 s    1 1.00
 0.48475401370000E-01 0.10000000000000E+01
 p    4 1.00
 0.34697232244000E+02 0.11327220003114E-01
 0.79582622826000E+01 0.76169659202087E-01
 0.23780826883000E+01 0.30192252202676E+00
 0.81433208183000E+00 0.72785027349547E+00
 p    1 1.00
 0.28887547253000E+00 0.10000000000000E+01
 p    1 1.00
 0.10056823671000E+00 0.10000000000000E+01
 d    1 1.00
 0.10970000000000E+01 0.10000000000000E+01
 d    1 1.00
 0.31800000000000E+00 0.10000000000000E+01
 d    1 1.00
 0.90985336424000E-01 0.10000000000000E+01
 f    1 1.00
 0.76100000000000E+00 0.10000000000000E+01
 
    6 0
 s    6 1.00
 0.13575349682000E+05 0.60645503603591E-03
 0.20352333680000E+04 0.46979088884982E-02
 0.46322562359000E+03 0.24332477647552E-01
 0.13120019598000E+03 0.97399968307759E-01
 0.42853015891000E+02 0.30195584253780E+00
 0.15584185766000E+02 0.66233609137875E+00
 s    2 1.00
 0.62067138508000E+01 0.65595308539952E+00
 0.25764896527000E+01 0.37585633285142E+00
 s    1 1.00
 0.57696339419000E+00 0.10000000000000E+01
 s    1 1.00
 0.22972831358000E+00 0.10000000000000E+01
 s    1 1.00
 0.95164440028000E-01 0.10000000000000E+01
 s    1 1.00
 0.48475401370000E-01 0.10000000000000E+01
 p    4 1.00
 0.34697232244000E+02 0.11327220003114E-01
 0.79582622826000E+01 0.76169659202087E-01
 0.23780826883000E+01 0.30192252202676E+00
 0.81433208183000E+00 0.72785027349547E+00
 p    1 1.00
 0.28887547253000E+00 0.10000000000000E+01
 p    1 1.00
 0.10056823671000E+00 0.10000000000000E+01
 d    1 1.00
 0.10970000000000E+01 0.10000000000000E+01
 d    1 1.00
 0.31800000000000E+00 0.10000000000000E+01
 d    1 1.00
 0.90985336424000E-01 0.10000000000000E+01
 f    1 1.00
 0.76100000000000E+00 0.10000000000000E+01
 
    7 0
 s    3 1.00
 0.34061341000000E+02 0.25439307208879E-01
 0.51235746000000E+01 0.19008594890375E+00
 0.11646626000000E+01 0.85244113011042E+00
 s    1 1.00
 0.32723041000000E+00 0.10000000000000E+01
 s    1 1.00
 0.10307241000000E+00 0.10000000000000E+01
 p    1 1.00
 0.80000000000000E+00 0.10000000000000E+01
 p    1 1.00
 0.95774129632000E-01 0.10000000000000E+01
 
    8 0
 s    3 1.00
 0.34061341000000E+02 0.25439307208879E-01
 0.51235746000000E+01 0.19008594890375E+00
 0.11646626000000E+01 0.85244113011042E+00
 s    1 1.00
 0.32723041000000E+00 0.10000000000000E+01
 s    1 1.00
 0.10307241000000E+00 0.10000000000000E+01
 p    1 1.00
 0.80000000000000E+00 0.10000000000000E+01
 p    1 1.00
 0.95774129632000E-01 0.10000000000000E+01
 
    9 0
 s    3 1.00
 0.34061341000000E+02 0.25439307208879E-01
 0.51235746000000E+01 0.19008594890375E+00
 0.11646626000000E+01 0.85244113011042E+00
 s    1 1.00
 0.32723041000000E+00 0.10000000000000E+01
 s    1 1.00
 0.10307241000000E+00 0.10000000000000E+01
 p    1 1.00
 0.80000000000000E+00 0.10000000000000E+01
 p    1 1.00
 0.95774129632000E-01 0.10000000000000E+01
 
   10 0
 s    3 1.00
 0.34061341000000E+02 0.25439307208879E-01
 0.51235746000000E+01 0.19008594890375E+00
 0.11646626000000E+01 0.85244113011042E+00
 s    1 1.00
 0.32723041000000E+00 0.10000000000000E+01
 s    1 1.00
 0.10307241000000E+00 0.10000000000000E+01
 p    1 1.00
 0.80000000000000E+00 0.10000000000000E+01
 p    1 1.00
 0.95774129632000E-01 0.10000000000000E+01
 
   11 0
 s    6 1.00
 0.19730800647000E+05 0.58626402628763E-03
 0.29578958745000E+04 0.45428820586397E-02
 0.67322133595000E+03 0.23558413450084E-01
 0.19068249494000E+03 0.94709193292923E-01
 0.62295441898000E+02 0.29719784913376E+00
 0.22654161182000E+02 0.66916246895232E+00
 s    2 1.00
 0.89791477428000E+01 0.64596683630063E+00
 0.36863002370000E+01 0.38700574393705E+00
 s    1 1.00
 0.84660076805000E+00 0.10000000000000E+01
 s    1 1.00
 0.33647133771000E+00 0.10000000000000E+01
 s    1 1.00
 0.13647653675000E+00 0.10000000000000E+01
 s    1 1.00
 0.68441605847000E-01 0.10000000000000E+01
 p    4 1.00
 0.49200380510000E+02 0.11448825101764E-01
 0.11346790537000E+02 0.78422337970864E-01
 0.34273972411000E+01 0.30818094738830E+00
 0.11785525134000E+01 0.72027196368413E+00
 p    1 1.00
 0.41642204972000E+00 0.10000000000000E+01
 p    1 1.00
 0.14260826011000E+00 0.10000000000000E+01
 d    1 1.00
 0.16540000000000E+01 0.10000000000000E+01
 d    1 1.00
 0.46900000000000E+00 0.10000000000000E+01
 d    1 1.00
 0.12829642058000E+00 0.10000000000000E+01
 f    1 1.00
 0.10930000000000E+01 0.10000000000000E+01
 
   12 0
 s    6 1.00
 0.27032382631000E+05 0.57227335211155E-03
 0.40523871392000E+04 0.44353233492995E-02
 0.92232722710000E+03 0.23020107706038E-01
 0.26124070989000E+03 0.92822490667928E-01
 0.85354641351000E+02 0.29378500009671E+00
 0.31035035245000E+02 0.67401604501641E+00
 s    2 1.00
 0.12260860728000E+02 0.63839937025506E+00
 0.49987076005000E+01 0.39534587125718E+00
 s    1 1.00
 0.11703108158000E+01 0.10000000000000E+01
 s    1 1.00
 0.46474740994000E+00 0.10000000000000E+01
 s    1 1.00
 0.18504536357000E+00 0.10000000000000E+01
 s    1 1.00
 0.70288026270000E-01 0.10000000000000E+01
 p    4 1.00
 0.63274954801000E+02 0.12018332222616E-01
 0.14627049379000E+02 0.83005421790056E-01
 0.44501223456000E+01 0.31991743925964E+00
 0.15275799647000E+01 0.70715542916104E+00
 p    1 1.00
 0.52935117943000E+00 0.10000000000000E+01
 p    1 1.00
 0.17478421270000E+00 0.10000000000000E+01
 p    1 1.00
 0.51112745706000E-01 0.10000000000000E+01
 d    1 1.00
 0.23140000000000E+01 0.10000000000000E+01
 d    1 1.00
 0.64500000000000E+00 0.10000000000000E+01
 d    1 1.00
 0.14696477366000E+00 0.10000000000000E+01
 f    1 1.00
 0.14280000000000E+01 0.10000000000000E+01
 
   13 0
 s    6 1.00
 0.27032382631000E+05 0.57227335211155E-03
 0.40523871392000E+04 0.44353233492995E-02
 0.92232722710000E+03 0.23020107706038E-01
 0.26124070989000E+03 0.92822490667928E-01
 0.85354641351000E+02 0.29378500009671E+00
 0.31035035245000E+02 0.67401604501641E+00
 s    2 1.00
 0.12260860728000E+02 0.63839937025506E+00
 0.49987076005000E+01 0.39534587125718E+00
 s    1 1.00
 0.11703108158000E+01 0.10000000000000E+01
 s    1 1.00
 0.46474740994000E+00 0.10000000000000E+01
 s    1 1.00
 0.18504536357000E+00 0.10000000000000E+01
 s    1 1.00
 0.70288026270000E-01 0.10000000000000E+01
 p    4 1.00
 0.63274954801000E+02 0.12018332222616E-01
 0.14627049379000E+02 0.83005421790056E-01
 0.44501223456000E+01 0.31991743925964E+00
 0.15275799647000E+01 0.70715542916104E+00
 p    1 1.00
 0.52935117943000E+00 0.10000000000000E+01
 p    1 1.00
 0.17478421270000E+00 0.10000000000000E+01
 p    1 1.00
 0.51112745706000E-01 0.10000000000000E+01
 d    1 1.00
 0.23140000000000E+01 0.10000000000000E+01
 d    1 1.00
 0.64500000000000E+00 0.10000000000000E+01
 d    1 1.00
 0.14696477366000E+00 0.10000000000000E+01
 f    1 1.00
 0.14280000000000E+01 0.10000000000000E+01
 
   14 0
 s    6 1.00
 0.19730800647000E+05 0.58626402628763E-03
 0.29578958745000E+04 0.45428820586397E-02
 0.67322133595000E+03 0.23558413450084E-01
 0.19068249494000E+03 0.94709193292923E-01
 0.62295441898000E+02 0.29719784913376E+00
 0.22654161182000E+02 0.66916246895232E+00
 s    2 1.00
 0.89791477428000E+01 0.64596683630063E+00
 0.36863002370000E+01 0.38700574393705E+00
 s    1 1.00
 0.84660076805000E+00 0.10000000000000E+01
 s    1 1.00
 0.33647133771000E+00 0.10000000000000E+01
 s    1 1.00
 0.13647653675000E+00 0.10000000000000E+01
 s    1 1.00
 0.68441605847000E-01 0.10000000000000E+01
 p    4 1.00
 0.49200380510000E+02 0.11448825101764E-01
 0.11346790537000E+02 0.78422337970864E-01
 0.34273972411000E+01 0.30818094738830E+00
 0.11785525134000E+01 0.72027196368413E+00
 p    1 1.00
 0.41642204972000E+00 0.10000000000000E+01
 p    1 1.00
 0.14260826011000E+00 0.10000000000000E+01
 d    1 1.00
 0.16540000000000E+01 0.10000000000000E+01
 d    1 1.00
 0.46900000000000E+00 0.10000000000000E+01
 d    1 1.00
 0.12829642058000E+00 0.10000000000000E+01
 f    1 1.00
 0.10930000000000E+01 0.10000000000000E+01
 
   15 0
 s    3 1.00
 0.34061341000000E+02 0.25439307208879E-01
 0.51235746000000E+01 0.19008594890375E+00
 0.11646626000000E+01 0.85244113011042E+00
 s    1 1.00
 0.32723041000000E+00 0.10000000000000E+01
 s    1 1.00
 0.10307241000000E+00 0.10000000000000E+01
 p    1 1.00
 0.80000000000000E+00 0.10000000000000E+01
 p    1 1.00
 0.95774129632000E-01 0.10000000000000E+01
 
   16 0
 s    3 1.00
 0.34061341000000E+02 0.25439307208879E-01
 0.51235746000000E+01 0.19008594890375E+00
 0.11646626000000E+01 0.85244113011042E+00
 s    1 1.00
 0.32723041000000E+00 0.10000000000000E+01
 s    1 1.00
 0.10307241000000E+00 0.10000000000000E+01
 p    1 1.00
 0.80000000000000E+00 0.10000000000000E+01
 p    1 1.00
 0.95774129632000E-01 0.10000000000000E+01
 
[MO]
 Sym= X
 Ene= -0.899533
 Spin= Alpha
 Occup= -0.899533
         1    8.327318E-04
         2    1.930051E-03
         3    1.355016E-03
         4   -3.559609E-02
         5   -2.547423E-01
         6    4.037643E-02
         7    1.881306E-02
         8   -3.765575E-02
         9   -3.859052E-05
        10    2.086251E-03
        11   -3.439866E-02
        12   -3.982715E-05
        13    7.586725E-03
        14   -8.002666E-02
        15   -1.337269E-04
        16    1.849197E-03
        17   -2.064282E-03
        18    2.150846E-04
        19    1.507189E-04
        20   -1.089288E-06
        21   -4.170572E-07
        22   -3.127154E-03
        23   -1.827654E-05
        24    3.145430E-03
        25    8.329686E-04
        26    1.622274E-06
        27   -4.158141E-06
        28    1.265710E-04
        29   -1.563847E-03
        30    1.437276E-03
        31   -1.430263E-02
        32   -2.059987E-05
        33    2.247100E-05
        34   -1.622739E-04
        35   -4.211002E-04
        36    4.136869E-07
        37    1.772365E-04
        38    4.662597E-04
        39   -3.642193E-07
        40    4.047682E-05
        41    9.870553E-05
        42   -1.907999E-07
        43   -9.072136E-07
        44   -1.362631E-02
        45   -3.078222E-02
        46    4.490924E-02
        47    8.217389E-02
        48    1.773292E-01
        49   -3.936187E-02
        50   -1.333163E-01
        51   -3.634489E-07
        52    1.636830E-04
        53   -9.844454E-02
        54   -6.766762E-07
        55    1.078830E-04
        56    9.033213E-02
        57    7.698891E-06
        58   -2.768651E-04
        59    4.942663E-03
        60   -4.209610E-03
        61   -7.330530E-04
        62    1.632409E-09
        63   -1.507098E-05
        64    2.649006E-07
        65    6.757722E-04
        66   -2.857780E-04
        67   -3.899942E-04
        68    1.525161E-07
        69    6.838249E-07
        70    1.630812E-06
        71   -3.792965E-02
        72    3.818972E-02
        73   -2.600736E-04
        74   -1.049410E-06
        75    1.054997E-04
        76   -1.444577E-05
        77   -1.053258E-03
        78   -3.780880E-09
        79   -1.898668E-06
        80    8.402896E-04
        81    5.930441E-09
        82    4.540290E-06
        83    5.728049E-04
        84   -8.578578E-10
        85   -1.992960E-06
        86    7.723818E-08
        87    8.327945E-04
        88    1.930202E-03
        89    1.354818E-03
        90   -3.559927E-02
        91   -2.547608E-01
        92    4.038184E-02
        93    1.881393E-02
        94    3.765591E-02
        95   -2.026414E-05
        96    2.085500E-03
        97    3.439849E-02
        98   -2.297977E-05
        99    7.591017E-03
       100    8.002327E-02
       101   -1.439966E-04
       102    1.849201E-03
       103   -2.064310E-03
       104    2.151085E-04
       105   -1.507290E-04
       106   -6.255169E-07
       107    3.047070E-07
       108   -3.127228E-03
       109   -1.822386E-05
       110    3.145452E-03
       111   -8.329247E-04
       112    2.965799E-06
       113    4.918584E-06
       114    1.230144E-04
       115   -1.559609E-03
       116    1.436595E-03
       117    1.430374E-02
       118   -5.402174E-05
       119   -4.580915E-05
       120   -1.622821E-04
       121    4.211124E-04
       122    3.515717E-07
       123    1.772482E-04
       124   -4.662669E-04
       125   -2.582597E-07
       126    4.047615E-05
       127   -9.871461E-05
       128   -2.134232E-07
       129    8.511394E-07
       130   -1.654139E-03
       131   -3.760490E-03
       132    2.922133E-03
       133    3.252213E-02
       134    1.123443E-01
       135   -3.334854E-02
       136   -2.020381E-02
       137   -8.268633E-03
       138    4.050094E-05
       139   -3.289380E-02
       140   -7.130759E-03
       141    6.124336E-05
       142   -3.881237E-02
       143   -4.767920E-02
       144    2.368752E-04
       145    5.737466E-04
       146   -4.625259E-04
       147   -1.112208E-04
       148   -1.355328E-03
       149    3.443384E-07
       150    1.430541E-06
       151    3.809812E-03
       152   -1.688475E-03
       153   -2.121337E-03
       154   -2.170324E-03
       155   -1.155329E-05
       156   -5.481164E-06
       157    5.745315E-03
       158   -5.497890E-03
       159   -2.474247E-04
       160    1.888077E-02
       161   -9.472765E-05
       162   -4.100236E-05
       163   -2.460450E-04
       164   -2.303548E-04
       165   -6.161917E-07
       166    1.653893E-04
       167    3.103256E-04
       168    7.007135E-07
       169    1.647147E-04
       170   -1.272229E-06
       171    1.259945E-07
       172   -4.610701E-08
       173   -1.927140E-03
       174   -4.422194E-03
       175    8.918947E-03
       176    7.257777E-04
       177    3.897659E-02
       178    3.627559E-02
       179   -6.288481E-03
       180   -3.114143E-08
       181   -1.000161E-06
       182   -3.286876E-03
       183   -2.284114E-07
       184    3.913779E-05
       185    1.990839E-02
       186    1.285128E-05
       187    3.211953E-05
       188    2.715938E-04
       189   -2.635567E-04
       190   -8.037041E-06
       191   -2.251329E-09
       192   -1.674494E-06
       193    3.602201E-07
       194   -3.574985E-04
       195   -4.348033E-04
       196    7.923018E-04
       197   -5.481947E-09
       198    1.265985E-05
       199    8.119020E-07
       200    1.286421E-02
       201   -1.359180E-02
       202    7.275935E-04
       203   -3.997240E-06
       204    2.213023E-04
       205    1.782583E-05
       206    3.146755E-05
       207   -7.364773E-09
       208   -2.797184E-07
       209   -4.317739E-05
       210    4.835733E-09
       211    5.460146E-07
       212    9.592319E-07
       213    5.045147E-09
       214   -1.707330E-07
       215   -5.440838E-08
       216   -1.654146E-03
       217   -3.760508E-03
       218    2.922405E-03
       219    3.252020E-02
       220    1.123892E-01
       221   -3.334541E-02
       222   -2.020339E-02
       223    8.268328E-03
       224    2.100097E-05
       225   -3.289219E-02
       226    7.129953E-03
       227    4.161831E-05
       228   -3.880605E-02
       229    4.768984E-02
       230    2.111702E-04
       231    5.737297E-04
       232   -4.625265E-04
       233   -1.112032E-04
       234    1.355349E-03
       235    7.398401E-07
       236   -1.451744E-06
       237    3.809496E-03
       238   -1.688196E-03
       239   -2.121300E-03
       240    2.170063E-03
       241   -1.024855E-05
       242    5.142768E-06
       243    5.738648E-03
       244   -5.490338E-03
       245   -2.483097E-04
       246   -1.888024E-02
       247   -6.212006E-05
       248    6.020177E-05
       249   -2.460360E-04
       250    2.303516E-04
       251   -4.846830E-07
       252    1.653798E-04
       253   -3.103236E-04
       254    5.499303E-07
       255    1.647122E-04
       256    1.274456E-06
       257    1.003402E-07
       258    4.656768E-08
       259    4.091472E-03
       260    5.338549E-03
       261    2.064599E-02
       262    2.012841E-03
       263    6.422456E-04
       264   -5.274984E-06
       265    6.895061E-03
       266    3.528460E-04
       267   -9.249673E-06
       268    4.091257E-03
       269    5.338350E-03
       270    2.064783E-02
       271    2.012811E-03
       272   -6.422414E-04
       273   -4.654545E-06
       274    6.891093E-03
       275   -3.562686E-04
       276    3.820470E-06
       277   -9.842264E-03
       278   -1.599512E-02
       279   -1.600294E-02
       280   -4.551554E-05
       281    1.462453E-03
       282   -1.671228E-06
       283   -7.082508E-03
       284    2.878990E-03
       285    8.106516E-05
       286   -9.842154E-03
       287   -1.599588E-02
       288   -1.601730E-02
       289   -4.551330E-05
       290   -1.462432E-03
       291   -2.165652E-06
       292   -7.076286E-03
       293   -2.875955E-03
       294    8.275015E-05
       295   -2.007420E-03
       296   -4.607652E-03
       297    3.130889E-03
       298    3.057300E-02
       299    1.616039E-01
       300   -1.574058E-02
       301    1.076823E-01
       302   -3.824247E-07
       303   -2.281558E-04
       304    1.002682E-01
       305   -6.400981E-07
       306   -2.145279E-04
       307    1.026904E-01
       308    1.174303E-06
       309   -1.938117E-04
       310    1.165573E-02
       311   -1.293321E-02
       312    1.277481E-03
       313    6.847690E-08
       314   -2.785540E-05
       315   -2.898144E-07
       316    3.314839E-02
       317   -3.446811E-02
       318    1.319727E-03
       319    2.386107E-07
       320   -8.409583E-05
       321   -1.230093E-06
       322   -1.423146E-02
       323    4.825509E-03
       324    9.405947E-03
       325   -1.965152E-06
       326    6.089152E-05
       327   -1.657718E-06
       328   -9.357042E-05
       329    1.761621E-08
       330    9.972368E-07
       331    3.516711E-04
       332   -2.455459E-08
       333   -8.446562E-07
       334   -2.261332E-04
       335    9.199627E-10
       336   -4.932774E-07
       337    8.439960E-08
       338    1.011269E-03
       339    2.575365E-03
       340   -3.168513E-03
       341    6.558571E-03
       342    3.055501E-03
       343    2.166251E-02
       344   -3.091217E-01
       345   -6.318020E-02
       346    6.973709E-04
       347   -2.720785E-01
       348   -6.046930E-02
       349    6.147673E-04
       350   -2.062036E-01
       351   -5.166692E-02
       352    4.672467E-04
       353   -1.583597E-02
       354   -9.095964E-03
       355    3.089172E-05
       356   -9.758785E-04
       357    2.301951E-04
       358    7.456834E-04
       359    2.605241E-03
       360    4.278073E-06
       361   -5.974963E-06
       362   -3.827501E-03
       363    1.718557E-03
       364    2.108944E-03
       365    5.964018E-03
       366    1.479064E-05
       367   -1.414111E-05
       368   -3.969084E-03
       369    3.362166E-03
       370    6.069182E-04
       371    6.210874E-03
       372    4.289211E-06
       373   -1.725968E-05
       374    2.722488E-04
       375   -5.319497E-04
       376   -1.229584E-06
       377   -5.989378E-04
       378    9.686421E-04
       379    2.451001E-07
       380    2.336777E-04
       381   -2.549567E-04
       382    1.404560E-06
       383   -3.132287E-06
       384    1.011217E-03
       385    2.575232E-03
       386   -3.168252E-03
       387    6.558709E-03
       388    3.059953E-03
       389    2.166492E-02
       390   -3.091256E-01
       391    6.318294E-02
       392    7.108860E-04
       393   -2.720821E-01
       394    6.047163E-02
       395    6.288261E-04
       396   -2.062076E-01
       397    5.166827E-02
       398    4.615186E-04
       399   -1.583557E-02
       400    9.095824E-03
       401    3.550852E-05
       402   -9.758994E-04
       403    2.302377E-04
       404    7.456617E-04
       405   -2.605231E-03
       406    4.430651E-06
       407    6.098241E-06
       408   -3.827602E-03
       409    1.718631E-03
       410    2.108971E-03
       411   -5.964085E-03
       412    1.551466E-05
       413    1.394549E-05
       414   -3.969203E-03
       415    3.362103E-03
       416    6.070993E-04
       417   -6.211361E-03
       418    1.201539E-05
       419    1.011021E-05
       420    2.722477E-04
       421    5.319587E-04
       422   -1.149866E-06
       423   -5.989333E-04
       424   -9.686530E-04
       425    1.203643E-07
       426    2.336747E-04
       427    2.549555E-04
       428    1.422343E-06
       429    3.223897E-06
       430   -3.631550E-04
       431   -8.593286E-04
       432    1.111619E-03
       433    4.812902E-03
       434   -1.669835E-02
       435   -2.339630E-02
       436    2.262478E-04
       437    4.423095E-08
       438    1.914015E-05
       439   -7.573767E-04
       440    1.881087E-07
       441    2.024476E-06
       442    4.905719E-04
       443   -3.229850E-08
       444   -1.976466E-04
       445    3.000398E-05
       446   -2.346857E-05
       447   -6.535408E-06
       448    5.516175E-09
       449    3.323243E-06
       450    1.754580E-08
       451    1.312757E-04
       452   -2.850550E-04
       453    1.537793E-04
       454    6.405952E-09
       455   -9.075817E-06
       456    1.227419E-08
       457    5.780995E-04
       458   -3.808172E-04
       459   -1.972824E-04
       460    6.530835E-07
       461    4.326236E-05
       462   -8.365197E-07
       463    3.081676E-07
       464   -7.879681E-10
       465    2.480680E-06
       466    9.625006E-06
       467    1.057733E-09
       468    6.588348E-08
       469   -1.003846E-05
       470   -5.624989E-13
       471   -3.394064E-06
       472   -7.270608E-09
       473    8.163120E-05
       474    7.417299E-04
       475   -1.132625E-03
       476   -4.250981E-05
       477   -1.890025E-04
       478   -2.892944E-05
       479    1.825662E-03
       480    6.947114E-04
       481   -3.064590E-04
       482    8.154591E-05
       483    7.415503E-04
       484   -1.129621E-03
       485   -4.246580E-05
       486    1.890355E-04
       487   -2.905513E-05
       488    1.826483E-03
       489   -6.921939E-04
       490   -3.084428E-04
 Sym= X
 Ene= 0.899533
 Spin= Alpha
 Occup= 0.899533
         1    2.016073E-05
         2    4.789191E-05
         3   -1.447352E-04
         4    1.035119E-04
         5    3.156817E-02
         6   -2.836623E-04
         7   -2.157073E-04
         8   -6.650376E-05
         9   -9.903381E-02
        10   -3.050277E-04
        11   -1.305069E-05
        12   -9.855103E-02
        13    2.120596E-02
        14   -1.594209E-02
        15   -5.537271E-02
        16   -6.799917E-06
        17    2.300830E-06
        18    4.499087E-06
        19   -2.598114E-06
        20    3.627823E-04
        21   -5.911953E-04
        22    9.707770E-05
        23   -3.082932E-05
        24   -6.624839E-05
        25    1.361253E-05
        26    5.064769E-03
        27    2.476097E-04
        28    6.786086E-03
        29   -7.216212E-03
        30    4.301258E-04
        31    2.277616E-04
        32    5.453345E-03
        33    1.668337E-02
        34    2.992605E-06
        35   -1.351649E-06
        36    1.813726E-04
        37   -3.743902E-06
        38    2.049376E-07
        39    1.357427E-04
        40   -2.710992E-07
        41    1.608490E-06
        42   -3.790795E-04
        43   -3.867936E-05
        44    6.514703E-06
        45    1.132035E-05
        46    8.596227E-05
        47   -1.746844E-03
        48    6.254049E-02
        49    6.270919E-03
        50   -1.422077E-05
        51   -1.876234E-07
        52    1.806340E-03
        53   -2.444841E-04
        54    3.653271E-06
        55   -1.730352E-03
        56    2.114198E-02
        57   -1.400907E-04
        58   -6.391281E-02
        59   -3.281206E-05
        60   -4.287634E-06
        61    3.709970E-05
        62    1.753961E-07