[Molden Format]
[Title]
ADC(2) - opt by CAM-B3LYP gaussian                                              
[Atoms] AU
 c     1    6 -.12588789760523E+01 -.22833296301999E+01 -.24948636837890E-01
 c     2    6 -.25574931053929E+01 0.00000000000000E+00 -.23691968959520E-01
 c     3    6 -.12588770863262E+01 0.22833296301999E+01 -.24954306016290E-01
 c     4    6 0.13320886199507E+01 0.22850077070059E+01 -.26951746538750E-01
 c     5    6 0.26868238359857E+01 0.00000000000000E+00 -.26437741030600E-01
 c     6    6 0.13320867302245E+01 -.22850077070059E+01 -.26946077360350E-01
 h     7    1 -.22977937121289E+01 -.40382313624087E+01 -.22371050392630E-01
 h     8    1 -.22977918224027E+01 0.40382332521348E+01 -.22380499023300E-01
 h     9    1 0.23512179234159E+01 0.40571966538783E+01 -.29234535707270E-01
 h    10    1 0.23512179234159E+01 -.40571947641522E+01 -.29223197350470E-01
 n    11    7 -.52733186864479E+01 0.00000000000000E+00 -.17996334395000E-01
 o    12    8 -.63812046469225E+01 0.20269448165729E+01 -.15568036314240E-01
 o    13    8 -.63812027571964E+01 -.20269467062990E+01 -.15583154123310E-01
 n    14    7 0.52441127328484E+01 0.00000000000000E+00 -.70347417454330E-01
 h    15    1 0.62045074583774E+01 0.16172030580838E+01 0.18832018534119E+00
 h    16    1 0.62045055686513E+01 -.16172049478099E+01 0.18831451616279E+00
[GTO]
    1 0
 s    6 1.00
 0.13575349682000E+05 0.60645503603591E-03
 0.20352333680000E+04 0.46979088884982E-02
 0.46322562359000E+03 0.24332477647552E-01
 0.13120019598000E+03 0.97399968307759E-01
 0.42853015891000E+02 0.30195584253780E+00
 0.15584185766000E+02 0.66233609137875E+00
 s    2 1.00
 0.62067138508000E+01 0.65595308539952E+00
 0.25764896527000E+01 0.37585633285142E+00
 s    1 1.00
 0.57696339419000E+00 0.10000000000000E+01
 s    1 1.00
 0.22972831358000E+00 0.10000000000000E+01
 s    1 1.00
 0.95164440028000E-01 0.10000000000000E+01
 s    1 1.00
 0.48475401370000E-01 0.10000000000000E+01
 p    4 1.00
 0.34697232244000E+02 0.11327220003114E-01
 0.79582622826000E+01 0.76169659202087E-01
 0.23780826883000E+01 0.30192252202676E+00
 0.81433208183000E+00 0.72785027349547E+00
 p    1 1.00
 0.28887547253000E+00 0.10000000000000E+01
 p    1 1.00
 0.10056823671000E+00 0.10000000000000E+01
 d    1 1.00
 0.10970000000000E+01 0.10000000000000E+01
 d    1 1.00
 0.31800000000000E+00 0.10000000000000E+01
 d    1 1.00
 0.90985336424000E-01 0.10000000000000E+01
 f    1 1.00
 0.76100000000000E+00 0.10000000000000E+01
 
    2 0
 s    6 1.00
 0.13575349682000E+05 0.60645503603591E-03
 0.20352333680000E+04 0.46979088884982E-02
 0.46322562359000E+03 0.24332477647552E-01
 0.13120019598000E+03 0.97399968307759E-01
 0.42853015891000E+02 0.30195584253780E+00
 0.15584185766000E+02 0.66233609137875E+00
 s    2 1.00
 0.62067138508000E+01 0.65595308539952E+00
 0.25764896527000E+01 0.37585633285142E+00
 s    1 1.00
 0.57696339419000E+00 0.10000000000000E+01
 s    1 1.00
 0.22972831358000E+00 0.10000000000000E+01
 s    1 1.00
 0.95164440028000E-01 0.10000000000000E+01
 s    1 1.00
 0.48475401370000E-01 0.10000000000000E+01
 p    4 1.00
 0.34697232244000E+02 0.11327220003114E-01
 0.79582622826000E+01 0.76169659202087E-01
 0.23780826883000E+01 0.30192252202676E+00
 0.81433208183000E+00 0.72785027349547E+00
 p    1 1.00
 0.28887547253000E+00 0.10000000000000E+01
 p    1 1.00
 0.10056823671000E+00 0.10000000000000E+01
 d    1 1.00
 0.10970000000000E+01 0.10000000000000E+01
 d    1 1.00
 0.31800000000000E+00 0.10000000000000E+01
 d    1 1.00
 0.90985336424000E-01 0.10000000000000E+01
 f    1 1.00
 0.76100000000000E+00 0.10000000000000E+01
 
    3 0
 s    6 1.00
 0.13575349682000E+05 0.60645503603591E-03
 0.20352333680000E+04 0.46979088884982E-02
 0.46322562359000E+03 0.24332477647552E-01
 0.13120019598000E+03 0.97399968307759E-01
 0.42853015891000E+02 0.30195584253780E+00
 0.15584185766000E+02 0.66233609137875E+00
 s    2 1.00
 0.62067138508000E+01 0.65595308539952E+00
 0.25764896527000E+01 0.37585633285142E+00
 s    1 1.00
 0.57696339419000E+00 0.10000000000000E+01
 s    1 1.00
 0.22972831358000E+00 0.10000000000000E+01
 s    1 1.00
 0.95164440028000E-01 0.10000000000000E+01
 s    1 1.00
 0.48475401370000E-01 0.10000000000000E+01
 p    4 1.00
 0.34697232244000E+02 0.11327220003114E-01
 0.79582622826000E+01 0.76169659202087E-01
 0.23780826883000E+01 0.30192252202676E+00
 0.81433208183000E+00 0.72785027349547E+00
 p    1 1.00
 0.28887547253000E+00 0.10000000000000E+01
 p    1 1.00
 0.10056823671000E+00 0.10000000000000E+01
 d    1 1.00
 0.10970000000000E+01 0.10000000000000E+01
 d    1 1.00
 0.31800000000000E+00 0.10000000000000E+01
 d    1 1.00
 0.90985336424000E-01 0.10000000000000E+01
 f    1 1.00
 0.76100000000000E+00 0.10000000000000E+01
 
    4 0
 s    6 1.00
 0.13575349682000E+05 0.60645503603591E-03
 0.20352333680000E+04 0.46979088884982E-02
 0.46322562359000E+03 0.24332477647552E-01
 0.13120019598000E+03 0.97399968307759E-01
 0.42853015891000E+02 0.30195584253780E+00
 0.15584185766000E+02 0.66233609137875E+00
 s    2 1.00
 0.62067138508000E+01 0.65595308539952E+00
 0.25764896527000E+01 0.37585633285142E+00
 s    1 1.00
 0.57696339419000E+00 0.10000000000000E+01
 s    1 1.00
 0.22972831358000E+00 0.10000000000000E+01
 s    1 1.00
 0.95164440028000E-01 0.10000000000000E+01
 s    1 1.00
 0.48475401370000E-01 0.10000000000000E+01
 p    4 1.00
 0.34697232244000E+02 0.11327220003114E-01
 0.79582622826000E+01 0.76169659202087E-01
 0.23780826883000E+01 0.30192252202676E+00
 0.81433208183000E+00 0.72785027349547E+00
 p    1 1.00
 0.28887547253000E+00 0.10000000000000E+01
 p    1 1.00
 0.10056823671000E+00 0.10000000000000E+01
 d    1 1.00
 0.10970000000000E+01 0.10000000000000E+01
 d    1 1.00
 0.31800000000000E+00 0.10000000000000E+01
 d    1 1.00
 0.90985336424000E-01 0.10000000000000E+01
 f    1 1.00
 0.76100000000000E+00 0.10000000000000E+01
 
    5 0
 s    6 1.00
 0.13575349682000E+05 0.60645503603591E-03
 0.20352333680000E+04 0.46979088884982E-02
 0.46322562359000E+03 0.24332477647552E-01
 0.13120019598000E+03 0.97399968307759E-01
 0.42853015891000E+02 0.30195584253780E+00
 0.15584185766000E+02 0.66233609137875E+00
 s    2 1.00
 0.62067138508000E+01 0.65595308539952E+00
 0.25764896527000E+01 0.37585633285142E+00
 s    1 1.00
 0.57696339419000E+00 0.10000000000000E+01
 s    1 1.00
 0.22972831358000E+00 0.10000000000000E+01
 s    1 1.00
 0.95164440028000E-01 0.10000000000000E+01
 s    1 1.00
 0.48475401370000E-01 0.10000000000000E+01
 p    4 1.00
 0.34697232244000E+02 0.11327220003114E-01
 0.79582622826000E+01 0.76169659202087E-01
 0.23780826883000E+01 0.30192252202676E+00
 0.81433208183000E+00 0.72785027349547E+00
 p    1 1.00
 0.28887547253000E+00 0.10000000000000E+01
 p    1 1.00
 0.10056823671000E+00 0.10000000000000E+01
 d    1 1.00
 0.10970000000000E+01 0.10000000000000E+01
 d    1 1.00
 0.31800000000000E+00 0.10000000000000E+01
 d    1 1.00
 0.90985336424000E-01 0.10000000000000E+01
 f    1 1.00
 0.76100000000000E+00 0.10000000000000E+01
 
    6 0
 s    6 1.00
 0.13575349682000E+05 0.60645503603591E-03
 0.20352333680000E+04 0.46979088884982E-02
 0.46322562359000E+03 0.24332477647552E-01
 0.13120019598000E+03 0.97399968307759E-01
 0.42853015891000E+02 0.30195584253780E+00
 0.15584185766000E+02 0.66233609137875E+00
 s    2 1.00
 0.62067138508000E+01 0.65595308539952E+00
 0.25764896527000E+01 0.37585633285142E+00
 s    1 1.00
 0.57696339419000E+00 0.10000000000000E+01
 s    1 1.00
 0.22972831358000E+00 0.10000000000000E+01
 s    1 1.00
 0.95164440028000E-01 0.10000000000000E+01
 s    1 1.00
 0.48475401370000E-01 0.10000000000000E+01
 p    4 1.00
 0.34697232244000E+02 0.11327220003114E-01
 0.79582622826000E+01 0.76169659202087E-01
 0.23780826883000E+01 0.30192252202676E+00
 0.81433208183000E+00 0.72785027349547E+00
 p    1 1.00
 0.28887547253000E+00 0.10000000000000E+01
 p    1 1.00
 0.10056823671000E+00 0.10000000000000E+01
 d    1 1.00
 0.10970000000000E+01 0.10000000000000E+01
 d    1 1.00
 0.31800000000000E+00 0.10000000000000E+01
 d    1 1.00
 0.90985336424000E-01 0.10000000000000E+01
 f    1 1.00
 0.76100000000000E+00 0.10000000000000E+01
 
    7 0
 s    3 1.00
 0.34061341000000E+02 0.25439307208879E-01
 0.51235746000000E+01 0.19008594890375E+00
 0.11646626000000E+01 0.85244113011042E+00
 s    1 1.00
 0.32723041000000E+00 0.10000000000000E+01
 s    1 1.00
 0.10307241000000E+00 0.10000000000000E+01
 p    1 1.00
 0.80000000000000E+00 0.10000000000000E+01
 p    1 1.00
 0.95774129632000E-01 0.10000000000000E+01
 
    8 0
 s    3 1.00
 0.34061341000000E+02 0.25439307208879E-01
 0.51235746000000E+01 0.19008594890375E+00
 0.11646626000000E+01 0.85244113011042E+00
 s    1 1.00
 0.32723041000000E+00 0.10000000000000E+01
 s    1 1.00
 0.10307241000000E+00 0.10000000000000E+01
 p    1 1.00
 0.80000000000000E+00 0.10000000000000E+01
 p    1 1.00
 0.95774129632000E-01 0.10000000000000E+01
 
    9 0
 s    3 1.00
 0.34061341000000E+02 0.25439307208879E-01
 0.51235746000000E+01 0.19008594890375E+00
 0.11646626000000E+01 0.85244113011042E+00
 s    1 1.00
 0.32723041000000E+00 0.10000000000000E+01
 s    1 1.00
 0.10307241000000E+00 0.10000000000000E+01
 p    1 1.00
 0.80000000000000E+00 0.10000000000000E+01
 p    1 1.00
 0.95774129632000E-01 0.10000000000000E+01
 
   10 0
 s    3 1.00
 0.34061341000000E+02 0.25439307208879E-01
 0.51235746000000E+01 0.19008594890375E+00
 0.11646626000000E+01 0.85244113011042E+00
 s    1 1.00
 0.32723041000000E+00 0.10000000000000E+01
 s    1 1.00
 0.10307241000000E+00 0.10000000000000E+01
 p    1 1.00
 0.80000000000000E+00 0.10000000000000E+01
 p    1 1.00
 0.95774129632000E-01 0.10000000000000E+01
 
   11 0
 s    6 1.00
 0.19730800647000E+05 0.58626402628763E-03
 0.29578958745000E+04 0.45428820586397E-02
 0.67322133595000E+03 0.23558413450084E-01
 0.19068249494000E+03 0.94709193292923E-01
 0.62295441898000E+02 0.29719784913376E+00
 0.22654161182000E+02 0.66916246895232E+00
 s    2 1.00
 0.89791477428000E+01 0.64596683630063E+00
 0.36863002370000E+01 0.38700574393705E+00
 s    1 1.00
 0.84660076805000E+00 0.10000000000000E+01
 s    1 1.00
 0.33647133771000E+00 0.10000000000000E+01
 s    1 1.00
 0.13647653675000E+00 0.10000000000000E+01
 s    1 1.00
 0.68441605847000E-01 0.10000000000000E+01
 p    4 1.00
 0.49200380510000E+02 0.11448825101764E-01
 0.11346790537000E+02 0.78422337970864E-01
 0.34273972411000E+01 0.30818094738830E+00
 0.11785525134000E+01 0.72027196368413E+00
 p    1 1.00
 0.41642204972000E+00 0.10000000000000E+01
 p    1 1.00
 0.14260826011000E+00 0.10000000000000E+01
 d    1 1.00
 0.16540000000000E+01 0.10000000000000E+01
 d    1 1.00
 0.46900000000000E+00 0.10000000000000E+01
 d    1 1.00
 0.12829642058000E+00 0.10000000000000E+01
 f    1 1.00
 0.10930000000000E+01 0.10000000000000E+01
 
   12 0
 s    6 1.00
 0.27032382631000E+05 0.57227335211155E-03
 0.40523871392000E+04 0.44353233492995E-02
 0.92232722710000E+03 0.23020107706038E-01
 0.26124070989000E+03 0.92822490667928E-01
 0.85354641351000E+02 0.29378500009671E+00
 0.31035035245000E+02 0.67401604501641E+00
 s    2 1.00
 0.12260860728000E+02 0.63839937025506E+00
 0.49987076005000E+01 0.39534587125718E+00
 s    1 1.00
 0.11703108158000E+01 0.10000000000000E+01
 s    1 1.00
 0.46474740994000E+00 0.10000000000000E+01
 s    1 1.00
 0.18504536357000E+00 0.10000000000000E+01
 s    1 1.00
 0.70288026270000E-01 0.10000000000000E+01
 p    4 1.00
 0.63274954801000E+02 0.12018332222616E-01
 0.14627049379000E+02 0.83005421790056E-01
 0.44501223456000E+01 0.31991743925964E+00
 0.15275799647000E+01 0.70715542916104E+00
 p    1 1.00
 0.52935117943000E+00 0.10000000000000E+01
 p    1 1.00
 0.17478421270000E+00 0.10000000000000E+01
 p    1 1.00
 0.51112745706000E-01 0.10000000000000E+01
 d    1 1.00
 0.23140000000000E+01 0.10000000000000E+01
 d    1 1.00
 0.64500000000000E+00 0.10000000000000E+01
 d    1 1.00
 0.14696477366000E+00 0.10000000000000E+01
 f    1 1.00
 0.14280000000000E+01 0.10000000000000E+01
 
   13 0
 s    6 1.00
 0.27032382631000E+05 0.57227335211155E-03
 0.40523871392000E+04 0.44353233492995E-02
 0.92232722710000E+03 0.23020107706038E-01
 0.26124070989000E+03 0.92822490667928E-01
 0.85354641351000E+02 0.29378500009671E+00
 0.31035035245000E+02 0.67401604501641E+00
 s    2 1.00
 0.12260860728000E+02 0.63839937025506E+00
 0.49987076005000E+01 0.39534587125718E+00
 s    1 1.00
 0.11703108158000E+01 0.10000000000000E+01
 s    1 1.00
 0.46474740994000E+00 0.10000000000000E+01
 s    1 1.00
 0.18504536357000E+00 0.10000000000000E+01
 s    1 1.00
 0.70288026270000E-01 0.10000000000000E+01
 p    4 1.00
 0.63274954801000E+02 0.12018332222616E-01
 0.14627049379000E+02 0.83005421790056E-01
 0.44501223456000E+01 0.31991743925964E+00
 0.15275799647000E+01 0.70715542916104E+00
 p    1 1.00
 0.52935117943000E+00 0.10000000000000E+01
 p    1 1.00
 0.17478421270000E+00 0.10000000000000E+01
 p    1 1.00
 0.51112745706000E-01 0.10000000000000E+01
 d    1 1.00
 0.23140000000000E+01 0.10000000000000E+01
 d    1 1.00
 0.64500000000000E+00 0.10000000000000E+01
 d    1 1.00
 0.14696477366000E+00 0.10000000000000E+01
 f    1 1.00
 0.14280000000000E+01 0.10000000000000E+01
 
   14 0
 s    6 1.00
 0.19730800647000E+05 0.58626402628763E-03
 0.29578958745000E+04 0.45428820586397E-02
 0.67322133595000E+03 0.23558413450084E-01
 0.19068249494000E+03 0.94709193292923E-01
 0.62295441898000E+02 0.29719784913376E+00
 0.22654161182000E+02 0.66916246895232E+00
 s    2 1.00
 0.89791477428000E+01 0.64596683630063E+00
 0.36863002370000E+01 0.38700574393705E+00
 s    1 1.00
 0.84660076805000E+00 0.10000000000000E+01
 s    1 1.00
 0.33647133771000E+00 0.10000000000000E+01
 s    1 1.00
 0.13647653675000E+00 0.10000000000000E+01
 s    1 1.00
 0.68441605847000E-01 0.10000000000000E+01
 p    4 1.00
 0.49200380510000E+02 0.11448825101764E-01
 0.11346790537000E+02 0.78422337970864E-01
 0.34273972411000E+01 0.30818094738830E+00
 0.11785525134000E+01 0.72027196368413E+00
 p    1 1.00
 0.41642204972000E+00 0.10000000000000E+01
 p    1 1.00
 0.14260826011000E+00 0.10000000000000E+01
 d    1 1.00
 0.16540000000000E+01 0.10000000000000E+01
 d    1 1.00
 0.46900000000000E+00 0.10000000000000E+01
 d    1 1.00
 0.12829642058000E+00 0.10000000000000E+01
 f    1 1.00
 0.10930000000000E+01 0.10000000000000E+01
 
   15 0
 s    3 1.00
 0.34061341000000E+02 0.25439307208879E-01
 0.51235746000000E+01 0.19008594890375E+00
 0.11646626000000E+01 0.85244113011042E+00
 s    1 1.00
 0.32723041000000E+00 0.10000000000000E+01
 s    1 1.00
 0.10307241000000E+00 0.10000000000000E+01
 p    1 1.00
 0.80000000000000E+00 0.10000000000000E+01
 p    1 1.00
 0.95774129632000E-01 0.10000000000000E+01
 
   16 0
 s    3 1.00
 0.34061341000000E+02 0.25439307208879E-01
 0.51235746000000E+01 0.19008594890375E+00
 0.11646626000000E+01 0.85244113011042E+00
 s    1 1.00
 0.32723041000000E+00 0.10000000000000E+01
 s    1 1.00
 0.10307241000000E+00 0.10000000000000E+01
 p    1 1.00
 0.80000000000000E+00 0.10000000000000E+01
 p    1 1.00
 0.95774129632000E-01 0.10000000000000E+01
 
[MO]
 Sym= X
 Ene= -0.891201
 Spin= Alpha
 Occup= -0.891201
         1   -1.755663E-04
         2   -4.091008E-04
         3    1.146410E-03
         4   -2.444146E-03
         5   -8.830725E-03
         6   -1.106657E-02
         7    1.628868E-03
         8    2.759509E-04
         9    2.376259E-02
        10   -2.360893E-03
        11    4.827582E-04
        12    2.183911E-02
        13   -3.512287E-02
        14    9.795143E-03
        15    2.399862E-03
        16    1.722052E-06
        17   -1.276585E-05
        18    1.104380E-05
        19   -1.744874E-05
        20   -6.155407E-03
        21    3.757937E-03
        22   -6.431234E-04
        23    3.926448E-04
        24    2.504786E-04
        25   -7.222396E-04
        26   -1.390820E-02
        27    7.095873E-03
        28   -4.964310E-03
        29    4.631024E-03
        30    3.332864E-04
        31    1.209326E-03
        32    1.786865E-03
        33   -1.119215E-02
        34   -1.872465E-05
        35    7.779334E-06
        36   -1.062659E-04
        37    7.158519E-06
        38   -7.961342E-06
        39   -6.831772E-04
        40    1.796324E-05
        41   -2.475730E-06
        42    8.257478E-04
        43   -6.765187E-04
        44    1.888617E-05
        45    4.030208E-05
        46    1.776667E-04
        47   -2.826320E-03
        48   -4.963927E-02
        49    5.585764E-03
        50    5.087693E-04
        51    1.763835E-06
        52    1.987531E-01
        53   -3.639994E-04
        54    1.982875E-05
        55    2.061827E-01
        56   -1.658029E-02
        57   -1.268459E-03
        58    2.020124E-01
        59    3.349524E-05
        60   -3.097632E-05
        61   -2.518920E-06
        62    1.361550E-07
        63   -7.611865E-04
        64    7.754339E-07
        65    3.786693E-04
        66   -6.294143E-04
        67    2.507450E-04
        68    4.329655E-06
        69   -3.469435E-03
        70    1.172285E-06
        71    9.332066E-03
        72   -1.042233E-02
        73    1.090260E-03
        74   -2.112191E-04
        75    4.889014E-03
        76   -1.576846E-05
        77    8.343668E-06
        78    4.611540E-08
        79   -1.113187E-03
        80   -7.535077E-06
        81    3.312932E-08
        82    6.741900E-04
        83   -3.659128E-06
        84   -9.499962E-08
        85    8.193072E-04
        86    8.554733E-08
        87   -1.759767E-04
        88   -4.101423E-04
        89    1.156345E-03
        90   -2.522698E-03
        91   -6.608520E-03
        92   -1.099764E-02
        93    1.628988E-03
        94   -2.775637E-04
        95    2.379782E-02
        96   -2.353034E-03
        97   -4.697487E-04
        98    2.187265E-02
        99   -3.591991E-02
       100   -1.115577E-02
       101    2.498823E-03
       102    1.491635E-06
       103   -1.270506E-05
       104    1.121343E-05
       105    1.774827E-05
       106   -6.155225E-03
       107   -3.758123E-03
       108   -6.406522E-04
       109    3.885699E-04
       110    2.520823E-04
       111    7.187987E-04
       112   -1.390538E-02
       113   -7.095408E-03
       114   -5.194680E-03
       115    4.886495E-03
       116    3.081850E-04
       117   -1.042949E-03
       118    1.789651E-03
       119    1.116279E-02
       120   -1.890341E-05
       121   -7.764182E-06
       122   -1.064454E-04
       123    7.451365E-06
       124    7.969590E-06
       125   -6.829834E-04
       126    1.791021E-05
       127    2.447153E-06
       128    8.257949E-04
       129    6.764551E-04
       130    1.290388E-04
       131    2.795840E-04
       132    5.639255E-04
       133   -1.057869E-02
       134    2.780414E-02
       135    1.230783E-02
       136   -1.268458E-03
       137    7.537085E-04
       138   -1.482523E-01
       139   -9.017242E-03
       140    6.253324E-03
       141   -1.512781E-01
       142   -2.469789E-02
       143   -7.015088E-03
       144   -9.052982E-02
       145    1.487354E-04
       146   -1.809710E-04
       147    3.223564E-05
       148   -2.751972E-06
       149   -7.095301E-04
       150    2.755471E-03
       151    5.968300E-04
       152   -7.482097E-04
       153    1.513798E-04
       154    1.698188E-03
       155   -3.826771E-03
       156    4.622047E-03
       157    8.218384E-03
       158   -6.480861E-03
       159   -1.737522E-03
       160   -8.518798E-03
       161    3.743007E-03
       162   -1.326700E-02
       163   -1.379227E-05
       164    1.094508E-05
       165    8.116944E-04
       166   -2.013679E-05
       167    1.554138E-05
       168   -1.925116E-04
       169    3.864106E-05
       170   -3.022574E-05
       171   -8.964908E-04
       172    3.060979E-04
       173   -1.167044E-03
       174   -2.657797E-03
       175    2.784070E-03
       176    2.172300E-02
       177   -1.551085E-02
       178    9.384630E-03
       179    9.378978E-03
       180    1.226359E-06
       181   -9.961092E-02
       182    7.150538E-04
       183   -1.129806E-05
       184   -1.027422E-01
       185   -2.551167E-02
       186    1.351935E-03
       187   -1.331539E-01
       188    4.846326E-04
       189   -2.709945E-04
       190   -2.136380E-04
       191    1.353782E-07
       192    1.016142E-02
       193    5.219035E-07
       194   -1.853982E-03
       195    4.085855E-03
       196   -2.231873E-03
       197    3.052625E-06
       198    2.484824E-02
       199   -1.441578E-06
       200   -5.914570E-03
       201    7.183258E-03
       202   -1.268688E-03
       203   -2.306602E-04
       204    1.916028E-02
       205   -4.221771E-06
       206    1.193510E-04
       207    1.270486E-08
       208    1.989959E-04
       209   -8.362472E-05
       210   -7.774344E-08
       211    1.165436E-03
       212   -7.650152E-05
       213    6.069808E-08
       214   -1.432417E-03
       215    4.717921E-08
       216    1.295737E-04
       217    2.805674E-04
       218    5.697334E-04
       219   -1.066150E-02
       220    3.023245E-02
       221    1.235201E-02
       222   -1.270424E-03
       223   -7.478260E-04
       224   -1.482727E-01
       225   -9.018024E-03
       226   -6.266117E-03
       227   -1.513055E-01
       228   -2.375678E-02
       229    8.600155E-03
       230   -9.047470E-02
       231    1.485318E-04
       232   -1.815130E-04
       233    3.298119E-05
       234    2.796012E-06
       235   -7.087796E-04
       236   -2.755598E-03
       237    5.970233E-04
       238   -7.493583E-04
       239    1.523350E-04
       240   -1.700563E-03
       241   -3.823937E-03
       242   -4.621928E-03
       243    7.984677E-03
       244   -6.232959E-03
       245   -1.751718E-03
       246    8.723890E-03
       247    3.740180E-03
       248    1.330620E-02
       249   -1.370268E-05
       250   -1.099063E-05
       251    8.120592E-04
       252   -2.034751E-05
       253   -1.549408E-05
       254   -1.928862E-04
       255    3.873158E-05
       256    3.023955E-05
       257   -8.966055E-04
       258   -3.060693E-04
       259   -3.909437E-04
       260   -2.703458E-04
       261   -1.747533E-02
       262   -1.740179E-05
       263   -3.914368E-06
       264    9.068972E-04
       265   -5.196919E-03
       266   -3.535773E-04
       267   -7.124557E-03
       268   -3.920529E-04
       269   -2.638376E-04
       270   -1.728132E-02
       271   -1.634152E-05
       272    3.194830E-06
       273    9.086437E-04
       274   -5.313206E-03
       275    2.503847E-04
       276   -7.100710E-03
       277   -4.067746E-04
       278   -2.320097E-03
       279    3.372082E-02
       280   -1.037616E-05
       281    9.573390E-05
       282   -6.026493E-03
       283   -1.851140E-03
       284   -2.650346E-03
       285    2.552493E-03
       286   -4.107284E-04
       287   -2.325005E-03
       288    3.411617E-02
       289   -9.940744E-06
       290   -9.592301E-05
       291   -6.027698E-03
       292   -1.763235E-03
       293    2.778862E-03
       294    2.579865E-03
       295   -3.253593E-05
       296   -7.432261E-05
       297    4.090579E-05
       298    3.452426E-04
       299   -7.290890E-03
       300    6.203742E-04
       301    3.441754E-04
       302    1.348947E-07
       303    1.871531E-02
       304    4.570481E-05
       305    8.027044E-07
       306    2.122934E-02
       307   -3.139637E-03
       308    3.760866E-05
       309    8.892261E-03
       310    1.210810E-05
       311    3.080242E-06
       312   -1.518834E-05
       313   -1.103293E-07
       314    4.407297E-03
       315    2.888868E-08
       316   -2.280381E-05
       317    8.713938E-05
       318   -6.433557E-05
       319   -9.125524E-07
       320    1.323704E-02
       321   -8.390545E-08
       322   -9.675431E-04
       323    2.799538E-03
       324   -1.831994E-03
       325    3.792544E-05
       326    2.956293E-03
       327    3.189712E-06
       328    6.648859E-06
       329   -2.142616E-08
       330    2.061133E-05
       331   -4.948467E-06
       332    5.581025E-08
       333    6.859214E-04
       334   -3.971914E-06
       335   -2.706405E-08
       336   -7.135744E-04
       337    1.596383E-08
       338   -2.393224E-05
       339   -5.492216E-05
       340    3.666280E-05
       341    5.574783E-04
       342   -5.759536E-03
       343   -8.913020E-04
       344   -2.090687E-05
       345    1.693250E-04
       346   -7.968033E-02
       347   -1.280647E-04
       348    2.939948E-04
       349   -7.387783E-02
       350   -1.297073E-03
       351    5.212272E-04
       352   -5.999210E-02
       353   -1.589443E-04
       354    2.056763E-04
       355   -7.429779E-03
       356    4.062415E-06
       357   -4.540708E-06
       358    4.782927E-07
       359   -8.292429E-07
       360   -2.280862E-07
       361    4.892861E-04
       362   -1.008181E-05
       363   -1.169789E-05
       364    2.177969E-05
       365    8.434588E-06
       366   -5.464504E-04
       367    1.622008E-03
       368   -7.835662E-05
       369    5.257698E-05
       370    2.577964E-05
       371    7.612321E-05
       372   -1.400024E-04
       373    2.710840E-04
       374    6.257175E-07
       375    1.887564E-06
       376    6.845451E-05
       377   -1.098551E-06
       378   -8.803044E-07
       379    8.327732E-05
       380    2.590631E-07
       381   -1.652128E-06
       382   -1.751187E-04
       383    1.398696E-04
       384   -2.372266E-05
       385   -5.445158E-05
       386    3.654119E-05
       387    5.520255E-04
       388   -5.761489E-03
       389   -8.535220E-04
       390   -1.017706E-05
       391   -1.758189E-04
       392   -7.967931E-02
       393   -1.184805E-04
       394   -2.990213E-04
       395   -7.387709E-02
       396   -1.251384E-03
       397   -5.251362E-04
       398   -5.998726E-02
       399   -1.415863E-04
       400   -2.098624E-04
       401   -7.434644E-03
       402    4.095646E-06
       403   -4.612629E-06
       404    5.169838E-07
       405    7.854921E-07
       406   -2.678444E-07
       407   -4.892777E-04
       408   -9.510025E-06
       409   -1.186866E-05
       410    2.137869E-05
       411   -7.907206E-06
       412   -5.463681E-04
       413   -1.621991E-03
       414   -7.755774E-05
       415    5.322403E-05
       416    2.433370E-05
       417   -7.487656E-05
       418   -1.411420E-04
       419   -2.704733E-04
       420    6.331428E-07
       421   -1.905386E-06
       422    6.845985E-05
       423   -1.093106E-06
       424    9.088389E-07
       425    8.327042E-05
       426    2.436558E-07
       427    1.647504E-06
       428   -1.751189E-04
       429   -1.398734E-04
       430    5.031392E-03
       431    1.193033E-02
       432   -1.850085E-02
       433   -2.863985E-02
       434   -2.209825E-02
       435   -6.725033E-02
       436   -1.766018E-02
       437    1.089686E-05
       438    2.676770E-01
       439   -2.007939E-02
       440    6.889776E-07
       441    2.641986E-01
       442   -1.869889E-02
       443   -1.186905E-04
       444    2.143485E-01
       445   -9.975230E-05
       446   -2.525183E-05
       447    1.250041E-04
       448    2.523985E-07
       449    5.789641E-04
       450    2.924207E-07
       451   -2.201006E-04
       452   -1.575085E-03
       453    1.795186E-03
       454   -4.373637E-06
       455    3.183955E-03
       456    9.930244E-07
       457   -1.640649E-03
       458   -3.132312E-03
       459    4.772961E-03
       460   -1.138230E-05
       461    1.999274E-03
       462    9.985348E-06
       463   -1.354902E-04
       464    3.015457E-08
       465   -1.092783E-03
       466   -9.189807E-05
       467   -1.951952E-08
       468    6.222327E-04
       469    2.736772E-04
       470   -2.093707E-08
       471    8.438898E-04
       472    2.524206E-08
       473    9.130916E-03
       474    1.756335E-02
       475    2.963065E-02
       476   -2.280067E-03
       477   -1.875536E-03
       478    1.350217E-02
       479    1.184876E-03
       480   -3.477548E-03
       481    1.508104E-02
       482    9.123679E-03
       483    1.748190E-02
       484    2.932877E-02
       485   -2.276031E-03
       486    1.867544E-03
       487    1.350615E-02
       488    1.212509E-03
       489    3.425529E-03
       490    1.509623E-02
 Sym= X
 Ene= 0.891201
 Spin= Alpha
 Occup= 0.891201
         1   -1.331226E-02
         2   -2.954130E-02
         3    8.863121E-03
         4    5.059069E-01
         5    5.416467E+00
         6   -3.883829E+00
         7   -6.570614E-03
         8   -2.076583E-02
         9   -2.639546E-03
        10    6.431129E-02
        11    2.763499E-03
        12   -4.578707E-03
        13   -2.271962E-01
        14    2.149638E-01
        15   -3.188600E-02
        16    1.685758E-03
        17   -1.752042E-05
        18   -1.668238E-03
        19   -5.426755E-04
        20   -5.214519E-05
        21    1.311106E-04
        22    3.131947E-02
        23   -1.177731E-02
        24   -1.954216E-02
        25   -7.403120E-03
        26   -9.586007E-04
        27    4.310420E-04
        28    6.114283E-02
        29   -2.651345E-01
        30    2.039917E-01
        31    1.001178E+00
        32    1.164774E-02
        33   -2.459350E-02
        34    9.002511E-04
        35   -3.720992E-05
        36   -1.976406E-05
        37   -9.232663E-04
        38    1.230658E-04
        39   -1.446923E-05
        40   -2.845473E-04
        41   -7.314343E-05
        42    4.098549E-05
        43   -2.001720E-05
        44   -4.482536E-03
        45   -9.107323E-03
        46   -5.416709E-03
        47    3.250352E-01
        48    4.751523E+00
        49    2.239740E-01
        50   -1.944296E-02
        51   -4.646619E-06
        52    5.148553E-03
        53   -7.600287E-02
        54   -3.822981E-05
        55    2.611272E-03
        56   -1.700293E+00
        57    4.021635E-03
        58    1.072011E-01
        59    6.718132E-04
        60    2.645812E-03
        61   -3.317625E-03
        62    3.224487E-07