[Molden Format]
[Title]
ADC(2) - opt by CAM-B3LYP gaussian                                              
[Atoms] AU
 c     1    6 -.12588789760523E+01 -.22833296301999E+01 -.24948636837890E-01
 c     2    6 -.25574931053929E+01 0.00000000000000E+00 -.23691968959520E-01
 c     3    6 -.12588770863262E+01 0.22833296301999E+01 -.24954306016290E-01
 c     4    6 0.13320886199507E+01 0.22850077070059E+01 -.26951746538750E-01
 c     5    6 0.26868238359857E+01 0.00000000000000E+00 -.26437741030600E-01
 c     6    6 0.13320867302245E+01 -.22850077070059E+01 -.26946077360350E-01
 h     7    1 -.22977937121289E+01 -.40382313624087E+01 -.22371050392630E-01
 h     8    1 -.22977918224027E+01 0.40382332521348E+01 -.22380499023300E-01
 h     9    1 0.23512179234159E+01 0.40571966538783E+01 -.29234535707270E-01
 h    10    1 0.23512179234159E+01 -.40571947641522E+01 -.29223197350470E-01
 n    11    7 -.52733186864479E+01 0.00000000000000E+00 -.17996334395000E-01
 o    12    8 -.63812046469225E+01 0.20269448165729E+01 -.15568036314240E-01
 o    13    8 -.63812027571964E+01 -.20269467062990E+01 -.15583154123310E-01
 n    14    7 0.52441127328484E+01 0.00000000000000E+00 -.70347417454330E-01
 h    15    1 0.62045074583774E+01 0.16172030580838E+01 0.18832018534119E+00
 h    16    1 0.62045055686513E+01 -.16172049478099E+01 0.18831451616279E+00
[GTO]
    1 0
 s    6 1.00
 0.13575349682000E+05 0.60645503603591E-03
 0.20352333680000E+04 0.46979088884982E-02
 0.46322562359000E+03 0.24332477647552E-01
 0.13120019598000E+03 0.97399968307759E-01
 0.42853015891000E+02 0.30195584253780E+00
 0.15584185766000E+02 0.66233609137875E+00
 s    2 1.00
 0.62067138508000E+01 0.65595308539952E+00
 0.25764896527000E+01 0.37585633285142E+00
 s    1 1.00
 0.57696339419000E+00 0.10000000000000E+01
 s    1 1.00
 0.22972831358000E+00 0.10000000000000E+01
 s    1 1.00
 0.95164440028000E-01 0.10000000000000E+01
 s    1 1.00
 0.48475401370000E-01 0.10000000000000E+01
 p    4 1.00
 0.34697232244000E+02 0.11327220003114E-01
 0.79582622826000E+01 0.76169659202087E-01
 0.23780826883000E+01 0.30192252202676E+00
 0.81433208183000E+00 0.72785027349547E+00
 p    1 1.00
 0.28887547253000E+00 0.10000000000000E+01
 p    1 1.00
 0.10056823671000E+00 0.10000000000000E+01
 d    1 1.00
 0.10970000000000E+01 0.10000000000000E+01
 d    1 1.00
 0.31800000000000E+00 0.10000000000000E+01
 d    1 1.00
 0.90985336424000E-01 0.10000000000000E+01
 f    1 1.00
 0.76100000000000E+00 0.10000000000000E+01
 
    2 0
 s    6 1.00
 0.13575349682000E+05 0.60645503603591E-03
 0.20352333680000E+04 0.46979088884982E-02
 0.46322562359000E+03 0.24332477647552E-01
 0.13120019598000E+03 0.97399968307759E-01
 0.42853015891000E+02 0.30195584253780E+00
 0.15584185766000E+02 0.66233609137875E+00
 s    2 1.00
 0.62067138508000E+01 0.65595308539952E+00
 0.25764896527000E+01 0.37585633285142E+00
 s    1 1.00
 0.57696339419000E+00 0.10000000000000E+01
 s    1 1.00
 0.22972831358000E+00 0.10000000000000E+01
 s    1 1.00
 0.95164440028000E-01 0.10000000000000E+01
 s    1 1.00
 0.48475401370000E-01 0.10000000000000E+01
 p    4 1.00
 0.34697232244000E+02 0.11327220003114E-01
 0.79582622826000E+01 0.76169659202087E-01
 0.23780826883000E+01 0.30192252202676E+00
 0.81433208183000E+00 0.72785027349547E+00
 p    1 1.00
 0.28887547253000E+00 0.10000000000000E+01
 p    1 1.00
 0.10056823671000E+00 0.10000000000000E+01
 d    1 1.00
 0.10970000000000E+01 0.10000000000000E+01
 d    1 1.00
 0.31800000000000E+00 0.10000000000000E+01
 d    1 1.00
 0.90985336424000E-01 0.10000000000000E+01
 f    1 1.00
 0.76100000000000E+00 0.10000000000000E+01
 
    3 0
 s    6 1.00
 0.13575349682000E+05 0.60645503603591E-03
 0.20352333680000E+04 0.46979088884982E-02
 0.46322562359000E+03 0.24332477647552E-01
 0.13120019598000E+03 0.97399968307759E-01
 0.42853015891000E+02 0.30195584253780E+00
 0.15584185766000E+02 0.66233609137875E+00
 s    2 1.00
 0.62067138508000E+01 0.65595308539952E+00
 0.25764896527000E+01 0.37585633285142E+00
 s    1 1.00
 0.57696339419000E+00 0.10000000000000E+01
 s    1 1.00
 0.22972831358000E+00 0.10000000000000E+01
 s    1 1.00
 0.95164440028000E-01 0.10000000000000E+01
 s    1 1.00
 0.48475401370000E-01 0.10000000000000E+01
 p    4 1.00
 0.34697232244000E+02 0.11327220003114E-01
 0.79582622826000E+01 0.76169659202087E-01
 0.23780826883000E+01 0.30192252202676E+00
 0.81433208183000E+00 0.72785027349547E+00
 p    1 1.00
 0.28887547253000E+00 0.10000000000000E+01
 p    1 1.00
 0.10056823671000E+00 0.10000000000000E+01
 d    1 1.00
 0.10970000000000E+01 0.10000000000000E+01
 d    1 1.00
 0.31800000000000E+00 0.10000000000000E+01
 d    1 1.00
 0.90985336424000E-01 0.10000000000000E+01
 f    1 1.00
 0.76100000000000E+00 0.10000000000000E+01
 
    4 0
 s    6 1.00
 0.13575349682000E+05 0.60645503603591E-03
 0.20352333680000E+04 0.46979088884982E-02
 0.46322562359000E+03 0.24332477647552E-01
 0.13120019598000E+03 0.97399968307759E-01
 0.42853015891000E+02 0.30195584253780E+00
 0.15584185766000E+02 0.66233609137875E+00
 s    2 1.00
 0.62067138508000E+01 0.65595308539952E+00
 0.25764896527000E+01 0.37585633285142E+00
 s    1 1.00
 0.57696339419000E+00 0.10000000000000E+01
 s    1 1.00
 0.22972831358000E+00 0.10000000000000E+01
 s    1 1.00
 0.95164440028000E-01 0.10000000000000E+01
 s    1 1.00
 0.48475401370000E-01 0.10000000000000E+01
 p    4 1.00
 0.34697232244000E+02 0.11327220003114E-01
 0.79582622826000E+01 0.76169659202087E-01
 0.23780826883000E+01 0.30192252202676E+00
 0.81433208183000E+00 0.72785027349547E+00
 p    1 1.00
 0.28887547253000E+00 0.10000000000000E+01
 p    1 1.00
 0.10056823671000E+00 0.10000000000000E+01
 d    1 1.00
 0.10970000000000E+01 0.10000000000000E+01
 d    1 1.00
 0.31800000000000E+00 0.10000000000000E+01
 d    1 1.00
 0.90985336424000E-01 0.10000000000000E+01
 f    1 1.00
 0.76100000000000E+00 0.10000000000000E+01
 
    5 0
 s    6 1.00
 0.13575349682000E+05 0.60645503603591E-03
 0.20352333680000E+04 0.46979088884982E-02
 0.46322562359000E+03 0.24332477647552E-01
 0.13120019598000E+03 0.97399968307759E-01
 0.42853015891000E+02 0.30195584253780E+00
 0.15584185766000E+02 0.66233609137875E+00
 s    2 1.00
 0.62067138508000E+01 0.65595308539952E+00
 0.25764896527000E+01 0.37585633285142E+00
 s    1 1.00
 0.57696339419000E+00 0.10000000000000E+01
 s    1 1.00
 0.22972831358000E+00 0.10000000000000E+01
 s    1 1.00
 0.95164440028000E-01 0.10000000000000E+01
 s    1 1.00
 0.48475401370000E-01 0.10000000000000E+01
 p    4 1.00
 0.34697232244000E+02 0.11327220003114E-01
 0.79582622826000E+01 0.76169659202087E-01
 0.23780826883000E+01 0.30192252202676E+00
 0.81433208183000E+00 0.72785027349547E+00
 p    1 1.00
 0.28887547253000E+00 0.10000000000000E+01
 p    1 1.00
 0.10056823671000E+00 0.10000000000000E+01
 d    1 1.00
 0.10970000000000E+01 0.10000000000000E+01
 d    1 1.00
 0.31800000000000E+00 0.10000000000000E+01
 d    1 1.00
 0.90985336424000E-01 0.10000000000000E+01
 f    1 1.00
 0.76100000000000E+00 0.10000000000000E+01
 
    6 0
 s    6 1.00
 0.13575349682000E+05 0.60645503603591E-03
 0.20352333680000E+04 0.46979088884982E-02
 0.46322562359000E+03 0.24332477647552E-01
 0.13120019598000E+03 0.97399968307759E-01
 0.42853015891000E+02 0.30195584253780E+00
 0.15584185766000E+02 0.66233609137875E+00
 s    2 1.00
 0.62067138508000E+01 0.65595308539952E+00
 0.25764896527000E+01 0.37585633285142E+00
 s    1 1.00
 0.57696339419000E+00 0.10000000000000E+01
 s    1 1.00
 0.22972831358000E+00 0.10000000000000E+01
 s    1 1.00
 0.95164440028000E-01 0.10000000000000E+01
 s    1 1.00
 0.48475401370000E-01 0.10000000000000E+01
 p    4 1.00
 0.34697232244000E+02 0.11327220003114E-01
 0.79582622826000E+01 0.76169659202087E-01
 0.23780826883000E+01 0.30192252202676E+00
 0.81433208183000E+00 0.72785027349547E+00
 p    1 1.00
 0.28887547253000E+00 0.10000000000000E+01
 p    1 1.00
 0.10056823671000E+00 0.10000000000000E+01
 d    1 1.00
 0.10970000000000E+01 0.10000000000000E+01
 d    1 1.00
 0.31800000000000E+00 0.10000000000000E+01
 d    1 1.00
 0.90985336424000E-01 0.10000000000000E+01
 f    1 1.00
 0.76100000000000E+00 0.10000000000000E+01
 
    7 0
 s    3 1.00
 0.34061341000000E+02 0.25439307208879E-01
 0.51235746000000E+01 0.19008594890375E+00
 0.11646626000000E+01 0.85244113011042E+00
 s    1 1.00
 0.32723041000000E+00 0.10000000000000E+01
 s    1 1.00
 0.10307241000000E+00 0.10000000000000E+01
 p    1 1.00
 0.80000000000000E+00 0.10000000000000E+01
 p    1 1.00
 0.95774129632000E-01 0.10000000000000E+01
 
    8 0
 s    3 1.00
 0.34061341000000E+02 0.25439307208879E-01
 0.51235746000000E+01 0.19008594890375E+00
 0.11646626000000E+01 0.85244113011042E+00
 s    1 1.00
 0.32723041000000E+00 0.10000000000000E+01
 s    1 1.00
 0.10307241000000E+00 0.10000000000000E+01
 p    1 1.00
 0.80000000000000E+00 0.10000000000000E+01
 p    1 1.00
 0.95774129632000E-01 0.10000000000000E+01
 
    9 0
 s    3 1.00
 0.34061341000000E+02 0.25439307208879E-01
 0.51235746000000E+01 0.19008594890375E+00
 0.11646626000000E+01 0.85244113011042E+00
 s    1 1.00
 0.32723041000000E+00 0.10000000000000E+01
 s    1 1.00
 0.10307241000000E+00 0.10000000000000E+01
 p    1 1.00
 0.80000000000000E+00 0.10000000000000E+01
 p    1 1.00
 0.95774129632000E-01 0.10000000000000E+01
 
   10 0
 s    3 1.00
 0.34061341000000E+02 0.25439307208879E-01
 0.51235746000000E+01 0.19008594890375E+00
 0.11646626000000E+01 0.85244113011042E+00
 s    1 1.00
 0.32723041000000E+00 0.10000000000000E+01
 s    1 1.00
 0.10307241000000E+00 0.10000000000000E+01
 p    1 1.00
 0.80000000000000E+00 0.10000000000000E+01
 p    1 1.00
 0.95774129632000E-01 0.10000000000000E+01
 
   11 0
 s    6 1.00
 0.19730800647000E+05 0.58626402628763E-03
 0.29578958745000E+04 0.45428820586397E-02
 0.67322133595000E+03 0.23558413450084E-01
 0.19068249494000E+03 0.94709193292923E-01
 0.62295441898000E+02 0.29719784913376E+00
 0.22654161182000E+02 0.66916246895232E+00
 s    2 1.00
 0.89791477428000E+01 0.64596683630063E+00
 0.36863002370000E+01 0.38700574393705E+00
 s    1 1.00
 0.84660076805000E+00 0.10000000000000E+01
 s    1 1.00
 0.33647133771000E+00 0.10000000000000E+01
 s    1 1.00
 0.13647653675000E+00 0.10000000000000E+01
 s    1 1.00
 0.68441605847000E-01 0.10000000000000E+01
 p    4 1.00
 0.49200380510000E+02 0.11448825101764E-01
 0.11346790537000E+02 0.78422337970864E-01
 0.34273972411000E+01 0.30818094738830E+00
 0.11785525134000E+01 0.72027196368413E+00
 p    1 1.00
 0.41642204972000E+00 0.10000000000000E+01
 p    1 1.00
 0.14260826011000E+00 0.10000000000000E+01
 d    1 1.00
 0.16540000000000E+01 0.10000000000000E+01
 d    1 1.00
 0.46900000000000E+00 0.10000000000000E+01
 d    1 1.00
 0.12829642058000E+00 0.10000000000000E+01
 f    1 1.00
 0.10930000000000E+01 0.10000000000000E+01
 
   12 0
 s    6 1.00
 0.27032382631000E+05 0.57227335211155E-03
 0.40523871392000E+04 0.44353233492995E-02
 0.92232722710000E+03 0.23020107706038E-01
 0.26124070989000E+03 0.92822490667928E-01
 0.85354641351000E+02 0.29378500009671E+00
 0.31035035245000E+02 0.67401604501641E+00
 s    2 1.00
 0.12260860728000E+02 0.63839937025506E+00
 0.49987076005000E+01 0.39534587125718E+00
 s    1 1.00
 0.11703108158000E+01 0.10000000000000E+01
 s    1 1.00
 0.46474740994000E+00 0.10000000000000E+01
 s    1 1.00
 0.18504536357000E+00 0.10000000000000E+01
 s    1 1.00
 0.70288026270000E-01 0.10000000000000E+01
 p    4 1.00
 0.63274954801000E+02 0.12018332222616E-01
 0.14627049379000E+02 0.83005421790056E-01
 0.44501223456000E+01 0.31991743925964E+00
 0.15275799647000E+01 0.70715542916104E+00
 p    1 1.00
 0.52935117943000E+00 0.10000000000000E+01
 p    1 1.00
 0.17478421270000E+00 0.10000000000000E+01
 p    1 1.00
 0.51112745706000E-01 0.10000000000000E+01
 d    1 1.00
 0.23140000000000E+01 0.10000000000000E+01
 d    1 1.00
 0.64500000000000E+00 0.10000000000000E+01
 d    1 1.00
 0.14696477366000E+00 0.10000000000000E+01
 f    1 1.00
 0.14280000000000E+01 0.10000000000000E+01
 
   13 0
 s    6 1.00
 0.27032382631000E+05 0.57227335211155E-03
 0.40523871392000E+04 0.44353233492995E-02
 0.92232722710000E+03 0.23020107706038E-01
 0.26124070989000E+03 0.92822490667928E-01
 0.85354641351000E+02 0.29378500009671E+00
 0.31035035245000E+02 0.67401604501641E+00
 s    2 1.00
 0.12260860728000E+02 0.63839937025506E+00
 0.49987076005000E+01 0.39534587125718E+00
 s    1 1.00
 0.11703108158000E+01 0.10000000000000E+01
 s    1 1.00
 0.46474740994000E+00 0.10000000000000E+01
 s    1 1.00
 0.18504536357000E+00 0.10000000000000E+01
 s    1 1.00
 0.70288026270000E-01 0.10000000000000E+01
 p    4 1.00
 0.63274954801000E+02 0.12018332222616E-01
 0.14627049379000E+02 0.83005421790056E-01
 0.44501223456000E+01 0.31991743925964E+00
 0.15275799647000E+01 0.70715542916104E+00
 p    1 1.00
 0.52935117943000E+00 0.10000000000000E+01
 p    1 1.00
 0.17478421270000E+00 0.10000000000000E+01
 p    1 1.00
 0.51112745706000E-01 0.10000000000000E+01
 d    1 1.00
 0.23140000000000E+01 0.10000000000000E+01
 d    1 1.00
 0.64500000000000E+00 0.10000000000000E+01
 d    1 1.00
 0.14696477366000E+00 0.10000000000000E+01
 f    1 1.00
 0.14280000000000E+01 0.10000000000000E+01
 
   14 0
 s    6 1.00
 0.19730800647000E+05 0.58626402628763E-03
 0.29578958745000E+04 0.45428820586397E-02
 0.67322133595000E+03 0.23558413450084E-01
 0.19068249494000E+03 0.94709193292923E-01
 0.62295441898000E+02 0.29719784913376E+00
 0.22654161182000E+02 0.66916246895232E+00
 s    2 1.00
 0.89791477428000E+01 0.64596683630063E+00
 0.36863002370000E+01 0.38700574393705E+00
 s    1 1.00
 0.84660076805000E+00 0.10000000000000E+01
 s    1 1.00
 0.33647133771000E+00 0.10000000000000E+01
 s    1 1.00
 0.13647653675000E+00 0.10000000000000E+01
 s    1 1.00
 0.68441605847000E-01 0.10000000000000E+01
 p    4 1.00
 0.49200380510000E+02 0.11448825101764E-01
 0.11346790537000E+02 0.78422337970864E-01
 0.34273972411000E+01 0.30818094738830E+00
 0.11785525134000E+01 0.72027196368413E+00
 p    1 1.00
 0.41642204972000E+00 0.10000000000000E+01
 p    1 1.00
 0.14260826011000E+00 0.10000000000000E+01
 d    1 1.00
 0.16540000000000E+01 0.10000000000000E+01
 d    1 1.00
 0.46900000000000E+00 0.10000000000000E+01
 d    1 1.00
 0.12829642058000E+00 0.10000000000000E+01
 f    1 1.00
 0.10930000000000E+01 0.10000000000000E+01
 
   15 0
 s    3 1.00
 0.34061341000000E+02 0.25439307208879E-01
 0.51235746000000E+01 0.19008594890375E+00
 0.11646626000000E+01 0.85244113011042E+00
 s    1 1.00
 0.32723041000000E+00 0.10000000000000E+01
 s    1 1.00
 0.10307241000000E+00 0.10000000000000E+01
 p    1 1.00
 0.80000000000000E+00 0.10000000000000E+01
 p    1 1.00
 0.95774129632000E-01 0.10000000000000E+01
 
   16 0
 s    3 1.00
 0.34061341000000E+02 0.25439307208879E-01
 0.51235746000000E+01 0.19008594890375E+00
 0.11646626000000E+01 0.85244113011042E+00
 s    1 1.00
 0.32723041000000E+00 0.10000000000000E+01
 s    1 1.00
 0.10307241000000E+00 0.10000000000000E+01
 p    1 1.00
 0.80000000000000E+00 0.10000000000000E+01
 p    1 1.00
 0.95774129632000E-01 0.10000000000000E+01
 
[MO]
 Sym= X
 Ene= -0.223394
 Spin= Alpha
 Occup= -0.223394
         1   -2.130663E-04
         2   -4.930503E-04
         3    1.296146E-03
         4   -2.435068E-03
         5   -8.695468E-03
         6   -1.158900E-02
         7    2.078656E-03
         8    2.679412E-04
         9    1.249876E-02
        10   -2.180875E-03
        11    4.962186E-04
        12    1.078541E-02
        13   -3.587920E-02
        14    9.675318E-03
        15   -1.614270E-03
        16    1.633638E-05
        17   -2.530126E-05
        18    8.964878E-06
        19   -1.979893E-05
        20   -6.115092E-03
        21    3.396926E-03
        22   -6.524281E-04
        23    3.963681E-04
        24    2.560600E-04
        25   -7.573763E-04
        26   -1.376400E-02
        27    6.489092E-03
        28   -5.037928E-03
        29    4.697637E-03
        30    3.402918E-04
        31    1.282086E-03
        32    2.221602E-03
        33   -1.131478E-02
        34   -1.821233E-05
        35    8.146578E-06
        36   -1.047189E-05
        37    6.890493E-06
        38   -8.295567E-06
        39   -7.352411E-04
        40    1.754391E-05
        41   -2.634215E-06
        42    7.492906E-04
        43   -6.362147E-04
        44    3.839186E-05
        45    8.428051E-05
        46    1.273711E-04
        47   -3.097946E-03
        48   -4.973269E-02
        49    6.127422E-03
        50    3.333791E-04
        51    2.462349E-06
        52    1.814202E-01
        53   -5.425392E-04
        54    1.982312E-05
        55    1.887460E-01
        56   -1.683059E-02
        57   -1.338504E-03
        58    1.952501E-01
        59    5.014767E-05
        60   -4.811626E-05
        61   -2.031417E-06
        62    1.810152E-07
        63   -9.621406E-04
        64    7.333942E-07
        65    4.162280E-04
        66   -6.792276E-04
        67    2.629996E-04
        68    4.416058E-06
        69   -3.756179E-03
        70    1.380705E-06
        71    9.807018E-03
        72   -1.090627E-02
        73    1.099255E-03
        74   -2.175981E-04
        75    4.270362E-03
        76   -1.383855E-05
        77    7.587264E-06
        78    2.079548E-08
        79   -9.730974E-04
        80   -7.860914E-06
        81    5.992798E-08
        82    5.974196E-04
        83   -2.318469E-06
        84   -8.782805E-08
        85    7.081276E-04
        86    1.380676E-07
        87   -2.122924E-04
        88   -4.914557E-04
        89    1.301846E-03
        90   -2.517698E-03
        91   -6.318544E-03
        92   -1.152306E-02
        93    2.081694E-03
        94   -2.755809E-04
        95    1.254142E-02
        96   -2.169644E-03
        97   -4.887976E-04
        98    1.082639E-02
        99   -3.669965E-02
       100   -1.110953E-02
       101   -1.510302E-03
       102    1.613465E-05
       103   -2.537139E-05
       104    9.236735E-06
       105    2.031007E-05
       106   -6.114598E-03
       107   -3.397093E-03
       108   -6.493893E-04
       109    3.918108E-04
       110    2.575784E-04
       111    7.544654E-04
       112   -1.375998E-02
       113   -6.488630E-03
       114   -5.271386E-03
       115    4.957164E-03
       116    3.142220E-04
       117   -1.109520E-03
       118    2.228011E-03
       119    1.128341E-02
       120   -1.839693E-05
       121   -8.136917E-06
       122   -1.066335E-05
       123    7.204840E-06
       124    8.281549E-06
       125   -7.350259E-04
       126    1.747723E-05
       127    2.635271E-06
       128    7.493323E-04
       129    6.361329E-04
       130    1.289343E-04
       131    2.787150E-04
       132    6.042579E-04
       133   -1.098804E-02
       134    2.756669E-02
       135    1.293108E-02
       136   -1.735251E-03
       137    8.561956E-04
       138   -1.530195E-01
       139   -9.716292E-03
       140    6.558128E-03
       141   -1.559466E-01
       142   -2.506797E-02
       143   -7.528317E-03
       144   -9.212058E-02
       145    1.724352E-04
       146   -2.054094E-04
       147    3.297415E-05
       148   -1.605754E-06
       149   -4.224891E-04
       150    2.775559E-03
       151    6.366268E-04
       152   -7.937542E-04
       153    1.571274E-04
       154    1.775889E-03
       155   -3.312637E-03
       156    4.617733E-03
       157    8.570516E-03
       158   -6.787632E-03
       159   -1.782883E-03
       160   -8.884005E-03
       161    3.865555E-03
       162   -1.380833E-02
       163   -1.549862E-05
       164    1.197414E-05
       165    8.565666E-04
       166   -2.127845E-05
       167    1.565667E-05
       168   -2.476237E-04
       169    4.207203E-05
       170   -3.172167E-05
       171   -9.015810E-04
       172    2.875355E-04
       173   -1.200151E-03
       174   -2.730690E-03
       175    2.862997E-03
       176    2.222612E-02
       177   -1.832848E-02
       178    9.189514E-03
       179    1.018554E-02
       180   -7.405400E-07
       181   -9.762564E-02
       182    9.187436E-04
       183   -1.356566E-05
       184   -1.007932E-01
       185   -2.751143E-02
       186    1.404291E-03
       187   -1.337427E-01
       188    5.288715E-04
       189   -3.062088E-04
       190   -2.226626E-04
       191    2.053728E-07
       192    1.053595E-02
       193    6.969252E-07
       194   -1.934254E-03
       195    4.241333E-03
       196   -2.307078E-03
       197    3.375070E-06
       198    2.566931E-02
       199   -1.070846E-06
       200   -6.211653E-03
       201    7.464671E-03
       202   -1.253018E-03
       203   -2.392345E-04
       204    1.947628E-02
       205   -3.885903E-06
       206    1.248676E-04
       207   -2.437429E-09
       208    1.848599E-04
       209   -8.629553E-05
       210   -6.996344E-08
       211    1.212632E-03
       212   -8.123190E-05
       213    7.323359E-08
       214   -1.460648E-03
       215    1.904580E-08
       216    1.287667E-04
       217    2.781435E-04
       218    6.123499E-04
       219   -1.107014E-02
       220    3.013874E-02
       221    1.297241E-02
       222   -1.735171E-03
       223   -8.497815E-04
       224   -1.530492E-01
       225   -9.717278E-03
       226   -6.571661E-03
       227   -1.559831E-01
       228   -2.410902E-02
       229    9.179928E-03
       230   -9.206346E-02
       231    1.722284E-04
       232   -2.058952E-04
       233    3.366675E-05
       234    1.793429E-06
       235   -4.214981E-04
       236   -2.775717E-03
       237    6.373362E-04
       238   -7.952274E-04
       239    1.578912E-04
       240   -1.778111E-03
       241   -3.309789E-03
       242   -4.617570E-03
       243    8.330462E-03
       244   -6.532544E-03
       245   -1.797918E-03
       246    9.092720E-03
       247    3.862242E-03
       248    1.384866E-02
       249   -1.542319E-05
       250   -1.201050E-05
       251    8.569877E-04
       252   -2.147169E-05
       253   -1.562263E-05
       254   -2.480522E-04
       255    4.216407E-05
       256    3.173640E-05
       257   -9.017174E-04
       258   -2.875125E-04
       259   -4.822141E-04
       260   -4.026996E-04
       261   -1.835631E-02
       262   -1.523321E-05
       263   -1.723675E-05
       264    5.093278E-04
       265   -5.401801E-03
       266   -4.307756E-04
       267   -7.143719E-03
       268   -4.879111E-04
       269   -4.021121E-04
       270   -1.814705E-02
       271   -1.452203E-05
       272    1.705005E-05
       273    5.112432E-04
       274   -5.517852E-03
       275    3.261306E-04
       276   -7.116043E-03
       277   -5.056630E-04
       278   -2.550445E-03
       279    3.532194E-02
       280   -1.471993E-05
       281    1.143594E-04
       282   -6.166015E-03
       283   -2.124177E-03
       284   -2.739671E-03
       285    3.032089E-03
       286   -5.089978E-04
       287   -2.554324E-03
       288    3.572884E-02
       289   -1.432594E-05
       290   -1.143865E-04
       291   -6.167609E-03
       292   -2.035018E-03
       293    2.871424E-03
       294    3.059667E-03
       295   -5.579587E-05
       296   -1.297662E-04
       297    1.233048E-04
       298    5.128925E-04
       299   -7.536520E-03
       300    3.087600E-04
       301    5.344605E-04
       302   -8.730684E-08
       303    1.881309E-02
       304    2.098800E-04
       305    3.262883E-07
       306    2.133212E-02
       307   -3.262731E-03
       308    4.248162E-05
       309    8.158495E-03
       310    1.747795E-05
       311   -4.652427E-06
       312   -1.282553E-05
       313   -2.317238E-08
       314    4.091260E-03
       315   -3.084743E-06
       316   -9.332529E-06
       317    6.981729E-05
       318   -6.048476E-05
       319   -6.038194E-07
       320    1.231290E-02
       321   -9.115814E-06
       322   -9.879019E-04
       323    2.896353E-03
       324   -1.908451E-03
       325    4.008602E-05
       326    2.482389E-03
       327    2.213521E-06
       328    6.898144E-06
       329    1.095809E-09
       330    2.032349E-05
       331   -4.957546E-06
       332    2.441133E-08
       333    6.356448E-04
       334   -4.297285E-06
       335   -2.588151E-08
       336   -6.629116E-04
       337    5.663187E-07
       338   -1.795075E-05
       339   -4.012370E-05
       340    1.380732E-05
       341    5.547282E-04
       342   -6.027393E-03
       343   -9.010033E-04
       344   -1.510603E-04
       345    1.631482E-04
       346   -7.457000E-02
       347   -2.490628E-04
       348    2.924740E-04
       349   -6.915140E-02
       350   -1.429293E-03
       351    5.502778E-04
       352   -5.651174E-02
       353   -1.795640E-04
       354    2.004203E-04
       355   -7.121255E-03
       356    4.337611E-06
       357   -5.326685E-06
       358    9.890743E-07
       359   -2.971468E-07
       360    7.860182E-06
       361    4.424762E-04
       362   -1.109203E-05
       363   -1.336395E-05
       364    2.445598E-05
       365    9.394847E-06
       366   -4.900183E-04
       367    1.475963E-03
       368   -7.947922E-05
       369    4.987500E-05
       370    2.960422E-05
       371    7.745850E-05
       372   -3.781104E-05
       373    2.633728E-04
       374    7.336647E-07
       375    2.049379E-06
       376    6.204566E-05
       377   -1.400286E-06
       378   -8.606663E-07
       379    7.761378E-05
       380    4.159715E-07
       381   -1.888864E-06
       382   -1.608568E-04
       383    1.277776E-04
       384   -1.755274E-05
       385   -3.919505E-05
       386    1.299818E-05
       387    5.482563E-04
       388   -6.030174E-03
       389   -8.649745E-04
       390   -1.451653E-04
       391   -1.648212E-04
       392   -7.439805E-02
       393   -2.439439E-04
       394   -2.934481E-04
       395   -6.899363E-02
       396   -1.385112E-03
       397   -5.510613E-04
       398   -5.639207E-02
       399   -1.630228E-04
       400   -2.042526E-04
       401   -7.110617E-03
       402    4.328896E-06
       403   -5.340187E-06
       404    1.011291E-06
       405    2.539916E-07
       406    8.725857E-06
       407   -4.410705E-04
       408   -1.059530E-05
       409   -1.345119E-05
       410    2.404648E-05
       411   -8.924661E-06
       412   -4.870340E-04
       413   -1.471200E-03
       414   -7.891842E-05
       415    5.077212E-05
       416    2.814630E-05
       417   -7.582161E-05
       418   -3.658034E-05
       419   -2.593536E-04
       420    7.368311E-07
       421   -2.052382E-06
       422    6.179374E-05
       423   -1.389163E-06
       424    8.723217E-07
       425    7.756732E-05
       426    4.006004E-07
       427    1.881237E-06
       428   -1.604723E-04
       429   -1.273174E-04
       430    5.150973E-03
       431    1.221544E-02
       432   -1.896218E-02
       433   -2.939452E-02
       434   -2.197039E-02
       435   -6.846541E-02
       436   -1.860793E-02
       437    1.225172E-05
       438    2.784246E-01
       439   -2.116060E-02
       440    1.565049E-06
       441    2.746829E-01
       442   -2.017878E-02
       443   -1.239586E-04
       444    2.215485E-01
       445   -9.976794E-05
       446   -3.185805E-05
       447    1.316260E-04
       448    3.066633E-07
       449    5.127211E-04
       450    3.202495E-07
       451   -1.999352E-04
       452   -1.668724E-03
       453    1.868659E-03
       454   -4.448042E-06
       455    3.061677E-03
       456    1.055739E-06
       457   -1.553084E-03
       458   -3.410023E-03
       459    4.963107E-03
       460   -1.149731E-05
       461    2.028172E-03
       462    1.020064E-05
       463   -1.413691E-04
       464    3.728372E-08
       465   -1.147965E-03
       466   -9.503079E-05
       467   -2.519157E-08
       468    6.672575E-04
       469    2.846973E-04
       470   -2.482979E-08
       471    8.728986E-04
       472    2.402074E-08
       473    9.433575E-03
       474    1.822010E-02
       475    3.076758E-02
       476   -2.390269E-03
       477   -1.956629E-03
       478    1.400439E-02
       479    1.016780E-03
       480   -3.559852E-03
       481    1.530359E-02
       482    9.425086E-03
       483    1.813392E-02
       484    3.045378E-02
       485   -2.385958E-03
       486    1.948244E-03
       487    1.400851E-02
       488    1.045787E-03
       489    3.505906E-03
       490    1.531944E-02
 Sym= X
 Ene= -0.643737
 Spin= Alpha
 Occup= -0.643737
         1    2.311731E-05
         2    5.260536E-05
         3   -1.248237E-04
         4    1.516427E-04
         5    9.058880E-03
         6    3.582144E-04
         7    9.536368E-05
         8    1.705103E-04
         9    1.646527E-01
        10    5.171267E-04
        11    4.068099E-05
        12    1.650762E-01
        13   -3.697204E-03
        14    5.870795E-03
        15    9.262260E-02
        16    6.593143E-06
        17   -1.900918E-06
        18   -4.692225E-06
        19   -2.667912E-06
        20    4.433082E-03
        21    4.577573E-04
        22    9.669270E-05
        23   -5.939715E-05
        24   -3.729555E-05
        25   -1.575394E-05
        26    8.977689E-03
        27   -4.992897E-04
        28   -8.776453E-04
        29    1.015295E-03
        30   -1.376494E-04
        31   -4.626258E-04
        32    3.741488E-03
        33   -7.434013E-04
        34    3.621370E-06
        35    6.861004E-07
        36   -9.895140E-04
        37   -7.505385E-07
        38    3.871561E-08
        39    1.204426E-03
        40   -4.108039E-06
        41   -9.592159E-07
        42    1.231464E-04
        43    2.533069E-05
        44   -5.008016E-07
        45   -1.139125E-06
        46    2.207755E-07
        47    3.097423E-05
        48   -1.866273E-03
        49   -8.214616E-05
        50   -2.713347E-06
        51   -1.310992E-04
        52    3.694026E-05
        53    1.250423E-07
        54   -2.351465E-04
        55    3.171031E-05
        56   -9.078043E-04
        57    9.131493E-03
        58   -1.406407E-05
        59    1.591961E-07
        60   -2.875379E-08
        61   -1.304423E-07
        62   -9.193088E-06