[Molden Format]
[Title]
ADC(2) - opt by CAM-B3LYP gaussian                                              
[Atoms] AU
 c     1    6 -.12588789760523E+01 -.22833296301999E+01 -.24948636837890E-01
 c     2    6 -.25574931053929E+01 0.00000000000000E+00 -.23691968959520E-01
 c     3    6 -.12588770863262E+01 0.22833296301999E+01 -.24954306016290E-01
 c     4    6 0.13320886199507E+01 0.22850077070059E+01 -.26951746538750E-01
 c     5    6 0.26868238359857E+01 0.00000000000000E+00 -.26437741030600E-01
 c     6    6 0.13320867302245E+01 -.22850077070059E+01 -.26946077360350E-01
 h     7    1 -.22977937121289E+01 -.40382313624087E+01 -.22371050392630E-01
 h     8    1 -.22977918224027E+01 0.40382332521348E+01 -.22380499023300E-01
 h     9    1 0.23512179234159E+01 0.40571966538783E+01 -.29234535707270E-01
 h    10    1 0.23512179234159E+01 -.40571947641522E+01 -.29223197350470E-01
 n    11    7 -.52733186864479E+01 0.00000000000000E+00 -.17996334395000E-01
 o    12    8 -.63812046469225E+01 0.20269448165729E+01 -.15568036314240E-01
 o    13    8 -.63812027571964E+01 -.20269467062990E+01 -.15583154123310E-01
 n    14    7 0.52441127328484E+01 0.00000000000000E+00 -.70347417454330E-01
 h    15    1 0.62045074583774E+01 0.16172030580838E+01 0.18832018534119E+00
 h    16    1 0.62045055686513E+01 -.16172049478099E+01 0.18831451616279E+00
[GTO]
    1 0
 s    6 1.00
 0.13575349682000E+05 0.60645503603591E-03
 0.20352333680000E+04 0.46979088884982E-02
 0.46322562359000E+03 0.24332477647552E-01
 0.13120019598000E+03 0.97399968307759E-01
 0.42853015891000E+02 0.30195584253780E+00
 0.15584185766000E+02 0.66233609137875E+00
 s    2 1.00
 0.62067138508000E+01 0.65595308539952E+00
 0.25764896527000E+01 0.37585633285142E+00
 s    1 1.00
 0.57696339419000E+00 0.10000000000000E+01
 s    1 1.00
 0.22972831358000E+00 0.10000000000000E+01
 s    1 1.00
 0.95164440028000E-01 0.10000000000000E+01
 s    1 1.00
 0.48475401370000E-01 0.10000000000000E+01
 p    4 1.00
 0.34697232244000E+02 0.11327220003114E-01
 0.79582622826000E+01 0.76169659202087E-01
 0.23780826883000E+01 0.30192252202676E+00
 0.81433208183000E+00 0.72785027349547E+00
 p    1 1.00
 0.28887547253000E+00 0.10000000000000E+01
 p    1 1.00
 0.10056823671000E+00 0.10000000000000E+01
 d    1 1.00
 0.10970000000000E+01 0.10000000000000E+01
 d    1 1.00
 0.31800000000000E+00 0.10000000000000E+01
 d    1 1.00
 0.90985336424000E-01 0.10000000000000E+01
 f    1 1.00
 0.76100000000000E+00 0.10000000000000E+01
 
    2 0
 s    6 1.00
 0.13575349682000E+05 0.60645503603591E-03
 0.20352333680000E+04 0.46979088884982E-02
 0.46322562359000E+03 0.24332477647552E-01
 0.13120019598000E+03 0.97399968307759E-01
 0.42853015891000E+02 0.30195584253780E+00
 0.15584185766000E+02 0.66233609137875E+00
 s    2 1.00
 0.62067138508000E+01 0.65595308539952E+00
 0.25764896527000E+01 0.37585633285142E+00
 s    1 1.00
 0.57696339419000E+00 0.10000000000000E+01
 s    1 1.00
 0.22972831358000E+00 0.10000000000000E+01
 s    1 1.00
 0.95164440028000E-01 0.10000000000000E+01
 s    1 1.00
 0.48475401370000E-01 0.10000000000000E+01
 p    4 1.00
 0.34697232244000E+02 0.11327220003114E-01
 0.79582622826000E+01 0.76169659202087E-01
 0.23780826883000E+01 0.30192252202676E+00
 0.81433208183000E+00 0.72785027349547E+00
 p    1 1.00
 0.28887547253000E+00 0.10000000000000E+01
 p    1 1.00
 0.10056823671000E+00 0.10000000000000E+01
 d    1 1.00
 0.10970000000000E+01 0.10000000000000E+01
 d    1 1.00
 0.31800000000000E+00 0.10000000000000E+01
 d    1 1.00
 0.90985336424000E-01 0.10000000000000E+01
 f    1 1.00
 0.76100000000000E+00 0.10000000000000E+01
 
    3 0
 s    6 1.00
 0.13575349682000E+05 0.60645503603591E-03
 0.20352333680000E+04 0.46979088884982E-02
 0.46322562359000E+03 0.24332477647552E-01
 0.13120019598000E+03 0.97399968307759E-01
 0.42853015891000E+02 0.30195584253780E+00
 0.15584185766000E+02 0.66233609137875E+00
 s    2 1.00
 0.62067138508000E+01 0.65595308539952E+00
 0.25764896527000E+01 0.37585633285142E+00
 s    1 1.00
 0.57696339419000E+00 0.10000000000000E+01
 s    1 1.00
 0.22972831358000E+00 0.10000000000000E+01
 s    1 1.00
 0.95164440028000E-01 0.10000000000000E+01
 s    1 1.00
 0.48475401370000E-01 0.10000000000000E+01
 p    4 1.00
 0.34697232244000E+02 0.11327220003114E-01
 0.79582622826000E+01 0.76169659202087E-01
 0.23780826883000E+01 0.30192252202676E+00
 0.81433208183000E+00 0.72785027349547E+00
 p    1 1.00
 0.28887547253000E+00 0.10000000000000E+01
 p    1 1.00
 0.10056823671000E+00 0.10000000000000E+01
 d    1 1.00
 0.10970000000000E+01 0.10000000000000E+01
 d    1 1.00
 0.31800000000000E+00 0.10000000000000E+01
 d    1 1.00
 0.90985336424000E-01 0.10000000000000E+01
 f    1 1.00
 0.76100000000000E+00 0.10000000000000E+01
 
    4 0
 s    6 1.00
 0.13575349682000E+05 0.60645503603591E-03
 0.20352333680000E+04 0.46979088884982E-02
 0.46322562359000E+03 0.24332477647552E-01
 0.13120019598000E+03 0.97399968307759E-01
 0.42853015891000E+02 0.30195584253780E+00
 0.15584185766000E+02 0.66233609137875E+00
 s    2 1.00
 0.62067138508000E+01 0.65595308539952E+00
 0.25764896527000E+01 0.37585633285142E+00
 s    1 1.00
 0.57696339419000E+00 0.10000000000000E+01
 s    1 1.00
 0.22972831358000E+00 0.10000000000000E+01
 s    1 1.00
 0.95164440028000E-01 0.10000000000000E+01
 s    1 1.00
 0.48475401370000E-01 0.10000000000000E+01
 p    4 1.00
 0.34697232244000E+02 0.11327220003114E-01
 0.79582622826000E+01 0.76169659202087E-01
 0.23780826883000E+01 0.30192252202676E+00
 0.81433208183000E+00 0.72785027349547E+00
 p    1 1.00
 0.28887547253000E+00 0.10000000000000E+01
 p    1 1.00
 0.10056823671000E+00 0.10000000000000E+01
 d    1 1.00
 0.10970000000000E+01 0.10000000000000E+01
 d    1 1.00
 0.31800000000000E+00 0.10000000000000E+01
 d    1 1.00
 0.90985336424000E-01 0.10000000000000E+01
 f    1 1.00
 0.76100000000000E+00 0.10000000000000E+01
 
    5 0
 s    6 1.00
 0.13575349682000E+05 0.60645503603591E-03
 0.20352333680000E+04 0.46979088884982E-02
 0.46322562359000E+03 0.24332477647552E-01
 0.13120019598000E+03 0.97399968307759E-01
 0.42853015891000E+02 0.30195584253780E+00
 0.15584185766000E+02 0.66233609137875E+00
 s    2 1.00
 0.62067138508000E+01 0.65595308539952E+00
 0.25764896527000E+01 0.37585633285142E+00
 s    1 1.00
 0.57696339419000E+00 0.10000000000000E+01
 s    1 1.00
 0.22972831358000E+00 0.10000000000000E+01
 s    1 1.00
 0.95164440028000E-01 0.10000000000000E+01
 s    1 1.00
 0.48475401370000E-01 0.10000000000000E+01
 p    4 1.00
 0.34697232244000E+02 0.11327220003114E-01
 0.79582622826000E+01 0.76169659202087E-01
 0.23780826883000E+01 0.30192252202676E+00
 0.81433208183000E+00 0.72785027349547E+00
 p    1 1.00
 0.28887547253000E+00 0.10000000000000E+01
 p    1 1.00
 0.10056823671000E+00 0.10000000000000E+01
 d    1 1.00
 0.10970000000000E+01 0.10000000000000E+01
 d    1 1.00
 0.31800000000000E+00 0.10000000000000E+01
 d    1 1.00
 0.90985336424000E-01 0.10000000000000E+01
 f    1 1.00
 0.76100000000000E+00 0.10000000000000E+01
 
    6 0
 s    6 1.00
 0.13575349682000E+05 0.60645503603591E-03
 0.20352333680000E+04 0.46979088884982E-02
 0.46322562359000E+03 0.24332477647552E-01
 0.13120019598000E+03 0.97399968307759E-01
 0.42853015891000E+02 0.30195584253780E+00
 0.15584185766000E+02 0.66233609137875E+00
 s    2 1.00
 0.62067138508000E+01 0.65595308539952E+00
 0.25764896527000E+01 0.37585633285142E+00
 s    1 1.00
 0.57696339419000E+00 0.10000000000000E+01
 s    1 1.00
 0.22972831358000E+00 0.10000000000000E+01
 s    1 1.00
 0.95164440028000E-01 0.10000000000000E+01
 s    1 1.00
 0.48475401370000E-01 0.10000000000000E+01
 p    4 1.00
 0.34697232244000E+02 0.11327220003114E-01
 0.79582622826000E+01 0.76169659202087E-01
 0.23780826883000E+01 0.30192252202676E+00
 0.81433208183000E+00 0.72785027349547E+00
 p    1 1.00
 0.28887547253000E+00 0.10000000000000E+01
 p    1 1.00
 0.10056823671000E+00 0.10000000000000E+01
 d    1 1.00
 0.10970000000000E+01 0.10000000000000E+01
 d    1 1.00
 0.31800000000000E+00 0.10000000000000E+01
 d    1 1.00
 0.90985336424000E-01 0.10000000000000E+01
 f    1 1.00
 0.76100000000000E+00 0.10000000000000E+01
 
    7 0
 s    3 1.00
 0.34061341000000E+02 0.25439307208879E-01
 0.51235746000000E+01 0.19008594890375E+00
 0.11646626000000E+01 0.85244113011042E+00
 s    1 1.00
 0.32723041000000E+00 0.10000000000000E+01
 s    1 1.00
 0.10307241000000E+00 0.10000000000000E+01
 p    1 1.00
 0.80000000000000E+00 0.10000000000000E+01
 p    1 1.00
 0.95774129632000E-01 0.10000000000000E+01
 
    8 0
 s    3 1.00
 0.34061341000000E+02 0.25439307208879E-01
 0.51235746000000E+01 0.19008594890375E+00
 0.11646626000000E+01 0.85244113011042E+00
 s    1 1.00
 0.32723041000000E+00 0.10000000000000E+01
 s    1 1.00
 0.10307241000000E+00 0.10000000000000E+01
 p    1 1.00
 0.80000000000000E+00 0.10000000000000E+01
 p    1 1.00
 0.95774129632000E-01 0.10000000000000E+01
 
    9 0
 s    3 1.00
 0.34061341000000E+02 0.25439307208879E-01
 0.51235746000000E+01 0.19008594890375E+00
 0.11646626000000E+01 0.85244113011042E+00
 s    1 1.00
 0.32723041000000E+00 0.10000000000000E+01
 s    1 1.00
 0.10307241000000E+00 0.10000000000000E+01
 p    1 1.00
 0.80000000000000E+00 0.10000000000000E+01
 p    1 1.00
 0.95774129632000E-01 0.10000000000000E+01
 
   10 0
 s    3 1.00
 0.34061341000000E+02 0.25439307208879E-01
 0.51235746000000E+01 0.19008594890375E+00
 0.11646626000000E+01 0.85244113011042E+00
 s    1 1.00
 0.32723041000000E+00 0.10000000000000E+01
 s    1 1.00
 0.10307241000000E+00 0.10000000000000E+01
 p    1 1.00
 0.80000000000000E+00 0.10000000000000E+01
 p    1 1.00
 0.95774129632000E-01 0.10000000000000E+01
 
   11 0
 s    6 1.00
 0.19730800647000E+05 0.58626402628763E-03
 0.29578958745000E+04 0.45428820586397E-02
 0.67322133595000E+03 0.23558413450084E-01
 0.19068249494000E+03 0.94709193292923E-01
 0.62295441898000E+02 0.29719784913376E+00
 0.22654161182000E+02 0.66916246895232E+00
 s    2 1.00
 0.89791477428000E+01 0.64596683630063E+00
 0.36863002370000E+01 0.38700574393705E+00
 s    1 1.00
 0.84660076805000E+00 0.10000000000000E+01
 s    1 1.00
 0.33647133771000E+00 0.10000000000000E+01
 s    1 1.00
 0.13647653675000E+00 0.10000000000000E+01
 s    1 1.00
 0.68441605847000E-01 0.10000000000000E+01
 p    4 1.00
 0.49200380510000E+02 0.11448825101764E-01
 0.11346790537000E+02 0.78422337970864E-01
 0.34273972411000E+01 0.30818094738830E+00
 0.11785525134000E+01 0.72027196368413E+00
 p    1 1.00
 0.41642204972000E+00 0.10000000000000E+01
 p    1 1.00
 0.14260826011000E+00 0.10000000000000E+01
 d    1 1.00
 0.16540000000000E+01 0.10000000000000E+01
 d    1 1.00
 0.46900000000000E+00 0.10000000000000E+01
 d    1 1.00
 0.12829642058000E+00 0.10000000000000E+01
 f    1 1.00
 0.10930000000000E+01 0.10000000000000E+01
 
   12 0
 s    6 1.00
 0.27032382631000E+05 0.57227335211155E-03
 0.40523871392000E+04 0.44353233492995E-02
 0.92232722710000E+03 0.23020107706038E-01
 0.26124070989000E+03 0.92822490667928E-01
 0.85354641351000E+02 0.29378500009671E+00
 0.31035035245000E+02 0.67401604501641E+00
 s    2 1.00
 0.12260860728000E+02 0.63839937025506E+00
 0.49987076005000E+01 0.39534587125718E+00
 s    1 1.00
 0.11703108158000E+01 0.10000000000000E+01
 s    1 1.00
 0.46474740994000E+00 0.10000000000000E+01
 s    1 1.00
 0.18504536357000E+00 0.10000000000000E+01
 s    1 1.00
 0.70288026270000E-01 0.10000000000000E+01
 p    4 1.00
 0.63274954801000E+02 0.12018332222616E-01
 0.14627049379000E+02 0.83005421790056E-01
 0.44501223456000E+01 0.31991743925964E+00
 0.15275799647000E+01 0.70715542916104E+00
 p    1 1.00
 0.52935117943000E+00 0.10000000000000E+01
 p    1 1.00
 0.17478421270000E+00 0.10000000000000E+01
 p    1 1.00
 0.51112745706000E-01 0.10000000000000E+01
 d    1 1.00
 0.23140000000000E+01 0.10000000000000E+01
 d    1 1.00
 0.64500000000000E+00 0.10000000000000E+01
 d    1 1.00
 0.14696477366000E+00 0.10000000000000E+01
 f    1 1.00
 0.14280000000000E+01 0.10000000000000E+01
 
   13 0
 s    6 1.00
 0.27032382631000E+05 0.57227335211155E-03
 0.40523871392000E+04 0.44353233492995E-02
 0.92232722710000E+03 0.23020107706038E-01
 0.26124070989000E+03 0.92822490667928E-01
 0.85354641351000E+02 0.29378500009671E+00
 0.31035035245000E+02 0.67401604501641E+00
 s    2 1.00
 0.12260860728000E+02 0.63839937025506E+00
 0.49987076005000E+01 0.39534587125718E+00
 s    1 1.00
 0.11703108158000E+01 0.10000000000000E+01
 s    1 1.00
 0.46474740994000E+00 0.10000000000000E+01
 s    1 1.00
 0.18504536357000E+00 0.10000000000000E+01
 s    1 1.00
 0.70288026270000E-01 0.10000000000000E+01
 p    4 1.00
 0.63274954801000E+02 0.12018332222616E-01
 0.14627049379000E+02 0.83005421790056E-01
 0.44501223456000E+01 0.31991743925964E+00
 0.15275799647000E+01 0.70715542916104E+00
 p    1 1.00
 0.52935117943000E+00 0.10000000000000E+01
 p    1 1.00
 0.17478421270000E+00 0.10000000000000E+01
 p    1 1.00
 0.51112745706000E-01 0.10000000000000E+01
 d    1 1.00
 0.23140000000000E+01 0.10000000000000E+01
 d    1 1.00
 0.64500000000000E+00 0.10000000000000E+01
 d    1 1.00
 0.14696477366000E+00 0.10000000000000E+01
 f    1 1.00
 0.14280000000000E+01 0.10000000000000E+01
 
   14 0
 s    6 1.00
 0.19730800647000E+05 0.58626402628763E-03
 0.29578958745000E+04 0.45428820586397E-02
 0.67322133595000E+03 0.23558413450084E-01
 0.19068249494000E+03 0.94709193292923E-01
 0.62295441898000E+02 0.29719784913376E+00
 0.22654161182000E+02 0.66916246895232E+00
 s    2 1.00
 0.89791477428000E+01 0.64596683630063E+00
 0.36863002370000E+01 0.38700574393705E+00
 s    1 1.00
 0.84660076805000E+00 0.10000000000000E+01
 s    1 1.00
 0.33647133771000E+00 0.10000000000000E+01
 s    1 1.00
 0.13647653675000E+00 0.10000000000000E+01
 s    1 1.00
 0.68441605847000E-01 0.10000000000000E+01
 p    4 1.00
 0.49200380510000E+02 0.11448825101764E-01
 0.11346790537000E+02 0.78422337970864E-01
 0.34273972411000E+01 0.30818094738830E+00
 0.11785525134000E+01 0.72027196368413E+00
 p    1 1.00
 0.41642204972000E+00 0.10000000000000E+01
 p    1 1.00
 0.14260826011000E+00 0.10000000000000E+01
 d    1 1.00
 0.16540000000000E+01 0.10000000000000E+01
 d    1 1.00
 0.46900000000000E+00 0.10000000000000E+01
 d    1 1.00
 0.12829642058000E+00 0.10000000000000E+01
 f    1 1.00
 0.10930000000000E+01 0.10000000000000E+01
 
   15 0
 s    3 1.00
 0.34061341000000E+02 0.25439307208879E-01
 0.51235746000000E+01 0.19008594890375E+00
 0.11646626000000E+01 0.85244113011042E+00
 s    1 1.00
 0.32723041000000E+00 0.10000000000000E+01
 s    1 1.00
 0.10307241000000E+00 0.10000000000000E+01
 p    1 1.00
 0.80000000000000E+00 0.10000000000000E+01
 p    1 1.00
 0.95774129632000E-01 0.10000000000000E+01
 
   16 0
 s    3 1.00
 0.34061341000000E+02 0.25439307208879E-01
 0.51235746000000E+01 0.19008594890375E+00
 0.11646626000000E+01 0.85244113011042E+00
 s    1 1.00
 0.32723041000000E+00 0.10000000000000E+01
 s    1 1.00
 0.10307241000000E+00 0.10000000000000E+01
 p    1 1.00
 0.80000000000000E+00 0.10000000000000E+01
 p    1 1.00
 0.95774129632000E-01 0.10000000000000E+01
 
[MO]
 Sym= X
 Ene= -0.285862
 Spin= Alpha
 Occup= -0.285862
         1   -2.122792E-05
         2   -4.803423E-05
         3    1.240663E-04
         4   -1.935141E-04
         5   -9.652931E-03
         6   -4.628030E-04
         7   -1.053307E-04
         8   -1.491525E-04
         9   -1.895514E-01
        10   -5.472687E-04
        11   -2.577007E-05
        12   -1.900308E-01
        13    3.676743E-03
        14   -6.185634E-03
        15   -1.113391E-01
        16   -7.452328E-06
        17    1.778817E-06
        18    5.673512E-06
        19    1.286604E-06
        20   -4.982428E-03
        21   -5.476851E-04
        22   -1.022440E-04
        23    6.166698E-05
        24    4.057706E-05
        25    1.761820E-05
        26   -9.483736E-03
        27    3.946481E-04
        28    8.027931E-04
        29   -9.364328E-04
        30    1.336398E-04
        31    4.513308E-04
        32   -2.602926E-03
        33   -6.967249E-04
        34   -4.259399E-06
        35   -6.659699E-07
        36    1.174408E-03
        37    9.784073E-07
        38   -5.262049E-08
        39   -1.419056E-03
        40    4.736176E-06
        41    9.461129E-07
        42   -1.565772E-04
        43    6.898181E-07
        44    1.690070E-06
        45    3.832567E-06
        46   -4.518987E-06
        47   -4.245489E-05
        48    2.124041E-03
        49    1.244238E-04
        50    1.449668E-05
        51    1.260642E-04
        52    5.301352E-05
        53    7.439391E-06
        54    2.144383E-04
        55    6.253990E-05
        56    1.003154E-03
        57   -9.470094E-03
        58    1.122033E-04
        59   -6.087305E-07
        60    3.847340E-07
        61    2.239965E-07
        62    9.699448E-06
        63   -4.947569E-07
        64    7.118823E-03
        65   -9.527637E-07
        66    2.455142E-06
        67   -1.502378E-06
        68    7.367680E-05
        69    1.259622E-06
        70    1.602760E-02
        71    2.513976E-05
        72    1.024546E-05
        73   -3.538523E-05
        74   -1.361891E-03
        75    1.173014E-05
        76    1.383943E-03
        77    1.715790E-07
        78    3.088500E-07
        79   -4.217521E-07
        80   -1.742608E-07
        81    1.652489E-06
        82    2.619964E-07
        83   -5.593659E-08
        84   -2.066855E-06
        85    3.038434E-07
        86    1.013363E-03
        87    2.024888E-05
        88    4.596228E-05
        89   -1.206830E-04
        90    2.264041E-04
        91    5.932382E-03
        92    2.959270E-04
        93    1.018803E-04
        94   -1.546440E-04
        95    1.895622E-01
        96    5.024516E-04
        97   -2.685540E-05
        98    1.900388E-01
        99   -4.703040E-03
       100   -4.387781E-03
       101    1.111814E-01
       102    7.417330E-06
       103   -1.343551E-06
       104   -6.073778E-06
       105    1.068649E-06
       106    4.979805E-03
       107   -5.499661E-04
       108    8.852352E-05
       109   -5.252394E-05
       110   -3.599958E-05
       111    1.524310E-05
       112    9.476975E-03
       113    3.946834E-04
       114   -7.620116E-04
       115    8.432447E-04
       116   -8.123311E-05
       117    5.459991E-04
       118    2.572434E-03
       119   -6.535522E-04
       120    4.048006E-06
       121   -7.490093E-07
       122   -1.174501E-03
       123   -1.026255E-06
       124    2.075634E-07
       125    1.418886E-03
       126   -4.404714E-06
       127    7.973380E-07
       128    1.568720E-04
       129    9.227849E-07
       130   -1.651128E-05
       131   -3.917580E-05
       132    1.441483E-04
       133   -5.678251E-04
       134   -9.394514E-03
       135   -4.385799E-04
       136    1.770131E-04
       137    6.371131E-05
       138    2.001855E-01
       139    3.736409E-04
       140    1.501020E-04
       141    2.028884E-01
       142   -5.311329E-03
       143    6.612874E-03
       144    1.295497E-01
       145   -1.294765E-05
       146    1.196601E-07
       147    1.282799E-05
       148    6.532651E-06
       149   -4.699729E-03
       150   -4.891331E-04
       151   -1.363241E-04
       152    4.311287E-05
       153    9.321119E-05
       154    6.912776E-05
       155   -8.401754E-03
       156   -7.546873E-04
       157    2.182941E-04
       158   -4.195659E-04
       159    2.012718E-04
       160    8.923499E-04
       161   -4.588774E-04
       162   -2.596356E-03
       163    5.186710E-06
       164    1.228267E-06
       165   -1.313313E-03
       166   -3.115204E-06
       167    4.398227E-07
       168    1.467856E-03
       169   -3.843498E-06
       170   -2.087716E-06
       171    2.941388E-04
       172   -4.658590E-05
       173    7.168882E-07
       174    1.487637E-06
       175    3.078828E-06
       176   -6.617198E-06
       177   -2.653283E-03
       178   -1.614364E-04
       179    2.890523E-06
       180   -7.207363E-05
       181   -2.785240E-05
       182    1.227490E-05
       183   -6.904159E-05
       184   -3.579896E-05
       185    9.450859E-04
       186    1.406439E-02
       187   -5.201155E-05
       188    2.805858E-07
       189   -1.604343E-07
       190   -1.201515E-07
       191   -2.358034E-05
       192    1.359474E-06
       193    7.486281E-03
       194   -6.989384E-07
       195   -4.911140E-06
       196    5.610079E-06
       197   -9.138955E-05
       198    6.295159E-06
       199    1.557911E-02
       200   -2.354734E-05
       201   -3.509251E-05
       202    5.863985E-05
       203   -2.530638E-03
       204    7.610606E-06
       205   -3.009928E-03
       206   -9.496203E-08
       207    4.791815E-06
       208    2.234797E-07
       209    2.179622E-07
       210   -3.610259E-06
       211    4.335413E-08
       212   -9.055726E-08
       213   -2.818635E-06
       214   -3.431837E-07
       215   -1.182169E-03
       216    1.790768E-05
       217    4.226636E-05
       218   -1.561503E-04
       219    5.856500E-04
       220    1.373499E-02
       221    6.076776E-04
       222   -1.781685E-04
       223    6.349263E-05
       224   -2.002455E-01
       225   -4.119867E-04
       226    1.769505E-04
       227   -2.029470E-01
       228    4.637910E-03
       229    8.449633E-03
       230   -1.294311E-01
       231    1.297596E-05
       232   -5.452592E-07
       233   -1.243070E-05
       234    6.475322E-06
       235    4.699584E-03
       236   -4.907112E-04
       237    1.461546E-04
       238   -4.648541E-05
       239   -9.966914E-05
       240    7.473871E-05
       241    8.400577E-03
       242   -7.530806E-04
       243   -2.716490E-04
       244    5.347474E-04
       245   -2.630984E-04
       246    8.106061E-04
       247    4.402039E-04
       248   -2.569231E-03
       249   -5.416943E-06
       250    1.330400E-06
       251    1.313726E-03
       252    3.242842E-06
       253    5.943592E-07
       254   -1.468087E-03
       255    4.024749E-06
       256   -2.379279E-06
       257   -2.944615E-04
       258   -4.660226E-05
       259    1.519033E-05
       260    3.116267E-06
       261   -7.732265E-04
       262   -9.930047E-06
       263   -3.773491E-06
       264   -7.765628E-03
       265    6.059225E-05
       266   -3.028658E-04
       267   -7.559216E-03
       268   -1.372473E-05
       269   -2.186284E-05
       270    1.528443E-04
       271    8.634234E-06
       272   -2.385714E-06
       273    7.765676E-03
       274   -1.024127E-04
       275   -1.502360E-04
       276    7.522084E-03
       277    1.627706E-05
       278    1.703091E-05
       279   -1.848431E-03
       280    1.451730E-05
       281    2.504365E-06
       282    8.594929E-03
       283    4.729903E-04
       284    1.510997E-04
       285    9.492911E-03
       286   -1.826084E-05
       287   -6.639420E-06
       288    2.271222E-03
       289   -1.525835E-05
       290    4.222677E-06
       291   -8.597405E-03
       292   -5.036480E-04
       293    2.898791E-04
       294   -9.486065E-03
       295    2.911236E-07
       296    7.003478E-07
       297   -1.277990E-06
       298   -1.182357E-06
       299    1.199340E-04
       300   -6.473057E-05
       301   -1.253132E-05
       302   -3.853751E-05
       303    1.175549E-05
       304   -1.035384E-05
       305   -1.504292E-05
       306    1.221696E-05
       307    1.736884E-05
       308    2.522004E-04
       309    3.276913E-06
       310   -1.268927E-06
       311    1.401985E-06
       312   -1.330579E-07
       313    4.947825E-06
       314    1.115352E-06
       315   -6.045243E-04
       316   -3.667187E-06
       317    4.104319E-06
       318   -4.371323E-07
       319    2.458040E-05
       320    3.577249E-06
       321   -1.351479E-03
       322   -5.596230E-06
       323   -5.600594E-06
       324    1.119682E-05
       325    1.440299E-04
       326    1.605009E-06
       327   -2.066259E-03
       328    2.819316E-08
       329    2.701608E-07
       330   -3.867248E-08
       331   -7.276427E-08
       332    5.897528E-07
       333    2.026844E-07
       334    3.493918E-08
       335   -9.522115E-07
       336   -1.507998E-07
       337    2.759365E-04
       338    1.338899E-06
       339    3.409171E-06
       340   -5.862020E-06
       341    6.519637E-06
       342   -2.317909E-05
       343   -2.067033E-05
       344    7.162278E-05
       345    1.243245E-04
       346   -2.331792E-02
       347    6.673303E-05
       348    1.119219E-04
       349   -2.196721E-02
       350   -4.314474E-05
       351    3.809166E-05
       352   -1.529197E-02
       353   -4.219665E-06
       354   -5.447631E-07
       355    2.437647E-04
       356    1.321405E-06
       357   -1.740174E-06
       358    4.187684E-07
       359    4.790264E-07
       360   -4.066061E-05
       361    1.726664E-04
       362    1.081770E-06
       363   -3.427107E-06
       364    2.345337E-06
       365    2.815707E-06
       366   -1.799200E-04
       367    7.514965E-04
       368   -2.462801E-06
       369    1.271853E-05
       370   -1.025573E-05
       371    6.008233E-06
       372    4.133121E-04
       373   -3.330273E-04
       374    3.095351E-07
       375    3.961432E-07
       376    1.921882E-05
       377   -4.818855E-07
       378   -1.346556E-07
       379    2.666103E-05
       380    6.660068E-08
       381   -3.968264E-07
       382   -5.244579E-05
       383    6.021821E-05
       384   -1.526376E-06
       385   -3.908752E-06
       386    6.870087E-06
       387   -1.094001E-05
       388    5.567840E-05
       389    5.556394E-05
       390   -3.816918E-06
       391    1.105794E-04
       392    2.328238E-02
       393   -6.289367E-06
       394    9.778701E-05
       395    2.193391E-02
       396    8.477769E-05
       397    3.534240E-05
       398    1.526374E-02
       399    1.251849E-05
       400    2.148226E-06
       401   -2.487179E-04
       402   -1.085440E-06
       403    1.689793E-06
       404   -6.043524E-07
       405    1.031996E-06
       406    4.074849E-05
       407    1.725766E-04
       408   -4.091058E-07
       409    3.041210E-06
       410   -2.632104E-06
       411    4.064996E-06
       412    1.799100E-04
       413    7.511244E-04
       414    2.908146E-06
       415   -1.204325E-05
       416    9.135104E-06
       417    5.377493E-06
       418   -4.140440E-04
       419   -3.322430E-04
       420   -3.751964E-07
       421    2.895100E-07
       422   -1.921569E-05
       423    5.974893E-07
       424    6.933538E-08
       425   -2.662241E-05
       426   -9.411056E-08
       427   -4.577539E-07
       428    5.240296E-05
       429    6.018700E-05
       430    3.552390E-07
       431    8.083378E-07
       432   -1.085958E-06
       433   -7.233427E-06
       434   -2.375064E-05
       435    5.470088E-05
       436   -3.024204E-06
       437   -8.567240E-04
       438    3.185405E-05
       439   -1.937982E-06
       440   -1.120959E-03
       441    3.219741E-05
       442   -4.080313E-05
       443   -1.421978E-03
       444    2.385914E-05
       445   -2.609394E-09
       446   -1.924800E-08
       447    2.185740E-08
       448    1.814036E-05
       449    2.542189E-07
       450    2.983536E-04
       451    2.426841E-07
       452    1.023022E-07
       453   -3.449862E-07
       454   -5.250990E-05
       455    1.264761E-06
       456    6.513063E-04
       457    1.144012E-05
       458   -3.522997E-06
       459   -7.917122E-06
       460   -6.392567E-04
       461    2.059766E-06
       462   -1.052526E-03
       463   -3.387896E-08
       464   -4.016412E-06
       465   -1.047175E-07
       466   -1.587112E-09
       467   -1.399535E-05
       468    1.237551E-08
       469    4.704051E-08
       470    1.938393E-05
       471    1.281178E-07
       472   -1.337257E-04
       473    5.932742E-05
       474    5.966496E-04
       475    3.988147E-03
       476   -6.515991E-05
       477   -8.200973E-05
       478    3.756298E-04
       479   -3.012372E-04
       480   -8.508564E-04
       481    1.916358E-03
       482   -5.695108E-05
       483   -5.952276E-04
       484   -3.967990E-03
       485    6.510493E-05
       486   -8.201557E-05
       487   -3.720405E-04
       488    2.846850E-04
       489   -8.587244E-04
       490   -1.909779E-03
 Sym= X
 Ene= -0.608130
 Spin= Alpha
 Occup= -0.608130
         1    1.550282E-04
         2    3.599694E-04
         3   -1.014242E-03
         4    2.245511E-03
         5    1.058883E-02
         6    9.633979E-03
         7   -1.425211E-03
         8   -1.874135E-04
         9   -3.598659E-02
        10    2.069062E-03
        11   -3.587753E-04
        12   -3.391190E-02
        13    3.204811E-02
        14   -9.423218E-03
        15   -7.793308E-03
        16   -1.317897E-06
        17    1.188713E-05
        18   -1.056923E-05
        19    9.885301E-06
        20    6.370720E-03
        21   -4.212825E-03
        22    5.772145E-04
        23   -3.460914E-04
        24   -2.311230E-04
        25    6.086425E-04
        26    1.440292E-02
        27   -7.869987E-03
        28    4.694349E-03
        29   -4.387615E-03
        30   -3.067337E-04
        31   -9.167681E-04
        32   -1.017877E-03
        33    1.007854E-02
        34    1.680640E-05
        35   -6.160927E-06
        36    2.052198E-04
        37   -7.129254E-06
        38    6.417266E-06
        39    6.466725E-04
        40   -1.541890E-05
        41    1.848485E-06
        42   -9.220038E-04
        43    7.411592E-04
        44   -2.699134E-05
        45   -5.925175E-05
        46   -9.813716E-05
        47    2.312600E-03
        48    4.712134E-02
        49   -4.343914E-03
        50   -4.307642E-04
        51   -9.310193E-07
        52   -2.216077E-01
        53    2.636948E-04
        54   -2.036854E-05
        55   -2.293440E-01
        56    1.511898E-02
        57    1.169964E-03
        58   -2.081634E-01
        59   -3.199508E-05
        60    2.977702E-05
        61    2.218057E-06
        62   -9.990927E-08