[Molden Format]
[Title]
ADC(2) - opt by CAM-B3LYP gaussian                                              
[Atoms] AU
 c     1    6 -.12588789760523E+01 -.22833296301999E+01 -.24948636837890E-01
 c     2    6 -.25574931053929E+01 0.00000000000000E+00 -.23691968959520E-01
 c     3    6 -.12588770863262E+01 0.22833296301999E+01 -.24954306016290E-01
 c     4    6 0.13320886199507E+01 0.22850077070059E+01 -.26951746538750E-01
 c     5    6 0.26868238359857E+01 0.00000000000000E+00 -.26437741030600E-01
 c     6    6 0.13320867302245E+01 -.22850077070059E+01 -.26946077360350E-01
 h     7    1 -.22977937121289E+01 -.40382313624087E+01 -.22371050392630E-01
 h     8    1 -.22977918224027E+01 0.40382332521348E+01 -.22380499023300E-01
 h     9    1 0.23512179234159E+01 0.40571966538783E+01 -.29234535707270E-01
 h    10    1 0.23512179234159E+01 -.40571947641522E+01 -.29223197350470E-01
 n    11    7 -.52733186864479E+01 0.00000000000000E+00 -.17996334395000E-01
 o    12    8 -.63812046469225E+01 0.20269448165729E+01 -.15568036314240E-01
 o    13    8 -.63812027571964E+01 -.20269467062990E+01 -.15583154123310E-01
 n    14    7 0.52441127328484E+01 0.00000000000000E+00 -.70347417454330E-01
 h    15    1 0.62045074583774E+01 0.16172030580838E+01 0.18832018534119E+00
 h    16    1 0.62045055686513E+01 -.16172049478099E+01 0.18831451616279E+00
[GTO]
    1 0
 s    6 1.00
 0.13575349682000E+05 0.60645503603591E-03
 0.20352333680000E+04 0.46979088884982E-02
 0.46322562359000E+03 0.24332477647552E-01
 0.13120019598000E+03 0.97399968307759E-01
 0.42853015891000E+02 0.30195584253780E+00
 0.15584185766000E+02 0.66233609137875E+00
 s    2 1.00
 0.62067138508000E+01 0.65595308539952E+00
 0.25764896527000E+01 0.37585633285142E+00
 s    1 1.00
 0.57696339419000E+00 0.10000000000000E+01
 s    1 1.00
 0.22972831358000E+00 0.10000000000000E+01
 s    1 1.00
 0.95164440028000E-01 0.10000000000000E+01
 s    1 1.00
 0.48475401370000E-01 0.10000000000000E+01
 p    4 1.00
 0.34697232244000E+02 0.11327220003114E-01
 0.79582622826000E+01 0.76169659202087E-01
 0.23780826883000E+01 0.30192252202676E+00
 0.81433208183000E+00 0.72785027349547E+00
 p    1 1.00
 0.28887547253000E+00 0.10000000000000E+01
 p    1 1.00
 0.10056823671000E+00 0.10000000000000E+01
 d    1 1.00
 0.10970000000000E+01 0.10000000000000E+01
 d    1 1.00
 0.31800000000000E+00 0.10000000000000E+01
 d    1 1.00
 0.90985336424000E-01 0.10000000000000E+01
 f    1 1.00
 0.76100000000000E+00 0.10000000000000E+01
 
    2 0
 s    6 1.00
 0.13575349682000E+05 0.60645503603591E-03
 0.20352333680000E+04 0.46979088884982E-02
 0.46322562359000E+03 0.24332477647552E-01
 0.13120019598000E+03 0.97399968307759E-01
 0.42853015891000E+02 0.30195584253780E+00
 0.15584185766000E+02 0.66233609137875E+00
 s    2 1.00
 0.62067138508000E+01 0.65595308539952E+00
 0.25764896527000E+01 0.37585633285142E+00
 s    1 1.00
 0.57696339419000E+00 0.10000000000000E+01
 s    1 1.00
 0.22972831358000E+00 0.10000000000000E+01
 s    1 1.00
 0.95164440028000E-01 0.10000000000000E+01
 s    1 1.00
 0.48475401370000E-01 0.10000000000000E+01
 p    4 1.00
 0.34697232244000E+02 0.11327220003114E-01
 0.79582622826000E+01 0.76169659202087E-01
 0.23780826883000E+01 0.30192252202676E+00
 0.81433208183000E+00 0.72785027349547E+00
 p    1 1.00
 0.28887547253000E+00 0.10000000000000E+01
 p    1 1.00
 0.10056823671000E+00 0.10000000000000E+01
 d    1 1.00
 0.10970000000000E+01 0.10000000000000E+01
 d    1 1.00
 0.31800000000000E+00 0.10000000000000E+01
 d    1 1.00
 0.90985336424000E-01 0.10000000000000E+01
 f    1 1.00
 0.76100000000000E+00 0.10000000000000E+01
 
    3 0
 s    6 1.00
 0.13575349682000E+05 0.60645503603591E-03
 0.20352333680000E+04 0.46979088884982E-02
 0.46322562359000E+03 0.24332477647552E-01
 0.13120019598000E+03 0.97399968307759E-01
 0.42853015891000E+02 0.30195584253780E+00
 0.15584185766000E+02 0.66233609137875E+00
 s    2 1.00
 0.62067138508000E+01 0.65595308539952E+00
 0.25764896527000E+01 0.37585633285142E+00
 s    1 1.00
 0.57696339419000E+00 0.10000000000000E+01
 s    1 1.00
 0.22972831358000E+00 0.10000000000000E+01
 s    1 1.00
 0.95164440028000E-01 0.10000000000000E+01
 s    1 1.00
 0.48475401370000E-01 0.10000000000000E+01
 p    4 1.00
 0.34697232244000E+02 0.11327220003114E-01
 0.79582622826000E+01 0.76169659202087E-01
 0.23780826883000E+01 0.30192252202676E+00
 0.81433208183000E+00 0.72785027349547E+00
 p    1 1.00
 0.28887547253000E+00 0.10000000000000E+01
 p    1 1.00
 0.10056823671000E+00 0.10000000000000E+01
 d    1 1.00
 0.10970000000000E+01 0.10000000000000E+01
 d    1 1.00
 0.31800000000000E+00 0.10000000000000E+01
 d    1 1.00
 0.90985336424000E-01 0.10000000000000E+01
 f    1 1.00
 0.76100000000000E+00 0.10000000000000E+01
 
    4 0
 s    6 1.00
 0.13575349682000E+05 0.60645503603591E-03
 0.20352333680000E+04 0.46979088884982E-02
 0.46322562359000E+03 0.24332477647552E-01
 0.13120019598000E+03 0.97399968307759E-01
 0.42853015891000E+02 0.30195584253780E+00
 0.15584185766000E+02 0.66233609137875E+00
 s    2 1.00
 0.62067138508000E+01 0.65595308539952E+00
 0.25764896527000E+01 0.37585633285142E+00
 s    1 1.00
 0.57696339419000E+00 0.10000000000000E+01
 s    1 1.00
 0.22972831358000E+00 0.10000000000000E+01
 s    1 1.00
 0.95164440028000E-01 0.10000000000000E+01
 s    1 1.00
 0.48475401370000E-01 0.10000000000000E+01
 p    4 1.00
 0.34697232244000E+02 0.11327220003114E-01
 0.79582622826000E+01 0.76169659202087E-01
 0.23780826883000E+01 0.30192252202676E+00
 0.81433208183000E+00 0.72785027349547E+00
 p    1 1.00
 0.28887547253000E+00 0.10000000000000E+01
 p    1 1.00
 0.10056823671000E+00 0.10000000000000E+01
 d    1 1.00
 0.10970000000000E+01 0.10000000000000E+01
 d    1 1.00
 0.31800000000000E+00 0.10000000000000E+01
 d    1 1.00
 0.90985336424000E-01 0.10000000000000E+01
 f    1 1.00
 0.76100000000000E+00 0.10000000000000E+01
 
    5 0
 s    6 1.00
 0.13575349682000E+05 0.60645503603591E-03
 0.20352333680000E+04 0.46979088884982E-02
 0.46322562359000E+03 0.24332477647552E-01
 0.13120019598000E+03 0.97399968307759E-01
 0.42853015891000E+02 0.30195584253780E+00
 0.15584185766000E+02 0.66233609137875E+00
 s    2 1.00
 0.62067138508000E+01 0.65595308539952E+00
 0.25764896527000E+01 0.37585633285142E+00
 s    1 1.00
 0.57696339419000E+00 0.10000000000000E+01
 s    1 1.00
 0.22972831358000E+00 0.10000000000000E+01
 s    1 1.00
 0.95164440028000E-01 0.10000000000000E+01
 s    1 1.00
 0.48475401370000E-01 0.10000000000000E+01
 p    4 1.00
 0.34697232244000E+02 0.11327220003114E-01
 0.79582622826000E+01 0.76169659202087E-01
 0.23780826883000E+01 0.30192252202676E+00
 0.81433208183000E+00 0.72785027349547E+00
 p    1 1.00
 0.28887547253000E+00 0.10000000000000E+01
 p    1 1.00
 0.10056823671000E+00 0.10000000000000E+01
 d    1 1.00
 0.10970000000000E+01 0.10000000000000E+01
 d    1 1.00
 0.31800000000000E+00 0.10000000000000E+01
 d    1 1.00
 0.90985336424000E-01 0.10000000000000E+01
 f    1 1.00
 0.76100000000000E+00 0.10000000000000E+01
 
    6 0
 s    6 1.00
 0.13575349682000E+05 0.60645503603591E-03
 0.20352333680000E+04 0.46979088884982E-02
 0.46322562359000E+03 0.24332477647552E-01
 0.13120019598000E+03 0.97399968307759E-01
 0.42853015891000E+02 0.30195584253780E+00
 0.15584185766000E+02 0.66233609137875E+00
 s    2 1.00
 0.62067138508000E+01 0.65595308539952E+00
 0.25764896527000E+01 0.37585633285142E+00
 s    1 1.00
 0.57696339419000E+00 0.10000000000000E+01
 s    1 1.00
 0.22972831358000E+00 0.10000000000000E+01
 s    1 1.00
 0.95164440028000E-01 0.10000000000000E+01
 s    1 1.00
 0.48475401370000E-01 0.10000000000000E+01
 p    4 1.00
 0.34697232244000E+02 0.11327220003114E-01
 0.79582622826000E+01 0.76169659202087E-01
 0.23780826883000E+01 0.30192252202676E+00
 0.81433208183000E+00 0.72785027349547E+00
 p    1 1.00
 0.28887547253000E+00 0.10000000000000E+01
 p    1 1.00
 0.10056823671000E+00 0.10000000000000E+01
 d    1 1.00
 0.10970000000000E+01 0.10000000000000E+01
 d    1 1.00
 0.31800000000000E+00 0.10000000000000E+01
 d    1 1.00
 0.90985336424000E-01 0.10000000000000E+01
 f    1 1.00
 0.76100000000000E+00 0.10000000000000E+01
 
    7 0
 s    3 1.00
 0.34061341000000E+02 0.25439307208879E-01
 0.51235746000000E+01 0.19008594890375E+00
 0.11646626000000E+01 0.85244113011042E+00
 s    1 1.00
 0.32723041000000E+00 0.10000000000000E+01
 s    1 1.00
 0.10307241000000E+00 0.10000000000000E+01
 p    1 1.00
 0.80000000000000E+00 0.10000000000000E+01
 p    1 1.00
 0.95774129632000E-01 0.10000000000000E+01
 
    8 0
 s    3 1.00
 0.34061341000000E+02 0.25439307208879E-01
 0.51235746000000E+01 0.19008594890375E+00
 0.11646626000000E+01 0.85244113011042E+00
 s    1 1.00
 0.32723041000000E+00 0.10000000000000E+01
 s    1 1.00
 0.10307241000000E+00 0.10000000000000E+01
 p    1 1.00
 0.80000000000000E+00 0.10000000000000E+01
 p    1 1.00
 0.95774129632000E-01 0.10000000000000E+01
 
    9 0
 s    3 1.00
 0.34061341000000E+02 0.25439307208879E-01
 0.51235746000000E+01 0.19008594890375E+00
 0.11646626000000E+01 0.85244113011042E+00
 s    1 1.00
 0.32723041000000E+00 0.10000000000000E+01
 s    1 1.00
 0.10307241000000E+00 0.10000000000000E+01
 p    1 1.00
 0.80000000000000E+00 0.10000000000000E+01
 p    1 1.00
 0.95774129632000E-01 0.10000000000000E+01
 
   10 0
 s    3 1.00
 0.34061341000000E+02 0.25439307208879E-01
 0.51235746000000E+01 0.19008594890375E+00
 0.11646626000000E+01 0.85244113011042E+00
 s    1 1.00
 0.32723041000000E+00 0.10000000000000E+01
 s    1 1.00
 0.10307241000000E+00 0.10000000000000E+01
 p    1 1.00
 0.80000000000000E+00 0.10000000000000E+01
 p    1 1.00
 0.95774129632000E-01 0.10000000000000E+01
 
   11 0
 s    6 1.00
 0.19730800647000E+05 0.58626402628763E-03
 0.29578958745000E+04 0.45428820586397E-02
 0.67322133595000E+03 0.23558413450084E-01
 0.19068249494000E+03 0.94709193292923E-01
 0.62295441898000E+02 0.29719784913376E+00
 0.22654161182000E+02 0.66916246895232E+00
 s    2 1.00
 0.89791477428000E+01 0.64596683630063E+00
 0.36863002370000E+01 0.38700574393705E+00
 s    1 1.00
 0.84660076805000E+00 0.10000000000000E+01
 s    1 1.00
 0.33647133771000E+00 0.10000000000000E+01
 s    1 1.00
 0.13647653675000E+00 0.10000000000000E+01
 s    1 1.00
 0.68441605847000E-01 0.10000000000000E+01
 p    4 1.00
 0.49200380510000E+02 0.11448825101764E-01
 0.11346790537000E+02 0.78422337970864E-01
 0.34273972411000E+01 0.30818094738830E+00
 0.11785525134000E+01 0.72027196368413E+00
 p    1 1.00
 0.41642204972000E+00 0.10000000000000E+01
 p    1 1.00
 0.14260826011000E+00 0.10000000000000E+01
 d    1 1.00
 0.16540000000000E+01 0.10000000000000E+01
 d    1 1.00
 0.46900000000000E+00 0.10000000000000E+01
 d    1 1.00
 0.12829642058000E+00 0.10000000000000E+01
 f    1 1.00
 0.10930000000000E+01 0.10000000000000E+01
 
   12 0
 s    6 1.00
 0.27032382631000E+05 0.57227335211155E-03
 0.40523871392000E+04 0.44353233492995E-02
 0.92232722710000E+03 0.23020107706038E-01
 0.26124070989000E+03 0.92822490667928E-01
 0.85354641351000E+02 0.29378500009671E+00
 0.31035035245000E+02 0.67401604501641E+00
 s    2 1.00
 0.12260860728000E+02 0.63839937025506E+00
 0.49987076005000E+01 0.39534587125718E+00
 s    1 1.00
 0.11703108158000E+01 0.10000000000000E+01
 s    1 1.00
 0.46474740994000E+00 0.10000000000000E+01
 s    1 1.00
 0.18504536357000E+00 0.10000000000000E+01
 s    1 1.00
 0.70288026270000E-01 0.10000000000000E+01
 p    4 1.00
 0.63274954801000E+02 0.12018332222616E-01
 0.14627049379000E+02 0.83005421790056E-01
 0.44501223456000E+01 0.31991743925964E+00
 0.15275799647000E+01 0.70715542916104E+00
 p    1 1.00
 0.52935117943000E+00 0.10000000000000E+01
 p    1 1.00
 0.17478421270000E+00 0.10000000000000E+01
 p    1 1.00
 0.51112745706000E-01 0.10000000000000E+01
 d    1 1.00
 0.23140000000000E+01 0.10000000000000E+01
 d    1 1.00
 0.64500000000000E+00 0.10000000000000E+01
 d    1 1.00
 0.14696477366000E+00 0.10000000000000E+01
 f    1 1.00
 0.14280000000000E+01 0.10000000000000E+01
 
   13 0
 s    6 1.00
 0.27032382631000E+05 0.57227335211155E-03
 0.40523871392000E+04 0.44353233492995E-02
 0.92232722710000E+03 0.23020107706038E-01
 0.26124070989000E+03 0.92822490667928E-01
 0.85354641351000E+02 0.29378500009671E+00
 0.31035035245000E+02 0.67401604501641E+00
 s    2 1.00
 0.12260860728000E+02 0.63839937025506E+00
 0.49987076005000E+01 0.39534587125718E+00
 s    1 1.00
 0.11703108158000E+01 0.10000000000000E+01
 s    1 1.00
 0.46474740994000E+00 0.10000000000000E+01
 s    1 1.00
 0.18504536357000E+00 0.10000000000000E+01
 s    1 1.00
 0.70288026270000E-01 0.10000000000000E+01
 p    4 1.00
 0.63274954801000E+02 0.12018332222616E-01
 0.14627049379000E+02 0.83005421790056E-01
 0.44501223456000E+01 0.31991743925964E+00
 0.15275799647000E+01 0.70715542916104E+00
 p    1 1.00
 0.52935117943000E+00 0.10000000000000E+01
 p    1 1.00
 0.17478421270000E+00 0.10000000000000E+01
 p    1 1.00
 0.51112745706000E-01 0.10000000000000E+01
 d    1 1.00
 0.23140000000000E+01 0.10000000000000E+01
 d    1 1.00
 0.64500000000000E+00 0.10000000000000E+01
 d    1 1.00
 0.14696477366000E+00 0.10000000000000E+01
 f    1 1.00
 0.14280000000000E+01 0.10000000000000E+01
 
   14 0
 s    6 1.00
 0.19730800647000E+05 0.58626402628763E-03
 0.29578958745000E+04 0.45428820586397E-02
 0.67322133595000E+03 0.23558413450084E-01
 0.19068249494000E+03 0.94709193292923E-01
 0.62295441898000E+02 0.29719784913376E+00
 0.22654161182000E+02 0.66916246895232E+00
 s    2 1.00
 0.89791477428000E+01 0.64596683630063E+00
 0.36863002370000E+01 0.38700574393705E+00
 s    1 1.00
 0.84660076805000E+00 0.10000000000000E+01
 s    1 1.00
 0.33647133771000E+00 0.10000000000000E+01
 s    1 1.00
 0.13647653675000E+00 0.10000000000000E+01
 s    1 1.00
 0.68441605847000E-01 0.10000000000000E+01
 p    4 1.00
 0.49200380510000E+02 0.11448825101764E-01
 0.11346790537000E+02 0.78422337970864E-01
 0.34273972411000E+01 0.30818094738830E+00
 0.11785525134000E+01 0.72027196368413E+00
 p    1 1.00
 0.41642204972000E+00 0.10000000000000E+01
 p    1 1.00
 0.14260826011000E+00 0.10000000000000E+01
 d    1 1.00
 0.16540000000000E+01 0.10000000000000E+01
 d    1 1.00
 0.46900000000000E+00 0.10000000000000E+01
 d    1 1.00
 0.12829642058000E+00 0.10000000000000E+01
 f    1 1.00
 0.10930000000000E+01 0.10000000000000E+01
 
   15 0
 s    3 1.00
 0.34061341000000E+02 0.25439307208879E-01
 0.51235746000000E+01 0.19008594890375E+00
 0.11646626000000E+01 0.85244113011042E+00
 s    1 1.00
 0.32723041000000E+00 0.10000000000000E+01
 s    1 1.00
 0.10307241000000E+00 0.10000000000000E+01
 p    1 1.00
 0.80000000000000E+00 0.10000000000000E+01
 p    1 1.00
 0.95774129632000E-01 0.10000000000000E+01
 
   16 0
 s    3 1.00
 0.34061341000000E+02 0.25439307208879E-01
 0.51235746000000E+01 0.19008594890375E+00
 0.11646626000000E+01 0.85244113011042E+00
 s    1 1.00
 0.32723041000000E+00 0.10000000000000E+01
 s    1 1.00
 0.10307241000000E+00 0.10000000000000E+01
 p    1 1.00
 0.80000000000000E+00 0.10000000000000E+01
 p    1 1.00
 0.95774129632000E-01 0.10000000000000E+01
 
[MO]
 Sym= X
 Ene= -0.907722
 Spin= Alpha
 Occup= -0.907722
         1    1.856571E-04
         2    4.313931E-04
         3   -1.184115E-03
         4    2.436919E-03
         5    9.004066E-03
         6    1.114054E-02
         7   -1.598877E-03
         8   -1.755123E-04
         9   -1.976012E-02
        10    2.403572E-03
        11   -3.984044E-04
        12   -1.791638E-02
        13    3.492022E-02
        14   -9.585351E-03
        15   -1.209305E-03
        16   -2.720243E-06
        17    1.313036E-05
        18   -1.041012E-05
        19    1.451958E-05
        20    6.195557E-03
        21   -3.652975E-03
        22    6.442189E-04
        23   -3.920003E-04
        24   -2.522186E-04
        25    7.197888E-04
        26    1.396872E-02
        27   -6.924641E-03
        28    4.961345E-03
        29   -4.635474E-03
        30   -3.258710E-04
        31   -1.213266E-03
        32   -1.905222E-03
        33    1.104616E-02
        34    1.889893E-05
        35   -7.107010E-06
        36    7.137719E-05
        37   -7.070701E-06
        38    7.401495E-06
        39    7.075072E-04
        40   -1.828488E-05
        41    2.133560E-06
        42   -8.032697E-04
        43    6.686688E-04
        44   -1.045631E-05
        45   -2.173749E-05
        46   -1.997810E-04
        47    2.771237E-03
        48    4.921435E-02
        49   -5.688888E-03
        50   -3.954943E-04
        51   -2.760845E-05
        52   -1.940924E-01
        53    4.516409E-04
        54   -4.643939E-05
        55   -2.015199E-01
        56    1.653324E-02
        57    1.394536E-03
        58   -1.997397E-01
        59   -3.490303E-05
        60    3.201306E-05
        61    2.889967E-06
        62   -1.219524E-06
        63    8.751552E-04
        64   -6.376051E-07
        65   -3.790833E-04
        66    6.274959E-04
        67   -2.484126E-04
        68   -4.666645E-06
        69    3.658015E-03
        70   -7.013582E-07
        71   -9.269211E-03
        72    1.035381E-02
        73   -1.084597E-03
        74    2.316867E-04
        75   -4.697695E-03
        76    1.563304E-05
        77   -7.472624E-06
        78   -2.685035E-07
        79    1.076321E-03
        80    7.012893E-06
        81    1.133836E-07
        82   -6.605547E-04
        83    3.012685E-06
        84    2.468516E-07
        85   -7.834820E-04
        86   -4.699028E-08
        87    1.918031E-04
        88    4.453534E-04
        89   -1.217323E-03
        90    2.516196E-03
        91    6.554092E-03
        92    1.105220E-02
        93   -1.564410E-03
        94    1.947618E-04
        95   -1.978554E-02
        96    2.430964E-03
        97    3.963434E-04
        98   -1.794004E-02
        99    3.581617E-02
       100    1.106535E-02
       101   -1.306477E-03
       102   -1.742758E-06
       103    1.192621E-05
       104   -1.018345E-05
       105   -1.623055E-05
       106    6.195674E-03
       107    3.653132E-03
       108    6.464458E-04
       109   -3.912151E-04
       110   -2.552307E-04
       111   -7.172126E-04
       112    1.396660E-02
       113    6.924320E-03
       114    5.200731E-03
       115   -4.902802E-03
       116   -2.979295E-04
       117    1.025945E-03
       118   -1.908997E-03
       119   -1.101522E-02
       120    1.906457E-05
       121    7.215228E-06
       122    7.150490E-05
       123   -7.246077E-06
       124   -7.523473E-06
       125    7.073805E-04
       126   -1.833172E-05
       127   -2.156771E-06
       128   -8.033144E-04
       129   -6.686163E-04
       130   -1.211517E-04
       131   -2.620491E-04
       132   -5.822043E-04
       133    1.049408E-02
       134   -2.786583E-02
       135   -1.242269E-02
       136    1.238892E-03
       137   -7.580389E-04
       138    1.516305E-01
       139    9.021337E-03
       140   -6.254928E-03
       141    1.545794E-01
       142    2.447436E-02
       143    7.188468E-03
       144    9.218794E-02
       145   -1.471481E-04
       146    1.784605E-04
       147   -3.131239E-05
       148    3.717163E-06
       149    6.344356E-04
       150   -2.820055E-03
       151   -6.011125E-04
       152    7.464942E-04
       153   -1.453817E-04
       154   -1.697791E-03
       155    3.695889E-03
       156   -4.726004E-03
       157   -8.257332E-03
       158    6.525189E-03
       159    1.732144E-03
       160    8.534928E-03
       161   -3.736319E-03
       162    1.320892E-02
       163    1.426586E-05
       164   -1.036490E-05
       165   -8.425486E-04
       166    1.961774E-05
       167   -1.638264E-05
       168    2.195218E-04
       169   -3.875739E-05
       170    3.028861E-05
       171    9.108759E-04
       172   -3.080305E-04
       173    1.150479E-03
       174    2.620102E-03
       175   -2.736595E-03
       176   -2.159534E-02
       177    1.639334E-02
       178   -9.141573E-03
       179   -9.247542E-03
       180   -3.206124E-06
       181    1.022679E-01
       182   -5.813778E-04
       183    8.234981E-06
       184    1.053005E-01
       185    2.569054E-02
       186   -1.402645E-03
       187    1.332751E-01
       188   -4.785058E-04
       189    2.672715E-04
       190    2.112343E-04
       191   -4.960927E-08
       192   -1.024210E-02
       193   -3.091910E-07
       194    1.871102E-03
       195   -4.095438E-03
       196    2.224336E-03
       197   -2.019690E-06
       198   -2.507904E-02
       199    1.876203E-06
       200    5.837963E-03
       201   -7.082151E-03
       202    1.244188E-03
       203    2.404452E-04
       204   -1.929283E-02
       205    4.736197E-06
       206   -1.177268E-04
       207   -1.729403E-07
       208   -2.263738E-04
       209    8.246520E-05
       210    2.700554E-07
       211   -1.151466E-03
       212    7.548193E-05
       213   -3.803160E-08
       214    1.455178E-03
       215   -7.951706E-08
       216   -1.263886E-04
       217   -2.733782E-04
       218   -5.746046E-04
       219    1.061038E-02
       220   -3.034994E-02
       221   -1.247529E-02
       222    1.272574E-03
       223    7.282368E-04
       224    1.516397E-01
       225    9.035179E-03
       226    6.245355E-03
       227    1.545956E-01
       228    2.348302E-02
       229   -8.834856E-03
       230    9.212299E-02
       231   -1.476811E-04
       232    1.801511E-04
       233   -3.247003E-05
       234   -4.822382E-06
       235    6.339273E-04
       236    2.820162E-03
       237   -5.989953E-04
       238    7.467402E-04
       239   -1.477449E-04
       240    1.698913E-03
       241    3.693462E-03
       242    4.725781E-03
       243   -8.008307E-03
       244    6.261446E-03
       245    1.746861E-03
       246   -8.749528E-03
       247   -3.732150E-03
       248   -1.324951E-02
       249    1.411686E-05
       250    1.035115E-05
       251   -8.428430E-04
       252    1.997743E-05
       253    1.632422E-05
       254    2.198192E-04
       255   -3.891718E-05
       256   -3.021175E-05
       257    9.109733E-04
       258    3.079968E-04
       259    3.342470E-04
       260    1.885376E-04
       261    1.753989E-02
       262    1.244574E-05
       263   -3.508764E-06
       264   -7.710354E-04
       265    5.219656E-03
       266    3.574294E-04
       267    7.007747E-03
       268    3.323032E-04
       269    1.791438E-04
       270    1.732293E-02
       271    1.105944E-05
       272    5.504872E-06
       273   -7.724309E-04
       274    5.339244E-03
       275   -2.516916E-04
       276    6.982599E-03
       277    3.879842E-04
       278    2.301725E-03
       279   -3.392497E-02
       280    1.142834E-05
       281   -9.374112E-05
       282    6.142936E-03
       283    1.899735E-03
       284    2.664065E-03
       285   -2.505829E-03
       286    4.165242E-04
       287    2.343000E-03
       288   -3.431547E-02
       289    9.572150E-06
       290    9.712584E-05
       291    6.143655E-03
       292    1.806561E-03
       293   -2.797351E-03
       294   -2.535218E-03
       295    4.269467E-05
       296    9.855727E-05
       297   -7.801587E-05
       298   -4.133967E-04
       299    7.144706E-03
       300   -6.060591E-04
       301   -4.034678E-04
       302   -1.161784E-05
       303   -2.147640E-02
       304   -9.726761E-05
       305   -7.818271E-06
       306   -2.384800E-02
       307    3.125904E-03
       308   -3.358766E-05
       309   -9.382525E-03
       310   -1.960224E-05
       311    5.360513E-06
       312    1.424173E-05
       313    2.872075E-06
       314   -4.282622E-03
       315   -7.683507E-07
       316    2.377592E-06
       317   -6.521215E-05
       318    6.283456E-05
       319    8.026707E-06
       320   -1.291638E-02
       321   -2.056068E-06
       322    9.780613E-04
       323   -2.804030E-03
       324    1.825969E-03
       325   -4.193902E-05
       326   -2.892829E-03
       327   -3.081054E-06
       328   -6.658353E-06
       329    6.876795E-07
       330   -2.315971E-06
       331    4.863349E-06
       332   -1.002505E-06
       333   -6.767684E-04
       334    4.069770E-06
       335    7.988599E-08
       336    6.798756E-04
       337    1.195933E-07
       338    1.296797E-05
       339    2.801942E-05
       340    3.618476E-06
       341   -5.038554E-04
       342    5.810757E-03
       343    8.986151E-04
       344    2.785805E-04
       345   -2.678773E-05
       346    7.632930E-02
       347    3.583377E-04
       348   -1.684599E-04
       349    7.081740E-02
       350    1.475656E-03
       351   -4.421022E-04
       352    5.810642E-02
       353    1.793902E-04
       354   -1.961077E-04
       355    7.300926E-03
       356   -2.662933E-06
       357    2.950273E-06
       358   -2.873392E-07
       359   -2.624863E-07
       360   -2.257867E-05
       361   -4.379869E-04
       362    1.458653E-05
       363    7.215123E-06
       364   -2.180166E-05
       365   -1.168951E-05
       366    4.657283E-04
       367   -1.472000E-03
       368    8.118042E-05
       369   -5.452389E-05
       370   -2.665653E-05
       371   -7.974607E-05
       372    8.684089E-05
       373   -2.260431E-04
       374   -6.506052E-07
       375   -1.194697E-06
       376   -5.917255E-05
       377    1.187464E-06
       378   -3.347522E-08
       379   -8.119322E-05
       380   -3.145860E-07
       381    1.636330E-06
       382    1.605815E-04
       383   -1.265440E-04
       384    4.575688E-06
       385    7.629207E-06
       386    3.234938E-05
       387   -4.624701E-04
       388    5.842589E-03
       389    8.524294E-04
       390    1.114062E-04
       391    1.560410E-04
       392    7.636923E-02
       393    2.075421E-04
       394    2.825902E-04
       395    7.085421E-02
       396    1.322781E-03
       397    5.272515E-04
       398    5.812989E-02
       399    1.445104E-04
       400    2.089259E-04
       401    7.309672E-03
       402   -3.862976E-06
       403    4.531278E-06
       404   -6.683017E-07
       405    2.742013E-07
       406   -2.232660E-05
       407    4.383091E-04
       408    1.034239E-05
       409    1.157422E-05
       410   -2.191661E-05
       411    1.054547E-05
       412    4.663386E-04
       413    1.473118E-03
       414    7.655098E-05
       415   -5.173961E-05
       416   -2.481137E-05
       417    7.734149E-05
       418    8.860431E-05
       419    2.263151E-04
       420   -8.051250E-07
       421    1.670592E-06
       422   -5.923801E-05
       423    1.459985E-06
       424   -4.985471E-07
       425   -8.119648E-05
       426   -3.797967E-07
       427   -1.742787E-06
       428    1.606726E-04
       429    1.266587E-04
       430   -4.985267E-03
       431   -1.182277E-02
       432    1.834803E-02
       433    2.841381E-02
       434    2.190304E-02
       435    6.720930E-02
       436    1.742911E-02
       437    5.917421E-06
       438   -2.675634E-01
       439    1.989986E-02
       440    1.374194E-05
       441   -2.641347E-01
       442    1.871930E-02
       443    1.254439E-04
       444   -2.144354E-01
       445    1.028542E-04
       446    1.902880E-05
       447   -1.218830E-04
       448    1.505704E-07
       449   -6.084301E-04
       450   -1.549800E-07
       451    2.189134E-04
       452    1.567568E-03
       453   -1.786481E-03
       454    5.022572E-06
       455   -3.266636E-03
       456   -7.626954E-07
       457    1.619729E-03
       458    3.147204E-03
       459   -4.766932E-03
       460    1.073673E-05
       461   -2.054380E-03
       462   -1.014381E-05
       463    1.361393E-04
       464    2.591749E-08
       465    1.088756E-03
       466    9.043486E-05
       467    1.245553E-08
       468   -6.156142E-04
       469   -2.730849E-04
       470   -4.722749E-08
       471   -8.451058E-04
       472   -1.157621E-08
       473   -9.232600E-03
       474   -1.769269E-02
       475   -2.967962E-02
       476    2.281845E-03
       477    1.890587E-03
       478   -1.350589E-02
       479   -1.165294E-03
       480    3.458650E-03
       481   -1.512087E-02
       482   -9.239669E-03
       483   -1.763080E-02
       484   -2.938167E-02
       485    2.279313E-03
       486   -1.884286E-03
       487   -1.350949E-02
       488   -1.193365E-03
       489   -3.407278E-03
       490   -1.513634E-02
 Sym= X
 Ene= 0.907722
 Spin= Alpha
 Occup= 0.907722
         1    7.015775E-03
         2    1.555594E-02
         3   -1.975424E-02
         4   -1.414803E-01
         5    2.261823E+00
         6    1.180124E-01
         7    1.944019E-02
         8    9.682814E-03
         9   -1.755075E-03
        10    1.224615E-01
        11    1.116620E-02
        12   -3.098028E-03
        13    1.049508E+00
        14    7.169785E-01
        15   -2.577425E-02
        16   -1.647985E-03
        17   -3.101927E-04
        18    1.958177E-03
        19    1.674208E-03
        20   -5.375735E-05
        21    9.005844E-05
        22    1.245606E-02
        23   -1.835972E-02
        24    5.903661E-03
        25    3.610856E-03
        26   -6.691401E-04
        27    2.471820E-04
        28    5.577488E-01
        29   -3.463903E-01
        30   -2.113584E-01
        31    3.879892E-01
        32    5.392605E-03
        33   -1.520851E-02
        34    9.790227E-05
        35    1.142895E-04
        36   -9.962728E-06
        37    5.735702E-04
        38    3.759112E-05
        39   -1.366995E-05
        40   -7.049199E-04
        41   -1.909265E-04
        42    2.703635E-05
        43   -1.532220E-05
        44    7.679395E-03
        45    1.682112E-02
        46   -1.003372E-02
        47   -2.384474E-01
        48   -1.239230E-01
        49    1.260123E+00
        50    6.776924E-03
        51   -1.833056E-07
        52    3.488953E-03
        53    8.700152E-02
        54    8.178947E-05
        55    1.429758E-03
        56    1.091453E+00
        57    5.951883E-03
        58    6.416268E-02
        59    1.532972E-03
        60   -3.827900E-03
        61    2.294928E-03
        62    2.223981E-07