[Molden Format]
[Title]
ADC(2) - opt by CAM-B3LYP gaussian                                              
[Atoms] AU
 c     1    6 -.12588789760523E+01 -.22833296301999E+01 -.24948636837890E-01
 c     2    6 -.25574931053929E+01 0.00000000000000E+00 -.23691968959520E-01
 c     3    6 -.12588770863262E+01 0.22833296301999E+01 -.24954306016290E-01
 c     4    6 0.13320886199507E+01 0.22850077070059E+01 -.26951746538750E-01
 c     5    6 0.26868238359857E+01 0.00000000000000E+00 -.26437741030600E-01
 c     6    6 0.13320867302245E+01 -.22850077070059E+01 -.26946077360350E-01
 h     7    1 -.22977937121289E+01 -.40382313624087E+01 -.22371050392630E-01
 h     8    1 -.22977918224027E+01 0.40382332521348E+01 -.22380499023300E-01
 h     9    1 0.23512179234159E+01 0.40571966538783E+01 -.29234535707270E-01
 h    10    1 0.23512179234159E+01 -.40571947641522E+01 -.29223197350470E-01
 n    11    7 -.52733186864479E+01 0.00000000000000E+00 -.17996334395000E-01
 o    12    8 -.63812046469225E+01 0.20269448165729E+01 -.15568036314240E-01
 o    13    8 -.63812027571964E+01 -.20269467062990E+01 -.15583154123310E-01
 n    14    7 0.52441127328484E+01 0.00000000000000E+00 -.70347417454330E-01
 h    15    1 0.62045074583774E+01 0.16172030580838E+01 0.18832018534119E+00
 h    16    1 0.62045055686513E+01 -.16172049478099E+01 0.18831451616279E+00
[GTO]
    1 0
 s    6 1.00
 0.13575349682000E+05 0.60645503603591E-03
 0.20352333680000E+04 0.46979088884982E-02
 0.46322562359000E+03 0.24332477647552E-01
 0.13120019598000E+03 0.97399968307759E-01
 0.42853015891000E+02 0.30195584253780E+00
 0.15584185766000E+02 0.66233609137875E+00
 s    2 1.00
 0.62067138508000E+01 0.65595308539952E+00
 0.25764896527000E+01 0.37585633285142E+00
 s    1 1.00
 0.57696339419000E+00 0.10000000000000E+01
 s    1 1.00
 0.22972831358000E+00 0.10000000000000E+01
 s    1 1.00
 0.95164440028000E-01 0.10000000000000E+01
 s    1 1.00
 0.48475401370000E-01 0.10000000000000E+01
 p    4 1.00
 0.34697232244000E+02 0.11327220003114E-01
 0.79582622826000E+01 0.76169659202087E-01
 0.23780826883000E+01 0.30192252202676E+00
 0.81433208183000E+00 0.72785027349547E+00
 p    1 1.00
 0.28887547253000E+00 0.10000000000000E+01
 p    1 1.00
 0.10056823671000E+00 0.10000000000000E+01
 d    1 1.00
 0.10970000000000E+01 0.10000000000000E+01
 d    1 1.00
 0.31800000000000E+00 0.10000000000000E+01
 d    1 1.00
 0.90985336424000E-01 0.10000000000000E+01
 f    1 1.00
 0.76100000000000E+00 0.10000000000000E+01
 
    2 0
 s    6 1.00
 0.13575349682000E+05 0.60645503603591E-03
 0.20352333680000E+04 0.46979088884982E-02
 0.46322562359000E+03 0.24332477647552E-01
 0.13120019598000E+03 0.97399968307759E-01
 0.42853015891000E+02 0.30195584253780E+00
 0.15584185766000E+02 0.66233609137875E+00
 s    2 1.00
 0.62067138508000E+01 0.65595308539952E+00
 0.25764896527000E+01 0.37585633285142E+00
 s    1 1.00
 0.57696339419000E+00 0.10000000000000E+01
 s    1 1.00
 0.22972831358000E+00 0.10000000000000E+01
 s    1 1.00
 0.95164440028000E-01 0.10000000000000E+01
 s    1 1.00
 0.48475401370000E-01 0.10000000000000E+01
 p    4 1.00
 0.34697232244000E+02 0.11327220003114E-01
 0.79582622826000E+01 0.76169659202087E-01
 0.23780826883000E+01 0.30192252202676E+00
 0.81433208183000E+00 0.72785027349547E+00
 p    1 1.00
 0.28887547253000E+00 0.10000000000000E+01
 p    1 1.00
 0.10056823671000E+00 0.10000000000000E+01
 d    1 1.00
 0.10970000000000E+01 0.10000000000000E+01
 d    1 1.00
 0.31800000000000E+00 0.10000000000000E+01
 d    1 1.00
 0.90985336424000E-01 0.10000000000000E+01
 f    1 1.00
 0.76100000000000E+00 0.10000000000000E+01
 
    3 0
 s    6 1.00
 0.13575349682000E+05 0.60645503603591E-03
 0.20352333680000E+04 0.46979088884982E-02
 0.46322562359000E+03 0.24332477647552E-01
 0.13120019598000E+03 0.97399968307759E-01
 0.42853015891000E+02 0.30195584253780E+00
 0.15584185766000E+02 0.66233609137875E+00
 s    2 1.00
 0.62067138508000E+01 0.65595308539952E+00
 0.25764896527000E+01 0.37585633285142E+00
 s    1 1.00
 0.57696339419000E+00 0.10000000000000E+01
 s    1 1.00
 0.22972831358000E+00 0.10000000000000E+01
 s    1 1.00
 0.95164440028000E-01 0.10000000000000E+01
 s    1 1.00
 0.48475401370000E-01 0.10000000000000E+01
 p    4 1.00
 0.34697232244000E+02 0.11327220003114E-01
 0.79582622826000E+01 0.76169659202087E-01
 0.23780826883000E+01 0.30192252202676E+00
 0.81433208183000E+00 0.72785027349547E+00
 p    1 1.00
 0.28887547253000E+00 0.10000000000000E+01
 p    1 1.00
 0.10056823671000E+00 0.10000000000000E+01
 d    1 1.00
 0.10970000000000E+01 0.10000000000000E+01
 d    1 1.00
 0.31800000000000E+00 0.10000000000000E+01
 d    1 1.00
 0.90985336424000E-01 0.10000000000000E+01
 f    1 1.00
 0.76100000000000E+00 0.10000000000000E+01
 
    4 0
 s    6 1.00
 0.13575349682000E+05 0.60645503603591E-03
 0.20352333680000E+04 0.46979088884982E-02
 0.46322562359000E+03 0.24332477647552E-01
 0.13120019598000E+03 0.97399968307759E-01
 0.42853015891000E+02 0.30195584253780E+00
 0.15584185766000E+02 0.66233609137875E+00
 s    2 1.00
 0.62067138508000E+01 0.65595308539952E+00
 0.25764896527000E+01 0.37585633285142E+00
 s    1 1.00
 0.57696339419000E+00 0.10000000000000E+01
 s    1 1.00
 0.22972831358000E+00 0.10000000000000E+01
 s    1 1.00
 0.95164440028000E-01 0.10000000000000E+01
 s    1 1.00
 0.48475401370000E-01 0.10000000000000E+01
 p    4 1.00
 0.34697232244000E+02 0.11327220003114E-01
 0.79582622826000E+01 0.76169659202087E-01
 0.23780826883000E+01 0.30192252202676E+00
 0.81433208183000E+00 0.72785027349547E+00
 p    1 1.00
 0.28887547253000E+00 0.10000000000000E+01
 p    1 1.00
 0.10056823671000E+00 0.10000000000000E+01
 d    1 1.00
 0.10970000000000E+01 0.10000000000000E+01
 d    1 1.00
 0.31800000000000E+00 0.10000000000000E+01
 d    1 1.00
 0.90985336424000E-01 0.10000000000000E+01
 f    1 1.00
 0.76100000000000E+00 0.10000000000000E+01
 
    5 0
 s    6 1.00
 0.13575349682000E+05 0.60645503603591E-03
 0.20352333680000E+04 0.46979088884982E-02
 0.46322562359000E+03 0.24332477647552E-01
 0.13120019598000E+03 0.97399968307759E-01
 0.42853015891000E+02 0.30195584253780E+00
 0.15584185766000E+02 0.66233609137875E+00
 s    2 1.00
 0.62067138508000E+01 0.65595308539952E+00
 0.25764896527000E+01 0.37585633285142E+00
 s    1 1.00
 0.57696339419000E+00 0.10000000000000E+01
 s    1 1.00
 0.22972831358000E+00 0.10000000000000E+01
 s    1 1.00
 0.95164440028000E-01 0.10000000000000E+01
 s    1 1.00
 0.48475401370000E-01 0.10000000000000E+01
 p    4 1.00
 0.34697232244000E+02 0.11327220003114E-01
 0.79582622826000E+01 0.76169659202087E-01
 0.23780826883000E+01 0.30192252202676E+00
 0.81433208183000E+00 0.72785027349547E+00
 p    1 1.00
 0.28887547253000E+00 0.10000000000000E+01
 p    1 1.00
 0.10056823671000E+00 0.10000000000000E+01
 d    1 1.00
 0.10970000000000E+01 0.10000000000000E+01
 d    1 1.00
 0.31800000000000E+00 0.10000000000000E+01
 d    1 1.00
 0.90985336424000E-01 0.10000000000000E+01
 f    1 1.00
 0.76100000000000E+00 0.10000000000000E+01
 
    6 0
 s    6 1.00
 0.13575349682000E+05 0.60645503603591E-03
 0.20352333680000E+04 0.46979088884982E-02
 0.46322562359000E+03 0.24332477647552E-01
 0.13120019598000E+03 0.97399968307759E-01
 0.42853015891000E+02 0.30195584253780E+00
 0.15584185766000E+02 0.66233609137875E+00
 s    2 1.00
 0.62067138508000E+01 0.65595308539952E+00
 0.25764896527000E+01 0.37585633285142E+00
 s    1 1.00
 0.57696339419000E+00 0.10000000000000E+01
 s    1 1.00
 0.22972831358000E+00 0.10000000000000E+01
 s    1 1.00
 0.95164440028000E-01 0.10000000000000E+01
 s    1 1.00
 0.48475401370000E-01 0.10000000000000E+01
 p    4 1.00
 0.34697232244000E+02 0.11327220003114E-01
 0.79582622826000E+01 0.76169659202087E-01
 0.23780826883000E+01 0.30192252202676E+00
 0.81433208183000E+00 0.72785027349547E+00
 p    1 1.00
 0.28887547253000E+00 0.10000000000000E+01
 p    1 1.00
 0.10056823671000E+00 0.10000000000000E+01
 d    1 1.00
 0.10970000000000E+01 0.10000000000000E+01
 d    1 1.00
 0.31800000000000E+00 0.10000000000000E+01
 d    1 1.00
 0.90985336424000E-01 0.10000000000000E+01
 f    1 1.00
 0.76100000000000E+00 0.10000000000000E+01
 
    7 0
 s    3 1.00
 0.34061341000000E+02 0.25439307208879E-01
 0.51235746000000E+01 0.19008594890375E+00
 0.11646626000000E+01 0.85244113011042E+00
 s    1 1.00
 0.32723041000000E+00 0.10000000000000E+01
 s    1 1.00
 0.10307241000000E+00 0.10000000000000E+01
 p    1 1.00
 0.80000000000000E+00 0.10000000000000E+01
 p    1 1.00
 0.95774129632000E-01 0.10000000000000E+01
 
    8 0
 s    3 1.00
 0.34061341000000E+02 0.25439307208879E-01
 0.51235746000000E+01 0.19008594890375E+00
 0.11646626000000E+01 0.85244113011042E+00
 s    1 1.00
 0.32723041000000E+00 0.10000000000000E+01
 s    1 1.00
 0.10307241000000E+00 0.10000000000000E+01
 p    1 1.00
 0.80000000000000E+00 0.10000000000000E+01
 p    1 1.00
 0.95774129632000E-01 0.10000000000000E+01
 
    9 0
 s    3 1.00
 0.34061341000000E+02 0.25439307208879E-01
 0.51235746000000E+01 0.19008594890375E+00
 0.11646626000000E+01 0.85244113011042E+00
 s    1 1.00
 0.32723041000000E+00 0.10000000000000E+01
 s    1 1.00
 0.10307241000000E+00 0.10000000000000E+01
 p    1 1.00
 0.80000000000000E+00 0.10000000000000E+01
 p    1 1.00
 0.95774129632000E-01 0.10000000000000E+01
 
   10 0
 s    3 1.00
 0.34061341000000E+02 0.25439307208879E-01
 0.51235746000000E+01 0.19008594890375E+00
 0.11646626000000E+01 0.85244113011042E+00
 s    1 1.00
 0.32723041000000E+00 0.10000000000000E+01
 s    1 1.00
 0.10307241000000E+00 0.10000000000000E+01
 p    1 1.00
 0.80000000000000E+00 0.10000000000000E+01
 p    1 1.00
 0.95774129632000E-01 0.10000000000000E+01
 
   11 0
 s    6 1.00
 0.19730800647000E+05 0.58626402628763E-03
 0.29578958745000E+04 0.45428820586397E-02
 0.67322133595000E+03 0.23558413450084E-01
 0.19068249494000E+03 0.94709193292923E-01
 0.62295441898000E+02 0.29719784913376E+00
 0.22654161182000E+02 0.66916246895232E+00
 s    2 1.00
 0.89791477428000E+01 0.64596683630063E+00
 0.36863002370000E+01 0.38700574393705E+00
 s    1 1.00
 0.84660076805000E+00 0.10000000000000E+01
 s    1 1.00
 0.33647133771000E+00 0.10000000000000E+01
 s    1 1.00
 0.13647653675000E+00 0.10000000000000E+01
 s    1 1.00
 0.68441605847000E-01 0.10000000000000E+01
 p    4 1.00
 0.49200380510000E+02 0.11448825101764E-01
 0.11346790537000E+02 0.78422337970864E-01
 0.34273972411000E+01 0.30818094738830E+00
 0.11785525134000E+01 0.72027196368413E+00
 p    1 1.00
 0.41642204972000E+00 0.10000000000000E+01
 p    1 1.00
 0.14260826011000E+00 0.10000000000000E+01
 d    1 1.00
 0.16540000000000E+01 0.10000000000000E+01
 d    1 1.00
 0.46900000000000E+00 0.10000000000000E+01
 d    1 1.00
 0.12829642058000E+00 0.10000000000000E+01
 f    1 1.00
 0.10930000000000E+01 0.10000000000000E+01
 
   12 0
 s    6 1.00
 0.27032382631000E+05 0.57227335211155E-03
 0.40523871392000E+04 0.44353233492995E-02
 0.92232722710000E+03 0.23020107706038E-01
 0.26124070989000E+03 0.92822490667928E-01
 0.85354641351000E+02 0.29378500009671E+00
 0.31035035245000E+02 0.67401604501641E+00
 s    2 1.00
 0.12260860728000E+02 0.63839937025506E+00
 0.49987076005000E+01 0.39534587125718E+00
 s    1 1.00
 0.11703108158000E+01 0.10000000000000E+01
 s    1 1.00
 0.46474740994000E+00 0.10000000000000E+01
 s    1 1.00
 0.18504536357000E+00 0.10000000000000E+01
 s    1 1.00
 0.70288026270000E-01 0.10000000000000E+01
 p    4 1.00
 0.63274954801000E+02 0.12018332222616E-01
 0.14627049379000E+02 0.83005421790056E-01
 0.44501223456000E+01 0.31991743925964E+00
 0.15275799647000E+01 0.70715542916104E+00
 p    1 1.00
 0.52935117943000E+00 0.10000000000000E+01
 p    1 1.00
 0.17478421270000E+00 0.10000000000000E+01
 p    1 1.00
 0.51112745706000E-01 0.10000000000000E+01
 d    1 1.00
 0.23140000000000E+01 0.10000000000000E+01
 d    1 1.00
 0.64500000000000E+00 0.10000000000000E+01
 d    1 1.00
 0.14696477366000E+00 0.10000000000000E+01
 f    1 1.00
 0.14280000000000E+01 0.10000000000000E+01
 
   13 0
 s    6 1.00
 0.27032382631000E+05 0.57227335211155E-03
 0.40523871392000E+04 0.44353233492995E-02
 0.92232722710000E+03 0.23020107706038E-01
 0.26124070989000E+03 0.92822490667928E-01
 0.85354641351000E+02 0.29378500009671E+00
 0.31035035245000E+02 0.67401604501641E+00
 s    2 1.00
 0.12260860728000E+02 0.63839937025506E+00
 0.49987076005000E+01 0.39534587125718E+00
 s    1 1.00
 0.11703108158000E+01 0.10000000000000E+01
 s    1 1.00
 0.46474740994000E+00 0.10000000000000E+01
 s    1 1.00
 0.18504536357000E+00 0.10000000000000E+01
 s    1 1.00
 0.70288026270000E-01 0.10000000000000E+01
 p    4 1.00
 0.63274954801000E+02 0.12018332222616E-01
 0.14627049379000E+02 0.83005421790056E-01
 0.44501223456000E+01 0.31991743925964E+00
 0.15275799647000E+01 0.70715542916104E+00
 p    1 1.00
 0.52935117943000E+00 0.10000000000000E+01
 p    1 1.00
 0.17478421270000E+00 0.10000000000000E+01
 p    1 1.00
 0.51112745706000E-01 0.10000000000000E+01
 d    1 1.00
 0.23140000000000E+01 0.10000000000000E+01
 d    1 1.00
 0.64500000000000E+00 0.10000000000000E+01
 d    1 1.00
 0.14696477366000E+00 0.10000000000000E+01
 f    1 1.00
 0.14280000000000E+01 0.10000000000000E+01
 
   14 0
 s    6 1.00
 0.19730800647000E+05 0.58626402628763E-03
 0.29578958745000E+04 0.45428820586397E-02
 0.67322133595000E+03 0.23558413450084E-01
 0.19068249494000E+03 0.94709193292923E-01
 0.62295441898000E+02 0.29719784913376E+00
 0.22654161182000E+02 0.66916246895232E+00
 s    2 1.00
 0.89791477428000E+01 0.64596683630063E+00
 0.36863002370000E+01 0.38700574393705E+00
 s    1 1.00
 0.84660076805000E+00 0.10000000000000E+01
 s    1 1.00
 0.33647133771000E+00 0.10000000000000E+01
 s    1 1.00
 0.13647653675000E+00 0.10000000000000E+01
 s    1 1.00
 0.68441605847000E-01 0.10000000000000E+01
 p    4 1.00
 0.49200380510000E+02 0.11448825101764E-01
 0.11346790537000E+02 0.78422337970864E-01
 0.34273972411000E+01 0.30818094738830E+00
 0.11785525134000E+01 0.72027196368413E+00
 p    1 1.00
 0.41642204972000E+00 0.10000000000000E+01
 p    1 1.00
 0.14260826011000E+00 0.10000000000000E+01
 d    1 1.00
 0.16540000000000E+01 0.10000000000000E+01
 d    1 1.00
 0.46900000000000E+00 0.10000000000000E+01
 d    1 1.00
 0.12829642058000E+00 0.10000000000000E+01
 f    1 1.00
 0.10930000000000E+01 0.10000000000000E+01
 
   15 0
 s    3 1.00
 0.34061341000000E+02 0.25439307208879E-01
 0.51235746000000E+01 0.19008594890375E+00
 0.11646626000000E+01 0.85244113011042E+00
 s    1 1.00
 0.32723041000000E+00 0.10000000000000E+01
 s    1 1.00
 0.10307241000000E+00 0.10000000000000E+01
 p    1 1.00
 0.80000000000000E+00 0.10000000000000E+01
 p    1 1.00
 0.95774129632000E-01 0.10000000000000E+01
 
   16 0
 s    3 1.00
 0.34061341000000E+02 0.25439307208879E-01
 0.51235746000000E+01 0.19008594890375E+00
 0.11646626000000E+01 0.85244113011042E+00
 s    1 1.00
 0.32723041000000E+00 0.10000000000000E+01
 s    1 1.00
 0.10307241000000E+00 0.10000000000000E+01
 p    1 1.00
 0.80000000000000E+00 0.10000000000000E+01
 p    1 1.00
 0.95774129632000E-01 0.10000000000000E+01
 
[MO]
 Sym= X
 Ene= -0.897951
 Spin= Alpha
 Occup= -0.897951
         1   -1.400566E-04
         2   -3.284508E-04
         3    9.915998E-04
         4   -2.451472E-03
         5   -1.001102E-02
         6   -1.024656E-02
         7    1.653794E-03
         8    3.836588E-04
         9    2.631048E-02
        10   -2.091443E-03
        11    5.434226E-04
        12    2.440335E-02
        13   -3.328220E-02
        14    9.601427E-03
        15    4.042709E-03
        16    3.968050E-06
        17   -1.613338E-05
        18    1.216533E-05
        19   -1.844450E-05
        20   -6.332360E-03
        21    3.904114E-03
        22   -6.054681E-04
        23    3.644303E-04
        24    2.410378E-04
        25   -6.610162E-04
        26   -1.428008E-02
        27    7.351810E-03
        28   -4.811576E-03
        29    4.500236E-03
        30    3.113397E-04
        31    9.958879E-04
        32    1.434987E-03
        33   -1.046325E-02
        34   -1.767989E-05
        35    7.487300E-06
        36   -1.227240E-04
        37    7.763683E-06
        38   -7.245156E-06
        39   -6.926171E-04
        40    1.595637E-05
        41   -2.800111E-06
        42    8.572687E-04
        43   -7.048902E-04
        44    2.061579E-05
        45    4.337778E-05
        46    1.506467E-04
        47   -2.521674E-03
        48   -4.833921E-02
        49    4.900068E-03
        50    5.191516E-04
        51    1.577808E-06
        52    2.065075E-01
        53   -2.661964E-04
        54    2.040285E-05
        55    2.141949E-01
        56   -1.573999E-02
        57   -1.245660E-03
        58    2.038180E-01
        59    3.661490E-05
        60   -3.397981E-05
        61   -2.635090E-06
        62    1.281161E-07
        63   -7.537847E-04
        64    3.293280E-07
        65    3.493247E-04
        66   -5.817733E-04
        67    2.324486E-04
        68    4.586595E-06
        69   -3.499153E-03
        70    1.552193E-07
        71    8.344241E-03
        72   -9.390431E-03
        73    1.046190E-03
        74   -2.087466E-04
        75    5.140373E-03
        76   -1.468779E-05
        77    8.054494E-06
        78    4.351966E-08
        79   -1.165563E-03
        80   -6.464808E-06
        81    3.827855E-08
        82    7.069098E-04
        83   -4.341430E-06
        84   -9.666629E-08
        85    8.568573E-04
        86    2.251179E-08
        87   -1.402356E-04
        88   -3.289756E-04
        89    1.000366E-03
        90   -2.527964E-03
        91   -7.812725E-03
        92   -1.017569E-02
        93    1.655032E-03
        94   -3.861343E-04
        95    2.632207E-02
        96   -2.078963E-03
        97   -5.301934E-04
        98    2.441308E-02
        99   -3.405988E-02
       100   -1.094369E-02
       101    4.131047E-03
       102    3.790034E-06
       103   -1.612992E-05
       104    1.233988E-05
       105    1.876628E-05
       106   -6.332822E-03
       107   -3.904231E-03
       108   -6.021849E-04
       109    3.597741E-04
       110    2.424109E-04
       111    6.574285E-04
       112   -1.427835E-02
       113   -7.351394E-03
       114   -5.039279E-03
       115    4.752991E-03
       116    2.862876E-04
       117   -8.344338E-04
       118    1.440217E-03
       119    1.043487E-02
       120   -1.784200E-05
       121   -7.469590E-06
       122   -1.227565E-04
       123    8.055589E-06
       124    7.249694E-06
       125   -6.926016E-04
       126    1.588197E-05
       127    2.771813E-06
       128    8.572967E-04
       129    7.048224E-04
       130    6.960931E-05
       131    1.474820E-04
       132    6.766286E-04
       133   -9.491822E-03
       134    2.818128E-02
       135    1.142180E-02
       136   -1.197058E-03
       137    6.843303E-04
       138   -1.529219E-01
       139   -8.350982E-03
       140    5.756882E-03
       141   -1.557949E-01
       142   -2.372236E-02
       143   -6.272652E-03
       144   -9.362939E-02
       145    1.358063E-04
       146   -1.605428E-04
       147    2.473651E-05
       148    2.912700E-06
       149   -8.903305E-04
       150    2.968774E-03
       151    5.691757E-04
       152   -6.921687E-04
       153    1.229930E-04
       154    1.569845E-03
       155   -4.148039E-03
       156    5.025947E-03
       157    7.744119E-03
       158   -6.106241E-03
       159   -1.637878E-03
       160   -7.855070E-03
       161    3.427336E-03
       162   -1.213015E-02
       163   -1.419967E-05
       164    9.530145E-06
       165    8.561668E-04
       166   -1.687460E-05
       167    1.490128E-05
       168   -2.075882E-04
       169    3.592545E-05
       170   -2.768731E-05
       171   -9.410802E-04
       172    3.433417E-04
       173   -1.015599E-03
       174   -2.313468E-03
       175    2.347309E-03
       176    2.009256E-02
       177   -1.199877E-02
       178    9.008997E-03
       179    8.265701E-03
       180    8.009478E-07
       181   -1.133510E-01
       182    4.514321E-04
       183   -1.090115E-05
       184   -1.159903E-01
       185   -2.300484E-02
       186    1.348892E-03
       187   -1.321574E-01
       188    4.348527E-04
       189   -2.421379E-04
       190   -1.927148E-04
       191    1.261788E-07
       192    9.774609E-03
       193    4.681646E-08
       194   -1.709215E-03
       195    3.771966E-03
       196   -2.062752E-03
       197    2.957096E-06
       198    2.420456E-02
       199   -2.553792E-06
       200   -5.210445E-03
       201    6.412006E-03
       202   -1.201562E-03
       203   -2.257755E-04
       204    1.906985E-02
       205   -6.208619E-06
       206    1.063318E-04
       207    1.072220E-08
       208    3.354283E-04
       209   -7.493785E-05
       210   -6.975482E-08
       211    1.017934E-03
       212   -6.772125E-05
       213    5.536948E-08
       214   -1.467958E-03
       215    1.251138E-07
       216    7.010729E-05
       217    1.483902E-04
       218    6.819786E-04
       219   -9.571271E-03
       220    3.060936E-02
       221    1.146977E-02
       222   -1.198121E-03
       223   -6.785996E-04
       224   -1.529170E-01
       225   -8.354114E-03
       226   -5.769253E-03
       227   -1.557969E-01
       228   -2.278591E-02
       229    7.852982E-03
       230   -9.355673E-02
       231    1.355727E-04
       232   -1.610663E-04
       233    2.549360E-05
       234   -2.854400E-06
       235   -8.901724E-04
       236   -2.968848E-03
       237    5.701591E-04
       238   -6.936109E-04
       239    1.234518E-04
       240   -1.572017E-03
       241   -4.146200E-03
       242   -5.025697E-03
       243    7.515571E-03
       244   -5.862902E-03
       245   -1.652669E-03
       246    8.059478E-03
       247    3.420710E-03
       248    1.216959E-02
       249   -1.413756E-05
       250   -9.570510E-06
       251    8.563733E-04
       252   -1.705887E-05
       253   -1.485426E-05
       254   -2.077850E-04
       255    3.602641E-05
       256    2.769444E-05
       257   -9.411604E-04
       258   -3.433044E-04
       259   -4.716134E-04
       260   -4.012017E-04
       261   -1.601007E-02
       262   -2.284921E-05
       263   -1.837466E-05
       264    1.014264E-03
       265   -4.889397E-03
       266   -2.281534E-04
       267   -6.714397E-03
       268   -4.735959E-04
       269   -3.958350E-04
       270   -1.582329E-02
       271   -2.184988E-05
       272    1.777802E-05
       273    1.015053E-03
       274   -5.003895E-03
       275    1.263676E-04
       276   -6.691160E-03
       277   -3.104116E-04
       278   -2.060318E-03
       279    3.113739E-02
       280   -1.440967E-05
       281    8.128700E-05
       282   -6.223264E-03
       283   -1.536357E-03
       284   -2.455029E-03
       285    1.616939E-03
       286   -3.140902E-04
       287   -2.065080E-03
       288    3.153472E-02
       289   -1.406007E-05
       290   -8.144761E-05
       291   -6.223375E-03
       292   -1.450640E-03
       293    2.582257E-03
       294    1.647087E-03
       295   -4.244973E-05
       296   -9.818699E-05
       297    8.641711E-05
       298    3.876086E-04
       299   -6.313618E-03
       300    1.012344E-03
       301    3.433713E-04
       302   -6.371436E-08
       303    2.025966E-02
       304    7.578130E-05
       305    7.779859E-07
       306    2.269855E-02
       307   -2.806701E-03
       308    3.750725E-05
       309    9.977023E-03
       310    1.314561E-05
       311    2.644967E-06
       312   -1.579058E-05
       313   -5.228412E-08
       314    4.541252E-03
       315   -3.566820E-08
       316   -1.326456E-05
       317    7.800286E-05
       318   -6.473830E-05
       319   -7.507235E-07
       320    1.365422E-02
       321   -3.051741E-07
       322   -9.610533E-04
       323    2.627591E-03
       324   -1.666538E-03
       325    3.723013E-05
       326    3.247110E-03
       327    3.245267E-06
       328    6.696821E-06
       329   -7.239120E-09
       330    1.179531E-05
       331   -4.943390E-06
       332    3.680723E-08
       333    7.124790E-04
       334   -4.041339E-06
       335   -2.709493E-08
       336   -7.283040E-04
       337    1.705859E-08
       338   -1.387577E-05
       339   -3.062312E-05
       340    3.973349E-06
       341    4.742095E-04
       342   -5.361995E-03
       343   -8.304102E-04
       344   -2.749542E-05
       345    1.370898E-04
       346   -8.132763E-02
       347   -1.248609E-04
       348    2.558445E-04
       349   -7.541330E-02
       350   -1.256708E-03
       351    4.617292E-04
       352   -6.143778E-02
       353   -1.375667E-04
       354    2.014507E-04
       355   -7.601626E-03
       356    3.744497E-06
       357   -3.948223E-06
       358    2.037260E-07
       359   -1.283560E-06
       360    6.891270E-06
       361    4.910002E-04
       362   -1.052948E-05
       363   -9.595524E-06
       364    2.012501E-05
       365    6.309766E-06
       366   -5.383585E-04
       367    1.636769E-03
       368   -7.672083E-05
       369    5.528179E-05
       370    2.143904E-05
       371    8.188612E-05
       372   -1.921531E-04
       373    2.587099E-04
       374    5.206884E-07
       375    1.757397E-06
       376    6.765702E-05
       377   -9.117960E-07
       378   -8.550766E-07
       379    8.578247E-05
       380    2.132192E-07
       381   -1.502718E-06
       382   -1.765539E-04
       383    1.405061E-04
       384   -1.369419E-05
       385   -3.022459E-05
       386    3.981983E-06
       387    4.686008E-04
       388   -5.362193E-03
       389   -7.918861E-04
       390   -2.011027E-05
       391   -1.407182E-04
       392   -8.132387E-02
       393   -1.182881E-04
       394   -2.583096E-04
       395   -7.541010E-02
       396   -1.213437E-03
       397   -4.633376E-04
       398   -6.143113E-02
       399   -1.202135E-04
       400   -2.055549E-04
       401   -7.606168E-03
       402    3.753135E-06
       403   -3.988475E-06
       404    2.353407E-07
       405    1.236748E-06
       406    6.874949E-06
       407   -4.909658E-04
       408   -1.004450E-05
       409   -9.661968E-06
       410    1.970647E-05
       411   -5.787190E-06
       412   -5.381952E-04
       413   -1.636698E-03
       414   -7.593451E-05
       415    5.592900E-05
       416    2.000551E-05
       417   -8.073175E-05
       418   -1.932592E-04
       419   -2.578904E-04
       420    5.251448E-07
       421   -1.765027E-06
       422    6.765647E-05
       423   -8.998439E-07
       424    8.723079E-07
       425    8.577744E-05
       426    1.952882E-07
       427    1.495725E-06
       428   -1.765481E-04
       429   -1.405022E-04
       430    4.587301E-03
       431    1.088099E-02
       432   -1.690439E-02
       433   -2.610664E-02
       434   -2.122817E-02
       435   -6.482032E-02
       436   -1.594134E-02
       437    9.648708E-06
       438    2.467393E-01
       439   -1.820726E-02
       440    2.222486E-07
       441    2.439563E-01
       442   -1.642826E-02
       443   -1.122515E-04
       444    2.008124E-01
       445   -9.206194E-05
       446   -7.443275E-06
       447    9.950522E-05
       448    2.195830E-07
       449    8.076403E-04
       450    2.456609E-07
       451   -2.173386E-04
       452   -1.398876E-03
       453    1.616214E-03
       454   -3.966854E-06
       455    3.706854E-03
       456    8.912980E-07
       457   -1.738179E-03
       458   -2.680108E-03
       459    4.418286E-03
       460   -9.679878E-06
       461    2.151247E-03
       462    9.895316E-06
       463   -1.301879E-04
       464    2.844195E-08
       465   -9.724354E-04
       466   -8.036172E-05
       467   -2.113815E-08
       468    5.120891E-04
       469    2.550271E-04
       470   -1.702072E-08
       471    7.925700E-04
       472    3.278578E-08
       473    8.753508E-03
       474    1.655878E-02
       475    2.773894E-02
       476   -2.087105E-03
       477   -1.744844E-03
       478    1.256214E-02
       479    1.399183E-03
       480   -3.276204E-03
       481    1.475838E-02
       482    8.747245E-03
       483    1.648429E-02
       484    2.745900E-02
       485   -2.083472E-03
       486    1.737544E-03
       487    1.256595E-02
       488    1.425318E-03
       489    3.229096E-03
       490    1.477293E-02
 Sym= X
 Ene= 0.897951
 Spin= Alpha
 Occup= 0.897951
         1   -4.705570E-03
         2   -1.077588E-02
         3    1.853539E-02
         4    1.126929E-02
         5    2.942133E+00
         6   -4.698406E-01
         7   -2.854282E-02
         8   -4.319432E-02
         9    1.592596E-03
        10   -5.213177E-03
        11   -1.181589E-01
        12    7.635488E-04
        13   -3.382880E-01
        14    1.710956E+00
        15    1.410544E-02
        16    2.542267E-03
        17   -6.009908E-03
        18    3.467641E-03
        19   -3.152948E-03
        20    5.586445E-05
        21   -1.263657E-04
        22   -6.340315E-03
        23   -5.359256E-03
        24    1.169957E-02
        25   -9.095148E-04
        26    8.544896E-05
        27   -1.242985E-04
        28   -2.580906E-01
        29    6.096613E-02
        30    1.971245E-01
        31   -6.271464E-01
        32    7.931262E-03
        33   -1.595724E-02
        34    7.157492E-05
        35   -3.681595E-04
        36    1.349496E-05
        37   -5.629313E-04
        38   -2.501733E-04
        39   -2.472733E-05
        40    4.669034E-04
        41    7.441111E-04
        42    6.621946E-06
        43    2.013548E-05
        44   -9.785752E-04
        45   -2.376462E-03
        46    6.475134E-04
        47   -6.901559E-02
        48   -5.333681E+00
        49    5.594259E+00
        50   -6.969186E-02
        51    3.749338E-06
        52   -3.168708E-03
        53   -7.666861E-02
        54    4.132063E-05
        55   -4.740784E-03
        56   -3.315767E+00
        57   -4.457065E-04
        58    5.460674E-02
        59   -6.992107E-03
        60    2.540947E-03
        61    4.451160E-03
        62   -7.495007E-07