[Molden Format]
[Title]
ADC(2) - opt by CAM-B3LYP gaussian                                              
[Atoms] AU
 c     1    6 -.12588789760523E+01 -.22833296301999E+01 -.24948636837890E-01
 c     2    6 -.25574931053929E+01 0.00000000000000E+00 -.23691968959520E-01
 c     3    6 -.12588770863262E+01 0.22833296301999E+01 -.24954306016290E-01
 c     4    6 0.13320886199507E+01 0.22850077070059E+01 -.26951746538750E-01
 c     5    6 0.26868238359857E+01 0.00000000000000E+00 -.26437741030600E-01
 c     6    6 0.13320867302245E+01 -.22850077070059E+01 -.26946077360350E-01
 h     7    1 -.22977937121289E+01 -.40382313624087E+01 -.22371050392630E-01
 h     8    1 -.22977918224027E+01 0.40382332521348E+01 -.22380499023300E-01
 h     9    1 0.23512179234159E+01 0.40571966538783E+01 -.29234535707270E-01
 h    10    1 0.23512179234159E+01 -.40571947641522E+01 -.29223197350470E-01
 n    11    7 -.52733186864479E+01 0.00000000000000E+00 -.17996334395000E-01
 o    12    8 -.63812046469225E+01 0.20269448165729E+01 -.15568036314240E-01
 o    13    8 -.63812027571964E+01 -.20269467062990E+01 -.15583154123310E-01
 n    14    7 0.52441127328484E+01 0.00000000000000E+00 -.70347417454330E-01
 h    15    1 0.62045074583774E+01 0.16172030580838E+01 0.18832018534119E+00
 h    16    1 0.62045055686513E+01 -.16172049478099E+01 0.18831451616279E+00
[GTO]
    1 0
 s    6 1.00
 0.13575349682000E+05 0.60645503603591E-03
 0.20352333680000E+04 0.46979088884982E-02
 0.46322562359000E+03 0.24332477647552E-01
 0.13120019598000E+03 0.97399968307759E-01
 0.42853015891000E+02 0.30195584253780E+00
 0.15584185766000E+02 0.66233609137875E+00
 s    2 1.00
 0.62067138508000E+01 0.65595308539952E+00
 0.25764896527000E+01 0.37585633285142E+00
 s    1 1.00
 0.57696339419000E+00 0.10000000000000E+01
 s    1 1.00
 0.22972831358000E+00 0.10000000000000E+01
 s    1 1.00
 0.95164440028000E-01 0.10000000000000E+01
 s    1 1.00
 0.48475401370000E-01 0.10000000000000E+01
 p    4 1.00
 0.34697232244000E+02 0.11327220003114E-01
 0.79582622826000E+01 0.76169659202087E-01
 0.23780826883000E+01 0.30192252202676E+00
 0.81433208183000E+00 0.72785027349547E+00
 p    1 1.00
 0.28887547253000E+00 0.10000000000000E+01
 p    1 1.00
 0.10056823671000E+00 0.10000000000000E+01
 d    1 1.00
 0.10970000000000E+01 0.10000000000000E+01
 d    1 1.00
 0.31800000000000E+00 0.10000000000000E+01
 d    1 1.00
 0.90985336424000E-01 0.10000000000000E+01
 f    1 1.00
 0.76100000000000E+00 0.10000000000000E+01
 
    2 0
 s    6 1.00
 0.13575349682000E+05 0.60645503603591E-03
 0.20352333680000E+04 0.46979088884982E-02
 0.46322562359000E+03 0.24332477647552E-01
 0.13120019598000E+03 0.97399968307759E-01
 0.42853015891000E+02 0.30195584253780E+00
 0.15584185766000E+02 0.66233609137875E+00
 s    2 1.00
 0.62067138508000E+01 0.65595308539952E+00
 0.25764896527000E+01 0.37585633285142E+00
 s    1 1.00
 0.57696339419000E+00 0.10000000000000E+01
 s    1 1.00
 0.22972831358000E+00 0.10000000000000E+01
 s    1 1.00
 0.95164440028000E-01 0.10000000000000E+01
 s    1 1.00
 0.48475401370000E-01 0.10000000000000E+01
 p    4 1.00
 0.34697232244000E+02 0.11327220003114E-01
 0.79582622826000E+01 0.76169659202087E-01
 0.23780826883000E+01 0.30192252202676E+00
 0.81433208183000E+00 0.72785027349547E+00
 p    1 1.00
 0.28887547253000E+00 0.10000000000000E+01
 p    1 1.00
 0.10056823671000E+00 0.10000000000000E+01
 d    1 1.00
 0.10970000000000E+01 0.10000000000000E+01
 d    1 1.00
 0.31800000000000E+00 0.10000000000000E+01
 d    1 1.00
 0.90985336424000E-01 0.10000000000000E+01
 f    1 1.00
 0.76100000000000E+00 0.10000000000000E+01
 
    3 0
 s    6 1.00
 0.13575349682000E+05 0.60645503603591E-03
 0.20352333680000E+04 0.46979088884982E-02
 0.46322562359000E+03 0.24332477647552E-01
 0.13120019598000E+03 0.97399968307759E-01
 0.42853015891000E+02 0.30195584253780E+00
 0.15584185766000E+02 0.66233609137875E+00
 s    2 1.00
 0.62067138508000E+01 0.65595308539952E+00
 0.25764896527000E+01 0.37585633285142E+00
 s    1 1.00
 0.57696339419000E+00 0.10000000000000E+01
 s    1 1.00
 0.22972831358000E+00 0.10000000000000E+01
 s    1 1.00
 0.95164440028000E-01 0.10000000000000E+01
 s    1 1.00
 0.48475401370000E-01 0.10000000000000E+01
 p    4 1.00
 0.34697232244000E+02 0.11327220003114E-01
 0.79582622826000E+01 0.76169659202087E-01
 0.23780826883000E+01 0.30192252202676E+00
 0.81433208183000E+00 0.72785027349547E+00
 p    1 1.00
 0.28887547253000E+00 0.10000000000000E+01
 p    1 1.00
 0.10056823671000E+00 0.10000000000000E+01
 d    1 1.00
 0.10970000000000E+01 0.10000000000000E+01
 d    1 1.00
 0.31800000000000E+00 0.10000000000000E+01
 d    1 1.00
 0.90985336424000E-01 0.10000000000000E+01
 f    1 1.00
 0.76100000000000E+00 0.10000000000000E+01
 
    4 0
 s    6 1.00
 0.13575349682000E+05 0.60645503603591E-03
 0.20352333680000E+04 0.46979088884982E-02
 0.46322562359000E+03 0.24332477647552E-01
 0.13120019598000E+03 0.97399968307759E-01
 0.42853015891000E+02 0.30195584253780E+00
 0.15584185766000E+02 0.66233609137875E+00
 s    2 1.00
 0.62067138508000E+01 0.65595308539952E+00
 0.25764896527000E+01 0.37585633285142E+00
 s    1 1.00
 0.57696339419000E+00 0.10000000000000E+01
 s    1 1.00
 0.22972831358000E+00 0.10000000000000E+01
 s    1 1.00
 0.95164440028000E-01 0.10000000000000E+01
 s    1 1.00
 0.48475401370000E-01 0.10000000000000E+01
 p    4 1.00
 0.34697232244000E+02 0.11327220003114E-01
 0.79582622826000E+01 0.76169659202087E-01
 0.23780826883000E+01 0.30192252202676E+00
 0.81433208183000E+00 0.72785027349547E+00
 p    1 1.00
 0.28887547253000E+00 0.10000000000000E+01
 p    1 1.00
 0.10056823671000E+00 0.10000000000000E+01
 d    1 1.00
 0.10970000000000E+01 0.10000000000000E+01
 d    1 1.00
 0.31800000000000E+00 0.10000000000000E+01
 d    1 1.00
 0.90985336424000E-01 0.10000000000000E+01
 f    1 1.00
 0.76100000000000E+00 0.10000000000000E+01
 
    5 0
 s    6 1.00
 0.13575349682000E+05 0.60645503603591E-03
 0.20352333680000E+04 0.46979088884982E-02
 0.46322562359000E+03 0.24332477647552E-01
 0.13120019598000E+03 0.97399968307759E-01
 0.42853015891000E+02 0.30195584253780E+00
 0.15584185766000E+02 0.66233609137875E+00
 s    2 1.00
 0.62067138508000E+01 0.65595308539952E+00
 0.25764896527000E+01 0.37585633285142E+00
 s    1 1.00
 0.57696339419000E+00 0.10000000000000E+01
 s    1 1.00
 0.22972831358000E+00 0.10000000000000E+01
 s    1 1.00
 0.95164440028000E-01 0.10000000000000E+01
 s    1 1.00
 0.48475401370000E-01 0.10000000000000E+01
 p    4 1.00
 0.34697232244000E+02 0.11327220003114E-01
 0.79582622826000E+01 0.76169659202087E-01
 0.23780826883000E+01 0.30192252202676E+00
 0.81433208183000E+00 0.72785027349547E+00
 p    1 1.00
 0.28887547253000E+00 0.10000000000000E+01
 p    1 1.00
 0.10056823671000E+00 0.10000000000000E+01
 d    1 1.00
 0.10970000000000E+01 0.10000000000000E+01
 d    1 1.00
 0.31800000000000E+00 0.10000000000000E+01
 d    1 1.00
 0.90985336424000E-01 0.10000000000000E+01
 f    1 1.00
 0.76100000000000E+00 0.10000000000000E+01
 
    6 0
 s    6 1.00
 0.13575349682000E+05 0.60645503603591E-03
 0.20352333680000E+04 0.46979088884982E-02
 0.46322562359000E+03 0.24332477647552E-01
 0.13120019598000E+03 0.97399968307759E-01
 0.42853015891000E+02 0.30195584253780E+00
 0.15584185766000E+02 0.66233609137875E+00
 s    2 1.00
 0.62067138508000E+01 0.65595308539952E+00
 0.25764896527000E+01 0.37585633285142E+00
 s    1 1.00
 0.57696339419000E+00 0.10000000000000E+01
 s    1 1.00
 0.22972831358000E+00 0.10000000000000E+01
 s    1 1.00
 0.95164440028000E-01 0.10000000000000E+01
 s    1 1.00
 0.48475401370000E-01 0.10000000000000E+01
 p    4 1.00
 0.34697232244000E+02 0.11327220003114E-01
 0.79582622826000E+01 0.76169659202087E-01
 0.23780826883000E+01 0.30192252202676E+00
 0.81433208183000E+00 0.72785027349547E+00
 p    1 1.00
 0.28887547253000E+00 0.10000000000000E+01
 p    1 1.00
 0.10056823671000E+00 0.10000000000000E+01
 d    1 1.00
 0.10970000000000E+01 0.10000000000000E+01
 d    1 1.00
 0.31800000000000E+00 0.10000000000000E+01
 d    1 1.00
 0.90985336424000E-01 0.10000000000000E+01
 f    1 1.00
 0.76100000000000E+00 0.10000000000000E+01
 
    7 0
 s    3 1.00
 0.34061341000000E+02 0.25439307208879E-01
 0.51235746000000E+01 0.19008594890375E+00
 0.11646626000000E+01 0.85244113011042E+00
 s    1 1.00
 0.32723041000000E+00 0.10000000000000E+01
 s    1 1.00
 0.10307241000000E+00 0.10000000000000E+01
 p    1 1.00
 0.80000000000000E+00 0.10000000000000E+01
 p    1 1.00
 0.95774129632000E-01 0.10000000000000E+01
 
    8 0
 s    3 1.00
 0.34061341000000E+02 0.25439307208879E-01
 0.51235746000000E+01 0.19008594890375E+00
 0.11646626000000E+01 0.85244113011042E+00
 s    1 1.00
 0.32723041000000E+00 0.10000000000000E+01
 s    1 1.00
 0.10307241000000E+00 0.10000000000000E+01
 p    1 1.00
 0.80000000000000E+00 0.10000000000000E+01
 p    1 1.00
 0.95774129632000E-01 0.10000000000000E+01
 
    9 0
 s    3 1.00
 0.34061341000000E+02 0.25439307208879E-01
 0.51235746000000E+01 0.19008594890375E+00
 0.11646626000000E+01 0.85244113011042E+00
 s    1 1.00
 0.32723041000000E+00 0.10000000000000E+01
 s    1 1.00
 0.10307241000000E+00 0.10000000000000E+01
 p    1 1.00
 0.80000000000000E+00 0.10000000000000E+01
 p    1 1.00
 0.95774129632000E-01 0.10000000000000E+01
 
   10 0
 s    3 1.00
 0.34061341000000E+02 0.25439307208879E-01
 0.51235746000000E+01 0.19008594890375E+00
 0.11646626000000E+01 0.85244113011042E+00
 s    1 1.00
 0.32723041000000E+00 0.10000000000000E+01
 s    1 1.00
 0.10307241000000E+00 0.10000000000000E+01
 p    1 1.00
 0.80000000000000E+00 0.10000000000000E+01
 p    1 1.00
 0.95774129632000E-01 0.10000000000000E+01
 
   11 0
 s    6 1.00
 0.19730800647000E+05 0.58626402628763E-03
 0.29578958745000E+04 0.45428820586397E-02
 0.67322133595000E+03 0.23558413450084E-01
 0.19068249494000E+03 0.94709193292923E-01
 0.62295441898000E+02 0.29719784913376E+00
 0.22654161182000E+02 0.66916246895232E+00
 s    2 1.00
 0.89791477428000E+01 0.64596683630063E+00
 0.36863002370000E+01 0.38700574393705E+00
 s    1 1.00
 0.84660076805000E+00 0.10000000000000E+01
 s    1 1.00
 0.33647133771000E+00 0.10000000000000E+01
 s    1 1.00
 0.13647653675000E+00 0.10000000000000E+01
 s    1 1.00
 0.68441605847000E-01 0.10000000000000E+01
 p    4 1.00
 0.49200380510000E+02 0.11448825101764E-01
 0.11346790537000E+02 0.78422337970864E-01
 0.34273972411000E+01 0.30818094738830E+00
 0.11785525134000E+01 0.72027196368413E+00
 p    1 1.00
 0.41642204972000E+00 0.10000000000000E+01
 p    1 1.00
 0.14260826011000E+00 0.10000000000000E+01
 d    1 1.00
 0.16540000000000E+01 0.10000000000000E+01
 d    1 1.00
 0.46900000000000E+00 0.10000000000000E+01
 d    1 1.00
 0.12829642058000E+00 0.10000000000000E+01
 f    1 1.00
 0.10930000000000E+01 0.10000000000000E+01
 
   12 0
 s    6 1.00
 0.27032382631000E+05 0.57227335211155E-03
 0.40523871392000E+04 0.44353233492995E-02
 0.92232722710000E+03 0.23020107706038E-01
 0.26124070989000E+03 0.92822490667928E-01
 0.85354641351000E+02 0.29378500009671E+00
 0.31035035245000E+02 0.67401604501641E+00
 s    2 1.00
 0.12260860728000E+02 0.63839937025506E+00
 0.49987076005000E+01 0.39534587125718E+00
 s    1 1.00
 0.11703108158000E+01 0.10000000000000E+01
 s    1 1.00
 0.46474740994000E+00 0.10000000000000E+01
 s    1 1.00
 0.18504536357000E+00 0.10000000000000E+01
 s    1 1.00
 0.70288026270000E-01 0.10000000000000E+01
 p    4 1.00
 0.63274954801000E+02 0.12018332222616E-01
 0.14627049379000E+02 0.83005421790056E-01
 0.44501223456000E+01 0.31991743925964E+00
 0.15275799647000E+01 0.70715542916104E+00
 p    1 1.00
 0.52935117943000E+00 0.10000000000000E+01
 p    1 1.00
 0.17478421270000E+00 0.10000000000000E+01
 p    1 1.00
 0.51112745706000E-01 0.10000000000000E+01
 d    1 1.00
 0.23140000000000E+01 0.10000000000000E+01
 d    1 1.00
 0.64500000000000E+00 0.10000000000000E+01
 d    1 1.00
 0.14696477366000E+00 0.10000000000000E+01
 f    1 1.00
 0.14280000000000E+01 0.10000000000000E+01
 
   13 0
 s    6 1.00
 0.27032382631000E+05 0.57227335211155E-03
 0.40523871392000E+04 0.44353233492995E-02
 0.92232722710000E+03 0.23020107706038E-01
 0.26124070989000E+03 0.92822490667928E-01
 0.85354641351000E+02 0.29378500009671E+00
 0.31035035245000E+02 0.67401604501641E+00
 s    2 1.00
 0.12260860728000E+02 0.63839937025506E+00
 0.49987076005000E+01 0.39534587125718E+00
 s    1 1.00
 0.11703108158000E+01 0.10000000000000E+01
 s    1 1.00
 0.46474740994000E+00 0.10000000000000E+01
 s    1 1.00
 0.18504536357000E+00 0.10000000000000E+01
 s    1 1.00
 0.70288026270000E-01 0.10000000000000E+01
 p    4 1.00
 0.63274954801000E+02 0.12018332222616E-01
 0.14627049379000E+02 0.83005421790056E-01
 0.44501223456000E+01 0.31991743925964E+00
 0.15275799647000E+01 0.70715542916104E+00
 p    1 1.00
 0.52935117943000E+00 0.10000000000000E+01
 p    1 1.00
 0.17478421270000E+00 0.10000000000000E+01
 p    1 1.00
 0.51112745706000E-01 0.10000000000000E+01
 d    1 1.00
 0.23140000000000E+01 0.10000000000000E+01
 d    1 1.00
 0.64500000000000E+00 0.10000000000000E+01
 d    1 1.00
 0.14696477366000E+00 0.10000000000000E+01
 f    1 1.00
 0.14280000000000E+01 0.10000000000000E+01
 
   14 0
 s    6 1.00
 0.19730800647000E+05 0.58626402628763E-03
 0.29578958745000E+04 0.45428820586397E-02
 0.67322133595000E+03 0.23558413450084E-01
 0.19068249494000E+03 0.94709193292923E-01
 0.62295441898000E+02 0.29719784913376E+00
 0.22654161182000E+02 0.66916246895232E+00
 s    2 1.00
 0.89791477428000E+01 0.64596683630063E+00
 0.36863002370000E+01 0.38700574393705E+00
 s    1 1.00
 0.84660076805000E+00 0.10000000000000E+01
 s    1 1.00
 0.33647133771000E+00 0.10000000000000E+01
 s    1 1.00
 0.13647653675000E+00 0.10000000000000E+01
 s    1 1.00
 0.68441605847000E-01 0.10000000000000E+01
 p    4 1.00
 0.49200380510000E+02 0.11448825101764E-01
 0.11346790537000E+02 0.78422337970864E-01
 0.34273972411000E+01 0.30818094738830E+00
 0.11785525134000E+01 0.72027196368413E+00
 p    1 1.00
 0.41642204972000E+00 0.10000000000000E+01
 p    1 1.00
 0.14260826011000E+00 0.10000000000000E+01
 d    1 1.00
 0.16540000000000E+01 0.10000000000000E+01
 d    1 1.00
 0.46900000000000E+00 0.10000000000000E+01
 d    1 1.00
 0.12829642058000E+00 0.10000000000000E+01
 f    1 1.00
 0.10930000000000E+01 0.10000000000000E+01
 
   15 0
 s    3 1.00
 0.34061341000000E+02 0.25439307208879E-01
 0.51235746000000E+01 0.19008594890375E+00
 0.11646626000000E+01 0.85244113011042E+00
 s    1 1.00
 0.32723041000000E+00 0.10000000000000E+01
 s    1 1.00
 0.10307241000000E+00 0.10000000000000E+01
 p    1 1.00
 0.80000000000000E+00 0.10000000000000E+01
 p    1 1.00
 0.95774129632000E-01 0.10000000000000E+01
 
   16 0
 s    3 1.00
 0.34061341000000E+02 0.25439307208879E-01
 0.51235746000000E+01 0.19008594890375E+00
 0.11646626000000E+01 0.85244113011042E+00
 s    1 1.00
 0.32723041000000E+00 0.10000000000000E+01
 s    1 1.00
 0.10307241000000E+00 0.10000000000000E+01
 p    1 1.00
 0.80000000000000E+00 0.10000000000000E+01
 p    1 1.00
 0.95774129632000E-01 0.10000000000000E+01
 
[MO]
 Sym= X
 Ene= -0.852808
 Spin= Alpha
 Occup= -0.852808
         1   -1.510982E-04
         2   -3.513075E-04
         3    9.958890E-04
         4   -2.224984E-03
         5   -1.073928E-02
         6   -9.504715E-03
         7    1.453163E-03
         8    2.107884E-04
         9    3.846249E-02
        10   -2.007208E-03
        11    3.757522E-04
        12    3.638913E-02
        13   -3.186688E-02
        14    9.415094E-03
        15    8.195984E-03
        16    2.187616E-06
        17   -1.279173E-05
        18    1.060411E-05
        19   -1.087435E-05
        20   -6.305499E-03
        21    4.252870E-03
        22   -5.702364E-04
        23    3.417733E-04
        24    2.284632E-04
        25   -6.028572E-04
        26   -1.428010E-02
        27    7.923311E-03
        28   -4.677749E-03
        29    4.369915E-03
        30    3.078345E-04
        31    9.055146E-04
        32    8.102521E-04
        33   -1.030183E-02
        34   -1.657188E-05
        35    6.266482E-06
        36   -2.239391E-04
        37    7.143275E-06
        38   -6.466430E-06
        39   -6.324328E-04
        40    1.509024E-05
        41   -1.940938E-06
        42    9.328786E-04
        43   -7.396406E-04
        44    2.366243E-05
        45    5.185881E-05
        46    1.075582E-04
        47   -2.272641E-03
        48   -4.697364E-02
        49    4.217534E-03
        50    4.293012E-04
        51    3.572076E-06
        52    2.223293E-01
        53   -2.536256E-04
        54    2.336552E-05
        55    2.302277E-01
        56   -1.503343E-02
        57   -1.172502E-03
        58    2.101040E-01
        59    3.415556E-05
        60   -3.076834E-05
        61   -3.387218E-06
        62    2.490505E-07
        63   -3.809844E-04
        64    8.346037E-07
        65    3.154138E-04
        66   -5.298174E-04
        67    2.144036E-04
        68    4.442617E-06
        69   -2.886559E-03
        70    1.430164E-06
        71    7.551149E-03
        72   -8.562824E-03
        73    1.011676E-03
        74   -2.024269E-04
        75    5.798978E-03
        76   -1.459620E-05
        77    7.316236E-06
        78    8.630216E-08
        79   -1.278899E-03
        80   -5.607912E-06
        81   -2.021915E-10
        82    7.431234E-04
        83   -4.207848E-06
        84   -1.155843E-07
        85    9.726993E-04
        86    1.027429E-07
        87   -1.520945E-04
        88   -3.536899E-04
        89    1.008335E-03
        90   -2.300919E-03
        91   -8.706631E-03
        92   -9.426718E-03
        93    1.448746E-03
        94   -2.124168E-04
        95    3.850139E-02
        96   -2.001877E-03
        97   -3.608303E-04
        98    3.642629E-02
        99   -3.262264E-02
       100   -1.068116E-02
       101    8.293871E-03
       102    1.855024E-06
       103   -1.258288E-05
       104    1.072785E-05
       105    1.121022E-05
       106   -6.305227E-03
       107   -4.253084E-03
       108   -5.685091E-04
       109    3.382122E-04
       110    2.302970E-04
       111    5.988778E-04
       112   -1.427698E-02
       113   -7.922630E-03
       114   -4.900069E-03
       115    4.616537E-03
       116    2.835315E-04
       117   -7.499245E-04
       118    8.142340E-04
       119    1.027766E-02
       120   -1.674044E-05
       121   -6.261280E-06
       122   -2.241399E-04
       123    7.422980E-06
       124    6.500525E-06
       125   -6.322098E-04
       126    1.503668E-05
       127    1.899863E-06
       128    9.329250E-04
       129    7.395605E-04
       130    9.027994E-05
       131    1.929031E-04
       132    5.470925E-04
       133   -8.905364E-03
       134    2.805984E-02
       135    1.046221E-02
       136   -1.116057E-03
       137    5.941619E-04
       138   -1.464058E-01
       139   -7.758824E-03
       140    5.310558E-03
       141   -1.493527E-01
       142   -2.332148E-02
       143   -5.503351E-03
       144   -9.072026E-02
       145    1.236080E-04
       146   -1.483904E-04
       147    2.478245E-05
       148   -3.268390E-07
       149   -1.216999E-03
       150    2.937105E-03
       151    5.368899E-04
       152   -6.484269E-04
       153    1.115369E-04
       154    1.451180E-03
       155   -4.703667E-03
       156    5.017502E-03
       157    7.230279E-03
       158   -5.672415E-03
       159   -1.557864E-03
       160   -7.278678E-03
       161    3.154160E-03
       162   -1.140172E-02
       163   -1.291126E-05
       164    8.249987E-06
       165    8.020671E-04
       166   -1.609307E-05
       167    1.467101E-05
       168   -1.462296E-04
       169    3.341534E-05
       170   -2.573953E-05
       171   -9.298564E-04
       172    3.632984E-04
       173   -9.152528E-04
       174   -2.085048E-03
       175    2.058483E-03
       176    1.891087E-02
       177   -7.744598E-03
       178    9.264277E-03
       179    7.575992E-03
       180    1.918547E-06
       181   -1.158281E-01
       182    4.929931E-04
       183   -8.708946E-06
       184   -1.183404E-01
       185   -2.034597E-02
       186    1.288461E-03
       187   -1.303179E-01
       188    4.028895E-04
       189   -2.252816E-04
       190   -1.776079E-04
       191    1.055965E-07
       192    9.201929E-03
       193    6.015198E-07
       194   -1.556637E-03
       195    3.485747E-03
       196   -1.929109E-03
       197    2.512639E-06
       198    2.293977E-02
       199   -1.465452E-06
       200   -4.804626E-03
       201    6.020761E-03
       202   -1.216135E-03
       203   -2.153402E-04
       204    1.854205E-02
       205   -7.160231E-06
       206    9.869907E-05
       207    2.395140E-08
       208    3.630119E-04
       209   -6.945748E-05
       210   -7.652747E-08
       211    9.372189E-04
       212   -6.296122E-05
       213    4.439329E-08
       214   -1.424251E-03
       215    3.979639E-08
       216    9.058959E-05
       217    1.933849E-04
       218    5.532533E-04
       219   -8.983894E-03
       220    3.032633E-02
       221    1.051464E-02
       222   -1.120996E-03
       223   -5.886000E-04
       224   -1.464304E-01
       225   -7.760838E-03
       226   -5.321021E-03
       227   -1.493846E-01
       228   -2.240257E-02
       229    7.004651E-03
       230   -9.067542E-02
       231    1.234708E-04
       232   -1.489920E-04
       233    2.552113E-05
       234    3.506405E-07
       235   -1.216190E-03
       236   -2.937240E-03
       237    5.369712E-04
       238   -6.492074E-04
       239    1.122362E-04
       240   -1.453246E-03
       241   -4.700510E-03
       242   -5.017491E-03
       243    7.009235E-03
       244   -5.437336E-03
       245   -1.571898E-03
       246    7.478267E-03
       247    3.147894E-03
       248    1.143760E-02
       249   -1.284759E-05
       250   -8.285077E-06
       251    8.024655E-04
       252   -1.627738E-05
       253   -1.462790E-05
       254   -1.466420E-04
       255    3.351423E-05
       256    2.574349E-05
       257   -9.299784E-04
       258   -3.632697E-04
       259   -3.263134E-04
       260   -2.093695E-04
       261   -1.483883E-02
       262   -1.141312E-05
       263   -1.843916E-06
       264    1.438881E-03
       265   -4.563370E-03
       266   -1.570061E-04
       267   -6.738071E-03
       268   -3.260759E-04
       269   -2.016262E-04
       270   -1.466529E-02
       271   -1.023777E-05
       272    9.308111E-07
       273    1.440757E-03
       274   -4.676522E-03
       275    5.724426E-05
       276   -6.717923E-03
       277   -3.314037E-04
       278   -1.972443E-03
       279    2.870399E-02
       280   -1.021742E-05
       281    8.181722E-05
       282   -6.018138E-03
       283   -1.186820E-03
       284   -2.304319E-03
       285    1.074728E-03
       286   -3.356985E-04
       287   -1.978640E-03
       288    2.908239E-02
       289   -9.912664E-06
       290   -8.211079E-05
       291   -6.019533E-03
       292   -1.102908E-03
       293    2.426768E-03
       294    1.101277E-03
       295   -3.579170E-05
       296   -8.233329E-05
       297    6.244728E-05
       298    3.512741E-04
       299   -5.568774E-03
       300    1.336739E-03
       301    3.709192E-04
       302    2.130616E-06
       303    9.306150E-03
       304    1.192931E-04
       305    2.856224E-06
       306    1.231049E-02
       307   -2.456761E-03
       308    3.280519E-05
       309    8.376399E-03
       310    1.964694E-05
       311   -2.812743E-06
       312   -1.683420E-05
       313   -6.633866E-07
       314    5.002448E-03
       315   -5.814144E-08
       316    1.021077E-05
       317    5.822228E-05
       318   -6.843305E-05
       319   -2.546519E-06
       320    1.482831E-02
       321   -3.420208E-07
       322   -9.569978E-04
       323    2.482021E-03
       324   -1.525023E-03
       325    3.440392E-05
       326    3.489460E-03
       327    3.683280E-06
       328    6.494656E-06
       329   -1.528513E-07
       330    8.586742E-05
       331   -4.590941E-06
       332    2.451484E-07
       333    7.426160E-04
       334   -4.122555E-06
       335   -4.007681E-08
       336   -8.578192E-04
       337    3.252958E-08
       338   -1.437179E-05
       339   -3.205631E-05
       340    9.513430E-06
       341    4.530320E-04
       342   -4.966442E-03
       343   -7.598601E-04
       344   -1.985952E-04
       345    1.141471E-04
       346   -9.416636E-02
       347   -2.666013E-04
       348    2.245553E-04
       349   -8.712169E-02
       350   -1.322682E-03
       351    3.796067E-04
       352   -6.871122E-02
       353   -1.280528E-04
       354    1.934713E-04
       355   -8.108127E-03
       356    3.103507E-06
       357   -4.091180E-06
       358    9.876727E-07
       359    6.668749E-07
       360   -8.285824E-05
       361    6.892351E-04
       362   -1.178843E-05
       363   -9.352281E-06
       364    2.114071E-05
       365    1.083189E-05
       366   -8.517104E-04
       367    2.219332E-03
       368   -7.911507E-05
       369    6.222799E-05
       370    1.688708E-05
       371    8.994021E-05
       372   -4.147766E-04
       373    4.420774E-04
       374    7.428287E-07
       375    1.514748E-06
       376    1.039797E-04
       377   -1.341864E-06
       378   -2.227568E-07
       379    9.342437E-05
       380    3.452551E-07
       381   -1.809491E-06
       382   -2.329278E-04
       383    1.921367E-04
       384   -1.407442E-05
       385   -3.135994E-05
       386    9.105524E-06
       387    4.476881E-04
       388   -4.964516E-03
       389   -7.165775E-04
       390   -1.568948E-04
       391   -1.474065E-04
       392   -9.416033E-02
       393   -2.286257E-04
       394   -2.527511E-04
       395   -8.711645E-02
       396   -1.258722E-03
       397   -3.994355E-04
       398   -6.870177E-02
       399   -1.067058E-04
       400   -1.993331E-04
       401   -8.112406E-03
       402    3.395199E-06
       403   -4.488688E-06
       404    1.093488E-06
       405   -7.137570E-07
       406   -8.287768E-05
       407   -6.891850E-04
       408   -1.052694E-05
       409   -1.025558E-05
       410    2.078252E-05
       411   -1.011463E-05
       412   -8.515278E-04
       413   -2.219179E-03
       414   -7.734431E-05
       415    6.195477E-05
       416    1.538954E-05
       417   -8.929370E-05
       418   -4.158512E-04
       419   -4.411326E-04
       420    7.800123E-07
       421   -1.622160E-06
       422    1.039777E-04
       423   -1.382715E-06
       424    3.536366E-07
       425    9.341554E-05
       426    3.362189E-07
       427    1.822719E-06
       428   -2.329163E-04
       429   -1.921272E-04
       430    4.234421E-03
       431    1.004579E-02
       432   -1.562332E-02
       433   -2.410327E-02
       434   -2.085562E-02
       435   -6.267053E-02
       436   -1.474488E-02
       437    8.242222E-06
       438    2.296086E-01
       439   -1.680836E-02
       440   -4.919202E-07
       441    2.272320E-01
       442   -1.443692E-02
       443   -1.046156E-04
       444    1.890008E-01
       445   -8.312339E-05
       446   -3.065148E-07
       447    8.342990E-05
       448    1.729382E-07
       449    8.981175E-04
       450    2.417311E-07
       451   -2.221191E-04
       452   -1.264171E-03
       453    1.486290E-03
       454   -3.779449E-06
       455    3.858881E-03
       456    8.869324E-07
       457   -1.847140E-03
       458   -2.295459E-03
       459    4.142600E-03
       460   -9.197588E-06
       461    2.105297E-03
       462    9.415589E-06
       463   -1.240485E-04
       464    2.156584E-08
       465   -8.865966E-04
       466   -7.235713E-05
       467   -1.689649E-08
       468    4.436530E-04
       469    2.387857E-04
       470   -1.203712E-08
       471    7.458411E-04
       472    2.037608E-08
       473    8.317625E-03
       474    1.555143E-02
       475    2.602261E-02
       476   -1.929975E-03
       477   -1.627938E-03
       478    1.175324E-02
       479    1.602108E-03
       480   -3.147250E-03
       481    1.430445E-02
       482    8.312488E-03
       483    1.548313E-02
       484    2.576016E-02
       485   -1.926675E-03
       486    1.621185E-03
       487    1.175677E-02
       488    1.626441E-03
       489    3.103258E-03
       490    1.431753E-02
 Sym= X
 Ene= 0.852808
 Spin= Alpha
 Occup= 0.852808
         1    3.652355E-05
         2    8.870727E-05
         3   -3.838520E-04
         4    8.942257E-04
         5    9.502675E-02
         6   -5.211567E-03
         7   -2.628347E-04
         8   -6.382666E-05
         9   -1.366920E-01
        10    2.389884E-05
        11    1.322208E-04
        12   -1.396360E-01
        13    4.753368E-02
        14   -3.310916E-02
        15   -9.061394E-02
        16   -1.915527E-05
        17    3.147311E-06
        18    1.600796E-05
        19   -1.519860E-06
        20   -1.294203E-03
        21    1.152834E-03
        22    2.968790E-04
        23   -1.293092E-04
        24   -1.675698E-04
        25   -7.795973E-06
        26    1.673120E-03
        27    4.850308E-03
        28    1.799045E-02
        29   -1.868381E-02
        30    6.933614E-04
        31    3.703883E-03
        32    3.583785E-03
        33    1.820714E-02
        34    9.108909E-06
        35   -7.646884E-07
        36    1.320720E-04
        37   -9.018536E-06
        38   -1.193096E-06
        39    1.464154E-05
        40   -3.202348E-06
        41    2.219033E-06
        42   -1.918347E-04
        43   -1.827416E-04
        44    2.204904E-05
        45    4.183969E-05
        46    2.395225E-04
        47   -4.698901E-03
        48    1.468330E-01
        49    2.098841E-02
        50    6.655374E-05
        51   -2.642945E-07
        52    6.812866E-02
        53   -3.421413E-04
        54    1.053678E-05
        55    7.457940E-02
        56    5.471615E-02
        57    2.280909E-04
        58    4.841064E-02
        59   -3.710583E-05
        60   -1.543097E-05
        61    5.253680E-05
        62    1.313842E-07