[Molden Format]
[Title]
ADC(2) - opt by CAM-B3LYP gaussian                                              
[Atoms] AU
 c     1    6 -.12588789760523E+01 -.22833296301999E+01 -.24948636837890E-01
 c     2    6 -.25574931053929E+01 0.00000000000000E+00 -.23691968959520E-01
 c     3    6 -.12588770863262E+01 0.22833296301999E+01 -.24954306016290E-01
 c     4    6 0.13320886199507E+01 0.22850077070059E+01 -.26951746538750E-01
 c     5    6 0.26868238359857E+01 0.00000000000000E+00 -.26437741030600E-01
 c     6    6 0.13320867302245E+01 -.22850077070059E+01 -.26946077360350E-01
 h     7    1 -.22977937121289E+01 -.40382313624087E+01 -.22371050392630E-01
 h     8    1 -.22977918224027E+01 0.40382332521348E+01 -.22380499023300E-01
 h     9    1 0.23512179234159E+01 0.40571966538783E+01 -.29234535707270E-01
 h    10    1 0.23512179234159E+01 -.40571947641522E+01 -.29223197350470E-01
 n    11    7 -.52733186864479E+01 0.00000000000000E+00 -.17996334395000E-01
 o    12    8 -.63812046469225E+01 0.20269448165729E+01 -.15568036314240E-01
 o    13    8 -.63812027571964E+01 -.20269467062990E+01 -.15583154123310E-01
 n    14    7 0.52441127328484E+01 0.00000000000000E+00 -.70347417454330E-01
 h    15    1 0.62045074583774E+01 0.16172030580838E+01 0.18832018534119E+00
 h    16    1 0.62045055686513E+01 -.16172049478099E+01 0.18831451616279E+00
[GTO]
    1 0
 s    6 1.00
 0.13575349682000E+05 0.60645503603591E-03
 0.20352333680000E+04 0.46979088884982E-02
 0.46322562359000E+03 0.24332477647552E-01
 0.13120019598000E+03 0.97399968307759E-01
 0.42853015891000E+02 0.30195584253780E+00
 0.15584185766000E+02 0.66233609137875E+00
 s    2 1.00
 0.62067138508000E+01 0.65595308539952E+00
 0.25764896527000E+01 0.37585633285142E+00
 s    1 1.00
 0.57696339419000E+00 0.10000000000000E+01
 s    1 1.00
 0.22972831358000E+00 0.10000000000000E+01
 s    1 1.00
 0.95164440028000E-01 0.10000000000000E+01
 s    1 1.00
 0.48475401370000E-01 0.10000000000000E+01
 p    4 1.00
 0.34697232244000E+02 0.11327220003114E-01
 0.79582622826000E+01 0.76169659202087E-01
 0.23780826883000E+01 0.30192252202676E+00
 0.81433208183000E+00 0.72785027349547E+00
 p    1 1.00
 0.28887547253000E+00 0.10000000000000E+01
 p    1 1.00
 0.10056823671000E+00 0.10000000000000E+01
 d    1 1.00
 0.10970000000000E+01 0.10000000000000E+01
 d    1 1.00
 0.31800000000000E+00 0.10000000000000E+01
 d    1 1.00
 0.90985336424000E-01 0.10000000000000E+01
 f    1 1.00
 0.76100000000000E+00 0.10000000000000E+01
 
    2 0
 s    6 1.00
 0.13575349682000E+05 0.60645503603591E-03
 0.20352333680000E+04 0.46979088884982E-02
 0.46322562359000E+03 0.24332477647552E-01
 0.13120019598000E+03 0.97399968307759E-01
 0.42853015891000E+02 0.30195584253780E+00
 0.15584185766000E+02 0.66233609137875E+00
 s    2 1.00
 0.62067138508000E+01 0.65595308539952E+00
 0.25764896527000E+01 0.37585633285142E+00
 s    1 1.00
 0.57696339419000E+00 0.10000000000000E+01
 s    1 1.00
 0.22972831358000E+00 0.10000000000000E+01
 s    1 1.00
 0.95164440028000E-01 0.10000000000000E+01
 s    1 1.00
 0.48475401370000E-01 0.10000000000000E+01
 p    4 1.00
 0.34697232244000E+02 0.11327220003114E-01
 0.79582622826000E+01 0.76169659202087E-01
 0.23780826883000E+01 0.30192252202676E+00
 0.81433208183000E+00 0.72785027349547E+00
 p    1 1.00
 0.28887547253000E+00 0.10000000000000E+01
 p    1 1.00
 0.10056823671000E+00 0.10000000000000E+01
 d    1 1.00
 0.10970000000000E+01 0.10000000000000E+01
 d    1 1.00
 0.31800000000000E+00 0.10000000000000E+01
 d    1 1.00
 0.90985336424000E-01 0.10000000000000E+01
 f    1 1.00
 0.76100000000000E+00 0.10000000000000E+01
 
    3 0
 s    6 1.00
 0.13575349682000E+05 0.60645503603591E-03
 0.20352333680000E+04 0.46979088884982E-02
 0.46322562359000E+03 0.24332477647552E-01
 0.13120019598000E+03 0.97399968307759E-01
 0.42853015891000E+02 0.30195584253780E+00
 0.15584185766000E+02 0.66233609137875E+00
 s    2 1.00
 0.62067138508000E+01 0.65595308539952E+00
 0.25764896527000E+01 0.37585633285142E+00
 s    1 1.00
 0.57696339419000E+00 0.10000000000000E+01
 s    1 1.00
 0.22972831358000E+00 0.10000000000000E+01
 s    1 1.00
 0.95164440028000E-01 0.10000000000000E+01
 s    1 1.00
 0.48475401370000E-01 0.10000000000000E+01
 p    4 1.00
 0.34697232244000E+02 0.11327220003114E-01
 0.79582622826000E+01 0.76169659202087E-01
 0.23780826883000E+01 0.30192252202676E+00
 0.81433208183000E+00 0.72785027349547E+00
 p    1 1.00
 0.28887547253000E+00 0.10000000000000E+01
 p    1 1.00
 0.10056823671000E+00 0.10000000000000E+01
 d    1 1.00
 0.10970000000000E+01 0.10000000000000E+01
 d    1 1.00
 0.31800000000000E+00 0.10000000000000E+01
 d    1 1.00
 0.90985336424000E-01 0.10000000000000E+01
 f    1 1.00
 0.76100000000000E+00 0.10000000000000E+01
 
    4 0
 s    6 1.00
 0.13575349682000E+05 0.60645503603591E-03
 0.20352333680000E+04 0.46979088884982E-02
 0.46322562359000E+03 0.24332477647552E-01
 0.13120019598000E+03 0.97399968307759E-01
 0.42853015891000E+02 0.30195584253780E+00
 0.15584185766000E+02 0.66233609137875E+00
 s    2 1.00
 0.62067138508000E+01 0.65595308539952E+00
 0.25764896527000E+01 0.37585633285142E+00
 s    1 1.00
 0.57696339419000E+00 0.10000000000000E+01
 s    1 1.00
 0.22972831358000E+00 0.10000000000000E+01
 s    1 1.00
 0.95164440028000E-01 0.10000000000000E+01
 s    1 1.00
 0.48475401370000E-01 0.10000000000000E+01
 p    4 1.00
 0.34697232244000E+02 0.11327220003114E-01
 0.79582622826000E+01 0.76169659202087E-01
 0.23780826883000E+01 0.30192252202676E+00
 0.81433208183000E+00 0.72785027349547E+00
 p    1 1.00
 0.28887547253000E+00 0.10000000000000E+01
 p    1 1.00
 0.10056823671000E+00 0.10000000000000E+01
 d    1 1.00
 0.10970000000000E+01 0.10000000000000E+01
 d    1 1.00
 0.31800000000000E+00 0.10000000000000E+01
 d    1 1.00
 0.90985336424000E-01 0.10000000000000E+01
 f    1 1.00
 0.76100000000000E+00 0.10000000000000E+01
 
    5 0
 s    6 1.00
 0.13575349682000E+05 0.60645503603591E-03
 0.20352333680000E+04 0.46979088884982E-02
 0.46322562359000E+03 0.24332477647552E-01
 0.13120019598000E+03 0.97399968307759E-01
 0.42853015891000E+02 0.30195584253780E+00
 0.15584185766000E+02 0.66233609137875E+00
 s    2 1.00
 0.62067138508000E+01 0.65595308539952E+00
 0.25764896527000E+01 0.37585633285142E+00
 s    1 1.00
 0.57696339419000E+00 0.10000000000000E+01
 s    1 1.00
 0.22972831358000E+00 0.10000000000000E+01
 s    1 1.00
 0.95164440028000E-01 0.10000000000000E+01
 s    1 1.00
 0.48475401370000E-01 0.10000000000000E+01
 p    4 1.00
 0.34697232244000E+02 0.11327220003114E-01
 0.79582622826000E+01 0.76169659202087E-01
 0.23780826883000E+01 0.30192252202676E+00
 0.81433208183000E+00 0.72785027349547E+00
 p    1 1.00
 0.28887547253000E+00 0.10000000000000E+01
 p    1 1.00
 0.10056823671000E+00 0.10000000000000E+01
 d    1 1.00
 0.10970000000000E+01 0.10000000000000E+01
 d    1 1.00
 0.31800000000000E+00 0.10000000000000E+01
 d    1 1.00
 0.90985336424000E-01 0.10000000000000E+01
 f    1 1.00
 0.76100000000000E+00 0.10000000000000E+01
 
    6 0
 s    6 1.00
 0.13575349682000E+05 0.60645503603591E-03
 0.20352333680000E+04 0.46979088884982E-02
 0.46322562359000E+03 0.24332477647552E-01
 0.13120019598000E+03 0.97399968307759E-01
 0.42853015891000E+02 0.30195584253780E+00
 0.15584185766000E+02 0.66233609137875E+00
 s    2 1.00
 0.62067138508000E+01 0.65595308539952E+00
 0.25764896527000E+01 0.37585633285142E+00
 s    1 1.00
 0.57696339419000E+00 0.10000000000000E+01
 s    1 1.00
 0.22972831358000E+00 0.10000000000000E+01
 s    1 1.00
 0.95164440028000E-01 0.10000000000000E+01
 s    1 1.00
 0.48475401370000E-01 0.10000000000000E+01
 p    4 1.00
 0.34697232244000E+02 0.11327220003114E-01
 0.79582622826000E+01 0.76169659202087E-01
 0.23780826883000E+01 0.30192252202676E+00
 0.81433208183000E+00 0.72785027349547E+00
 p    1 1.00
 0.28887547253000E+00 0.10000000000000E+01
 p    1 1.00
 0.10056823671000E+00 0.10000000000000E+01
 d    1 1.00
 0.10970000000000E+01 0.10000000000000E+01
 d    1 1.00
 0.31800000000000E+00 0.10000000000000E+01
 d    1 1.00
 0.90985336424000E-01 0.10000000000000E+01
 f    1 1.00
 0.76100000000000E+00 0.10000000000000E+01
 
    7 0
 s    3 1.00
 0.34061341000000E+02 0.25439307208879E-01
 0.51235746000000E+01 0.19008594890375E+00
 0.11646626000000E+01 0.85244113011042E+00
 s    1 1.00
 0.32723041000000E+00 0.10000000000000E+01
 s    1 1.00
 0.10307241000000E+00 0.10000000000000E+01
 p    1 1.00
 0.80000000000000E+00 0.10000000000000E+01
 p    1 1.00
 0.95774129632000E-01 0.10000000000000E+01
 
    8 0
 s    3 1.00
 0.34061341000000E+02 0.25439307208879E-01
 0.51235746000000E+01 0.19008594890375E+00
 0.11646626000000E+01 0.85244113011042E+00
 s    1 1.00
 0.32723041000000E+00 0.10000000000000E+01
 s    1 1.00
 0.10307241000000E+00 0.10000000000000E+01
 p    1 1.00
 0.80000000000000E+00 0.10000000000000E+01
 p    1 1.00
 0.95774129632000E-01 0.10000000000000E+01
 
    9 0
 s    3 1.00
 0.34061341000000E+02 0.25439307208879E-01
 0.51235746000000E+01 0.19008594890375E+00
 0.11646626000000E+01 0.85244113011042E+00
 s    1 1.00
 0.32723041000000E+00 0.10000000000000E+01
 s    1 1.00
 0.10307241000000E+00 0.10000000000000E+01
 p    1 1.00
 0.80000000000000E+00 0.10000000000000E+01
 p    1 1.00
 0.95774129632000E-01 0.10000000000000E+01
 
   10 0
 s    3 1.00
 0.34061341000000E+02 0.25439307208879E-01
 0.51235746000000E+01 0.19008594890375E+00
 0.11646626000000E+01 0.85244113011042E+00
 s    1 1.00
 0.32723041000000E+00 0.10000000000000E+01
 s    1 1.00
 0.10307241000000E+00 0.10000000000000E+01
 p    1 1.00
 0.80000000000000E+00 0.10000000000000E+01
 p    1 1.00
 0.95774129632000E-01 0.10000000000000E+01
 
   11 0
 s    6 1.00
 0.19730800647000E+05 0.58626402628763E-03
 0.29578958745000E+04 0.45428820586397E-02
 0.67322133595000E+03 0.23558413450084E-01
 0.19068249494000E+03 0.94709193292923E-01
 0.62295441898000E+02 0.29719784913376E+00
 0.22654161182000E+02 0.66916246895232E+00
 s    2 1.00
 0.89791477428000E+01 0.64596683630063E+00
 0.36863002370000E+01 0.38700574393705E+00
 s    1 1.00
 0.84660076805000E+00 0.10000000000000E+01
 s    1 1.00
 0.33647133771000E+00 0.10000000000000E+01
 s    1 1.00
 0.13647653675000E+00 0.10000000000000E+01
 s    1 1.00
 0.68441605847000E-01 0.10000000000000E+01
 p    4 1.00
 0.49200380510000E+02 0.11448825101764E-01
 0.11346790537000E+02 0.78422337970864E-01
 0.34273972411000E+01 0.30818094738830E+00
 0.11785525134000E+01 0.72027196368413E+00
 p    1 1.00
 0.41642204972000E+00 0.10000000000000E+01
 p    1 1.00
 0.14260826011000E+00 0.10000000000000E+01
 d    1 1.00
 0.16540000000000E+01 0.10000000000000E+01
 d    1 1.00
 0.46900000000000E+00 0.10000000000000E+01
 d    1 1.00
 0.12829642058000E+00 0.10000000000000E+01
 f    1 1.00
 0.10930000000000E+01 0.10000000000000E+01
 
   12 0
 s    6 1.00
 0.27032382631000E+05 0.57227335211155E-03
 0.40523871392000E+04 0.44353233492995E-02
 0.92232722710000E+03 0.23020107706038E-01
 0.26124070989000E+03 0.92822490667928E-01
 0.85354641351000E+02 0.29378500009671E+00
 0.31035035245000E+02 0.67401604501641E+00
 s    2 1.00
 0.12260860728000E+02 0.63839937025506E+00
 0.49987076005000E+01 0.39534587125718E+00
 s    1 1.00
 0.11703108158000E+01 0.10000000000000E+01
 s    1 1.00
 0.46474740994000E+00 0.10000000000000E+01
 s    1 1.00
 0.18504536357000E+00 0.10000000000000E+01
 s    1 1.00
 0.70288026270000E-01 0.10000000000000E+01
 p    4 1.00
 0.63274954801000E+02 0.12018332222616E-01
 0.14627049379000E+02 0.83005421790056E-01
 0.44501223456000E+01 0.31991743925964E+00
 0.15275799647000E+01 0.70715542916104E+00
 p    1 1.00
 0.52935117943000E+00 0.10000000000000E+01
 p    1 1.00
 0.17478421270000E+00 0.10000000000000E+01
 p    1 1.00
 0.51112745706000E-01 0.10000000000000E+01
 d    1 1.00
 0.23140000000000E+01 0.10000000000000E+01
 d    1 1.00
 0.64500000000000E+00 0.10000000000000E+01
 d    1 1.00
 0.14696477366000E+00 0.10000000000000E+01
 f    1 1.00
 0.14280000000000E+01 0.10000000000000E+01
 
   13 0
 s    6 1.00
 0.27032382631000E+05 0.57227335211155E-03
 0.40523871392000E+04 0.44353233492995E-02
 0.92232722710000E+03 0.23020107706038E-01
 0.26124070989000E+03 0.92822490667928E-01
 0.85354641351000E+02 0.29378500009671E+00
 0.31035035245000E+02 0.67401604501641E+00
 s    2 1.00
 0.12260860728000E+02 0.63839937025506E+00
 0.49987076005000E+01 0.39534587125718E+00
 s    1 1.00
 0.11703108158000E+01 0.10000000000000E+01
 s    1 1.00
 0.46474740994000E+00 0.10000000000000E+01
 s    1 1.00
 0.18504536357000E+00 0.10000000000000E+01
 s    1 1.00
 0.70288026270000E-01 0.10000000000000E+01
 p    4 1.00
 0.63274954801000E+02 0.12018332222616E-01
 0.14627049379000E+02 0.83005421790056E-01
 0.44501223456000E+01 0.31991743925964E+00
 0.15275799647000E+01 0.70715542916104E+00
 p    1 1.00
 0.52935117943000E+00 0.10000000000000E+01
 p    1 1.00
 0.17478421270000E+00 0.10000000000000E+01
 p    1 1.00
 0.51112745706000E-01 0.10000000000000E+01
 d    1 1.00
 0.23140000000000E+01 0.10000000000000E+01
 d    1 1.00
 0.64500000000000E+00 0.10000000000000E+01
 d    1 1.00
 0.14696477366000E+00 0.10000000000000E+01
 f    1 1.00
 0.14280000000000E+01 0.10000000000000E+01
 
   14 0
 s    6 1.00
 0.19730800647000E+05 0.58626402628763E-03
 0.29578958745000E+04 0.45428820586397E-02
 0.67322133595000E+03 0.23558413450084E-01
 0.19068249494000E+03 0.94709193292923E-01
 0.62295441898000E+02 0.29719784913376E+00
 0.22654161182000E+02 0.66916246895232E+00
 s    2 1.00
 0.89791477428000E+01 0.64596683630063E+00
 0.36863002370000E+01 0.38700574393705E+00
 s    1 1.00
 0.84660076805000E+00 0.10000000000000E+01
 s    1 1.00
 0.33647133771000E+00 0.10000000000000E+01
 s    1 1.00
 0.13647653675000E+00 0.10000000000000E+01
 s    1 1.00
 0.68441605847000E-01 0.10000000000000E+01
 p    4 1.00
 0.49200380510000E+02 0.11448825101764E-01
 0.11346790537000E+02 0.78422337970864E-01
 0.34273972411000E+01 0.30818094738830E+00
 0.11785525134000E+01 0.72027196368413E+00
 p    1 1.00
 0.41642204972000E+00 0.10000000000000E+01
 p    1 1.00
 0.14260826011000E+00 0.10000000000000E+01
 d    1 1.00
 0.16540000000000E+01 0.10000000000000E+01
 d    1 1.00
 0.46900000000000E+00 0.10000000000000E+01
 d    1 1.00
 0.12829642058000E+00 0.10000000000000E+01
 f    1 1.00
 0.10930000000000E+01 0.10000000000000E+01
 
   15 0
 s    3 1.00
 0.34061341000000E+02 0.25439307208879E-01
 0.51235746000000E+01 0.19008594890375E+00
 0.11646626000000E+01 0.85244113011042E+00
 s    1 1.00
 0.32723041000000E+00 0.10000000000000E+01
 s    1 1.00
 0.10307241000000E+00 0.10000000000000E+01
 p    1 1.00
 0.80000000000000E+00 0.10000000000000E+01
 p    1 1.00
 0.95774129632000E-01 0.10000000000000E+01
 
   16 0
 s    3 1.00
 0.34061341000000E+02 0.25439307208879E-01
 0.51235746000000E+01 0.19008594890375E+00
 0.11646626000000E+01 0.85244113011042E+00
 s    1 1.00
 0.32723041000000E+00 0.10000000000000E+01
 s    1 1.00
 0.10307241000000E+00 0.10000000000000E+01
 p    1 1.00
 0.80000000000000E+00 0.10000000000000E+01
 p    1 1.00
 0.95774129632000E-01 0.10000000000000E+01
 
[MO]
 Sym= X
 Ene= -0.072723
 Spin= Alpha
 Occup= -0.072723
         1    3.393951E-04
         2    7.767872E-04
         3   -1.590979E-03
         4    8.317278E-04
         5   -9.271795E-03
         6    1.024173E-02
         7   -4.610555E-03
         8   -6.431729E-04
         9    1.291488E-01
        10   -3.475773E-04
        11   -9.292350E-04
        12    1.272849E-01
        13    1.953038E-02
        14   -1.096995E-03
        15    4.931045E-02
        16   -1.150515E-04
        17    1.039962E-04
        18    1.105529E-05
        19    6.471406E-05
        20   -1.266512E-03
        21    4.411386E-03
        22    3.475178E-04
        23   -2.290968E-04
        24   -1.184210E-04
        25    7.864951E-04
        26   -3.262624E-03
        27    7.434580E-03
        28    1.679891E-03
        29   -1.481142E-03
        30   -1.987495E-04
        31   -1.883427E-03
        32   -6.906953E-03
        33    5.122816E-03
        34    3.710368E-06
        35   -1.242935E-05
        36   -1.059316E-03
        37    1.607727E-06
        38    1.174579E-05
        39    4.765141E-04
        40   -6.585708E-06
        41    4.929939E-06
        42    9.447077E-04
        43   -5.494784E-04
        44   -1.314266E-04
        45   -2.925476E-04
        46    7.508277E-05
        47    4.553758E-03
        48    1.209487E-02
        49   -9.549195E-03
        50    6.769606E-04
        51   -7.203701E-07
        52    2.128269E-01
        53    1.570128E-03
        54    9.047566E-06
        55    2.158514E-01
        56    8.282819E-03
        57    8.700946E-04
        58    7.965112E-02
        59   -1.326263E-04
        60    1.377522E-04
        61   -5.125893E-06
        62   -7.789076E-08
        63    2.649573E-03
        64   -4.257770E-06
        65   -5.680912E-04
        66    8.181454E-04
        67   -2.500543E-04
        68    1.991967E-06
        69    3.804400E-03
        70   -7.685326E-06
        71   -1.129190E-02
        72    1.167496E-02
        73   -3.830634E-04
        74    8.503666E-05
        75    7.756099E-03
        76    5.606893E-06
        77    1.797589E-07
        78    7.600557E-08
        79   -1.597180E-03
        80    1.102133E-05
        81   -2.637998E-08
        82    8.019029E-04
        83   -1.126250E-05
        84   -7.559219E-08
        85    1.340938E-03
        86   -4.301759E-07
        87    3.395632E-04
        88    7.771907E-04
        89   -1.592255E-03
        90    8.476363E-04
        91   -1.109256E-02
        92    1.028154E-02
        93   -4.610496E-03
        94    6.443203E-04
        95    1.289410E-01
        96   -3.322198E-04
        97    9.439417E-04
        98    1.270763E-01
        99    1.989000E-02
       100    1.953168E-03
       101    4.914423E-02
       102   -1.147103E-04
       103    1.037903E-04
       104    1.092006E-05
       105   -6.485525E-05
       106   -1.271816E-03
       107   -4.410930E-03
       108    3.481854E-04
       109   -2.297882E-04
       110   -1.183972E-04
       111   -7.904433E-04
       112   -3.270873E-03
       113   -7.432706E-03
       114    1.730261E-03
       115   -1.542456E-03
       116   -1.878054E-04
       117    1.792760E-03
       118   -6.909342E-03
       119   -5.077719E-03
       120    3.742920E-06
       121    1.248950E-05
       122   -1.057960E-03
       123    1.608061E-06
       124   -1.172433E-05
       125    4.749252E-04
       126   -6.629714E-06
       127   -5.032096E-06
       128    9.444768E-04
       129    5.492870E-04
       130   -2.709681E-04
       131   -6.007137E-04
       132   -2.817524E-05
       133    1.048377E-02
       134    3.918185E-03
       135   -1.186980E-02
       136    4.653999E-03
       137   -1.962951E-03
       138    2.425283E-02
       139    1.077473E-02
       140   -6.597857E-03
       141    2.414230E-02
       142    9.401022E-03
       143    9.274732E-03
       144    1.341198E-03
       145   -3.026192E-04
       146    3.516803E-04
       147   -4.906112E-05
       148   -2.542098E-05
       149   -3.993485E-03
       150    1.000875E-03
       151   -5.626546E-04
       152    7.982661E-04
       153   -2.356115E-04
       154   -1.641085E-03
       155   -7.087503E-03
       156    2.333093E-03
       157   -6.624657E-03
       158    5.524921E-03
       159    1.099736E-03
       160    7.841447E-03
       161   -3.426860E-03
       162    1.200532E-02
       163    1.429243E-05
       164   -2.350579E-05
       165   -2.122523E-04
       166    2.997933E-05
       167   -1.284162E-06
       168    4.788648E-04
       169   -4.915463E-05
       170    3.282048E-05
       171   -1.940984E-04
       172    4.011259E-04
       173    1.018336E-03
       174    2.301647E-03
       175   -2.597646E-03
       176   -1.439999E-02
       177    5.036434E-02
       178   -5.681116E-05
       179   -1.449738E-02
       180    2.561143E-06
       181   -9.961514E-02
       182   -3.296241E-03
       183    1.182130E-05
       184   -9.627628E-02
       185    3.618480E-02
       186   -5.430513E-04
       187    1.288055E-02
       188   -7.008311E-04
       189    5.025937E-04
       190    1.982374E-04
       191   -2.105898E-07
       192   -6.332673E-03
       193   -3.950783E-06
       194    1.749425E-03
       195   -3.555287E-03
       196    1.805862E-03
       197   -2.374470E-06
       198   -1.272903E-02
       199   -9.822926E-06
       200    7.176097E-03
       201   -7.396616E-03
       202    2.205184E-04
       203    1.150526E-04
       204   -3.963820E-03
       205   -1.630180E-05
       206   -1.270462E-04
       207   -7.001549E-09
       208    9.475844E-04
       209    7.280962E-05
       210    9.782115E-08
       211   -1.377817E-03
       212    9.764076E-05
       213   -8.842759E-08
       214    1.064991E-04
       215    6.764223E-07
       216   -2.705510E-04
       217   -5.996904E-04
       218   -3.373775E-05
       219    1.052125E-02
       220    2.475232E-03
       221   -1.182251E-02
       222    4.654577E-03
       223    1.956330E-03
       224    2.446686E-02
       225    1.077135E-02
       226    6.605310E-03
       227    2.435803E-02
       228    9.218128E-03
       229   -9.974571E-03
       230    1.409585E-03
       231   -3.027433E-04
       232    3.517852E-04
       233   -4.904190E-05
       234    2.515407E-05
       235   -3.998875E-03
       236   -1.000290E-03
       237   -5.617906E-04
       238    7.993411E-04
       239   -2.375505E-04
       240    1.642335E-03
       241   -7.095666E-03
       242   -2.333390E-03
       243   -6.530809E-03
       244    5.425848E-03
       245    1.104961E-03
       246   -7.879948E-03
       247   -3.443035E-03
       248   -1.203084E-02
       249    1.416502E-05
       250    2.354268E-05
       251   -2.136145E-04
       252    3.013352E-05
       253    1.259511E-06
       254    4.803949E-04
       255   -4.913789E-05
       256   -3.284533E-05
       257   -1.938010E-04
       258   -4.010843E-04
       259    1.301903E-03
       260    1.762205E-03
       261    1.756121E-02
       262    3.181473E-05
       263    1.576431E-04
       264    4.641008E-03
       265    4.059144E-03
       266    1.438168E-03
       267    2.128903E-03
       268    1.302342E-03
       269    1.757415E-03
       270    1.736567E-02
       271    3.127464E-05
       272   -1.571984E-04
       273    4.632013E-03
       274    4.068498E-03
       275   -1.416236E-03
       276    2.084534E-03
       277    1.070354E-03
       278    3.159847E-03
       279   -3.224540E-02
       280    4.450754E-05
       281   -2.101860E-04
       282    3.915318E-04
       283    4.700441E-03
       284    2.048189E-03
       285   -1.007377E-02
       286    1.073337E-03
       287    3.159119E-03
       288   -3.236104E-02
       289    4.372468E-05
       290    2.100792E-04
       291    4.005028E-04
       292    4.677086E-03
       293   -2.090630E-03
       294   -1.007557E-02
       295    1.373793E-04
       296    3.244591E-04
       297   -4.308716E-04
       298   -1.073876E-03
       299    9.707806E-03
       300    5.519320E-03
       301   -1.499438E-03
       302   -1.026407E-06
       303   -3.268037E-02
       304   -1.085381E-03
       305    3.052358E-06
       306   -3.094752E-02
       307    3.861348E-03
       308   -4.521498E-05
       309    4.688845E-03
       310    2.285247E-05
       311   -2.348956E-07
       312   -2.261757E-05
       313    1.175359E-07
       314    4.505154E-03
       315   -4.528744E-06
       316    1.173759E-04
       317   -7.625761E-05
       318   -4.111833E-05
       319   -3.665891E-07
       320    1.266864E-02
       321   -1.354833E-05
       322    1.421827E-04
       323   -2.011947E-03
       324    1.869764E-03
       325   -2.878855E-05
       326    5.482785E-03
       327    5.318583E-06
       328   -3.041567E-06
       329    2.447972E-08
       330    2.311605E-04
       331    8.137132E-07
       332   -3.285794E-09
       333    5.833162E-04
       334    3.266977E-06
       335   -2.955720E-08
       336   -8.934506E-04
       337    7.025537E-07
       338    5.816065E-05
       339    1.391882E-04
       340   -1.742373E-04
       341   -7.335924E-04
       342    4.975348E-03
       343    5.693172E-04
       344   -5.656924E-04
       345   -6.591186E-04
       346   -9.098100E-02
       347   -3.851158E-04
       348   -6.875041E-04
       349   -8.359015E-02
       350    3.314780E-04
       351   -1.011378E-03
       352   -5.837293E-02
       353    2.404144E-04
       354   -2.299610E-05
       355   -4.969002E-03
       356   -1.259407E-05
       357    1.572306E-05
       358   -3.128987E-06
       359    6.969192E-06
       360   -3.499005E-04
       361    1.055444E-03
       362   -1.886178E-05
       363    4.407592E-05
       364   -2.521414E-05
       365    1.774551E-05
       366   -1.498607E-03
       367    3.213866E-03
       368   -1.815105E-06
       369    6.421982E-05
       370   -6.240472E-05
       371    6.339132E-05
       372   -1.760175E-03
       373    6.860446E-04
       374   -2.321690E-07
       375   -6.250809E-06
       376    1.734997E-04
       377    6.907110E-07
       378    6.905827E-06
       379    7.921699E-05
       380   -3.792237E-07
       381    1.480513E-06
       382   -3.119913E-04
       383    2.759844E-04
       384    5.820791E-05
       385    1.392590E-04
       386   -1.740373E-04
       387   -7.368032E-04
       388    4.999705E-03
       389    5.920210E-04
       390   -5.705348E-04
       391    6.661027E-04
       392   -9.073878E-02
       393   -3.880874E-04
       394    6.955543E-04
       395   -8.336963E-02
       396    3.062183E-04
       397    1.021652E-03
       398   -5.819706E-02
       399    2.440230E-04
       400    2.316642E-05
       401   -4.941826E-03
       402   -1.257333E-05
       403    1.574828E-05
       404   -3.174958E-06
       405   -6.955445E-06
       406   -3.485589E-04
       407   -1.053438E-03
       408   -1.941865E-05
       409    4.496502E-05
       410   -2.554638E-05
       411   -1.741239E-05
       412   -1.494091E-03
       413   -3.207331E-03
       414   -5.951432E-07
       415    6.293243E-05
       416   -6.233729E-05
       417   -6.884411E-05
       418   -1.755467E-03
       419   -6.780251E-04
       420   -2.380263E-07
       421    6.289917E-06
       422    1.731191E-04
       423    7.530782E-07
       424   -6.933592E-06
       425    7.918331E-05
       426   -4.337324E-07
       427   -1.505217E-06
       428   -3.114469E-04
       429   -2.753274E-04
       430   -4.215367E-03
       431   -9.969513E-03
       432    1.536498E-02
       433    2.451941E-02
       434    4.225707E-03
       435    2.755754E-02
       436    1.951433E-02
       437   -9.029096E-06
       438   -2.392326E-01
       439    2.188633E-02
       440   -1.116370E-06
       441   -2.323449E-01
       442    2.884703E-02
       443    9.851862E-05
       444   -1.579735E-01
       445    7.077540E-05
       446    1.627528E-04
       447   -2.335282E-04
       448   -3.145528E-07
       449    2.019681E-03
       450   -4.461914E-07
       451   -1.366353E-04
       452    2.003944E-03
       453   -1.867308E-03
       454    4.135883E-06
       455    4.278904E-03
       456   -9.072851E-07
       457   -1.495760E-03
       458    5.566138E-03
       459   -4.070378E-03
       460    1.138387E-05
       461    5.423672E-04
       462   -3.040842E-06
       463    8.785377E-05
       464   -2.173205E-08
       465    1.298454E-03
       466    1.070761E-04
       467    1.305443E-08
       468   -1.125316E-03
       469   -2.249443E-04
       470    1.610217E-08
       471   -6.167435E-04
       472    5.599872E-08
       473   -5.465810E-03
       474   -1.299863E-02
       475   -2.321258E-02
       476    2.291568E-03
       477    1.630941E-03
       478   -1.097295E-02
       479    2.997897E-03
       480    2.052329E-03
       481   -4.484272E-03
       482   -5.458844E-03
       483   -1.292372E-02
       484   -2.296663E-02
       485    2.287452E-03
       486   -1.623849E-03
       487   -1.097510E-02
       488    2.975792E-03
       489   -2.003213E-03
       490   -4.496104E-03
 Sym= X
 Ene= -0.778504
 Spin= Alpha
 Occup= -0.778504
         1   -2.055840E-04
         2   -4.765124E-04
         3    1.251982E-03
         4   -2.329650E-03
         5   -9.135977E-03
         6   -1.107070E-02
         7    1.895116E-03
         8    2.226411E-04
         9    2.266027E-02
        10   -2.153038E-03
        11    4.427208E-04
        12    2.077490E-02
        13   -3.495326E-02
        14    9.631129E-03
        15    2.055452E-03
        16    1.205860E-05
        17   -2.081030E-05
        18    8.751699E-06
        19   -1.427644E-05
        20   -6.176623E-03
        21    3.731204E-03
        22   -6.320335E-04
        23    3.836790E-04
        24    2.483546E-04
        25   -7.135279E-04
        26   -1.394572E-02
        27    7.051360E-03
        28   -4.954553E-03
        29    4.622213E-03
        30    3.323405E-04
        31    1.211200E-03
        32    1.767463E-03
        33   -1.112555E-02
        34   -1.769920E-05
        35    7.355882E-06
        36   -9.545660E-05
        37    6.753071E-06
        38   -7.433877E-06
        39   -6.925327E-04
        40    1.699289E-05
        41   -2.435075E-06
        42    8.206012E-04
        43   -6.750490E-04
        44    4.173462E-05
        45    9.203222E-05
        46    9.670058E-05
        47   -2.918138E-03
        48   -4.913185E-02
        49    5.619461E-03
        50    3.761024E-04
        51    1.154073E-06
        52    1.974331E-01
        53   -4.555493E-04
        54    1.924012E-05
        55    2.049252E-01
        56   -1.640024E-02
        57   -1.274818E-03
        58    2.016587E-01
        59    4.450709E-05
        60   -4.249458E-05
        61   -2.012511E-06
        62    1.033545E-07