[Molden Format]
[Title]
ADC(2) - opt by CAM-B3LYP gaussian                                              
[Atoms] AU
 c     1    6 -.12588573623097E+01 -.22835126974190E+01 -.24083260376910E-01
 c     2    6 -.25578815622211E+01 0.23621577000000E-06 -.22837930855340E-01
 c     3    6 -.12588573623097E+01 0.22835131698505E+01 -.24090819281440E-01
 c     4    6 0.13318248850473E+01 0.22853065199506E+01 -.26003222127920E-01
 c     5    6 0.26868737956204E+01 0.23621577000000E-06 -.25389061134730E-01
 c     6    6 0.13318248850473E+01 -.22853060475191E+01 -.25993773497260E-01
 h     7    1 -.22974546243959E+01 -.40385977330627E+01 -.21598270512170E-01
 h     8    1 -.22974527346698E+01 0.40385982054942E+01 -.21613388321230E-01
 h     9    1 0.23510089905703E+01 0.40574312161345E+01 -.28191524989800E-01
 h    10    1 0.23510071008442E+01 -.40574307437030E+01 -.28172627728480E-01
 n    11    7 -.52726375582849E+01 0.23621577000000E-06 -.17238672323600E-01
 o    12    8 -.63813946825068E+01 0.20269261555273E+01 -.14842499587100E-01
 o    13    8 -.63813927927806E+01 -.20269275728219E+01 -.14865176300690E-01
 n    14    7 0.52430742102305E+01 0.23621577000000E-06 -.67376886081320E-01
 h    15    1 0.62051583509223E+01 0.16177513148781E+01 0.18115044628513E+00
 h    16    1 0.62051564611962E+01 -.16177527321727E+01 0.18114666683287E+00
[GTO]
    1 0
 s    6 1.00
 0.13575349682000E+05 0.60645503603591E-03
 0.20352333680000E+04 0.46979088884982E-02
 0.46322562359000E+03 0.24332477647552E-01
 0.13120019598000E+03 0.97399968307759E-01
 0.42853015891000E+02 0.30195584253780E+00
 0.15584185766000E+02 0.66233609137875E+00
 s    2 1.00
 0.62067138508000E+01 0.65595308539952E+00
 0.25764896527000E+01 0.37585633285142E+00
 s    1 1.00
 0.57696339419000E+00 0.10000000000000E+01
 s    1 1.00
 0.22972831358000E+00 0.10000000000000E+01
 s    1 1.00
 0.95164440028000E-01 0.10000000000000E+01
 s    1 1.00
 0.48475401370000E-01 0.10000000000000E+01
 p    4 1.00
 0.34697232244000E+02 0.11327220003114E-01
 0.79582622826000E+01 0.76169659202087E-01
 0.23780826883000E+01 0.30192252202676E+00
 0.81433208183000E+00 0.72785027349547E+00
 p    1 1.00
 0.28887547253000E+00 0.10000000000000E+01
 p    1 1.00
 0.10056823671000E+00 0.10000000000000E+01
 d    1 1.00
 0.10970000000000E+01 0.10000000000000E+01
 d    1 1.00
 0.31800000000000E+00 0.10000000000000E+01
 d    1 1.00
 0.90985336424000E-01 0.10000000000000E+01
 f    1 1.00
 0.76100000000000E+00 0.10000000000000E+01
 
    2 0
 s    6 1.00
 0.13575349682000E+05 0.60645503603591E-03
 0.20352333680000E+04 0.46979088884982E-02
 0.46322562359000E+03 0.24332477647552E-01
 0.13120019598000E+03 0.97399968307759E-01
 0.42853015891000E+02 0.30195584253780E+00
 0.15584185766000E+02 0.66233609137875E+00
 s    2 1.00
 0.62067138508000E+01 0.65595308539952E+00
 0.25764896527000E+01 0.37585633285142E+00
 s    1 1.00
 0.57696339419000E+00 0.10000000000000E+01
 s    1 1.00
 0.22972831358000E+00 0.10000000000000E+01
 s    1 1.00
 0.95164440028000E-01 0.10000000000000E+01
 s    1 1.00
 0.48475401370000E-01 0.10000000000000E+01
 p    4 1.00
 0.34697232244000E+02 0.11327220003114E-01
 0.79582622826000E+01 0.76169659202087E-01
 0.23780826883000E+01 0.30192252202676E+00
 0.81433208183000E+00 0.72785027349547E+00
 p    1 1.00
 0.28887547253000E+00 0.10000000000000E+01
 p    1 1.00
 0.10056823671000E+00 0.10000000000000E+01
 d    1 1.00
 0.10970000000000E+01 0.10000000000000E+01
 d    1 1.00
 0.31800000000000E+00 0.10000000000000E+01
 d    1 1.00
 0.90985336424000E-01 0.10000000000000E+01
 f    1 1.00
 0.76100000000000E+00 0.10000000000000E+01
 
    3 0
 s    6 1.00
 0.13575349682000E+05 0.60645503603591E-03
 0.20352333680000E+04 0.46979088884982E-02
 0.46322562359000E+03 0.24332477647552E-01
 0.13120019598000E+03 0.97399968307759E-01
 0.42853015891000E+02 0.30195584253780E+00
 0.15584185766000E+02 0.66233609137875E+00
 s    2 1.00
 0.62067138508000E+01 0.65595308539952E+00
 0.25764896527000E+01 0.37585633285142E+00
 s    1 1.00
 0.57696339419000E+00 0.10000000000000E+01
 s    1 1.00
 0.22972831358000E+00 0.10000000000000E+01
 s    1 1.00
 0.95164440028000E-01 0.10000000000000E+01
 s    1 1.00
 0.48475401370000E-01 0.10000000000000E+01
 p    4 1.00
 0.34697232244000E+02 0.11327220003114E-01
 0.79582622826000E+01 0.76169659202087E-01
 0.23780826883000E+01 0.30192252202676E+00
 0.81433208183000E+00 0.72785027349547E+00
 p    1 1.00
 0.28887547253000E+00 0.10000000000000E+01
 p    1 1.00
 0.10056823671000E+00 0.10000000000000E+01
 d    1 1.00
 0.10970000000000E+01 0.10000000000000E+01
 d    1 1.00
 0.31800000000000E+00 0.10000000000000E+01
 d    1 1.00
 0.90985336424000E-01 0.10000000000000E+01
 f    1 1.00
 0.76100000000000E+00 0.10000000000000E+01
 
    4 0
 s    6 1.00
 0.13575349682000E+05 0.60645503603591E-03
 0.20352333680000E+04 0.46979088884982E-02
 0.46322562359000E+03 0.24332477647552E-01
 0.13120019598000E+03 0.97399968307759E-01
 0.42853015891000E+02 0.30195584253780E+00
 0.15584185766000E+02 0.66233609137875E+00
 s    2 1.00
 0.62067138508000E+01 0.65595308539952E+00
 0.25764896527000E+01 0.37585633285142E+00
 s    1 1.00
 0.57696339419000E+00 0.10000000000000E+01
 s    1 1.00
 0.22972831358000E+00 0.10000000000000E+01
 s    1 1.00
 0.95164440028000E-01 0.10000000000000E+01
 s    1 1.00
 0.48475401370000E-01 0.10000000000000E+01
 p    4 1.00
 0.34697232244000E+02 0.11327220003114E-01
 0.79582622826000E+01 0.76169659202087E-01
 0.23780826883000E+01 0.30192252202676E+00
 0.81433208183000E+00 0.72785027349547E+00
 p    1 1.00
 0.28887547253000E+00 0.10000000000000E+01
 p    1 1.00
 0.10056823671000E+00 0.10000000000000E+01
 d    1 1.00
 0.10970000000000E+01 0.10000000000000E+01
 d    1 1.00
 0.31800000000000E+00 0.10000000000000E+01
 d    1 1.00
 0.90985336424000E-01 0.10000000000000E+01
 f    1 1.00
 0.76100000000000E+00 0.10000000000000E+01
 
    5 0
 s    6 1.00
 0.13575349682000E+05 0.60645503603591E-03
 0.20352333680000E+04 0.46979088884982E-02
 0.46322562359000E+03 0.24332477647552E-01
 0.13120019598000E+03 0.97399968307759E-01
 0.42853015891000E+02 0.30195584253780E+00
 0.15584185766000E+02 0.66233609137875E+00
 s    2 1.00
 0.62067138508000E+01 0.65595308539952E+00
 0.25764896527000E+01 0.37585633285142E+00
 s    1 1.00
 0.57696339419000E+00 0.10000000000000E+01
 s    1 1.00
 0.22972831358000E+00 0.10000000000000E+01
 s    1 1.00
 0.95164440028000E-01 0.10000000000000E+01
 s    1 1.00
 0.48475401370000E-01 0.10000000000000E+01
 p    4 1.00
 0.34697232244000E+02 0.11327220003114E-01
 0.79582622826000E+01 0.76169659202087E-01
 0.23780826883000E+01 0.30192252202676E+00
 0.81433208183000E+00 0.72785027349547E+00
 p    1 1.00
 0.28887547253000E+00 0.10000000000000E+01
 p    1 1.00
 0.10056823671000E+00 0.10000000000000E+01
 d    1 1.00
 0.10970000000000E+01 0.10000000000000E+01
 d    1 1.00
 0.31800000000000E+00 0.10000000000000E+01
 d    1 1.00
 0.90985336424000E-01 0.10000000000000E+01
 f    1 1.00
 0.76100000000000E+00 0.10000000000000E+01
 
    6 0
 s    6 1.00
 0.13575349682000E+05 0.60645503603591E-03
 0.20352333680000E+04 0.46979088884982E-02
 0.46322562359000E+03 0.24332477647552E-01
 0.13120019598000E+03 0.97399968307759E-01
 0.42853015891000E+02 0.30195584253780E+00
 0.15584185766000E+02 0.66233609137875E+00
 s    2 1.00
 0.62067138508000E+01 0.65595308539952E+00
 0.25764896527000E+01 0.37585633285142E+00
 s    1 1.00
 0.57696339419000E+00 0.10000000000000E+01
 s    1 1.00
 0.22972831358000E+00 0.10000000000000E+01
 s    1 1.00
 0.95164440028000E-01 0.10000000000000E+01
 s    1 1.00
 0.48475401370000E-01 0.10000000000000E+01
 p    4 1.00
 0.34697232244000E+02 0.11327220003114E-01
 0.79582622826000E+01 0.76169659202087E-01
 0.23780826883000E+01 0.30192252202676E+00
 0.81433208183000E+00 0.72785027349547E+00
 p    1 1.00
 0.28887547253000E+00 0.10000000000000E+01
 p    1 1.00
 0.10056823671000E+00 0.10000000000000E+01
 d    1 1.00
 0.10970000000000E+01 0.10000000000000E+01
 d    1 1.00
 0.31800000000000E+00 0.10000000000000E+01
 d    1 1.00
 0.90985336424000E-01 0.10000000000000E+01
 f    1 1.00
 0.76100000000000E+00 0.10000000000000E+01
 
    7 0
 s    3 1.00
 0.34061341000000E+02 0.25439307208879E-01
 0.51235746000000E+01 0.19008594890375E+00
 0.11646626000000E+01 0.85244113011042E+00
 s    1 1.00
 0.32723041000000E+00 0.10000000000000E+01
 s    1 1.00
 0.10307241000000E+00 0.10000000000000E+01
 p    1 1.00
 0.80000000000000E+00 0.10000000000000E+01
 p    1 1.00
 0.95774129632000E-01 0.10000000000000E+01
 
    8 0
 s    3 1.00
 0.34061341000000E+02 0.25439307208879E-01
 0.51235746000000E+01 0.19008594890375E+00
 0.11646626000000E+01 0.85244113011042E+00
 s    1 1.00
 0.32723041000000E+00 0.10000000000000E+01
 s    1 1.00
 0.10307241000000E+00 0.10000000000000E+01
 p    1 1.00
 0.80000000000000E+00 0.10000000000000E+01
 p    1 1.00
 0.95774129632000E-01 0.10000000000000E+01
 
    9 0
 s    3 1.00
 0.34061341000000E+02 0.25439307208879E-01
 0.51235746000000E+01 0.19008594890375E+00
 0.11646626000000E+01 0.85244113011042E+00
 s    1 1.00
 0.32723041000000E+00 0.10000000000000E+01
 s    1 1.00
 0.10307241000000E+00 0.10000000000000E+01
 p    1 1.00
 0.80000000000000E+00 0.10000000000000E+01
 p    1 1.00
 0.95774129632000E-01 0.10000000000000E+01
 
   10 0
 s    3 1.00
 0.34061341000000E+02 0.25439307208879E-01
 0.51235746000000E+01 0.19008594890375E+00
 0.11646626000000E+01 0.85244113011042E+00
 s    1 1.00
 0.32723041000000E+00 0.10000000000000E+01
 s    1 1.00
 0.10307241000000E+00 0.10000000000000E+01
 p    1 1.00
 0.80000000000000E+00 0.10000000000000E+01
 p    1 1.00
 0.95774129632000E-01 0.10000000000000E+01
 
   11 0
 s    6 1.00
 0.19730800647000E+05 0.58626402628763E-03
 0.29578958745000E+04 0.45428820586397E-02
 0.67322133595000E+03 0.23558413450084E-01
 0.19068249494000E+03 0.94709193292923E-01
 0.62295441898000E+02 0.29719784913376E+00
 0.22654161182000E+02 0.66916246895232E+00
 s    2 1.00
 0.89791477428000E+01 0.64596683630063E+00
 0.36863002370000E+01 0.38700574393705E+00
 s    1 1.00
 0.84660076805000E+00 0.10000000000000E+01
 s    1 1.00
 0.33647133771000E+00 0.10000000000000E+01
 s    1 1.00
 0.13647653675000E+00 0.10000000000000E+01
 s    1 1.00
 0.68441605847000E-01 0.10000000000000E+01
 p    4 1.00
 0.49200380510000E+02 0.11448825101764E-01
 0.11346790537000E+02 0.78422337970864E-01
 0.34273972411000E+01 0.30818094738830E+00
 0.11785525134000E+01 0.72027196368413E+00
 p    1 1.00
 0.41642204972000E+00 0.10000000000000E+01
 p    1 1.00
 0.14260826011000E+00 0.10000000000000E+01
 d    1 1.00
 0.16540000000000E+01 0.10000000000000E+01
 d    1 1.00
 0.46900000000000E+00 0.10000000000000E+01
 d    1 1.00
 0.12829642058000E+00 0.10000000000000E+01
 f    1 1.00
 0.10930000000000E+01 0.10000000000000E+01
 
   12 0
 s    6 1.00
 0.27032382631000E+05 0.57227335211155E-03
 0.40523871392000E+04 0.44353233492995E-02
 0.92232722710000E+03 0.23020107706038E-01
 0.26124070989000E+03 0.92822490667928E-01
 0.85354641351000E+02 0.29378500009671E+00
 0.31035035245000E+02 0.67401604501641E+00
 s    2 1.00
 0.12260860728000E+02 0.63839937025506E+00
 0.49987076005000E+01 0.39534587125718E+00
 s    1 1.00
 0.11703108158000E+01 0.10000000000000E+01
 s    1 1.00
 0.46474740994000E+00 0.10000000000000E+01
 s    1 1.00
 0.18504536357000E+00 0.10000000000000E+01
 s    1 1.00
 0.70288026270000E-01 0.10000000000000E+01
 p    4 1.00
 0.63274954801000E+02 0.12018332222616E-01
 0.14627049379000E+02 0.83005421790056E-01
 0.44501223456000E+01 0.31991743925964E+00
 0.15275799647000E+01 0.70715542916104E+00
 p    1 1.00
 0.52935117943000E+00 0.10000000000000E+01
 p    1 1.00
 0.17478421270000E+00 0.10000000000000E+01
 p    1 1.00
 0.51112745706000E-01 0.10000000000000E+01
 d    1 1.00
 0.23140000000000E+01 0.10000000000000E+01
 d    1 1.00
 0.64500000000000E+00 0.10000000000000E+01
 d    1 1.00
 0.14696477366000E+00 0.10000000000000E+01
 f    1 1.00
 0.14280000000000E+01 0.10000000000000E+01
 
   13 0
 s    6 1.00
 0.27032382631000E+05 0.57227335211155E-03
 0.40523871392000E+04 0.44353233492995E-02
 0.92232722710000E+03 0.23020107706038E-01
 0.26124070989000E+03 0.92822490667928E-01
 0.85354641351000E+02 0.29378500009671E+00
 0.31035035245000E+02 0.67401604501641E+00
 s    2 1.00
 0.12260860728000E+02 0.63839937025506E+00
 0.49987076005000E+01 0.39534587125718E+00
 s    1 1.00
 0.11703108158000E+01 0.10000000000000E+01
 s    1 1.00
 0.46474740994000E+00 0.10000000000000E+01
 s    1 1.00
 0.18504536357000E+00 0.10000000000000E+01
 s    1 1.00
 0.70288026270000E-01 0.10000000000000E+01
 p    4 1.00
 0.63274954801000E+02 0.12018332222616E-01
 0.14627049379000E+02 0.83005421790056E-01
 0.44501223456000E+01 0.31991743925964E+00
 0.15275799647000E+01 0.70715542916104E+00
 p    1 1.00
 0.52935117943000E+00 0.10000000000000E+01
 p    1 1.00
 0.17478421270000E+00 0.10000000000000E+01
 p    1 1.00
 0.51112745706000E-01 0.10000000000000E+01
 d    1 1.00
 0.23140000000000E+01 0.10000000000000E+01
 d    1 1.00
 0.64500000000000E+00 0.10000000000000E+01
 d    1 1.00
 0.14696477366000E+00 0.10000000000000E+01
 f    1 1.00
 0.14280000000000E+01 0.10000000000000E+01
 
   14 0
 s    6 1.00
 0.19730800647000E+05 0.58626402628763E-03
 0.29578958745000E+04 0.45428820586397E-02
 0.67322133595000E+03 0.23558413450084E-01
 0.19068249494000E+03 0.94709193292923E-01
 0.62295441898000E+02 0.29719784913376E+00
 0.22654161182000E+02 0.66916246895232E+00
 s    2 1.00
 0.89791477428000E+01 0.64596683630063E+00
 0.36863002370000E+01 0.38700574393705E+00
 s    1 1.00
 0.84660076805000E+00 0.10000000000000E+01
 s    1 1.00
 0.33647133771000E+00 0.10000000000000E+01
 s    1 1.00
 0.13647653675000E+00 0.10000000000000E+01
 s    1 1.00
 0.68441605847000E-01 0.10000000000000E+01
 p    4 1.00
 0.49200380510000E+02 0.11448825101764E-01
 0.11346790537000E+02 0.78422337970864E-01
 0.34273972411000E+01 0.30818094738830E+00
 0.11785525134000E+01 0.72027196368413E+00
 p    1 1.00
 0.41642204972000E+00 0.10000000000000E+01
 p    1 1.00
 0.14260826011000E+00 0.10000000000000E+01
 d    1 1.00
 0.16540000000000E+01 0.10000000000000E+01
 d    1 1.00
 0.46900000000000E+00 0.10000000000000E+01
 d    1 1.00
 0.12829642058000E+00 0.10000000000000E+01
 f    1 1.00
 0.10930000000000E+01 0.10000000000000E+01
 
   15 0
 s    3 1.00
 0.34061341000000E+02 0.25439307208879E-01
 0.51235746000000E+01 0.19008594890375E+00
 0.11646626000000E+01 0.85244113011042E+00
 s    1 1.00
 0.32723041000000E+00 0.10000000000000E+01
 s    1 1.00
 0.10307241000000E+00 0.10000000000000E+01
 p    1 1.00
 0.80000000000000E+00 0.10000000000000E+01
 p    1 1.00
 0.95774129632000E-01 0.10000000000000E+01
 
   16 0
 s    3 1.00
 0.34061341000000E+02 0.25439307208879E-01
 0.51235746000000E+01 0.19008594890375E+00
 0.11646626000000E+01 0.85244113011042E+00
 s    1 1.00
 0.32723041000000E+00 0.10000000000000E+01
 s    1 1.00
 0.10307241000000E+00 0.10000000000000E+01
 p    1 1.00
 0.80000000000000E+00 0.10000000000000E+01
 p    1 1.00
 0.95774129632000E-01 0.10000000000000E+01
 
[MO]
 Sym= X
 Ene= -0.947778
 Spin= Alpha
 Occup= -0.947778
         1   -1.741191E-04
         2   -4.049191E-04
         3    1.109654E-03
         4   -2.278969E-03
         5   -1.135131E-02
         6   -1.028573E-02
         7    1.794450E-03
         8    1.798783E-04
         9    1.185503E-02
        10   -1.965337E-03
        11    3.682090E-04
        12    1.020154E-02
        13   -3.244194E-02
        14    8.521578E-03
        15   -1.122197E-03
        16    1.364585E-05
        17   -2.359635E-05
        18    9.950497E-06
        19   -1.298466E-05
        20   -6.396980E-03
        21    3.503441E-03
        22   -5.892665E-04
        23    3.518966E-04
        24    2.373699E-04
        25   -6.503477E-04
        26   -1.433014E-02
        27    6.689398E-03
        28   -4.694003E-03
        29    4.383518E-03
        30    3.104850E-04
        31    1.063273E-03
        32    1.839331E-03
        33   -1.027469E-02
        34   -1.686943E-05
        35    6.206648E-06
        36   -1.998928E-06
        37    6.963307E-06
        38   -6.299222E-06
        39   -7.671986E-04
        40    1.566941E-05
        41   -2.027869E-06
        42    7.698804E-04
        43   -6.686568E-04
        44    2.935242E-05
        45    6.445011E-05
        46    1.091628E-04
        47   -2.542263E-03
        48   -4.544729E-02
        49    5.218616E-03
        50    1.660208E-04
        51    1.644044E-06
        52    1.883987E-01
        53   -5.340825E-04
        54    2.235024E-05
        55    1.960015E-01
        56   -1.524003E-02
        57   -1.714225E-03
        58    1.960150E-01
        59    4.891137E-05
        60   -4.687665E-05
        61   -2.034721E-06
        62    1.530150E-07
        63   -1.155507E-03
        64    1.244985E-06
        65    3.609083E-04
        66   -5.885413E-04
        67    2.276330E-04
        68    4.816341E-06
        69   -4.170352E-03
        70    2.058780E-06
        71    8.157813E-03
        72   -9.142513E-03
        73    9.846999E-04
        74   -2.881056E-04
        75    4.452017E-03
        76   -2.599528E-05
        77    5.943868E-06
        78    3.648882E-08
        79   -1.025824E-03
        80   -5.760079E-06
        81    5.037894E-08
        82    6.533309E-04
        83   -2.214456E-06
        84   -9.933383E-08
        85    7.229566E-04
        86    1.420797E-07
        87   -1.742470E-04
        88   -4.053538E-04
        89    1.119596E-03
        90   -2.367172E-03
        91   -8.530356E-03
        92   -1.021073E-02
        93    1.796487E-03
        94   -1.828906E-04
        95    1.191418E-02
        96   -1.951573E-03
        97   -3.550542E-04
        98    1.025832E-02
        99   -3.362158E-02
       100   -1.031612E-02
       101   -9.918409E-04
       102    1.343092E-05
       103   -2.359713E-05
       104    1.016621E-05
       105    1.333805E-05
       106   -6.396234E-03
       107   -3.503684E-03
       108   -5.856235E-04
       109    3.465571E-04
       110    2.390663E-04
       111    6.467082E-04
       112   -1.432603E-02
       113   -6.689073E-03
       114   -5.022957E-03
       115    4.746099E-03
       116    2.768575E-04
       117   -8.138228E-04
       118    1.832089E-03
       119    1.022770E-02
       120   -1.707754E-05
       121   -6.184960E-06
       122   -2.320219E-06
       123    7.299363E-06
       124    6.297322E-06
       125   -7.668424E-04
       126    1.561256E-05
       127    2.000673E-06
       128    7.699553E-04
       129    6.685990E-04
       130    1.153414E-04
       131    2.494399E-04
       132    5.033601E-04
       133   -9.507916E-03
       134    2.736193E-02
       135    1.150397E-02
       136   -1.515830E-03
       137    6.184071E-04
       138   -1.618448E-01
       139   -8.518993E-03
       140    5.612020E-03
       141   -1.645376E-01
       142   -2.379313E-02
       143   -6.408588E-03
       144   -9.754841E-02
       145    1.461615E-04
       146   -1.735006E-04
       147    2.733910E-05
       148   -4.436142E-06
       149   -5.555212E-04
       150    3.079609E-03
       151    5.718038E-04
       152   -6.915243E-04
       153    1.197205E-04
       154    1.549731E-03
       155   -3.533307E-03
       156    5.190282E-03
       157    7.788507E-03
       158   -6.197047E-03
       159   -1.591460E-03
       160   -7.656234E-03
       161    3.463448E-03
       162   -1.233673E-02
       163   -1.428409E-05
       164    8.904364E-06
       165    9.374129E-04
       166   -1.781115E-05
       167    1.500280E-05
       168   -2.912456E-04
       169    3.697527E-05
       170   -2.694926E-05
       171   -9.664258E-04
       172    3.332347E-04
       173   -1.003828E-03
       174   -2.289682E-03
       175    2.383555E-03
       176    1.945257E-02
       177   -1.278622E-02
       178    8.319295E-03
       179    8.547253E-03
       180    4.091695E-07
       181   -1.159187E-01
       182    5.561746E-04
       183   -1.688736E-05
       184   -1.183770E-01
       185   -2.290786E-02
       186    1.749804E-03
       187   -1.320555E-01
       188    4.550160E-04
       189   -2.640092E-04
       190   -1.910068E-04
       191    1.041738E-07
       192    1.016413E-02
       193    1.049635E-06
       194   -1.704214E-03
       195    3.715903E-03
       196   -2.011689E-03
       197    4.255948E-06
       198    2.515936E-02
       199   -1.087002E-06
       200   -5.147203E-03
       201    6.284353E-03
       202   -1.137150E-03
       203   -3.560002E-04
       204    1.967600E-02
       205    8.348383E-06
       206    1.051507E-04
       207    3.096330E-08
       208    3.706229E-04
       209   -7.294815E-05
       210   -1.346849E-07
       211    1.025041E-03
       212   -6.812630E-05
       213    9.314324E-08
       214   -1.522284E-03
       215   -3.394022E-09
       216    1.160581E-04
       217    2.508654E-04
       218    5.090330E-04
       219   -9.601329E-03
       220    3.049326E-02
       221    1.153448E-02
       222   -1.516848E-03
       223   -6.113725E-04
       224   -1.618892E-01
       225   -8.521637E-03
       226   -5.628313E-03
       227   -1.645918E-01
       228   -2.252542E-02
       229    8.465667E-03
       230   -9.747746E-02
       231    1.458875E-04
       232   -1.740671E-04
       233    2.817962E-05
       234    4.563788E-06
       235   -5.541824E-04
       236   -3.079853E-03
       237    5.735207E-04
       238   -6.945806E-04
       239    1.210599E-04
       240   -1.552442E-03
       241   -3.529612E-03
       242   -5.190113E-03
       243    7.439821E-03
       244   -5.830698E-03
       245   -1.609123E-03
       246    7.934404E-03
       247    3.476328E-03
       248    1.239329E-02
       249   -1.416556E-05
       250   -8.979267E-06
       251    9.379665E-04
       252   -1.810724E-05
       253   -1.491130E-05
       254   -2.918223E-04
       255    3.711233E-05
       256    2.695825E-05
       257   -9.665919E-04
       258   -3.332231E-04
       259   -4.012329E-04
       260   -3.168196E-04
       261   -1.615692E-02
       262   -1.156318E-05
       263   -1.258804E-05
       264    5.103896E-04
       265   -4.808099E-03
       266   -3.001271E-04
       267   -6.561050E-03
       268   -4.036355E-04
       269   -3.111907E-04
       270   -1.591364E-02
       271   -1.034746E-05
       272    1.195214E-05
       273    5.131828E-04
       274   -4.985180E-03
       275    1.571423E-04
       276   -6.527575E-03
       277   -4.820596E-04
       278   -2.306313E-03
       279    3.116261E-02
       280   -7.841684E-06
       281    1.067436E-04
       282   -6.515320E-03
       283   -1.775968E-03
       284   -2.424996E-03
       285    1.867479E-03
       286   -4.869291E-04
       287   -2.306900E-03
       288    3.161136E-02
       289   -7.456935E-06
       290   -1.066303E-04
       291   -6.517631E-03
       292   -1.628718E-03
       293    2.597277E-03
       294    1.899302E-03
       295   -5.400451E-05
       296   -1.258447E-04
       297    1.231072E-04
       298    5.007660E-04
       299   -6.027316E-03
       300    7.526750E-04
       301    6.445040E-04
       302   -5.019289E-07
       303    2.914675E-02
       304    3.482818E-04
       305    2.079027E-07
       306    3.115520E-02
       307   -2.702549E-03
       308    3.225023E-05
       309    1.161983E-02
       310    2.810627E-05
       311   -1.654958E-05
       312   -1.155669E-05
       313    7.623825E-08
       314    4.101850E-03
       315    9.047925E-08
       316    2.978451E-05
       317    2.822162E-05
       318   -5.800613E-05
       319   -3.223490E-07
       320    1.250566E-02
       321    7.808188E-08
       322   -9.688309E-04
       323    2.595117E-03
       324   -1.626286E-03
       325    4.884036E-05
       326    2.945300E-03
       327    3.754884E-06
       328    6.491446E-06
       329    2.793854E-08
       330   -4.362061E-05
       331   -3.946673E-06
       332   -1.197354E-08
       333    6.738987E-04
       334   -4.762516E-06
       335   -2.550994E-08
       336   -6.153755E-04
       337    1.675555E-08
       338   -1.278538E-05
       339   -2.799938E-05
       340    2.619386E-06
       341    4.843068E-04
       342   -5.284895E-03
       343   -7.709532E-04
       344   -4.165869E-04
       345    1.041292E-04
       346   -7.033892E-02
       347   -4.652235E-04
       348    2.184268E-04
       349   -6.537230E-02
       350   -1.510708E-03
       351    4.182744E-04
       352   -5.528377E-02
       353   -1.614634E-04
       354    1.806133E-04
       355   -7.224193E-03
       356    3.677480E-06
       357   -5.072136E-06
       358    1.394656E-06
       359    1.997800E-06
       360    7.993262E-05
       361    3.224554E-04
       362   -1.196926E-05
       363   -1.134772E-05
       364    2.331698E-05
       365    1.351682E-05
       366   -2.768018E-04
       367    1.143958E-03
       368   -7.661747E-05
       369    5.448070E-05
       370    2.213676E-05
       371    8.859267E-05
       372    2.186340E-05
       373    1.135237E-04
       374    9.955350E-07
       375    1.470536E-06
       376    3.788021E-05
       377   -1.839428E-06
       378   -7.807773E-08
       379    7.808236E-05
       380    5.037776E-07
       381   -1.894854E-06
       382   -1.289040E-04
       383    9.715914E-05
       384   -1.267786E-05
       385   -2.777228E-05
       386    2.699295E-06
       387    4.802111E-04
       388   -5.307051E-03
       389   -7.301086E-04
       390   -4.162521E-04
       391   -1.015444E-04
       392   -7.034020E-02
       393   -4.654678E-04
       394   -2.154926E-04
       395   -6.537357E-02
       396   -1.466408E-03
       397   -4.238474E-04
       398   -5.528033E-02
       399   -1.431013E-04
       400   -1.855302E-04
       401   -7.230310E-03
       402    3.605352E-06
       403   -5.025024E-06
       404    1.419672E-06
       405   -2.048479E-06
       406    7.987097E-05
       407   -3.224715E-04
       408   -1.152579E-05
       409   -1.133326E-05
       410    2.285905E-05
       411   -1.303978E-05
       412   -2.767904E-04
       413   -1.143979E-03
       414   -7.664542E-05
       415    5.571796E-05
       416    2.092745E-05
       417   -8.730384E-05
       418    2.062546E-05
       419   -1.132803E-04
       420    9.914851E-07
       421   -1.457591E-06
       422    3.789200E-05
       423   -1.817966E-06
       424    7.289272E-08
       425    7.807336E-05
       426    4.877493E-07
       427    1.882671E-06
       428   -1.289108E-04
       429   -9.717037E-05
       430    4.242968E-03
       431    1.009363E-02
       432   -1.580642E-02
       433   -2.442714E-02
       434   -2.023409E-02
       435   -6.318283E-02
       436   -1.570811E-02
       437    1.139652E-05
       438    2.530705E-01
       439   -1.804186E-02
       440   -3.787334E-06
       441    2.502667E-01
       442   -1.656625E-02
       443   -1.528672E-04
       444    2.052672E-01
       445   -8.366806E-05
       446   -1.960843E-06
       447    8.562891E-05
       448    2.961865E-07
       449    8.012257E-04
       450    3.953130E-07
       451   -1.720143E-04
       452   -1.389976E-03
       453    1.561990E-03
       454   -6.043766E-06
       455    3.747479E-03
       456    1.148601E-06
       457   -1.585001E-03
       458   -2.727918E-03
       459    4.312918E-03
       460   -2.393789E-05
       461    2.226226E-03
       462    1.119340E-05
       463   -1.322952E-04
       464    9.960059E-09
       465   -1.003362E-03
       466   -7.392369E-05
       467   -2.840825E-08
       468    5.327585E-04
       469    2.514163E-04
       470    1.504543E-08
       471    8.133925E-04
       472    5.165211E-09
       473    8.814573E-03
       474    1.654813E-02
       475    2.739918E-02
       476   -2.090282E-03
       477   -1.761250E-03
       478    1.288747E-02
       479    1.239424E-03
       480   -3.191563E-03
       481    1.495469E-02
       482    8.807222E-03
       483    1.643485E-02
       484    2.687131E-02
       485   -2.084419E-03
       486    1.750462E-03
       487    1.289240E-02
       488    1.303359E-03
       489    3.111827E-03
       490    1.497738E-02
 Sym= X
 Ene= 0.947778
 Spin= Alpha
 Occup= 0.947778
         1   -1.107108E-02
         2   -2.463732E-02
         3    8.355989E-03
         4    4.007923E-01
         5    5.416538E+00
         6   -7.146900E+00
         7   -4.867647E-03
         8   -1.504122E-02
         9    4.520088E-04
        10    9.771347E-02
        11    5.722358E-03
        12   -1.864409E-03
        13   -7.587897E-01
        14   -6.363106E-01
        15   -2.519884E-02
        16    1.331155E-03
        17    6.040003E-04
        18   -1.935156E-03
        19    4.491202E-04
        20    1.517839E-04
        21    3.396207E-05
        22    3.351878E-02
        23   -1.724978E-02
        24   -1.626900E-02
        25   -1.272511E-02
        26   -5.368621E-04
        27   -7.974432E-05
        28    2.888369E-03
        29   -1.501069E-01
        30    1.472185E-01
        31    1.473086E+00
        32    6.730320E-03
        33   -1.950604E-02
        34    8.159486E-04
        35    1.065663E-04
        36   -2.340523E-05
        37   -6.186755E-04
        38    3.936449E-05
        39    1.528823E-05
        40   -4.760344E-04
        41   -1.823381E-04
        42    1.611318E-05
        43   -1.576646E-06
        44   -3.207209E-03
        45   -6.385928E-03
        46   -1.067776E-02
        47    2.217435E-01
        48    8.544138E+00
        49    5.367730E+00
        50   -5.370707E-03
        51    1.906801E-05
        52   -6.781013E-04
        53   -6.073810E-02
        54   -1.890446E-04
        55   -2.641167E-03
        56   -1.923245E+00
        57   -2.251571E-02
        58    7.173010E-02
        59    1.290798E-03
        60    1.643465E-03
        61   -2.934263E-03
        62   -1.035778E-06