[Molden Format]
[Title]
ADC(2) - opt by CAM-B3LYP gaussian                                              
[Atoms] AU
 c     1    6 -.12588573623097E+01 -.22835126974190E+01 -.24083260376910E-01
 c     2    6 -.25578815622211E+01 0.23621577000000E-06 -.22837930855340E-01
 c     3    6 -.12588573623097E+01 0.22835131698505E+01 -.24090819281440E-01
 c     4    6 0.13318248850473E+01 0.22853065199506E+01 -.26003222127920E-01
 c     5    6 0.26868737956204E+01 0.23621577000000E-06 -.25389061134730E-01
 c     6    6 0.13318248850473E+01 -.22853060475191E+01 -.25993773497260E-01
 h     7    1 -.22974546243959E+01 -.40385977330627E+01 -.21598270512170E-01
 h     8    1 -.22974527346698E+01 0.40385982054942E+01 -.21613388321230E-01
 h     9    1 0.23510089905703E+01 0.40574312161345E+01 -.28191524989800E-01
 h    10    1 0.23510071008442E+01 -.40574307437030E+01 -.28172627728480E-01
 n    11    7 -.52726375582849E+01 0.23621577000000E-06 -.17238672323600E-01
 o    12    8 -.63813946825068E+01 0.20269261555273E+01 -.14842499587100E-01
 o    13    8 -.63813927927806E+01 -.20269275728219E+01 -.14865176300690E-01
 n    14    7 0.52430742102305E+01 0.23621577000000E-06 -.67376886081320E-01
 h    15    1 0.62051583509223E+01 0.16177513148781E+01 0.18115044628513E+00
 h    16    1 0.62051564611962E+01 -.16177527321727E+01 0.18114666683287E+00
[GTO]
    1 0
 s    6 1.00
 0.13575349682000E+05 0.60645503603591E-03
 0.20352333680000E+04 0.46979088884982E-02
 0.46322562359000E+03 0.24332477647552E-01
 0.13120019598000E+03 0.97399968307759E-01
 0.42853015891000E+02 0.30195584253780E+00
 0.15584185766000E+02 0.66233609137875E+00
 s    2 1.00
 0.62067138508000E+01 0.65595308539952E+00
 0.25764896527000E+01 0.37585633285142E+00
 s    1 1.00
 0.57696339419000E+00 0.10000000000000E+01
 s    1 1.00
 0.22972831358000E+00 0.10000000000000E+01
 s    1 1.00
 0.95164440028000E-01 0.10000000000000E+01
 s    1 1.00
 0.48475401370000E-01 0.10000000000000E+01
 p    4 1.00
 0.34697232244000E+02 0.11327220003114E-01
 0.79582622826000E+01 0.76169659202087E-01
 0.23780826883000E+01 0.30192252202676E+00
 0.81433208183000E+00 0.72785027349547E+00
 p    1 1.00
 0.28887547253000E+00 0.10000000000000E+01
 p    1 1.00
 0.10056823671000E+00 0.10000000000000E+01
 d    1 1.00
 0.10970000000000E+01 0.10000000000000E+01
 d    1 1.00
 0.31800000000000E+00 0.10000000000000E+01
 d    1 1.00
 0.90985336424000E-01 0.10000000000000E+01
 f    1 1.00
 0.76100000000000E+00 0.10000000000000E+01
 
    2 0
 s    6 1.00
 0.13575349682000E+05 0.60645503603591E-03
 0.20352333680000E+04 0.46979088884982E-02
 0.46322562359000E+03 0.24332477647552E-01
 0.13120019598000E+03 0.97399968307759E-01
 0.42853015891000E+02 0.30195584253780E+00
 0.15584185766000E+02 0.66233609137875E+00
 s    2 1.00
 0.62067138508000E+01 0.65595308539952E+00
 0.25764896527000E+01 0.37585633285142E+00
 s    1 1.00
 0.57696339419000E+00 0.10000000000000E+01
 s    1 1.00
 0.22972831358000E+00 0.10000000000000E+01
 s    1 1.00
 0.95164440028000E-01 0.10000000000000E+01
 s    1 1.00
 0.48475401370000E-01 0.10000000000000E+01
 p    4 1.00
 0.34697232244000E+02 0.11327220003114E-01
 0.79582622826000E+01 0.76169659202087E-01
 0.23780826883000E+01 0.30192252202676E+00
 0.81433208183000E+00 0.72785027349547E+00
 p    1 1.00
 0.28887547253000E+00 0.10000000000000E+01
 p    1 1.00
 0.10056823671000E+00 0.10000000000000E+01
 d    1 1.00
 0.10970000000000E+01 0.10000000000000E+01
 d    1 1.00
 0.31800000000000E+00 0.10000000000000E+01
 d    1 1.00
 0.90985336424000E-01 0.10000000000000E+01
 f    1 1.00
 0.76100000000000E+00 0.10000000000000E+01
 
    3 0
 s    6 1.00
 0.13575349682000E+05 0.60645503603591E-03
 0.20352333680000E+04 0.46979088884982E-02
 0.46322562359000E+03 0.24332477647552E-01
 0.13120019598000E+03 0.97399968307759E-01
 0.42853015891000E+02 0.30195584253780E+00
 0.15584185766000E+02 0.66233609137875E+00
 s    2 1.00
 0.62067138508000E+01 0.65595308539952E+00
 0.25764896527000E+01 0.37585633285142E+00
 s    1 1.00
 0.57696339419000E+00 0.10000000000000E+01
 s    1 1.00
 0.22972831358000E+00 0.10000000000000E+01
 s    1 1.00
 0.95164440028000E-01 0.10000000000000E+01
 s    1 1.00
 0.48475401370000E-01 0.10000000000000E+01
 p    4 1.00
 0.34697232244000E+02 0.11327220003114E-01
 0.79582622826000E+01 0.76169659202087E-01
 0.23780826883000E+01 0.30192252202676E+00
 0.81433208183000E+00 0.72785027349547E+00
 p    1 1.00
 0.28887547253000E+00 0.10000000000000E+01
 p    1 1.00
 0.10056823671000E+00 0.10000000000000E+01
 d    1 1.00
 0.10970000000000E+01 0.10000000000000E+01
 d    1 1.00
 0.31800000000000E+00 0.10000000000000E+01
 d    1 1.00
 0.90985336424000E-01 0.10000000000000E+01
 f    1 1.00
 0.76100000000000E+00 0.10000000000000E+01
 
    4 0
 s    6 1.00
 0.13575349682000E+05 0.60645503603591E-03
 0.20352333680000E+04 0.46979088884982E-02
 0.46322562359000E+03 0.24332477647552E-01
 0.13120019598000E+03 0.97399968307759E-01
 0.42853015891000E+02 0.30195584253780E+00
 0.15584185766000E+02 0.66233609137875E+00
 s    2 1.00
 0.62067138508000E+01 0.65595308539952E+00
 0.25764896527000E+01 0.37585633285142E+00
 s    1 1.00
 0.57696339419000E+00 0.10000000000000E+01
 s    1 1.00
 0.22972831358000E+00 0.10000000000000E+01
 s    1 1.00
 0.95164440028000E-01 0.10000000000000E+01
 s    1 1.00
 0.48475401370000E-01 0.10000000000000E+01
 p    4 1.00
 0.34697232244000E+02 0.11327220003114E-01
 0.79582622826000E+01 0.76169659202087E-01
 0.23780826883000E+01 0.30192252202676E+00
 0.81433208183000E+00 0.72785027349547E+00
 p    1 1.00
 0.28887547253000E+00 0.10000000000000E+01
 p    1 1.00
 0.10056823671000E+00 0.10000000000000E+01
 d    1 1.00
 0.10970000000000E+01 0.10000000000000E+01
 d    1 1.00
 0.31800000000000E+00 0.10000000000000E+01
 d    1 1.00
 0.90985336424000E-01 0.10000000000000E+01
 f    1 1.00
 0.76100000000000E+00 0.10000000000000E+01
 
    5 0
 s    6 1.00
 0.13575349682000E+05 0.60645503603591E-03
 0.20352333680000E+04 0.46979088884982E-02
 0.46322562359000E+03 0.24332477647552E-01
 0.13120019598000E+03 0.97399968307759E-01
 0.42853015891000E+02 0.30195584253780E+00
 0.15584185766000E+02 0.66233609137875E+00
 s    2 1.00
 0.62067138508000E+01 0.65595308539952E+00
 0.25764896527000E+01 0.37585633285142E+00
 s    1 1.00
 0.57696339419000E+00 0.10000000000000E+01
 s    1 1.00
 0.22972831358000E+00 0.10000000000000E+01
 s    1 1.00
 0.95164440028000E-01 0.10000000000000E+01
 s    1 1.00
 0.48475401370000E-01 0.10000000000000E+01
 p    4 1.00
 0.34697232244000E+02 0.11327220003114E-01
 0.79582622826000E+01 0.76169659202087E-01
 0.23780826883000E+01 0.30192252202676E+00
 0.81433208183000E+00 0.72785027349547E+00
 p    1 1.00
 0.28887547253000E+00 0.10000000000000E+01
 p    1 1.00
 0.10056823671000E+00 0.10000000000000E+01
 d    1 1.00
 0.10970000000000E+01 0.10000000000000E+01
 d    1 1.00
 0.31800000000000E+00 0.10000000000000E+01
 d    1 1.00
 0.90985336424000E-01 0.10000000000000E+01
 f    1 1.00
 0.76100000000000E+00 0.10000000000000E+01
 
    6 0
 s    6 1.00
 0.13575349682000E+05 0.60645503603591E-03
 0.20352333680000E+04 0.46979088884982E-02
 0.46322562359000E+03 0.24332477647552E-01
 0.13120019598000E+03 0.97399968307759E-01
 0.42853015891000E+02 0.30195584253780E+00
 0.15584185766000E+02 0.66233609137875E+00
 s    2 1.00
 0.62067138508000E+01 0.65595308539952E+00
 0.25764896527000E+01 0.37585633285142E+00
 s    1 1.00
 0.57696339419000E+00 0.10000000000000E+01
 s    1 1.00
 0.22972831358000E+00 0.10000000000000E+01
 s    1 1.00
 0.95164440028000E-01 0.10000000000000E+01
 s    1 1.00
 0.48475401370000E-01 0.10000000000000E+01
 p    4 1.00
 0.34697232244000E+02 0.11327220003114E-01
 0.79582622826000E+01 0.76169659202087E-01
 0.23780826883000E+01 0.30192252202676E+00
 0.81433208183000E+00 0.72785027349547E+00
 p    1 1.00
 0.28887547253000E+00 0.10000000000000E+01
 p    1 1.00
 0.10056823671000E+00 0.10000000000000E+01
 d    1 1.00
 0.10970000000000E+01 0.10000000000000E+01
 d    1 1.00
 0.31800000000000E+00 0.10000000000000E+01
 d    1 1.00
 0.90985336424000E-01 0.10000000000000E+01
 f    1 1.00
 0.76100000000000E+00 0.10000000000000E+01
 
    7 0
 s    3 1.00
 0.34061341000000E+02 0.25439307208879E-01
 0.51235746000000E+01 0.19008594890375E+00
 0.11646626000000E+01 0.85244113011042E+00
 s    1 1.00
 0.32723041000000E+00 0.10000000000000E+01
 s    1 1.00
 0.10307241000000E+00 0.10000000000000E+01
 p    1 1.00
 0.80000000000000E+00 0.10000000000000E+01
 p    1 1.00
 0.95774129632000E-01 0.10000000000000E+01
 
    8 0
 s    3 1.00
 0.34061341000000E+02 0.25439307208879E-01
 0.51235746000000E+01 0.19008594890375E+00
 0.11646626000000E+01 0.85244113011042E+00
 s    1 1.00
 0.32723041000000E+00 0.10000000000000E+01
 s    1 1.00
 0.10307241000000E+00 0.10000000000000E+01
 p    1 1.00
 0.80000000000000E+00 0.10000000000000E+01
 p    1 1.00
 0.95774129632000E-01 0.10000000000000E+01
 
    9 0
 s    3 1.00
 0.34061341000000E+02 0.25439307208879E-01
 0.51235746000000E+01 0.19008594890375E+00
 0.11646626000000E+01 0.85244113011042E+00
 s    1 1.00
 0.32723041000000E+00 0.10000000000000E+01
 s    1 1.00
 0.10307241000000E+00 0.10000000000000E+01
 p    1 1.00
 0.80000000000000E+00 0.10000000000000E+01
 p    1 1.00
 0.95774129632000E-01 0.10000000000000E+01
 
   10 0
 s    3 1.00
 0.34061341000000E+02 0.25439307208879E-01
 0.51235746000000E+01 0.19008594890375E+00
 0.11646626000000E+01 0.85244113011042E+00
 s    1 1.00
 0.32723041000000E+00 0.10000000000000E+01
 s    1 1.00
 0.10307241000000E+00 0.10000000000000E+01
 p    1 1.00
 0.80000000000000E+00 0.10000000000000E+01
 p    1 1.00
 0.95774129632000E-01 0.10000000000000E+01
 
   11 0
 s    6 1.00
 0.19730800647000E+05 0.58626402628763E-03
 0.29578958745000E+04 0.45428820586397E-02
 0.67322133595000E+03 0.23558413450084E-01
 0.19068249494000E+03 0.94709193292923E-01
 0.62295441898000E+02 0.29719784913376E+00
 0.22654161182000E+02 0.66916246895232E+00
 s    2 1.00
 0.89791477428000E+01 0.64596683630063E+00
 0.36863002370000E+01 0.38700574393705E+00
 s    1 1.00
 0.84660076805000E+00 0.10000000000000E+01
 s    1 1.00
 0.33647133771000E+00 0.10000000000000E+01
 s    1 1.00
 0.13647653675000E+00 0.10000000000000E+01
 s    1 1.00
 0.68441605847000E-01 0.10000000000000E+01
 p    4 1.00
 0.49200380510000E+02 0.11448825101764E-01
 0.11346790537000E+02 0.78422337970864E-01
 0.34273972411000E+01 0.30818094738830E+00
 0.11785525134000E+01 0.72027196368413E+00
 p    1 1.00
 0.41642204972000E+00 0.10000000000000E+01
 p    1 1.00
 0.14260826011000E+00 0.10000000000000E+01
 d    1 1.00
 0.16540000000000E+01 0.10000000000000E+01
 d    1 1.00
 0.46900000000000E+00 0.10000000000000E+01
 d    1 1.00
 0.12829642058000E+00 0.10000000000000E+01
 f    1 1.00
 0.10930000000000E+01 0.10000000000000E+01
 
   12 0
 s    6 1.00
 0.27032382631000E+05 0.57227335211155E-03
 0.40523871392000E+04 0.44353233492995E-02
 0.92232722710000E+03 0.23020107706038E-01
 0.26124070989000E+03 0.92822490667928E-01
 0.85354641351000E+02 0.29378500009671E+00
 0.31035035245000E+02 0.67401604501641E+00
 s    2 1.00
 0.12260860728000E+02 0.63839937025506E+00
 0.49987076005000E+01 0.39534587125718E+00
 s    1 1.00
 0.11703108158000E+01 0.10000000000000E+01
 s    1 1.00
 0.46474740994000E+00 0.10000000000000E+01
 s    1 1.00
 0.18504536357000E+00 0.10000000000000E+01
 s    1 1.00
 0.70288026270000E-01 0.10000000000000E+01
 p    4 1.00
 0.63274954801000E+02 0.12018332222616E-01
 0.14627049379000E+02 0.83005421790056E-01
 0.44501223456000E+01 0.31991743925964E+00
 0.15275799647000E+01 0.70715542916104E+00
 p    1 1.00
 0.52935117943000E+00 0.10000000000000E+01
 p    1 1.00
 0.17478421270000E+00 0.10000000000000E+01
 p    1 1.00
 0.51112745706000E-01 0.10000000000000E+01
 d    1 1.00
 0.23140000000000E+01 0.10000000000000E+01
 d    1 1.00
 0.64500000000000E+00 0.10000000000000E+01
 d    1 1.00
 0.14696477366000E+00 0.10000000000000E+01
 f    1 1.00
 0.14280000000000E+01 0.10000000000000E+01
 
   13 0
 s    6 1.00
 0.27032382631000E+05 0.57227335211155E-03
 0.40523871392000E+04 0.44353233492995E-02
 0.92232722710000E+03 0.23020107706038E-01
 0.26124070989000E+03 0.92822490667928E-01
 0.85354641351000E+02 0.29378500009671E+00
 0.31035035245000E+02 0.67401604501641E+00
 s    2 1.00
 0.12260860728000E+02 0.63839937025506E+00
 0.49987076005000E+01 0.39534587125718E+00
 s    1 1.00
 0.11703108158000E+01 0.10000000000000E+01
 s    1 1.00
 0.46474740994000E+00 0.10000000000000E+01
 s    1 1.00
 0.18504536357000E+00 0.10000000000000E+01
 s    1 1.00
 0.70288026270000E-01 0.10000000000000E+01
 p    4 1.00
 0.63274954801000E+02 0.12018332222616E-01
 0.14627049379000E+02 0.83005421790056E-01
 0.44501223456000E+01 0.31991743925964E+00
 0.15275799647000E+01 0.70715542916104E+00
 p    1 1.00
 0.52935117943000E+00 0.10000000000000E+01
 p    1 1.00
 0.17478421270000E+00 0.10000000000000E+01
 p    1 1.00
 0.51112745706000E-01 0.10000000000000E+01
 d    1 1.00
 0.23140000000000E+01 0.10000000000000E+01
 d    1 1.00
 0.64500000000000E+00 0.10000000000000E+01
 d    1 1.00
 0.14696477366000E+00 0.10000000000000E+01
 f    1 1.00
 0.14280000000000E+01 0.10000000000000E+01
 
   14 0
 s    6 1.00
 0.19730800647000E+05 0.58626402628763E-03
 0.29578958745000E+04 0.45428820586397E-02
 0.67322133595000E+03 0.23558413450084E-01
 0.19068249494000E+03 0.94709193292923E-01
 0.62295441898000E+02 0.29719784913376E+00
 0.22654161182000E+02 0.66916246895232E+00
 s    2 1.00
 0.89791477428000E+01 0.64596683630063E+00
 0.36863002370000E+01 0.38700574393705E+00
 s    1 1.00
 0.84660076805000E+00 0.10000000000000E+01
 s    1 1.00
 0.33647133771000E+00 0.10000000000000E+01
 s    1 1.00
 0.13647653675000E+00 0.10000000000000E+01
 s    1 1.00
 0.68441605847000E-01 0.10000000000000E+01
 p    4 1.00
 0.49200380510000E+02 0.11448825101764E-01
 0.11346790537000E+02 0.78422337970864E-01
 0.34273972411000E+01 0.30818094738830E+00
 0.11785525134000E+01 0.72027196368413E+00
 p    1 1.00
 0.41642204972000E+00 0.10000000000000E+01
 p    1 1.00
 0.14260826011000E+00 0.10000000000000E+01
 d    1 1.00
 0.16540000000000E+01 0.10000000000000E+01
 d    1 1.00
 0.46900000000000E+00 0.10000000000000E+01
 d    1 1.00
 0.12829642058000E+00 0.10000000000000E+01
 f    1 1.00
 0.10930000000000E+01 0.10000000000000E+01
 
   15 0
 s    3 1.00
 0.34061341000000E+02 0.25439307208879E-01
 0.51235746000000E+01 0.19008594890375E+00
 0.11646626000000E+01 0.85244113011042E+00
 s    1 1.00
 0.32723041000000E+00 0.10000000000000E+01
 s    1 1.00
 0.10307241000000E+00 0.10000000000000E+01
 p    1 1.00
 0.80000000000000E+00 0.10000000000000E+01
 p    1 1.00
 0.95774129632000E-01 0.10000000000000E+01
 
   16 0
 s    3 1.00
 0.34061341000000E+02 0.25439307208879E-01
 0.51235746000000E+01 0.19008594890375E+00
 0.11646626000000E+01 0.85244113011042E+00
 s    1 1.00
 0.32723041000000E+00 0.10000000000000E+01
 s    1 1.00
 0.10307241000000E+00 0.10000000000000E+01
 p    1 1.00
 0.80000000000000E+00 0.10000000000000E+01
 p    1 1.00
 0.95774129632000E-01 0.10000000000000E+01
 
[MO]
 Sym= X
 Ene= -0.947839
 Spin= Alpha
 Occup= -0.947839
         1   -5.260881E-03
         2   -1.206435E-02
         3    2.490814E-02
         4   -7.561773E-03
         5    2.217796E-01
         6    3.263285E-02
         7   -5.305758E-02
         8   -1.030192E-02
         9    6.420201E-05
        10   -5.916016E-02
        11   -1.002474E-02
        12    5.921296E-05
        13   -9.110326E-02
        14    1.011027E-01
        15    4.202237E-05
        16   -1.719544E-03
        17    1.945485E-03
        18   -2.259411E-04
        19   -8.686781E-05
        20    5.166314E-07
        21   -1.352845E-06
        22   -9.840470E-03
        23    6.926305E-03
        24    2.914165E-03
        25    1.157901E-03
        26    1.267824E-05
        27   -1.542423E-06
        28   -2.358096E-03
        29    6.336777E-03
        30   -3.978681E-03
        31   -1.763778E-02
        32    8.538720E-05
        33   -4.017321E-05
        34   -7.618889E-05
        35    1.248331E-04
        36   -2.381800E-07
        37   -6.839409E-05
        38   -2.176817E-04
        39   -2.033458E-08
        40    1.706122E-04
        41    5.020053E-05
        42    3.398865E-07
        43    5.464603E-07
        44    2.908316E-07
        45    6.593094E-07
        46   -7.773549E-07
        47   -4.677896E-06
        48   -3.699701E-05
        49    5.501393E-06
        50    4.499346E-06
        51   -3.155866E-02
        52    1.109170E-05
        53    1.759278E-06
        54   -3.994260E-02
        55    1.142978E-05
        56   -1.818633E-05
        57    2.417990E-01
        58    1.924645E-05
        59   -2.121672E-07
        60    1.804947E-07
        61    3.167251E-08
        62   -1.611605E-03
        63    6.869060E-08
        64    2.209281E-06
        65    2.443729E-07
        66   -3.061111E-07
        67    6.173819E-08
        68    3.406037E-03
        69   -2.131409E-07
        70   -4.879109E-06
        71   -3.521640E-06
        72    2.743098E-06
        73    7.785415E-07
        74    4.388626E-02
        75    1.491120E-07
        76   -1.867739E-04
        77    3.487158E-08
        78   -6.125872E-04
        79   -1.123075E-07
        80   -3.192500E-08
        81    5.901205E-04
        82    8.336473E-08
        83   -1.486013E-08
        84    2.317514E-04
        85    6.731159E-08
        86   -4.104558E-07
        87    5.260914E-03
        88    1.206442E-02
        89   -2.490845E-02
        90    7.560798E-03
        91   -2.217445E-01
        92   -3.264113E-02
        93    5.305445E-02
        94   -1.030437E-02
        95   -5.131744E-05
        96    5.915543E-02
        97   -1.002869E-02
        98   -4.737189E-05
        99    9.110478E-02
       100    1.010656E-01
       101   -2.699359E-05
       102    1.719376E-03
       103   -1.945312E-03
       104    2.259360E-04
       105   -8.685389E-05
       106   -6.754062E-07
       107   -1.789292E-06
       108    9.840032E-03
       109   -6.925862E-03
       110   -2.914169E-03
       111    1.158550E-03
       112   -1.313886E-05
       113   -2.108748E-06
       114    2.354222E-03
       115   -6.330613E-03
       116    3.976391E-03
       117   -1.764187E-02
       118   -7.678455E-05
       119   -3.662973E-05
       120    7.619310E-05
       121    1.247996E-04
       122    1.518207E-07
       123    6.838866E-05
       124   -2.176552E-04
       125    4.165429E-08
       126   -1.706124E-04
       127    5.021894E-05
       128   -2.453431E-07
       129    6.057599E-07
       130   -3.231864E-03
       131   -7.337024E-03
       132    1.409265E-02
       133   -1.186819E-02
       134    6.703674E-02
       135    1.049054E-02
       136   -3.807473E-02
       137   -2.879158E-03
       138    3.686533E-05
       139   -6.011020E-03
       140   -8.596832E-03
       141    4.967100E-05
       142    4.535499E-02
       143   -3.122066E-02
       144   -1.354633E-04
       145    1.083205E-03
       146   -9.501569E-04
       147   -1.330479E-04
       148    2.396914E-04
       149   -9.006116E-07
       150    3.133937E-07
       151   -4.427238E-03
       152    2.775326E-03
       153    1.651912E-03
       154    1.148218E-04
       155    1.596935E-05
       156   -1.177171E-05
       157   -1.368073E-02
       158    1.449540E-02
       159   -8.146785E-04
       160   -3.865788E-03
       161   -9.882847E-05
       162    4.897973E-05
       163   -3.871598E-05
       164   -1.335440E-05
       165   -8.514492E-07
       166   -1.482207E-05
       167   -6.196704E-06
       168    5.511983E-07
       169    6.676500E-05
       170    2.411351E-05
       171    5.911406E-07
       172   -8.603544E-07
       173    6.640736E-08
       174    1.426196E-07
       175   -1.113669E-07
       176    2.636493E-07
       177    5.392606E-05
       178   -5.293993E-06
       179   -1.039017E-06
       180   -1.735548E-02
       181   -5.927571E-06
       182    1.257767E-06
       183   -2.192629E-02
       184   -5.569341E-06
       185   -2.204184E-05
       186   -7.932176E-02
       187    6.079620E-06
       188   -7.925547E-08
       189    8.736950E-08
       190   -8.114027E-09
       191   -3.489763E-05
       192   -4.115838E-07
       193    7.112926E-06
       194    5.712805E-07
       195   -7.359347E-07
       196    1.646542E-07
       197    3.148830E-03
       198   -6.319227E-07
       199   -2.405880E-05
       200    4.107955E-06
       201   -2.773860E-06
       202   -1.334095E-06
       203    1.433826E-02
       204   -1.393012E-06
       205    1.804123E-04
       206   -2.387796E-09
       207   -2.568992E-04
       208    6.280381E-08
       209    6.431236E-09
       210    2.575060E-04
       211   -8.886707E-08
       212   -3.227671E-09
       213    8.716043E-05
       214    4.606907E-09
       215    1.388292E-07
       216    3.232002E-03
       217    7.337338E-03
       218   -1.409380E-02
       219    1.187512E-02
       220   -6.709121E-02
       221   -1.048408E-02
       222    3.807834E-02
       223   -2.879494E-03
       224   -3.468722E-05
       225    6.014342E-03
       226   -8.595313E-03
       227   -4.591916E-05
       228   -4.535488E-02
       229   -3.125647E-02
       230    1.111258E-04
       231   -1.083321E-03
       232    9.503053E-04
       233    1.330153E-04
       234    2.396013E-04
       235    4.542519E-07
       236    1.864041E-07
       237    4.427599E-03
       238   -2.775506E-03
       239   -1.652093E-03
       240    1.150849E-04
       241   -1.670611E-05
       242   -1.187805E-05
       243    1.368607E-02
       244   -1.450378E-02
       245    8.177129E-04
       246   -3.860068E-03
       247    1.034390E-04
       248    4.691680E-05
       249    3.872437E-05
       250   -1.337588E-05
       251    8.415702E-07
       252    1.484101E-05
       253   -6.161742E-06
       254   -5.212034E-07
       255   -6.679520E-05
       256    2.410737E-05
       257   -6.078815E-07
       258   -9.092479E-07
       259    2.003104E-02
       260    2.799920E-02
       261    3.639308E-02
       262    1.986149E-03
       263    3.268857E-03
       264   -4.637341E-06
       265    3.426625E-03
       266    1.441515E-03
       267   -1.402610E-05
       268   -2.003087E-02
       269   -2.799819E-02
       270   -3.639750E-02
       271   -1.986228E-03
       272    3.268750E-03
       273    5.304329E-06
       274   -3.426921E-03
       275    1.440021E-03
       276    1.211046E-05
       277   -7.082290E-03
       278   -1.130222E-02
       279   -2.155363E-02
       280   -1.569525E-04
       281    1.067360E-03
       282   -5.217701E-07
       283    3.546041E-03
       284   -6.287319E-04
       285    2.137209E-06
       286    7.083596E-03
       287    1.130473E-02
       288    2.157025E-02
       289    1.569695E-04
       290    1.067476E-03
       291    3.504869E-07
       292   -3.546945E-03
       293   -6.308883E-04
       294   -6.150510E-06
       295    1.007686E-07
       296    2.379689E-07
       297   -2.976219E-07
       298   -5.788247E-07
       299   -3.466494E-06
       300   -3.867549E-07
       301   -4.038719E-06
       302   -4.495048E-02
       303    2.493292E-06
       304   -4.083823E-06
       305   -3.398682E-02
       306    3.564320E-06
       307   -4.132322E-06
       308    4.287948E-03
       309    7.532424E-06
       310   -3.411624E-07
       311    3.969478E-07
       312   -5.578536E-08
       313    9.529813E-03
       314    3.420627E-07
       315   -2.134359E-05
       316   -1.081080E-06
       317    1.048747E-06
       318    3.233279E-08
       319    2.578111E-02
       320    2.482609E-07
       321   -5.851390E-05
       322    3.902180E-07
       323   -3.957494E-07
       324    5.531312E-09
       325   -8.268513E-03
       326   -4.598718E-06
       327    3.147665E-05
       328    3.775734E-09
       329    2.168351E-03
       330   -2.203545E-08
       331   -1.658645E-08
       332   -3.102208E-03
       333    2.073321E-08
       334    1.152077E-08
       335    1.930598E-04
       336    8.830444E-09
       337    8.304582E-06
       338    3.288046E-04
       339    9.062936E-04
       340   -9.305577E-04
       341    7.472611E-03
       342   -6.179627E-03
       343    1.712342E-02
       344    2.534431E-01
       345    2.326884E-01
       346   -5.707291E-04
       347    2.304822E-01
       348    2.039236E-01
       349   -5.180369E-04
       350    1.763559E-01
       351    1.479827E-01
       352   -4.134399E-04
       353    2.930132E-02
       354    1.507932E-02
       355   -6.685991E-05
       356    2.063293E-03
       357   -2.780966E-03
       358    7.176735E-04
       359    2.089743E-04
       360   -3.403595E-06
       361   -2.876898E-07
       362    6.261442E-03
       363   -7.224671E-03
       364    9.632289E-04
       365   -7.840867E-04
       366   -1.314267E-05
       367    2.919995E-06
       368    6.813661E-03
       369   -6.307489E-03
       370   -5.061718E-04
       371   -1.441865E-03
       372   -1.609436E-05
       373    7.032093E-06
       374    2.754867E-04
       375    7.825695E-04
       376   -5.847477E-07
       377   -5.062279E-04
       378   -8.538083E-04
       379   -2.549708E-07
       380    1.366237E-04
       381   -1.961188E-04
       382    1.039492E-06
       383    1.659522E-06
       384   -3.288360E-04
       385   -9.063776E-04
       386    9.306748E-04
       387   -7.473160E-03
       388    6.180443E-03
       389   -1.712347E-02
       390   -2.534264E-01
       391    2.326858E-01
       392    5.661671E-04
       393   -2.304675E-01
       394    2.039210E-01
       395    5.143773E-04
       396   -1.763442E-01
       397    1.479792E-01
       398    3.954020E-04
       399   -2.930009E-02
       400    1.507861E-02
       401    6.629732E-05
       402   -2.063261E-03
       403    2.780989E-03
       404   -7.177289E-04
       405    2.091241E-04
       406    3.526480E-06
       407   -2.415911E-07
       408   -6.261262E-03
       409    7.224655E-03
       410   -9.633925E-04
       411   -7.837775E-04
       412    1.381580E-05
       413    2.230336E-06
       414   -6.813444E-03
       415    6.307280E-03
       416    5.061643E-04
       417   -1.441745E-03
       418    2.248011E-05
       419    1.608789E-06
       420   -2.755025E-04
       421    7.825492E-04
       422    6.649547E-07
       423    5.062641E-04
       424   -8.537622E-04
       425    1.780143E-07
       426   -1.366387E-04
       427   -1.961377E-04
       428   -1.070145E-06
       429    1.737745E-06
       430   -1.609886E-07
       431   -3.807815E-07
       432    6.330345E-07
       433    7.948406E-08
       434    1.796961E-06
       435    4.161162E-06
       436    1.287956E-06
       437    1.068531E-02
       438   -1.534993E-05
       439    1.995265E-06
       440    8.506146E-03
       441   -1.490364E-05
       442    5.471715E-06
       443    5.854321E-03
       444   -1.077475E-05
       445    4.735804E-09
       446    6.481815E-09
       447   -1.121762E-08
       448    4.909979E-04
       449    1.168023E-07
       450    8.964631E-05
       451   -2.341963E-07
       452    3.429295E-07
       453   -1.087333E-07
       454    1.497327E-03
       455    2.908785E-07
       456    1.396556E-04
       457   -1.261283E-06
       458    1.574860E-06
       459   -3.135763E-07
       460   -8.729872E-04
       461    4.675646E-07
       462    3.368059E-06
       463    6.862990E-09
       464    8.312577E-05
       465    8.327313E-08
       466    8.079417E-09
       467   -8.266118E-05
       468   -7.031390E-08
       469   -1.728708E-08
       470   -2.886375E-05
       471   -4.140872E-08
       472    1.893511E-05
       473    5.366774E-03
       474    7.625223E-03
       475    4.833143E-03
       476   -4.351989E-04
       477   -5.201511E-04
       478   -1.182834E-04
       479   -7.297425E-04
       480   -1.994888E-04
       481   -1.329989E-04
       482   -5.367433E-03
       483   -7.628312E-03
       484   -4.845701E-03
       485    4.355996E-04
       486   -5.204691E-04
       487    1.165713E-04
       488    7.328777E-04
       489   -1.998619E-04
       490    1.315872E-04
 Sym= X
 Ene= 0.947839
 Spin= Alpha
 Occup= 0.947839
         1    6.966639E-06
         2    1.348386E-05
         3    7.584019E-04
         4   -9.731901E-03
         5    2.873274E-01
         6   -2.452161E-02
         7    6.308533E-04
         8    1.447737E-04
         9    1.060326E-01
        10   -1.012326E-02
        11    2.434130E-03
        12    1.179796E-01
        13   -7.079143E-02
        14   -1.410479E-01
        15   -3.220881E-02
        16   -7.120163E-05
        17    3.404149E-05
        18    3.716014E-05
        19    1.197318E-05
        20    1.880533E-04
        21    4.496188E-04
        22   -1.342306E-03
        23    1.239062E-03
        24    1.032449E-04
        25   -1.470944E-03
        26   -1.453189E-03
        27   -2.823161E-03
        28    4.400374E-02
        29   -5.575517E-02
        30    1.175144E-02
        31   -1.390096E-03
        32   -8.544782E-02
        33   -3.412227E-02
        34   -3.355153E-05
        35    1.427760E-05
        36   -1.471949E-04
        37    1.349302E-06
        38   -1.895896E-06
        39   -1.047371E-04
        40    4.366480E-05
        41   -1.725951E-05
        42    3.022197E-04
        43    2.185282E-04
        44   -3.675131E-05
        45   -1.039301E-04
        46    1.525557E-03
        47   -2.259792E-02
        48    3.016169E-01
        49    1.526260E-01
        50    2.150998E-04
        51    8.660626E-07
        52   -2.520557E-02
        53   -5.562152E-03
        54   -4.846521E-05
        55   -2.475921E-02
        56    1.791816E-01
        57   -1.521134E-04
        58   -5.193815E-02
        59    5.315422E-08
        60   -4.315144E-05
        61    4.309829E-05
        62    7.096642E-08