[Molden Format]
[Title]
ADC(2) - opt by CAM-B3LYP gaussian                                              
[Atoms] AU
 c     1    6 -.12588573623097E+01 -.22835126974190E+01 -.24083260376910E-01
 c     2    6 -.25578815622211E+01 0.23621577000000E-06 -.22837930855340E-01
 c     3    6 -.12588573623097E+01 0.22835131698505E+01 -.24090819281440E-01
 c     4    6 0.13318248850473E+01 0.22853065199506E+01 -.26003222127920E-01
 c     5    6 0.26868737956204E+01 0.23621577000000E-06 -.25389061134730E-01
 c     6    6 0.13318248850473E+01 -.22853060475191E+01 -.25993773497260E-01
 h     7    1 -.22974546243959E+01 -.40385977330627E+01 -.21598270512170E-01
 h     8    1 -.22974527346698E+01 0.40385982054942E+01 -.21613388321230E-01
 h     9    1 0.23510089905703E+01 0.40574312161345E+01 -.28191524989800E-01
 h    10    1 0.23510071008442E+01 -.40574307437030E+01 -.28172627728480E-01
 n    11    7 -.52726375582849E+01 0.23621577000000E-06 -.17238672323600E-01
 o    12    8 -.63813946825068E+01 0.20269261555273E+01 -.14842499587100E-01
 o    13    8 -.63813927927806E+01 -.20269275728219E+01 -.14865176300690E-01
 n    14    7 0.52430742102305E+01 0.23621577000000E-06 -.67376886081320E-01
 h    15    1 0.62051583509223E+01 0.16177513148781E+01 0.18115044628513E+00
 h    16    1 0.62051564611962E+01 -.16177527321727E+01 0.18114666683287E+00
[GTO]
    1 0
 s    6 1.00
 0.13575349682000E+05 0.60645503603591E-03
 0.20352333680000E+04 0.46979088884982E-02
 0.46322562359000E+03 0.24332477647552E-01
 0.13120019598000E+03 0.97399968307759E-01
 0.42853015891000E+02 0.30195584253780E+00
 0.15584185766000E+02 0.66233609137875E+00
 s    2 1.00
 0.62067138508000E+01 0.65595308539952E+00
 0.25764896527000E+01 0.37585633285142E+00
 s    1 1.00
 0.57696339419000E+00 0.10000000000000E+01
 s    1 1.00
 0.22972831358000E+00 0.10000000000000E+01
 s    1 1.00
 0.95164440028000E-01 0.10000000000000E+01
 s    1 1.00
 0.48475401370000E-01 0.10000000000000E+01
 p    4 1.00
 0.34697232244000E+02 0.11327220003114E-01
 0.79582622826000E+01 0.76169659202087E-01
 0.23780826883000E+01 0.30192252202676E+00
 0.81433208183000E+00 0.72785027349547E+00
 p    1 1.00
 0.28887547253000E+00 0.10000000000000E+01
 p    1 1.00
 0.10056823671000E+00 0.10000000000000E+01
 d    1 1.00
 0.10970000000000E+01 0.10000000000000E+01
 d    1 1.00
 0.31800000000000E+00 0.10000000000000E+01
 d    1 1.00
 0.90985336424000E-01 0.10000000000000E+01
 f    1 1.00
 0.76100000000000E+00 0.10000000000000E+01
 
    2 0
 s    6 1.00
 0.13575349682000E+05 0.60645503603591E-03
 0.20352333680000E+04 0.46979088884982E-02
 0.46322562359000E+03 0.24332477647552E-01
 0.13120019598000E+03 0.97399968307759E-01
 0.42853015891000E+02 0.30195584253780E+00
 0.15584185766000E+02 0.66233609137875E+00
 s    2 1.00
 0.62067138508000E+01 0.65595308539952E+00
 0.25764896527000E+01 0.37585633285142E+00
 s    1 1.00
 0.57696339419000E+00 0.10000000000000E+01
 s    1 1.00
 0.22972831358000E+00 0.10000000000000E+01
 s    1 1.00
 0.95164440028000E-01 0.10000000000000E+01
 s    1 1.00
 0.48475401370000E-01 0.10000000000000E+01
 p    4 1.00
 0.34697232244000E+02 0.11327220003114E-01
 0.79582622826000E+01 0.76169659202087E-01
 0.23780826883000E+01 0.30192252202676E+00
 0.81433208183000E+00 0.72785027349547E+00
 p    1 1.00
 0.28887547253000E+00 0.10000000000000E+01
 p    1 1.00
 0.10056823671000E+00 0.10000000000000E+01
 d    1 1.00
 0.10970000000000E+01 0.10000000000000E+01
 d    1 1.00
 0.31800000000000E+00 0.10000000000000E+01
 d    1 1.00
 0.90985336424000E-01 0.10000000000000E+01
 f    1 1.00
 0.76100000000000E+00 0.10000000000000E+01
 
    3 0
 s    6 1.00
 0.13575349682000E+05 0.60645503603591E-03
 0.20352333680000E+04 0.46979088884982E-02
 0.46322562359000E+03 0.24332477647552E-01
 0.13120019598000E+03 0.97399968307759E-01
 0.42853015891000E+02 0.30195584253780E+00
 0.15584185766000E+02 0.66233609137875E+00
 s    2 1.00
 0.62067138508000E+01 0.65595308539952E+00
 0.25764896527000E+01 0.37585633285142E+00
 s    1 1.00
 0.57696339419000E+00 0.10000000000000E+01
 s    1 1.00
 0.22972831358000E+00 0.10000000000000E+01
 s    1 1.00
 0.95164440028000E-01 0.10000000000000E+01
 s    1 1.00
 0.48475401370000E-01 0.10000000000000E+01
 p    4 1.00
 0.34697232244000E+02 0.11327220003114E-01
 0.79582622826000E+01 0.76169659202087E-01
 0.23780826883000E+01 0.30192252202676E+00
 0.81433208183000E+00 0.72785027349547E+00
 p    1 1.00
 0.28887547253000E+00 0.10000000000000E+01
 p    1 1.00
 0.10056823671000E+00 0.10000000000000E+01
 d    1 1.00
 0.10970000000000E+01 0.10000000000000E+01
 d    1 1.00
 0.31800000000000E+00 0.10000000000000E+01
 d    1 1.00
 0.90985336424000E-01 0.10000000000000E+01
 f    1 1.00
 0.76100000000000E+00 0.10000000000000E+01
 
    4 0
 s    6 1.00
 0.13575349682000E+05 0.60645503603591E-03
 0.20352333680000E+04 0.46979088884982E-02
 0.46322562359000E+03 0.24332477647552E-01
 0.13120019598000E+03 0.97399968307759E-01
 0.42853015891000E+02 0.30195584253780E+00
 0.15584185766000E+02 0.66233609137875E+00
 s    2 1.00
 0.62067138508000E+01 0.65595308539952E+00
 0.25764896527000E+01 0.37585633285142E+00
 s    1 1.00
 0.57696339419000E+00 0.10000000000000E+01
 s    1 1.00
 0.22972831358000E+00 0.10000000000000E+01
 s    1 1.00
 0.95164440028000E-01 0.10000000000000E+01
 s    1 1.00
 0.48475401370000E-01 0.10000000000000E+01
 p    4 1.00
 0.34697232244000E+02 0.11327220003114E-01
 0.79582622826000E+01 0.76169659202087E-01
 0.23780826883000E+01 0.30192252202676E+00
 0.81433208183000E+00 0.72785027349547E+00
 p    1 1.00
 0.28887547253000E+00 0.10000000000000E+01
 p    1 1.00
 0.10056823671000E+00 0.10000000000000E+01
 d    1 1.00
 0.10970000000000E+01 0.10000000000000E+01
 d    1 1.00
 0.31800000000000E+00 0.10000000000000E+01
 d    1 1.00
 0.90985336424000E-01 0.10000000000000E+01
 f    1 1.00
 0.76100000000000E+00 0.10000000000000E+01
 
    5 0
 s    6 1.00
 0.13575349682000E+05 0.60645503603591E-03
 0.20352333680000E+04 0.46979088884982E-02
 0.46322562359000E+03 0.24332477647552E-01
 0.13120019598000E+03 0.97399968307759E-01
 0.42853015891000E+02 0.30195584253780E+00
 0.15584185766000E+02 0.66233609137875E+00
 s    2 1.00
 0.62067138508000E+01 0.65595308539952E+00
 0.25764896527000E+01 0.37585633285142E+00
 s    1 1.00
 0.57696339419000E+00 0.10000000000000E+01
 s    1 1.00
 0.22972831358000E+00 0.10000000000000E+01
 s    1 1.00
 0.95164440028000E-01 0.10000000000000E+01
 s    1 1.00
 0.48475401370000E-01 0.10000000000000E+01
 p    4 1.00
 0.34697232244000E+02 0.11327220003114E-01
 0.79582622826000E+01 0.76169659202087E-01
 0.23780826883000E+01 0.30192252202676E+00
 0.81433208183000E+00 0.72785027349547E+00
 p    1 1.00
 0.28887547253000E+00 0.10000000000000E+01
 p    1 1.00
 0.10056823671000E+00 0.10000000000000E+01
 d    1 1.00
 0.10970000000000E+01 0.10000000000000E+01
 d    1 1.00
 0.31800000000000E+00 0.10000000000000E+01
 d    1 1.00
 0.90985336424000E-01 0.10000000000000E+01
 f    1 1.00
 0.76100000000000E+00 0.10000000000000E+01
 
    6 0
 s    6 1.00
 0.13575349682000E+05 0.60645503603591E-03
 0.20352333680000E+04 0.46979088884982E-02
 0.46322562359000E+03 0.24332477647552E-01
 0.13120019598000E+03 0.97399968307759E-01
 0.42853015891000E+02 0.30195584253780E+00
 0.15584185766000E+02 0.66233609137875E+00
 s    2 1.00
 0.62067138508000E+01 0.65595308539952E+00
 0.25764896527000E+01 0.37585633285142E+00
 s    1 1.00
 0.57696339419000E+00 0.10000000000000E+01
 s    1 1.00
 0.22972831358000E+00 0.10000000000000E+01
 s    1 1.00
 0.95164440028000E-01 0.10000000000000E+01
 s    1 1.00
 0.48475401370000E-01 0.10000000000000E+01
 p    4 1.00
 0.34697232244000E+02 0.11327220003114E-01
 0.79582622826000E+01 0.76169659202087E-01
 0.23780826883000E+01 0.30192252202676E+00
 0.81433208183000E+00 0.72785027349547E+00
 p    1 1.00
 0.28887547253000E+00 0.10000000000000E+01
 p    1 1.00
 0.10056823671000E+00 0.10000000000000E+01
 d    1 1.00
 0.10970000000000E+01 0.10000000000000E+01
 d    1 1.00
 0.31800000000000E+00 0.10000000000000E+01
 d    1 1.00
 0.90985336424000E-01 0.10000000000000E+01
 f    1 1.00
 0.76100000000000E+00 0.10000000000000E+01
 
    7 0
 s    3 1.00
 0.34061341000000E+02 0.25439307208879E-01
 0.51235746000000E+01 0.19008594890375E+00
 0.11646626000000E+01 0.85244113011042E+00
 s    1 1.00
 0.32723041000000E+00 0.10000000000000E+01
 s    1 1.00
 0.10307241000000E+00 0.10000000000000E+01
 p    1 1.00
 0.80000000000000E+00 0.10000000000000E+01
 p    1 1.00
 0.95774129632000E-01 0.10000000000000E+01
 
    8 0
 s    3 1.00
 0.34061341000000E+02 0.25439307208879E-01
 0.51235746000000E+01 0.19008594890375E+00
 0.11646626000000E+01 0.85244113011042E+00
 s    1 1.00
 0.32723041000000E+00 0.10000000000000E+01
 s    1 1.00
 0.10307241000000E+00 0.10000000000000E+01
 p    1 1.00
 0.80000000000000E+00 0.10000000000000E+01
 p    1 1.00
 0.95774129632000E-01 0.10000000000000E+01
 
    9 0
 s    3 1.00
 0.34061341000000E+02 0.25439307208879E-01
 0.51235746000000E+01 0.19008594890375E+00
 0.11646626000000E+01 0.85244113011042E+00
 s    1 1.00
 0.32723041000000E+00 0.10000000000000E+01
 s    1 1.00
 0.10307241000000E+00 0.10000000000000E+01
 p    1 1.00
 0.80000000000000E+00 0.10000000000000E+01
 p    1 1.00
 0.95774129632000E-01 0.10000000000000E+01
 
   10 0
 s    3 1.00
 0.34061341000000E+02 0.25439307208879E-01
 0.51235746000000E+01 0.19008594890375E+00
 0.11646626000000E+01 0.85244113011042E+00
 s    1 1.00
 0.32723041000000E+00 0.10000000000000E+01
 s    1 1.00
 0.10307241000000E+00 0.10000000000000E+01
 p    1 1.00
 0.80000000000000E+00 0.10000000000000E+01
 p    1 1.00
 0.95774129632000E-01 0.10000000000000E+01
 
   11 0
 s    6 1.00
 0.19730800647000E+05 0.58626402628763E-03
 0.29578958745000E+04 0.45428820586397E-02
 0.67322133595000E+03 0.23558413450084E-01
 0.19068249494000E+03 0.94709193292923E-01
 0.62295441898000E+02 0.29719784913376E+00
 0.22654161182000E+02 0.66916246895232E+00
 s    2 1.00
 0.89791477428000E+01 0.64596683630063E+00
 0.36863002370000E+01 0.38700574393705E+00
 s    1 1.00
 0.84660076805000E+00 0.10000000000000E+01
 s    1 1.00
 0.33647133771000E+00 0.10000000000000E+01
 s    1 1.00
 0.13647653675000E+00 0.10000000000000E+01
 s    1 1.00
 0.68441605847000E-01 0.10000000000000E+01
 p    4 1.00
 0.49200380510000E+02 0.11448825101764E-01
 0.11346790537000E+02 0.78422337970864E-01
 0.34273972411000E+01 0.30818094738830E+00
 0.11785525134000E+01 0.72027196368413E+00
 p    1 1.00
 0.41642204972000E+00 0.10000000000000E+01
 p    1 1.00
 0.14260826011000E+00 0.10000000000000E+01
 d    1 1.00
 0.16540000000000E+01 0.10000000000000E+01
 d    1 1.00
 0.46900000000000E+00 0.10000000000000E+01
 d    1 1.00
 0.12829642058000E+00 0.10000000000000E+01
 f    1 1.00
 0.10930000000000E+01 0.10000000000000E+01
 
   12 0
 s    6 1.00
 0.27032382631000E+05 0.57227335211155E-03
 0.40523871392000E+04 0.44353233492995E-02
 0.92232722710000E+03 0.23020107706038E-01
 0.26124070989000E+03 0.92822490667928E-01
 0.85354641351000E+02 0.29378500009671E+00
 0.31035035245000E+02 0.67401604501641E+00
 s    2 1.00
 0.12260860728000E+02 0.63839937025506E+00
 0.49987076005000E+01 0.39534587125718E+00
 s    1 1.00
 0.11703108158000E+01 0.10000000000000E+01
 s    1 1.00
 0.46474740994000E+00 0.10000000000000E+01
 s    1 1.00
 0.18504536357000E+00 0.10000000000000E+01
 s    1 1.00
 0.70288026270000E-01 0.10000000000000E+01
 p    4 1.00
 0.63274954801000E+02 0.12018332222616E-01
 0.14627049379000E+02 0.83005421790056E-01
 0.44501223456000E+01 0.31991743925964E+00
 0.15275799647000E+01 0.70715542916104E+00
 p    1 1.00
 0.52935117943000E+00 0.10000000000000E+01
 p    1 1.00
 0.17478421270000E+00 0.10000000000000E+01
 p    1 1.00
 0.51112745706000E-01 0.10000000000000E+01
 d    1 1.00
 0.23140000000000E+01 0.10000000000000E+01
 d    1 1.00
 0.64500000000000E+00 0.10000000000000E+01
 d    1 1.00
 0.14696477366000E+00 0.10000000000000E+01
 f    1 1.00
 0.14280000000000E+01 0.10000000000000E+01
 
   13 0
 s    6 1.00
 0.27032382631000E+05 0.57227335211155E-03
 0.40523871392000E+04 0.44353233492995E-02
 0.92232722710000E+03 0.23020107706038E-01
 0.26124070989000E+03 0.92822490667928E-01
 0.85354641351000E+02 0.29378500009671E+00
 0.31035035245000E+02 0.67401604501641E+00
 s    2 1.00
 0.12260860728000E+02 0.63839937025506E+00
 0.49987076005000E+01 0.39534587125718E+00
 s    1 1.00
 0.11703108158000E+01 0.10000000000000E+01
 s    1 1.00
 0.46474740994000E+00 0.10000000000000E+01
 s    1 1.00
 0.18504536357000E+00 0.10000000000000E+01
 s    1 1.00
 0.70288026270000E-01 0.10000000000000E+01
 p    4 1.00
 0.63274954801000E+02 0.12018332222616E-01
 0.14627049379000E+02 0.83005421790056E-01
 0.44501223456000E+01 0.31991743925964E+00
 0.15275799647000E+01 0.70715542916104E+00
 p    1 1.00
 0.52935117943000E+00 0.10000000000000E+01
 p    1 1.00
 0.17478421270000E+00 0.10000000000000E+01
 p    1 1.00
 0.51112745706000E-01 0.10000000000000E+01
 d    1 1.00
 0.23140000000000E+01 0.10000000000000E+01
 d    1 1.00
 0.64500000000000E+00 0.10000000000000E+01
 d    1 1.00
 0.14696477366000E+00 0.10000000000000E+01
 f    1 1.00
 0.14280000000000E+01 0.10000000000000E+01
 
   14 0
 s    6 1.00
 0.19730800647000E+05 0.58626402628763E-03
 0.29578958745000E+04 0.45428820586397E-02
 0.67322133595000E+03 0.23558413450084E-01
 0.19068249494000E+03 0.94709193292923E-01
 0.62295441898000E+02 0.29719784913376E+00
 0.22654161182000E+02 0.66916246895232E+00
 s    2 1.00
 0.89791477428000E+01 0.64596683630063E+00
 0.36863002370000E+01 0.38700574393705E+00
 s    1 1.00
 0.84660076805000E+00 0.10000000000000E+01
 s    1 1.00
 0.33647133771000E+00 0.10000000000000E+01
 s    1 1.00
 0.13647653675000E+00 0.10000000000000E+01
 s    1 1.00
 0.68441605847000E-01 0.10000000000000E+01
 p    4 1.00
 0.49200380510000E+02 0.11448825101764E-01
 0.11346790537000E+02 0.78422337970864E-01
 0.34273972411000E+01 0.30818094738830E+00
 0.11785525134000E+01 0.72027196368413E+00
 p    1 1.00
 0.41642204972000E+00 0.10000000000000E+01
 p    1 1.00
 0.14260826011000E+00 0.10000000000000E+01
 d    1 1.00
 0.16540000000000E+01 0.10000000000000E+01
 d    1 1.00
 0.46900000000000E+00 0.10000000000000E+01
 d    1 1.00
 0.12829642058000E+00 0.10000000000000E+01
 f    1 1.00
 0.10930000000000E+01 0.10000000000000E+01
 
   15 0
 s    3 1.00
 0.34061341000000E+02 0.25439307208879E-01
 0.51235746000000E+01 0.19008594890375E+00
 0.11646626000000E+01 0.85244113011042E+00
 s    1 1.00
 0.32723041000000E+00 0.10000000000000E+01
 s    1 1.00
 0.10307241000000E+00 0.10000000000000E+01
 p    1 1.00
 0.80000000000000E+00 0.10000000000000E+01
 p    1 1.00
 0.95774129632000E-01 0.10000000000000E+01
 
   16 0
 s    3 1.00
 0.34061341000000E+02 0.25439307208879E-01
 0.51235746000000E+01 0.19008594890375E+00
 0.11646626000000E+01 0.85244113011042E+00
 s    1 1.00
 0.32723041000000E+00 0.10000000000000E+01
 s    1 1.00
 0.10307241000000E+00 0.10000000000000E+01
 p    1 1.00
 0.80000000000000E+00 0.10000000000000E+01
 p    1 1.00
 0.95774129632000E-01 0.10000000000000E+01
 
[MO]
 Sym= X
 Ene= -0.946579
 Spin= Alpha
 Occup= -0.946579
         1   -1.477123E-04
         2   -3.443615E-04
         3    9.831311E-04
         4   -2.200436E-03
         5   -1.178993E-02
         6   -9.513960E-03
         7    1.392754E-03
         8    1.509614E-04
         9    2.238462E-02
        10   -2.020986E-03
        11    3.155162E-04
        12    2.057306E-02
        13   -3.090895E-02
        14    8.484829E-03
        15    2.926087E-03
        16    2.611951E-06
        17   -1.330466E-05
        18    1.069271E-05
        19   -8.287267E-06
        20   -6.487816E-03
        21    3.858231E-03
        22   -5.618283E-04
        23    3.352808E-04
        24    2.265475E-04
        25   -5.901764E-04
        26   -1.456907E-02
        27    7.286953E-03
        28   -4.557896E-03
        29    4.265382E-03
        30    2.925142E-04
        31    9.241898E-04
        32    1.288829E-03
        33   -9.836835E-03
        34   -1.657189E-05
        35    5.482224E-06
        36   -8.909215E-05
        37    6.980111E-06
        38   -5.655907E-06
        39   -7.259996E-04
        40    1.525342E-05
        41   -1.699268E-06
        42    8.455292E-04
        43   -7.125134E-04
        44    2.349476E-05
        45    5.156598E-05
        46    1.008494E-04
        47   -2.219802E-03
        48   -4.458702E-02
        49    4.501893E-03
        50    3.085833E-04
        51    1.431377E-06
        52    2.055848E-01
        53   -3.473471E-04
        54    2.278797E-05
        55    2.133945E-01
        56   -1.463755E-02
        57   -1.624640E-03
        58    2.020707E-01
        59    3.421962E-05
        60   -3.221936E-05
        61   -2.000255E-06
        62    1.411568E-07
        63   -9.560368E-04
        64    1.220259E-06
        65    3.147831E-04
        66   -5.230004E-04
        67    2.082173E-04
        68    4.908859E-06
        69   -3.888039E-03
        70    2.125351E-06
        71    7.311697E-03
        72   -8.267183E-03
        73    9.554858E-04
        74   -2.776721E-04
        75    5.072214E-03
        76   -2.451792E-05
        77    6.615365E-06
        78    4.617006E-08
        79   -1.158285E-03
        80   -5.351544E-06
        81    4.292918E-08
        82    7.231412E-04
        83   -3.523899E-06
        84   -1.048728E-07
        85    8.308605E-04
        86    1.461538E-07
        87   -1.479031E-04
        88   -3.449355E-04
        89    9.931714E-04
        90   -2.286408E-03
        91   -9.140381E-03
        92   -9.434650E-03
        93    1.394274E-03
        94   -1.530992E-04
        95    2.244292E-02
        96   -2.006498E-03
        97   -3.006568E-04
        98    2.062897E-02
        99   -3.204286E-02
       100   -1.019209E-02
       101    3.052136E-03
       102    2.411250E-06
       103   -1.330288E-05
       104    1.089163E-05
       105    8.597228E-06
       106   -6.487092E-03
       107   -3.858487E-03
       108   -5.582256E-04
       109    3.300132E-04
       110    2.282124E-04
       111    5.862172E-04
       112   -1.456492E-02
       113   -7.286448E-03
       114   -4.877849E-03
       115    4.617780E-03
       116    2.600687E-04
       117   -6.865657E-04
       118    1.282890E-03
       119    9.794454E-03
       120   -1.677304E-05
       121   -5.457218E-06
       122   -8.940728E-05
       123    7.311568E-06
       124    5.660402E-06
       125   -7.256469E-04
       126    1.519183E-05
       127    1.661225E-06
       128    8.455994E-04
       129    7.124428E-04
       130    9.449759E-05
       131    2.030122E-04
       132    5.023631E-04
       133   -8.697771E-03
       134    2.755996E-02
       135    1.060604E-02
       136   -1.109430E-03
       137    4.859713E-04
       138   -1.594292E-01
       139   -7.638456E-03
       140    5.115295E-03
       141   -1.621295E-01
       142   -2.295079E-02
       143   -5.686037E-03
       144   -9.722564E-02
       145    1.208463E-04
       146   -1.444797E-04
       147    2.363338E-05
       148   -4.805085E-06
       149   -8.769661E-04
       150    3.149631E-03
       151    5.247413E-04
       152   -6.271870E-04
       153    1.024457E-04
       154    1.423941E-03
       155   -4.099626E-03
       156    5.359742E-03
       157    7.262088E-03
       158   -5.756956E-03
       159   -1.505132E-03
       160   -7.066494E-03
       161    3.196782E-03
       162   -1.134894E-02
       163   -1.302536E-05
       164    7.160762E-06
       165    9.168930E-04
       166   -1.549142E-05
       167    1.490145E-05
       168   -2.508344E-04
       169    3.296677E-05
       170   -2.450862E-05
       171   -9.793066E-04
       172    3.645268E-04
       173   -9.096370E-04
       174   -2.075829E-03
       175    2.123079E-03
       176    1.826976E-02
       177   -9.092643E-03
       178    8.276279E-03
       179    7.360282E-03
       180    8.847240E-07
       181   -1.234579E-01
       182    2.588080E-04
       183   -1.493464E-05
       184   -1.256549E-01
       185   -2.013779E-02
       186    1.694432E-03
       187   -1.307616E-01
       188    3.956735E-04
       189   -2.219039E-04
       190   -1.737696E-04
       191    7.601753E-08
       192    9.640877E-03
       193    1.037819E-06
       194   -1.571571E-03
       195    3.441369E-03
       196   -1.869798E-03
       197    3.845173E-06
       198    2.409675E-02
       199   -1.224507E-06
       200   -4.592759E-03
       201    5.711513E-03
       202   -1.118754E-03
       203   -3.399281E-04
       204    1.931020E-02
       205    5.399316E-06
       206    9.458240E-05
       207    3.271812E-08
       208    4.431154E-04
       209   -6.668134E-05
       210   -1.246711E-07
       211    9.153646E-04
       212   -6.021426E-05
       213    8.077515E-08
       214   -1.509866E-03
       215    2.216577E-09
       216    9.523360E-05
       217    2.044862E-04
       218    5.074836E-04
       219   -8.786923E-03
       220    3.055185E-02
       221    1.064289E-02
       222   -1.110809E-03
       223   -4.797904E-04
       224   -1.594731E-01
       225   -7.641380E-03
       226   -5.130470E-03
       227   -1.621831E-01
       228   -2.170717E-02
       229    7.669685E-03
       230   -9.716236E-02
       231    1.205721E-04
       232   -1.450438E-04
       233    2.447169E-05
       234    4.881662E-06
       235   -8.756680E-04
       236   -3.149864E-03
       237    5.264786E-04
       238   -6.299647E-04
       239    1.034861E-04
       240   -1.426432E-03
       241   -4.095881E-03
       242   -5.359685E-03
       243    6.927343E-03
       244   -5.404732E-03
       245   -1.522611E-03
       246    7.338569E-03
       247    3.206388E-03
       248    1.140216E-02
       249   -1.292488E-05
       250   -7.230619E-06
       251    9.174463E-04
       252   -1.576269E-05
       253   -1.481372E-05
       254   -2.514100E-04
       255    3.310323E-05
       256    2.451461E-05
       257   -9.794733E-04
       258   -3.645159E-04
       259   -2.947337E-04
       260   -1.713861E-04
       261   -1.480387E-02
       262   -1.030226E-05
       263    6.872523E-07
       264    8.886305E-04
       265   -4.499171E-03
       266   -1.891516E-04
       267   -6.369208E-03
       268   -2.965535E-04
       269   -1.653999E-04
       270   -1.457843E-02
       271   -9.093490E-06
       272   -1.350085E-06
       273    8.913666E-04
       274   -4.671713E-03
       275    5.005887E-05
       276   -6.338880E-03
       277   -3.753800E-04
       278   -2.025366E-03
       279    2.868238E-02
       280   -4.980633E-06
       281    8.721043E-05
       282   -6.465944E-03
       283   -1.406829E-03
       284   -2.270632E-03
       285    1.050864E-03
       286   -3.798772E-04
       287   -2.026304E-03
       288    2.912056E-02
       289   -4.671518E-06
       290   -8.713566E-05
       291   -6.468234E-03
       292   -1.265200E-03
       293    2.437235E-03
       294    1.081970E-03
       295   -3.965668E-05
       296   -9.191378E-05
       297    7.828344E-05
       298    3.826096E-04
       299   -5.383526E-03
       300    1.189531E-03
       301    4.503348E-04
       302   -3.200064E-07
       303    2.780042E-02
       304    1.913166E-04
       305    6.442406E-07
       306    2.987071E-02
       307   -2.467264E-03
       308    2.906538E-05
       309    1.228915E-02
       310    2.318229E-05
       311   -9.140835E-06
       312   -1.404145E-05
       313    3.034404E-08
       314    4.442948E-03
       315    3.915097E-08
       316    1.953029E-05
       317    4.226628E-05
       318   -6.179657E-05
       319   -4.984649E-07
       320    1.348283E-02
       321   -8.528598E-08
       322   -9.466465E-04
       323    2.435044E-03
       324   -1.488397E-03
       325    4.610153E-05
       326    3.419788E-03
       327    4.002498E-06
       328    6.265573E-06
       329    1.842076E-08
       330   -3.403427E-05
       331   -4.058970E-06
       332    4.241440E-09
       333    7.226325E-04
       334   -4.347179E-06
       335   -2.895549E-08
       336   -6.769708E-04
       337    2.547145E-08
       338   -9.409852E-06
       339   -1.999245E-05
       340   -7.330769E-06
       341    4.258674E-04
       342   -4.900471E-03
       343   -7.432333E-04
       344   -2.885510E-04
       345    8.212996E-05
       346   -7.664324E-02
       347   -3.438731E-04
       348    1.934925E-04
       349   -7.117799E-02
       350   -1.366823E-03
       351    3.664104E-04
       352   -5.945561E-02
       353   -1.344343E-04
       354    1.840298E-04
       355   -7.588270E-03
       356    3.146398E-06
       357   -3.804343E-06
       358    6.579449E-07
       359    1.098657E-06
       360    6.155977E-05
       361    3.887311E-04
       362   -1.145337E-05
       363   -8.447220E-06
       364    1.990059E-05
       365    1.167269E-05
       366   -3.659118E-04
       367    1.348607E-03
       368   -7.442083E-05
       369    5.738689E-05
       370    1.703393E-05
       371    8.938671E-05
       372   -1.058265E-04
       373    1.468038E-04
       374    8.167501E-07
       375    1.216802E-06
       376    4.818475E-05
       377   -1.427289E-06
       378   -3.455724E-08
       379    8.410716E-05
       380    3.315041E-07
       381   -1.597953E-06
       382   -1.487538E-04
       383    1.144856E-04
       384   -9.294680E-06
       385   -1.974974E-05
       386   -7.231606E-06
       387    4.215269E-04
       388   -4.919715E-03
       389   -7.006773E-04
       390   -2.859072E-04
       391   -8.156435E-05
       392   -7.664163E-02
       393   -3.419064E-04
       394   -1.921761E-04
       395   -7.117670E-02
       396   -1.322772E-03
       397   -3.724385E-04
       398   -5.944949E-02
       399   -1.155053E-04
       400   -1.891060E-04
       401   -7.593934E-03
       402    3.098955E-06
       403   -3.786902E-06
       404    6.879466E-07
       405   -1.151614E-06
       406    6.151122E-05
       407   -3.887224E-04
       408   -1.099224E-05
       409   -8.437868E-06
       410    1.943011E-05
       411   -1.116199E-05
       412   -3.658406E-04
       413   -1.348557E-03
       414   -7.422175E-05
       415    5.840078E-05
       416    1.582097E-05
       417   -8.847948E-05
       418   -1.070156E-04
       419   -1.463286E-04
       420    8.154596E-07
       421   -1.209446E-06
       422    4.819226E-05
       423   -1.406871E-06
       424    3.644082E-08
       425    8.409745E-05
       426    3.128167E-07
       427    1.586201E-06
       428   -1.487541E-04
       429   -1.144894E-04
       430    3.922997E-03
       431    9.334440E-03
       432   -1.462844E-02
       433   -2.255722E-02
       434   -1.986189E-02
       435   -6.095353E-02
       436   -1.408858E-02
       437    1.017378E-05
       438    2.337774E-01
       439   -1.624913E-02
       440   -3.939841E-06
       441    2.315135E-01
       442   -1.431894E-02
       443   -1.428788E-04
       444    1.924464E-01
       445   -8.092084E-05
       446    1.256832E-05
       447    6.835252E-05
       448    2.567008E-07
       449    9.589443E-04
       450    3.619550E-07
       451   -1.875555E-04
       452   -1.231676E-03
       453    1.419232E-03
       454   -5.591657E-06
       455    4.076290E-03
       456    1.083849E-06
       457   -1.695224E-03
       458   -2.302111E-03
       459    3.997335E-03
       460   -2.201728E-05
       461    2.264055E-03
       462    1.083767E-05
       463   -1.249351E-04
       464    7.695108E-09
       465   -8.991852E-04
       466   -6.569561E-05
       467   -2.725522E-08
       468    4.431551E-04
       469    2.333137E-04
       470    1.693115E-08
       471    7.632285E-04
       472    4.556395E-09
       473    8.410551E-03
       474    1.556579E-02
       475    2.558552E-02
       476   -1.912247E-03
       477   -1.639022E-03
       478    1.199776E-02
       479    1.464130E-03
       480   -3.028264E-03
       481    1.457248E-02
       482    8.404131E-03
       483    1.546148E-02
       484    2.509315E-02
       485   -1.906903E-03
       486    1.629066E-03
       487    1.200239E-02
       488    1.523937E-03
       489    2.954612E-03
       490    1.459336E-02
 Sym= X
 Ene= 0.946579
 Spin= Alpha
 Occup= 0.946579
         1   -7.775620E-03
         2   -1.756638E-02
         3    3.077778E-02
         4    3.552019E-02
         5   -1.384761E+00
         6    1.325004E+00
         7   -1.432726E-02
         8   -6.467462E-03
         9   -2.951788E-04
        10   -1.267372E-01
        11   -2.254916E-02
        12    3.061261E-03
        13   -4.414981E-01
        14   -3.731006E-03
        15   -2.503429E-02
        16    1.330896E-03
        17    7.679537E-04
        18   -2.098850E-03
        19   -8.832796E-04
        20   -8.511060E-05
        21   -1.002050E-04
        22   -1.903606E-02
        23    2.342215E-02
        24   -4.386093E-03
        25    3.769829E-03
        26    9.568044E-04
        27   -3.904285E-04
        28   -6.479820E-01
        29    4.685329E-01
        30    1.794491E-01
        31   -6.483618E-01
        32   -2.386570E-02
        33    2.497730E-02
        34   -2.150625E-04
        35   -1.492819E-04
        36    8.320162E-06
        37   -4.848624E-04
        38   -4.743920E-05
        39    3.342482E-05
        40    7.733991E-04
        41    2.477219E-04
        42   -4.458749E-05
        43    3.274241E-05
        44   -5.849209E-03
        45   -1.275606E-02
        46    2.471765E-03
        47    2.068983E-01
        48   -2.587533E+00
        49   -2.042369E+00
        50    2.022335E-03
        51    1.044346E-06
        52   -3.419901E-03
        53   -6.960242E-02
        54   -5.858784E-05
        55   -6.328946E-04
        56   -2.042957E+00
        57   -3.822250E-03
        58   -8.285154E-02
        59   -4.265411E-04
        60    3.204957E-03
        61   -2.778416E-03
        62   -4.972958E-07