[Molden Format]
[Title]
ADC(2) - opt by CAM-B3LYP gaussian                                              
[Atoms] AU
 c     1    6 -.12588573623097E+01 -.22835126974190E+01 -.24083260376910E-01
 c     2    6 -.25578815622211E+01 0.23621577000000E-06 -.22837930855340E-01
 c     3    6 -.12588573623097E+01 0.22835131698505E+01 -.24090819281440E-01
 c     4    6 0.13318248850473E+01 0.22853065199506E+01 -.26003222127920E-01
 c     5    6 0.26868737956204E+01 0.23621577000000E-06 -.25389061134730E-01
 c     6    6 0.13318248850473E+01 -.22853060475191E+01 -.25993773497260E-01
 h     7    1 -.22974546243959E+01 -.40385977330627E+01 -.21598270512170E-01
 h     8    1 -.22974527346698E+01 0.40385982054942E+01 -.21613388321230E-01
 h     9    1 0.23510089905703E+01 0.40574312161345E+01 -.28191524989800E-01
 h    10    1 0.23510071008442E+01 -.40574307437030E+01 -.28172627728480E-01
 n    11    7 -.52726375582849E+01 0.23621577000000E-06 -.17238672323600E-01
 o    12    8 -.63813946825068E+01 0.20269261555273E+01 -.14842499587100E-01
 o    13    8 -.63813927927806E+01 -.20269275728219E+01 -.14865176300690E-01
 n    14    7 0.52430742102305E+01 0.23621577000000E-06 -.67376886081320E-01
 h    15    1 0.62051583509223E+01 0.16177513148781E+01 0.18115044628513E+00
 h    16    1 0.62051564611962E+01 -.16177527321727E+01 0.18114666683287E+00
[GTO]
    1 0
 s    6 1.00
 0.13575349682000E+05 0.60645503603591E-03
 0.20352333680000E+04 0.46979088884982E-02
 0.46322562359000E+03 0.24332477647552E-01
 0.13120019598000E+03 0.97399968307759E-01
 0.42853015891000E+02 0.30195584253780E+00
 0.15584185766000E+02 0.66233609137875E+00
 s    2 1.00
 0.62067138508000E+01 0.65595308539952E+00
 0.25764896527000E+01 0.37585633285142E+00
 s    1 1.00
 0.57696339419000E+00 0.10000000000000E+01
 s    1 1.00
 0.22972831358000E+00 0.10000000000000E+01
 s    1 1.00
 0.95164440028000E-01 0.10000000000000E+01
 s    1 1.00
 0.48475401370000E-01 0.10000000000000E+01
 p    4 1.00
 0.34697232244000E+02 0.11327220003114E-01
 0.79582622826000E+01 0.76169659202087E-01
 0.23780826883000E+01 0.30192252202676E+00
 0.81433208183000E+00 0.72785027349547E+00
 p    1 1.00
 0.28887547253000E+00 0.10000000000000E+01
 p    1 1.00
 0.10056823671000E+00 0.10000000000000E+01
 d    1 1.00
 0.10970000000000E+01 0.10000000000000E+01
 d    1 1.00
 0.31800000000000E+00 0.10000000000000E+01
 d    1 1.00
 0.90985336424000E-01 0.10000000000000E+01
 f    1 1.00
 0.76100000000000E+00 0.10000000000000E+01
 
    2 0
 s    6 1.00
 0.13575349682000E+05 0.60645503603591E-03
 0.20352333680000E+04 0.46979088884982E-02
 0.46322562359000E+03 0.24332477647552E-01
 0.13120019598000E+03 0.97399968307759E-01
 0.42853015891000E+02 0.30195584253780E+00
 0.15584185766000E+02 0.66233609137875E+00
 s    2 1.00
 0.62067138508000E+01 0.65595308539952E+00
 0.25764896527000E+01 0.37585633285142E+00
 s    1 1.00
 0.57696339419000E+00 0.10000000000000E+01
 s    1 1.00
 0.22972831358000E+00 0.10000000000000E+01
 s    1 1.00
 0.95164440028000E-01 0.10000000000000E+01
 s    1 1.00
 0.48475401370000E-01 0.10000000000000E+01
 p    4 1.00
 0.34697232244000E+02 0.11327220003114E-01
 0.79582622826000E+01 0.76169659202087E-01
 0.23780826883000E+01 0.30192252202676E+00
 0.81433208183000E+00 0.72785027349547E+00
 p    1 1.00
 0.28887547253000E+00 0.10000000000000E+01
 p    1 1.00
 0.10056823671000E+00 0.10000000000000E+01
 d    1 1.00
 0.10970000000000E+01 0.10000000000000E+01
 d    1 1.00
 0.31800000000000E+00 0.10000000000000E+01
 d    1 1.00
 0.90985336424000E-01 0.10000000000000E+01
 f    1 1.00
 0.76100000000000E+00 0.10000000000000E+01
 
    3 0
 s    6 1.00
 0.13575349682000E+05 0.60645503603591E-03
 0.20352333680000E+04 0.46979088884982E-02
 0.46322562359000E+03 0.24332477647552E-01
 0.13120019598000E+03 0.97399968307759E-01
 0.42853015891000E+02 0.30195584253780E+00
 0.15584185766000E+02 0.66233609137875E+00
 s    2 1.00
 0.62067138508000E+01 0.65595308539952E+00
 0.25764896527000E+01 0.37585633285142E+00
 s    1 1.00
 0.57696339419000E+00 0.10000000000000E+01
 s    1 1.00
 0.22972831358000E+00 0.10000000000000E+01
 s    1 1.00
 0.95164440028000E-01 0.10000000000000E+01
 s    1 1.00
 0.48475401370000E-01 0.10000000000000E+01
 p    4 1.00
 0.34697232244000E+02 0.11327220003114E-01
 0.79582622826000E+01 0.76169659202087E-01
 0.23780826883000E+01 0.30192252202676E+00
 0.81433208183000E+00 0.72785027349547E+00
 p    1 1.00
 0.28887547253000E+00 0.10000000000000E+01
 p    1 1.00
 0.10056823671000E+00 0.10000000000000E+01
 d    1 1.00
 0.10970000000000E+01 0.10000000000000E+01
 d    1 1.00
 0.31800000000000E+00 0.10000000000000E+01
 d    1 1.00
 0.90985336424000E-01 0.10000000000000E+01
 f    1 1.00
 0.76100000000000E+00 0.10000000000000E+01
 
    4 0
 s    6 1.00
 0.13575349682000E+05 0.60645503603591E-03
 0.20352333680000E+04 0.46979088884982E-02
 0.46322562359000E+03 0.24332477647552E-01
 0.13120019598000E+03 0.97399968307759E-01
 0.42853015891000E+02 0.30195584253780E+00
 0.15584185766000E+02 0.66233609137875E+00
 s    2 1.00
 0.62067138508000E+01 0.65595308539952E+00
 0.25764896527000E+01 0.37585633285142E+00
 s    1 1.00
 0.57696339419000E+00 0.10000000000000E+01
 s    1 1.00
 0.22972831358000E+00 0.10000000000000E+01
 s    1 1.00
 0.95164440028000E-01 0.10000000000000E+01
 s    1 1.00
 0.48475401370000E-01 0.10000000000000E+01
 p    4 1.00
 0.34697232244000E+02 0.11327220003114E-01
 0.79582622826000E+01 0.76169659202087E-01
 0.23780826883000E+01 0.30192252202676E+00
 0.81433208183000E+00 0.72785027349547E+00
 p    1 1.00
 0.28887547253000E+00 0.10000000000000E+01
 p    1 1.00
 0.10056823671000E+00 0.10000000000000E+01
 d    1 1.00
 0.10970000000000E+01 0.10000000000000E+01
 d    1 1.00
 0.31800000000000E+00 0.10000000000000E+01
 d    1 1.00
 0.90985336424000E-01 0.10000000000000E+01
 f    1 1.00
 0.76100000000000E+00 0.10000000000000E+01
 
    5 0
 s    6 1.00
 0.13575349682000E+05 0.60645503603591E-03
 0.20352333680000E+04 0.46979088884982E-02
 0.46322562359000E+03 0.24332477647552E-01
 0.13120019598000E+03 0.97399968307759E-01
 0.42853015891000E+02 0.30195584253780E+00
 0.15584185766000E+02 0.66233609137875E+00
 s    2 1.00
 0.62067138508000E+01 0.65595308539952E+00
 0.25764896527000E+01 0.37585633285142E+00
 s    1 1.00
 0.57696339419000E+00 0.10000000000000E+01
 s    1 1.00
 0.22972831358000E+00 0.10000000000000E+01
 s    1 1.00
 0.95164440028000E-01 0.10000000000000E+01
 s    1 1.00
 0.48475401370000E-01 0.10000000000000E+01
 p    4 1.00
 0.34697232244000E+02 0.11327220003114E-01
 0.79582622826000E+01 0.76169659202087E-01
 0.23780826883000E+01 0.30192252202676E+00
 0.81433208183000E+00 0.72785027349547E+00
 p    1 1.00
 0.28887547253000E+00 0.10000000000000E+01
 p    1 1.00
 0.10056823671000E+00 0.10000000000000E+01
 d    1 1.00
 0.10970000000000E+01 0.10000000000000E+01
 d    1 1.00
 0.31800000000000E+00 0.10000000000000E+01
 d    1 1.00
 0.90985336424000E-01 0.10000000000000E+01
 f    1 1.00
 0.76100000000000E+00 0.10000000000000E+01
 
    6 0
 s    6 1.00
 0.13575349682000E+05 0.60645503603591E-03
 0.20352333680000E+04 0.46979088884982E-02
 0.46322562359000E+03 0.24332477647552E-01
 0.13120019598000E+03 0.97399968307759E-01
 0.42853015891000E+02 0.30195584253780E+00
 0.15584185766000E+02 0.66233609137875E+00
 s    2 1.00
 0.62067138508000E+01 0.65595308539952E+00
 0.25764896527000E+01 0.37585633285142E+00
 s    1 1.00
 0.57696339419000E+00 0.10000000000000E+01
 s    1 1.00
 0.22972831358000E+00 0.10000000000000E+01
 s    1 1.00
 0.95164440028000E-01 0.10000000000000E+01
 s    1 1.00
 0.48475401370000E-01 0.10000000000000E+01
 p    4 1.00
 0.34697232244000E+02 0.11327220003114E-01
 0.79582622826000E+01 0.76169659202087E-01
 0.23780826883000E+01 0.30192252202676E+00
 0.81433208183000E+00 0.72785027349547E+00
 p    1 1.00
 0.28887547253000E+00 0.10000000000000E+01
 p    1 1.00
 0.10056823671000E+00 0.10000000000000E+01
 d    1 1.00
 0.10970000000000E+01 0.10000000000000E+01
 d    1 1.00
 0.31800000000000E+00 0.10000000000000E+01
 d    1 1.00
 0.90985336424000E-01 0.10000000000000E+01
 f    1 1.00
 0.76100000000000E+00 0.10000000000000E+01
 
    7 0
 s    3 1.00
 0.34061341000000E+02 0.25439307208879E-01
 0.51235746000000E+01 0.19008594890375E+00
 0.11646626000000E+01 0.85244113011042E+00
 s    1 1.00
 0.32723041000000E+00 0.10000000000000E+01
 s    1 1.00
 0.10307241000000E+00 0.10000000000000E+01
 p    1 1.00
 0.80000000000000E+00 0.10000000000000E+01
 p    1 1.00
 0.95774129632000E-01 0.10000000000000E+01
 
    8 0
 s    3 1.00
 0.34061341000000E+02 0.25439307208879E-01
 0.51235746000000E+01 0.19008594890375E+00
 0.11646626000000E+01 0.85244113011042E+00
 s    1 1.00
 0.32723041000000E+00 0.10000000000000E+01
 s    1 1.00
 0.10307241000000E+00 0.10000000000000E+01
 p    1 1.00
 0.80000000000000E+00 0.10000000000000E+01
 p    1 1.00
 0.95774129632000E-01 0.10000000000000E+01
 
    9 0
 s    3 1.00
 0.34061341000000E+02 0.25439307208879E-01
 0.51235746000000E+01 0.19008594890375E+00
 0.11646626000000E+01 0.85244113011042E+00
 s    1 1.00
 0.32723041000000E+00 0.10000000000000E+01
 s    1 1.00
 0.10307241000000E+00 0.10000000000000E+01
 p    1 1.00
 0.80000000000000E+00 0.10000000000000E+01
 p    1 1.00
 0.95774129632000E-01 0.10000000000000E+01
 
   10 0
 s    3 1.00
 0.34061341000000E+02 0.25439307208879E-01
 0.51235746000000E+01 0.19008594890375E+00
 0.11646626000000E+01 0.85244113011042E+00
 s    1 1.00
 0.32723041000000E+00 0.10000000000000E+01
 s    1 1.00
 0.10307241000000E+00 0.10000000000000E+01
 p    1 1.00
 0.80000000000000E+00 0.10000000000000E+01
 p    1 1.00
 0.95774129632000E-01 0.10000000000000E+01
 
   11 0
 s    6 1.00
 0.19730800647000E+05 0.58626402628763E-03
 0.29578958745000E+04 0.45428820586397E-02
 0.67322133595000E+03 0.23558413450084E-01
 0.19068249494000E+03 0.94709193292923E-01
 0.62295441898000E+02 0.29719784913376E+00
 0.22654161182000E+02 0.66916246895232E+00
 s    2 1.00
 0.89791477428000E+01 0.64596683630063E+00
 0.36863002370000E+01 0.38700574393705E+00
 s    1 1.00
 0.84660076805000E+00 0.10000000000000E+01
 s    1 1.00
 0.33647133771000E+00 0.10000000000000E+01
 s    1 1.00
 0.13647653675000E+00 0.10000000000000E+01
 s    1 1.00
 0.68441605847000E-01 0.10000000000000E+01
 p    4 1.00
 0.49200380510000E+02 0.11448825101764E-01
 0.11346790537000E+02 0.78422337970864E-01
 0.34273972411000E+01 0.30818094738830E+00
 0.11785525134000E+01 0.72027196368413E+00
 p    1 1.00
 0.41642204972000E+00 0.10000000000000E+01
 p    1 1.00
 0.14260826011000E+00 0.10000000000000E+01
 d    1 1.00
 0.16540000000000E+01 0.10000000000000E+01
 d    1 1.00
 0.46900000000000E+00 0.10000000000000E+01
 d    1 1.00
 0.12829642058000E+00 0.10000000000000E+01
 f    1 1.00
 0.10930000000000E+01 0.10000000000000E+01
 
   12 0
 s    6 1.00
 0.27032382631000E+05 0.57227335211155E-03
 0.40523871392000E+04 0.44353233492995E-02
 0.92232722710000E+03 0.23020107706038E-01
 0.26124070989000E+03 0.92822490667928E-01
 0.85354641351000E+02 0.29378500009671E+00
 0.31035035245000E+02 0.67401604501641E+00
 s    2 1.00
 0.12260860728000E+02 0.63839937025506E+00
 0.49987076005000E+01 0.39534587125718E+00
 s    1 1.00
 0.11703108158000E+01 0.10000000000000E+01
 s    1 1.00
 0.46474740994000E+00 0.10000000000000E+01
 s    1 1.00
 0.18504536357000E+00 0.10000000000000E+01
 s    1 1.00
 0.70288026270000E-01 0.10000000000000E+01
 p    4 1.00
 0.63274954801000E+02 0.12018332222616E-01
 0.14627049379000E+02 0.83005421790056E-01
 0.44501223456000E+01 0.31991743925964E+00
 0.15275799647000E+01 0.70715542916104E+00
 p    1 1.00
 0.52935117943000E+00 0.10000000000000E+01
 p    1 1.00
 0.17478421270000E+00 0.10000000000000E+01
 p    1 1.00
 0.51112745706000E-01 0.10000000000000E+01
 d    1 1.00
 0.23140000000000E+01 0.10000000000000E+01
 d    1 1.00
 0.64500000000000E+00 0.10000000000000E+01
 d    1 1.00
 0.14696477366000E+00 0.10000000000000E+01
 f    1 1.00
 0.14280000000000E+01 0.10000000000000E+01
 
   13 0
 s    6 1.00
 0.27032382631000E+05 0.57227335211155E-03
 0.40523871392000E+04 0.44353233492995E-02
 0.92232722710000E+03 0.23020107706038E-01
 0.26124070989000E+03 0.92822490667928E-01
 0.85354641351000E+02 0.29378500009671E+00
 0.31035035245000E+02 0.67401604501641E+00
 s    2 1.00
 0.12260860728000E+02 0.63839937025506E+00
 0.49987076005000E+01 0.39534587125718E+00
 s    1 1.00
 0.11703108158000E+01 0.10000000000000E+01
 s    1 1.00
 0.46474740994000E+00 0.10000000000000E+01
 s    1 1.00
 0.18504536357000E+00 0.10000000000000E+01
 s    1 1.00
 0.70288026270000E-01 0.10000000000000E+01
 p    4 1.00
 0.63274954801000E+02 0.12018332222616E-01
 0.14627049379000E+02 0.83005421790056E-01
 0.44501223456000E+01 0.31991743925964E+00
 0.15275799647000E+01 0.70715542916104E+00
 p    1 1.00
 0.52935117943000E+00 0.10000000000000E+01
 p    1 1.00
 0.17478421270000E+00 0.10000000000000E+01
 p    1 1.00
 0.51112745706000E-01 0.10000000000000E+01
 d    1 1.00
 0.23140000000000E+01 0.10000000000000E+01
 d    1 1.00
 0.64500000000000E+00 0.10000000000000E+01
 d    1 1.00
 0.14696477366000E+00 0.10000000000000E+01
 f    1 1.00
 0.14280000000000E+01 0.10000000000000E+01
 
   14 0
 s    6 1.00
 0.19730800647000E+05 0.58626402628763E-03
 0.29578958745000E+04 0.45428820586397E-02
 0.67322133595000E+03 0.23558413450084E-01
 0.19068249494000E+03 0.94709193292923E-01
 0.62295441898000E+02 0.29719784913376E+00
 0.22654161182000E+02 0.66916246895232E+00
 s    2 1.00
 0.89791477428000E+01 0.64596683630063E+00
 0.36863002370000E+01 0.38700574393705E+00
 s    1 1.00
 0.84660076805000E+00 0.10000000000000E+01
 s    1 1.00
 0.33647133771000E+00 0.10000000000000E+01
 s    1 1.00
 0.13647653675000E+00 0.10000000000000E+01
 s    1 1.00
 0.68441605847000E-01 0.10000000000000E+01
 p    4 1.00
 0.49200380510000E+02 0.11448825101764E-01
 0.11346790537000E+02 0.78422337970864E-01
 0.34273972411000E+01 0.30818094738830E+00
 0.11785525134000E+01 0.72027196368413E+00
 p    1 1.00
 0.41642204972000E+00 0.10000000000000E+01
 p    1 1.00
 0.14260826011000E+00 0.10000000000000E+01
 d    1 1.00
 0.16540000000000E+01 0.10000000000000E+01
 d    1 1.00
 0.46900000000000E+00 0.10000000000000E+01
 d    1 1.00
 0.12829642058000E+00 0.10000000000000E+01
 f    1 1.00
 0.10930000000000E+01 0.10000000000000E+01
 
   15 0
 s    3 1.00
 0.34061341000000E+02 0.25439307208879E-01
 0.51235746000000E+01 0.19008594890375E+00
 0.11646626000000E+01 0.85244113011042E+00
 s    1 1.00
 0.32723041000000E+00 0.10000000000000E+01
 s    1 1.00
 0.10307241000000E+00 0.10000000000000E+01
 p    1 1.00
 0.80000000000000E+00 0.10000000000000E+01
 p    1 1.00
 0.95774129632000E-01 0.10000000000000E+01
 
   16 0
 s    3 1.00
 0.34061341000000E+02 0.25439307208879E-01
 0.51235746000000E+01 0.19008594890375E+00
 0.11646626000000E+01 0.85244113011042E+00
 s    1 1.00
 0.32723041000000E+00 0.10000000000000E+01
 s    1 1.00
 0.10307241000000E+00 0.10000000000000E+01
 p    1 1.00
 0.80000000000000E+00 0.10000000000000E+01
 p    1 1.00
 0.95774129632000E-01 0.10000000000000E+01
 
[MO]
 Sym= X
 Ene= -0.288248
 Spin= Alpha
 Occup= -0.288248
         1   -1.250756E-04
         2   -2.924222E-04
         3    8.733359E-04
         4   -2.124574E-03
         5   -1.209685E-02
         6   -8.827177E-03
         7    1.052548E-03
         8    1.262252E-04
         9    3.101677E-02
        10   -2.057380E-03
        11    2.702456E-04
        12    2.908277E-02
        13   -2.948651E-02
        14    8.413179E-03
        15    6.272409E-03
        16   -6.560043E-06
        17   -4.696923E-06
        18    1.125697E-05
        19   -4.347740E-06
        20   -6.531759E-03
        21    4.134036E-03
        22   -5.363273E-04
        23    3.198620E-04
        24    2.164652E-04
        25   -5.373658E-04
        26   -1.469677E-02
        27    7.747652E-03
        28   -4.422810E-03
        29    4.146632E-03
        30    2.761780E-04
        31    8.042539E-04
        32    8.256034E-04
        33   -9.425670E-03
        34   -1.624454E-05
        35    4.854290E-06
        36   -1.609569E-04
        37    6.960211E-06
        38   -5.094459E-06
        39   -6.882794E-04
        40    1.483413E-05
        41   -1.418254E-06
        42    9.042257E-04
        43   -7.454639E-04
        44    1.851835E-05
        45    4.062071E-05
        46    9.345941E-05
        47   -1.941360E-03
        48   -4.365670E-02
        49    3.885105E-03
        50    4.254291E-04
        51    1.247899E-06
        52    2.188543E-01
        53   -1.906523E-04
        54    2.304082E-05
        55    2.267977E-01
        56   -1.406645E-02
        57   -1.542397E-03
        58    2.061178E-01
        59    2.185794E-05
        60   -1.989600E-05
        61   -1.961944E-06
        62    1.306287E-07
        63   -7.858187E-04
        64    1.193816E-06
        65    2.749678E-04
        66   -4.660582E-04
        67    1.910904E-04
        68    4.961854E-06
        69   -3.634835E-03
        70    2.170306E-06
        71    6.573873E-03
        72   -7.500475E-03
        73    9.266016E-04
        74   -2.676648E-04
        75    5.562449E-03
        76   -2.317265E-05
        77    7.140701E-06
        78    5.398264E-08
        79   -1.262624E-03
        80   -4.986466E-06
        81    3.653689E-08
        82    7.775846E-04
        83   -4.593790E-06
        84   -1.089622E-07
        85    9.164034E-04
        86    1.488269E-07
        87   -1.253177E-04
        88   -2.931091E-04
        89    8.834096E-04
        90   -2.208277E-03
        91   -9.602444E-03
        92   -8.744666E-03
        93    1.053633E-03
        94   -1.276267E-04
        95    3.107408E-02
        96   -2.042362E-03
        97   -2.540432E-04
        98    2.913769E-02
        99   -3.057698E-02
       100   -1.003972E-02
       101    6.394272E-03
       102   -6.747954E-06
       103   -4.693048E-06
       104    1.144100E-05
       105    4.620149E-06
       106   -6.531056E-03
       107   -4.134302E-03
       108   -5.327754E-04
       109    3.146796E-04
       110    2.180958E-04
       111    5.331605E-04
       112   -1.469260E-02
       113   -7.747000E-03
       114   -4.733740E-03
       115    4.488869E-03
       116    2.448710E-04
       117   -5.775994E-04
       118    8.207753E-04
       119    9.387318E-03
       120   -1.643894E-05
       121   -4.826651E-06
       122   -1.612654E-04
       123    7.286245E-06
       124    5.104241E-06
       125   -6.879314E-04
       126    1.476891E-05
       127    1.371391E-06
       128    9.042916E-04
       129    7.453831E-04
       130    7.673674E-05
       131    1.634878E-04
       132    4.990994E-04
       133   -7.983086E-03
       134    2.759070E-02
       135    9.809224E-03
       136   -7.666936E-04
       137    3.736787E-04
       138   -1.566510E-01
       139   -6.870475E-03
       140    4.678155E-03
       141   -1.593444E-01
       142   -2.214026E-02
       143   -5.058669E-03
       144   -9.648623E-02
       145    9.924600E-05
       146   -1.196886E-04
       147    2.044263E-05
       148   -5.088047E-06
       149   -1.139547E-03
       150    3.192483E-03
       151    4.831298E-04
       152   -5.707387E-04
       153    8.760892E-05
       154    1.312616E-03
       155   -4.549851E-03
       156    5.474422E-03
       157    6.789888E-03
       158   -5.363716E-03
       159   -1.426172E-03
       160   -6.542679E-03
       161    2.959919E-03
       162   -1.047393E-02
       163   -1.191731E-05
       164    5.678660E-06
       165    8.954129E-04
       166   -1.349067E-05
       167    1.474506E-05
       168   -2.160724E-04
       169    2.947943E-05
       170   -2.236379E-05
       171   -9.852501E-04
       172    3.887350E-04
       173   -8.270374E-04
       174   -1.888241E-03
       175    1.896560E-03
       176    1.719930E-02
       177   -5.982485E-03
       178    8.200438E-03
       179    6.339276E-03
       180    1.275195E-06
       181   -1.291177E-01
       182    1.070670E-05
       183   -1.324125E-05
       184   -1.310870E-01
       185   -1.774068E-02
       186    1.640250E-03
       187   -1.290535E-01
       188    3.444941E-04
       189   -1.858759E-04
       190   -1.586182E-04
       191    5.227619E-08
       192    9.159768E-03
       193    1.022977E-06
       194   -1.453842E-03
       195    3.196788E-03
       196   -1.742946E-03
       197    3.485540E-06
       198    2.309782E-02
       199   -1.332713E-06
       200   -4.110239E-03
       201    5.208298E-03
       202   -1.098059E-03
       203   -3.249381E-04
       204    1.891291E-02
       205    2.925090E-06
       206    8.535093E-05
       207    3.401616E-08
       208    5.011433E-04
       209   -6.115587E-05
       210   -1.157541E-07
       211    8.198827E-04
       212   -5.335442E-05
       213    7.011661E-08
       214   -1.492237E-03
       215    6.863230E-09
       216    7.748522E-05
       217    1.649950E-04
       218    5.037366E-04
       219   -8.068269E-03
       220    3.045233E-02
       221    9.851172E-03
       222   -7.683660E-04
       223   -3.682365E-04
       224   -1.566941E-01
       225   -6.873618E-03
       226   -4.692327E-03
       227   -1.593973E-01
       228   -2.092268E-02
       229    6.971743E-03
       230   -9.642963E-02
       231    9.897291E-05
       232   -1.202479E-04
       233    2.127503E-05
       234    5.121858E-06
       235   -1.138289E-03
       236   -3.192707E-03
       237    4.848757E-04
       238   -5.732717E-04
       239    8.839607E-05
       240   -1.314913E-03
       241   -4.546084E-03
       242   -5.474457E-03
       243    6.468338E-03
       244   -5.024925E-03
       245   -1.443414E-03
       246    6.808375E-03
       247    2.966760E-03
       248    1.052412E-02
       249   -1.183230E-05
       250   -5.743990E-06
       251    8.959634E-04
       252   -1.374002E-05
       253   -1.466088E-05
       254   -2.166444E-04
       255    2.961472E-05
       256    2.236725E-05
       257   -9.854166E-04
       258   -3.887247E-04
       259   -2.048987E-04
       260   -4.982966E-05
       261   -1.360891E-02
       262   -9.205599E-06
       263    1.170384E-05
       264    1.198302E-03
       265   -4.220911E-03
       266   -9.611265E-05
       267   -6.179073E-03
       268   -2.062259E-04
       269   -4.357581E-05
       270   -1.339937E-02
       271   -8.008463E-06
       272   -1.238582E-05
       273    1.200977E-03
       274   -4.388846E-03
       275   -3.907466E-05
       276   -6.151504E-03
       277   -2.850042E-04
       278   -1.782329E-03
       279    2.648444E-02
       280   -2.581501E-06
       281    7.057293E-05
       282   -6.393601E-03
       283   -1.093581E-03
       284   -2.131482E-03
       285    3.678901E-04
       286   -2.891705E-04
       287   -1.783552E-03
       288    2.691172E-02
       289   -2.336669E-06
       290   -7.053050E-05
       291   -6.395863E-03
       292   -9.573046E-04
       293    2.292564E-03
       294    3.982504E-04
       295   -2.755414E-05
       296   -6.330177E-05
       297    4.069527E-05
       298    2.826717E-04
       299   -4.823004E-03
       300    1.546400E-03
       301    2.869697E-04
       302   -1.674394E-07
       303    2.654800E-02
       304    6.009087E-05
       305    1.003324E-06
       306    2.865961E-02
       307   -2.259988E-03
       308    2.628066E-05
       309    1.278517E-02
       310    1.898243E-05
       311   -2.946455E-06
       312   -1.603598E-05
       313   -7.900233E-09
       314    4.704552E-03
       315   -3.646873E-09
       316    1.092348E-05
       317    5.371991E-05
       318   -6.464338E-05
       319   -6.422429E-07
       320    1.422860E-02
       321   -2.204853E-07
       322   -9.236406E-04
       323    2.290358E-03
       324   -1.366717E-03
       325    4.360446E-05
       326    3.797080E-03
       327    4.188635E-06
       328    6.047691E-06
       329    1.043066E-08
       330   -2.591154E-05
       331   -4.132505E-06
       332    1.768105E-08
       333    7.595827E-04
       334   -3.981324E-06
       335   -3.167525E-08
       336   -7.248187E-04
       337    3.258308E-08
       338   -6.562171E-06
       339   -1.324889E-05
       340   -1.555492E-05
       341    3.752912E-04
       342   -4.557594E-03
       343   -7.166187E-04
       344   -1.808682E-04
       345    6.346997E-05
       346   -8.150484E-02
       347   -2.414716E-04
       348    1.718561E-04
       349   -7.565217E-02
       350   -1.240756E-03
       351    3.215810E-04
       352   -6.263037E-02
       353   -1.113453E-04
       354    1.859735E-04
       355   -7.853697E-03
       356    2.690285E-06
       357   -2.733490E-06
       358    4.320502E-08
       359    3.469438E-07
       360    4.600980E-05
       361    4.418620E-04
       362   -1.096958E-05
       363   -5.998532E-06
       364    1.696812E-05
       365    1.008525E-05
       366   -4.381083E-04
       367    1.511947E-03
       368   -7.223649E-05
       369    5.952106E-05
       370    1.271543E-05
       371    8.961239E-05
       372   -2.113096E-04
       373    1.737179E-04
       374    6.643788E-07
       375    1.000274E-06
       376    5.650497E-05
       377   -1.078249E-06
       378    1.737028E-09
       379    8.870053E-05
       380    1.868909E-07
       381   -1.343745E-06
       382   -1.645099E-04
       383    1.283133E-04
       384   -6.441204E-06
       385   -1.299439E-05
       386   -1.544026E-05
       387    3.707686E-04
       388   -4.574326E-03
       389   -6.728483E-04
       390   -1.763205E-04
       391   -6.458325E-05
       392   -8.150085E-02
       393   -2.376791E-04
       394   -1.718890E-04
       395   -7.564876E-02
       396   -1.197124E-03
       397   -3.279575E-04
       398   -6.262206E-02
       399   -9.203755E-05
       400   -1.911574E-04
       401   -7.858956E-03
       402    2.663564E-06
       403   -2.740764E-06
       404    7.719979E-08
       405   -4.015343E-07
       406    4.597237E-05
       407   -4.418328E-04
       408   -1.049603E-05
       409   -5.993466E-06
       410    1.648949E-05
       411   -9.549095E-06
       412   -4.379878E-04
       413   -1.511840E-03
       414   -7.184993E-05
       415    6.034461E-05
       416    1.150533E-05
       417   -8.902633E-05
       418   -2.124525E-04
       419   -1.730527E-04
       420    6.653851E-07
       421   -9.975938E-07
       422    5.650888E-05
       423   -1.058795E-06
       424    6.005116E-09
       425    8.869029E-05
       426    1.660869E-07
       427    1.332407E-06
       428   -1.645049E-04
       429   -1.283108E-04
       430    3.638363E-03
       431    8.658969E-03
       432   -1.357966E-02
       433   -2.089561E-02
       434   -1.945660E-02
       435   -5.880739E-02
       436   -1.267588E-02
       437    9.109448E-06
       438    2.166285E-01
       439   -1.468217E-02
       440   -4.047332E-06
       441    2.148237E-01
       442   -1.238399E-02
       443   -1.338944E-04
       444    1.808705E-01
       445   -7.824794E-05
       446    2.456814E-05
       447    5.367980E-05
       448    2.226786E-07
       449    1.085217E-03
       450    3.325091E-07
       451   -1.995469E-04
       452   -1.094298E-03
       453    1.293845E-03
       454   -5.189243E-06
       455    4.329472E-03
       456    1.024842E-06
       457   -1.778500E-03
       458   -1.937483E-03
       459    3.715983E-03
       460   -2.031620E-05
       461    2.284478E-03
       462    1.048982E-05
       463   -1.182197E-04
       464    5.777640E-09
       465   -8.083471E-04
       466   -5.854684E-05
       467   -2.616592E-08
       468    3.666256E-04
       469    2.171552E-04
       470    1.841441E-08
       471    7.178859E-04
       472    4.028918E-09
       473    8.034385E-03
       474    1.467486E-02
       475    2.395591E-02
       476   -1.755186E-03
       477   -1.529611E-03
       478    1.120102E-02
       479    1.643560E-03
       480   -2.878024E-03
       481    1.418454E-02
       482    8.028769E-03
       483    1.457850E-02
       484    2.349541E-02
       485   -1.750299E-03
       486    1.520394E-03
       487    1.120539E-02
       488    1.699650E-03
       489    2.809778E-03
       490    1.420381E-02
 Sym= X
 Ene= -0.673507
 Spin= Alpha
 Occup= -0.673507
         1   -2.148652E-05
         2   -4.895127E-05
         3    1.205826E-04
         4   -1.631347E-04
         5   -9.506539E-03
         6   -4.450404E-04
         7   -1.357273E-04
         8   -1.504044E-04
         9   -1.896652E-01
        10   -5.352521E-04
        11   -3.619246E-05
        12   -1.901278E-01
        13    3.523390E-03
        14   -6.092542E-03
        15   -1.114411E-01
        16   -7.580662E-06
        17    2.325595E-06
        18    5.255067E-06
        19    1.763608E-06
        20   -4.981891E-03
        21   -5.483390E-04
        22   -9.296812E-05
        23    5.531670E-05
        24    3.765142E-05
        25    1.818369E-05
        26   -9.467287E-03
        27    3.897458E-04
        28    7.757114E-04
        29   -9.110999E-04
        30    1.353885E-04
        31    4.263585E-04
        32   -2.507752E-03
        33   -8.065334E-04
        34   -4.115227E-06
        35   -8.246219E-07
        36    1.174489E-03
        37    8.372487E-07
        38    1.878778E-07
        39   -1.418884E-03
        40    4.683907E-06
        41    9.184686E-07
        42   -1.568587E-04
        43    1.214888E-06
        44    1.620923E-07
        45    3.828223E-07
        46    4.581525E-07
        47   -3.312662E-05
        48    2.203625E-03
        49    1.191017E-04
        50   -1.368880E-06
        51    9.915345E-05
        52   -1.472841E-05
        53   -3.918230E-06
        54    1.874945E-04
        55   -7.364299E-06
        56    1.046901E-03
        57   -9.181125E-03
        58    4.795211E-05
        59   -3.193406E-08
        60   -1.035949E-07
        61    1.355290E-07
        62    9.866216E-06