[Molden Format]
[Title]
ADC(2) - opt by CAM-B3LYP gaussian                                              
[Atoms] AU
 c     1    6 -.12588573623097E+01 -.22835126974190E+01 -.24083260376910E-01
 c     2    6 -.25578815622211E+01 0.23621577000000E-06 -.22837930855340E-01
 c     3    6 -.12588573623097E+01 0.22835131698505E+01 -.24090819281440E-01
 c     4    6 0.13318248850473E+01 0.22853065199506E+01 -.26003222127920E-01
 c     5    6 0.26868737956204E+01 0.23621577000000E-06 -.25389061134730E-01
 c     6    6 0.13318248850473E+01 -.22853060475191E+01 -.25993773497260E-01
 h     7    1 -.22974546243959E+01 -.40385977330627E+01 -.21598270512170E-01
 h     8    1 -.22974527346698E+01 0.40385982054942E+01 -.21613388321230E-01
 h     9    1 0.23510089905703E+01 0.40574312161345E+01 -.28191524989800E-01
 h    10    1 0.23510071008442E+01 -.40574307437030E+01 -.28172627728480E-01
 n    11    7 -.52726375582849E+01 0.23621577000000E-06 -.17238672323600E-01
 o    12    8 -.63813946825068E+01 0.20269261555273E+01 -.14842499587100E-01
 o    13    8 -.63813927927806E+01 -.20269275728219E+01 -.14865176300690E-01
 n    14    7 0.52430742102305E+01 0.23621577000000E-06 -.67376886081320E-01
 h    15    1 0.62051583509223E+01 0.16177513148781E+01 0.18115044628513E+00
 h    16    1 0.62051564611962E+01 -.16177527321727E+01 0.18114666683287E+00
[GTO]
    1 0
 s    6 1.00
 0.13575349682000E+05 0.60645503603591E-03
 0.20352333680000E+04 0.46979088884982E-02
 0.46322562359000E+03 0.24332477647552E-01
 0.13120019598000E+03 0.97399968307759E-01
 0.42853015891000E+02 0.30195584253780E+00
 0.15584185766000E+02 0.66233609137875E+00
 s    2 1.00
 0.62067138508000E+01 0.65595308539952E+00
 0.25764896527000E+01 0.37585633285142E+00
 s    1 1.00
 0.57696339419000E+00 0.10000000000000E+01
 s    1 1.00
 0.22972831358000E+00 0.10000000000000E+01
 s    1 1.00
 0.95164440028000E-01 0.10000000000000E+01
 s    1 1.00
 0.48475401370000E-01 0.10000000000000E+01
 p    4 1.00
 0.34697232244000E+02 0.11327220003114E-01
 0.79582622826000E+01 0.76169659202087E-01
 0.23780826883000E+01 0.30192252202676E+00
 0.81433208183000E+00 0.72785027349547E+00
 p    1 1.00
 0.28887547253000E+00 0.10000000000000E+01
 p    1 1.00
 0.10056823671000E+00 0.10000000000000E+01
 d    1 1.00
 0.10970000000000E+01 0.10000000000000E+01
 d    1 1.00
 0.31800000000000E+00 0.10000000000000E+01
 d    1 1.00
 0.90985336424000E-01 0.10000000000000E+01
 f    1 1.00
 0.76100000000000E+00 0.10000000000000E+01
 
    2 0
 s    6 1.00
 0.13575349682000E+05 0.60645503603591E-03
 0.20352333680000E+04 0.46979088884982E-02
 0.46322562359000E+03 0.24332477647552E-01
 0.13120019598000E+03 0.97399968307759E-01
 0.42853015891000E+02 0.30195584253780E+00
 0.15584185766000E+02 0.66233609137875E+00
 s    2 1.00
 0.62067138508000E+01 0.65595308539952E+00
 0.25764896527000E+01 0.37585633285142E+00
 s    1 1.00
 0.57696339419000E+00 0.10000000000000E+01
 s    1 1.00
 0.22972831358000E+00 0.10000000000000E+01
 s    1 1.00
 0.95164440028000E-01 0.10000000000000E+01
 s    1 1.00
 0.48475401370000E-01 0.10000000000000E+01
 p    4 1.00
 0.34697232244000E+02 0.11327220003114E-01
 0.79582622826000E+01 0.76169659202087E-01
 0.23780826883000E+01 0.30192252202676E+00
 0.81433208183000E+00 0.72785027349547E+00
 p    1 1.00
 0.28887547253000E+00 0.10000000000000E+01
 p    1 1.00
 0.10056823671000E+00 0.10000000000000E+01
 d    1 1.00
 0.10970000000000E+01 0.10000000000000E+01
 d    1 1.00
 0.31800000000000E+00 0.10000000000000E+01
 d    1 1.00
 0.90985336424000E-01 0.10000000000000E+01
 f    1 1.00
 0.76100000000000E+00 0.10000000000000E+01
 
    3 0
 s    6 1.00
 0.13575349682000E+05 0.60645503603591E-03
 0.20352333680000E+04 0.46979088884982E-02
 0.46322562359000E+03 0.24332477647552E-01
 0.13120019598000E+03 0.97399968307759E-01
 0.42853015891000E+02 0.30195584253780E+00
 0.15584185766000E+02 0.66233609137875E+00
 s    2 1.00
 0.62067138508000E+01 0.65595308539952E+00
 0.25764896527000E+01 0.37585633285142E+00
 s    1 1.00
 0.57696339419000E+00 0.10000000000000E+01
 s    1 1.00
 0.22972831358000E+00 0.10000000000000E+01
 s    1 1.00
 0.95164440028000E-01 0.10000000000000E+01
 s    1 1.00
 0.48475401370000E-01 0.10000000000000E+01
 p    4 1.00
 0.34697232244000E+02 0.11327220003114E-01
 0.79582622826000E+01 0.76169659202087E-01
 0.23780826883000E+01 0.30192252202676E+00
 0.81433208183000E+00 0.72785027349547E+00
 p    1 1.00
 0.28887547253000E+00 0.10000000000000E+01
 p    1 1.00
 0.10056823671000E+00 0.10000000000000E+01
 d    1 1.00
 0.10970000000000E+01 0.10000000000000E+01
 d    1 1.00
 0.31800000000000E+00 0.10000000000000E+01
 d    1 1.00
 0.90985336424000E-01 0.10000000000000E+01
 f    1 1.00
 0.76100000000000E+00 0.10000000000000E+01
 
    4 0
 s    6 1.00
 0.13575349682000E+05 0.60645503603591E-03
 0.20352333680000E+04 0.46979088884982E-02
 0.46322562359000E+03 0.24332477647552E-01
 0.13120019598000E+03 0.97399968307759E-01
 0.42853015891000E+02 0.30195584253780E+00
 0.15584185766000E+02 0.66233609137875E+00
 s    2 1.00
 0.62067138508000E+01 0.65595308539952E+00
 0.25764896527000E+01 0.37585633285142E+00
 s    1 1.00
 0.57696339419000E+00 0.10000000000000E+01
 s    1 1.00
 0.22972831358000E+00 0.10000000000000E+01
 s    1 1.00
 0.95164440028000E-01 0.10000000000000E+01
 s    1 1.00
 0.48475401370000E-01 0.10000000000000E+01
 p    4 1.00
 0.34697232244000E+02 0.11327220003114E-01
 0.79582622826000E+01 0.76169659202087E-01
 0.23780826883000E+01 0.30192252202676E+00
 0.81433208183000E+00 0.72785027349547E+00
 p    1 1.00
 0.28887547253000E+00 0.10000000000000E+01
 p    1 1.00
 0.10056823671000E+00 0.10000000000000E+01
 d    1 1.00
 0.10970000000000E+01 0.10000000000000E+01
 d    1 1.00
 0.31800000000000E+00 0.10000000000000E+01
 d    1 1.00
 0.90985336424000E-01 0.10000000000000E+01
 f    1 1.00
 0.76100000000000E+00 0.10000000000000E+01
 
    5 0
 s    6 1.00
 0.13575349682000E+05 0.60645503603591E-03
 0.20352333680000E+04 0.46979088884982E-02
 0.46322562359000E+03 0.24332477647552E-01
 0.13120019598000E+03 0.97399968307759E-01
 0.42853015891000E+02 0.30195584253780E+00
 0.15584185766000E+02 0.66233609137875E+00
 s    2 1.00
 0.62067138508000E+01 0.65595308539952E+00
 0.25764896527000E+01 0.37585633285142E+00
 s    1 1.00
 0.57696339419000E+00 0.10000000000000E+01
 s    1 1.00
 0.22972831358000E+00 0.10000000000000E+01
 s    1 1.00
 0.95164440028000E-01 0.10000000000000E+01
 s    1 1.00
 0.48475401370000E-01 0.10000000000000E+01
 p    4 1.00
 0.34697232244000E+02 0.11327220003114E-01
 0.79582622826000E+01 0.76169659202087E-01
 0.23780826883000E+01 0.30192252202676E+00
 0.81433208183000E+00 0.72785027349547E+00
 p    1 1.00
 0.28887547253000E+00 0.10000000000000E+01
 p    1 1.00
 0.10056823671000E+00 0.10000000000000E+01
 d    1 1.00
 0.10970000000000E+01 0.10000000000000E+01
 d    1 1.00
 0.31800000000000E+00 0.10000000000000E+01
 d    1 1.00
 0.90985336424000E-01 0.10000000000000E+01
 f    1 1.00
 0.76100000000000E+00 0.10000000000000E+01
 
    6 0
 s    6 1.00
 0.13575349682000E+05 0.60645503603591E-03
 0.20352333680000E+04 0.46979088884982E-02
 0.46322562359000E+03 0.24332477647552E-01
 0.13120019598000E+03 0.97399968307759E-01
 0.42853015891000E+02 0.30195584253780E+00
 0.15584185766000E+02 0.66233609137875E+00
 s    2 1.00
 0.62067138508000E+01 0.65595308539952E+00
 0.25764896527000E+01 0.37585633285142E+00
 s    1 1.00
 0.57696339419000E+00 0.10000000000000E+01
 s    1 1.00
 0.22972831358000E+00 0.10000000000000E+01
 s    1 1.00
 0.95164440028000E-01 0.10000000000000E+01
 s    1 1.00
 0.48475401370000E-01 0.10000000000000E+01
 p    4 1.00
 0.34697232244000E+02 0.11327220003114E-01
 0.79582622826000E+01 0.76169659202087E-01
 0.23780826883000E+01 0.30192252202676E+00
 0.81433208183000E+00 0.72785027349547E+00
 p    1 1.00
 0.28887547253000E+00 0.10000000000000E+01
 p    1 1.00
 0.10056823671000E+00 0.10000000000000E+01
 d    1 1.00
 0.10970000000000E+01 0.10000000000000E+01
 d    1 1.00
 0.31800000000000E+00 0.10000000000000E+01
 d    1 1.00
 0.90985336424000E-01 0.10000000000000E+01
 f    1 1.00
 0.76100000000000E+00 0.10000000000000E+01
 
    7 0
 s    3 1.00
 0.34061341000000E+02 0.25439307208879E-01
 0.51235746000000E+01 0.19008594890375E+00
 0.11646626000000E+01 0.85244113011042E+00
 s    1 1.00
 0.32723041000000E+00 0.10000000000000E+01
 s    1 1.00
 0.10307241000000E+00 0.10000000000000E+01
 p    1 1.00
 0.80000000000000E+00 0.10000000000000E+01
 p    1 1.00
 0.95774129632000E-01 0.10000000000000E+01
 
    8 0
 s    3 1.00
 0.34061341000000E+02 0.25439307208879E-01
 0.51235746000000E+01 0.19008594890375E+00
 0.11646626000000E+01 0.85244113011042E+00
 s    1 1.00
 0.32723041000000E+00 0.10000000000000E+01
 s    1 1.00
 0.10307241000000E+00 0.10000000000000E+01
 p    1 1.00
 0.80000000000000E+00 0.10000000000000E+01
 p    1 1.00
 0.95774129632000E-01 0.10000000000000E+01
 
    9 0
 s    3 1.00
 0.34061341000000E+02 0.25439307208879E-01
 0.51235746000000E+01 0.19008594890375E+00
 0.11646626000000E+01 0.85244113011042E+00
 s    1 1.00
 0.32723041000000E+00 0.10000000000000E+01
 s    1 1.00
 0.10307241000000E+00 0.10000000000000E+01
 p    1 1.00
 0.80000000000000E+00 0.10000000000000E+01
 p    1 1.00
 0.95774129632000E-01 0.10000000000000E+01
 
   10 0
 s    3 1.00
 0.34061341000000E+02 0.25439307208879E-01
 0.51235746000000E+01 0.19008594890375E+00
 0.11646626000000E+01 0.85244113011042E+00
 s    1 1.00
 0.32723041000000E+00 0.10000000000000E+01
 s    1 1.00
 0.10307241000000E+00 0.10000000000000E+01
 p    1 1.00
 0.80000000000000E+00 0.10000000000000E+01
 p    1 1.00
 0.95774129632000E-01 0.10000000000000E+01
 
   11 0
 s    6 1.00
 0.19730800647000E+05 0.58626402628763E-03
 0.29578958745000E+04 0.45428820586397E-02
 0.67322133595000E+03 0.23558413450084E-01
 0.19068249494000E+03 0.94709193292923E-01
 0.62295441898000E+02 0.29719784913376E+00
 0.22654161182000E+02 0.66916246895232E+00
 s    2 1.00
 0.89791477428000E+01 0.64596683630063E+00
 0.36863002370000E+01 0.38700574393705E+00
 s    1 1.00
 0.84660076805000E+00 0.10000000000000E+01
 s    1 1.00
 0.33647133771000E+00 0.10000000000000E+01
 s    1 1.00
 0.13647653675000E+00 0.10000000000000E+01
 s    1 1.00
 0.68441605847000E-01 0.10000000000000E+01
 p    4 1.00
 0.49200380510000E+02 0.11448825101764E-01
 0.11346790537000E+02 0.78422337970864E-01
 0.34273972411000E+01 0.30818094738830E+00
 0.11785525134000E+01 0.72027196368413E+00
 p    1 1.00
 0.41642204972000E+00 0.10000000000000E+01
 p    1 1.00
 0.14260826011000E+00 0.10000000000000E+01
 d    1 1.00
 0.16540000000000E+01 0.10000000000000E+01
 d    1 1.00
 0.46900000000000E+00 0.10000000000000E+01
 d    1 1.00
 0.12829642058000E+00 0.10000000000000E+01
 f    1 1.00
 0.10930000000000E+01 0.10000000000000E+01
 
   12 0
 s    6 1.00
 0.27032382631000E+05 0.57227335211155E-03
 0.40523871392000E+04 0.44353233492995E-02
 0.92232722710000E+03 0.23020107706038E-01
 0.26124070989000E+03 0.92822490667928E-01
 0.85354641351000E+02 0.29378500009671E+00
 0.31035035245000E+02 0.67401604501641E+00
 s    2 1.00
 0.12260860728000E+02 0.63839937025506E+00
 0.49987076005000E+01 0.39534587125718E+00
 s    1 1.00
 0.11703108158000E+01 0.10000000000000E+01
 s    1 1.00
 0.46474740994000E+00 0.10000000000000E+01
 s    1 1.00
 0.18504536357000E+00 0.10000000000000E+01
 s    1 1.00
 0.70288026270000E-01 0.10000000000000E+01
 p    4 1.00
 0.63274954801000E+02 0.12018332222616E-01
 0.14627049379000E+02 0.83005421790056E-01
 0.44501223456000E+01 0.31991743925964E+00
 0.15275799647000E+01 0.70715542916104E+00
 p    1 1.00
 0.52935117943000E+00 0.10000000000000E+01
 p    1 1.00
 0.17478421270000E+00 0.10000000000000E+01
 p    1 1.00
 0.51112745706000E-01 0.10000000000000E+01
 d    1 1.00
 0.23140000000000E+01 0.10000000000000E+01
 d    1 1.00
 0.64500000000000E+00 0.10000000000000E+01
 d    1 1.00
 0.14696477366000E+00 0.10000000000000E+01
 f    1 1.00
 0.14280000000000E+01 0.10000000000000E+01
 
   13 0
 s    6 1.00
 0.27032382631000E+05 0.57227335211155E-03
 0.40523871392000E+04 0.44353233492995E-02
 0.92232722710000E+03 0.23020107706038E-01
 0.26124070989000E+03 0.92822490667928E-01
 0.85354641351000E+02 0.29378500009671E+00
 0.31035035245000E+02 0.67401604501641E+00
 s    2 1.00
 0.12260860728000E+02 0.63839937025506E+00
 0.49987076005000E+01 0.39534587125718E+00
 s    1 1.00
 0.11703108158000E+01 0.10000000000000E+01
 s    1 1.00
 0.46474740994000E+00 0.10000000000000E+01
 s    1 1.00
 0.18504536357000E+00 0.10000000000000E+01
 s    1 1.00
 0.70288026270000E-01 0.10000000000000E+01
 p    4 1.00
 0.63274954801000E+02 0.12018332222616E-01
 0.14627049379000E+02 0.83005421790056E-01
 0.44501223456000E+01 0.31991743925964E+00
 0.15275799647000E+01 0.70715542916104E+00
 p    1 1.00
 0.52935117943000E+00 0.10000000000000E+01
 p    1 1.00
 0.17478421270000E+00 0.10000000000000E+01
 p    1 1.00
 0.51112745706000E-01 0.10000000000000E+01
 d    1 1.00
 0.23140000000000E+01 0.10000000000000E+01
 d    1 1.00
 0.64500000000000E+00 0.10000000000000E+01
 d    1 1.00
 0.14696477366000E+00 0.10000000000000E+01
 f    1 1.00
 0.14280000000000E+01 0.10000000000000E+01
 
   14 0
 s    6 1.00
 0.19730800647000E+05 0.58626402628763E-03
 0.29578958745000E+04 0.45428820586397E-02
 0.67322133595000E+03 0.23558413450084E-01
 0.19068249494000E+03 0.94709193292923E-01
 0.62295441898000E+02 0.29719784913376E+00
 0.22654161182000E+02 0.66916246895232E+00
 s    2 1.00
 0.89791477428000E+01 0.64596683630063E+00
 0.36863002370000E+01 0.38700574393705E+00
 s    1 1.00
 0.84660076805000E+00 0.10000000000000E+01
 s    1 1.00
 0.33647133771000E+00 0.10000000000000E+01
 s    1 1.00
 0.13647653675000E+00 0.10000000000000E+01
 s    1 1.00
 0.68441605847000E-01 0.10000000000000E+01
 p    4 1.00
 0.49200380510000E+02 0.11448825101764E-01
 0.11346790537000E+02 0.78422337970864E-01
 0.34273972411000E+01 0.30818094738830E+00
 0.11785525134000E+01 0.72027196368413E+00
 p    1 1.00
 0.41642204972000E+00 0.10000000000000E+01
 p    1 1.00
 0.14260826011000E+00 0.10000000000000E+01
 d    1 1.00
 0.16540000000000E+01 0.10000000000000E+01
 d    1 1.00
 0.46900000000000E+00 0.10000000000000E+01
 d    1 1.00
 0.12829642058000E+00 0.10000000000000E+01
 f    1 1.00
 0.10930000000000E+01 0.10000000000000E+01
 
   15 0
 s    3 1.00
 0.34061341000000E+02 0.25439307208879E-01
 0.51235746000000E+01 0.19008594890375E+00
 0.11646626000000E+01 0.85244113011042E+00
 s    1 1.00
 0.32723041000000E+00 0.10000000000000E+01
 s    1 1.00
 0.10307241000000E+00 0.10000000000000E+01
 p    1 1.00
 0.80000000000000E+00 0.10000000000000E+01
 p    1 1.00
 0.95774129632000E-01 0.10000000000000E+01
 
   16 0
 s    3 1.00
 0.34061341000000E+02 0.25439307208879E-01
 0.51235746000000E+01 0.19008594890375E+00
 0.11646626000000E+01 0.85244113011042E+00
 s    1 1.00
 0.32723041000000E+00 0.10000000000000E+01
 s    1 1.00
 0.10307241000000E+00 0.10000000000000E+01
 p    1 1.00
 0.80000000000000E+00 0.10000000000000E+01
 p    1 1.00
 0.95774129632000E-01 0.10000000000000E+01
 
[MO]
 Sym= X
 Ene= -0.306418
 Spin= Alpha
 Occup= -0.306418
         1   -2.148652E-05
         2   -4.895127E-05
         3    1.205826E-04
         4   -1.631347E-04
         5   -9.506539E-03
         6   -4.450404E-04
         7   -1.357273E-04
         8   -1.504044E-04
         9   -1.896652E-01
        10   -5.352521E-04
        11   -3.619246E-05
        12   -1.901278E-01
        13    3.523390E-03
        14   -6.092542E-03
        15   -1.114411E-01
        16   -7.580662E-06
        17    2.325595E-06
        18    5.255067E-06
        19    1.763608E-06
        20   -4.981891E-03
        21   -5.483390E-04
        22   -9.296812E-05
        23    5.531670E-05
        24    3.765142E-05
        25    1.818369E-05
        26   -9.467287E-03
        27    3.897458E-04
        28    7.757114E-04
        29   -9.110999E-04
        30    1.353885E-04
        31    4.263585E-04
        32   -2.507752E-03
        33   -8.065334E-04
        34   -4.115227E-06
        35   -8.246219E-07
        36    1.174489E-03
        37    8.372487E-07
        38    1.878778E-07
        39   -1.418884E-03
        40    4.683907E-06
        41    9.184686E-07
        42   -1.568587E-04
        43    1.214888E-06
        44    1.620923E-07
        45    3.828223E-07
        46    4.581525E-07
        47   -3.312662E-05
        48    2.203625E-03
        49    1.191017E-04
        50   -1.368880E-06
        51    9.915345E-05
        52   -1.472841E-05
        53   -3.918230E-06
        54    1.874945E-04
        55   -7.364299E-06
        56    1.046901E-03
        57   -9.181125E-03
        58    4.795211E-05
        59   -3.193406E-08
        60   -1.035949E-07
        61    1.355290E-07
        62    9.866216E-06
        63   -2.112109E-07
        64    7.120800E-03
        65   -1.049937E-06
        66    2.729581E-06
        67   -1.679644E-06
        68    6.679893E-05
        69    2.549483E-06
        70    1.601907E-02
        71    2.167160E-05
        72    1.475545E-05
        73   -3.642705E-05
        74   -1.329825E-03
        75    9.793691E-06
        76    1.277374E-03
        77    4.781246E-08
        78    1.735676E-07
        79   -3.027944E-08
        80   -7.590424E-08
        81    1.631254E-06
        82    1.325256E-08
        83    1.175710E-08
        84   -1.864119E-06
        85    2.737157E-08
        86    1.012466E-03
        87    2.071695E-05
        88    4.737006E-05
        89   -1.171650E-04
        90    1.897568E-04
        91    5.699894E-03
        92    2.945855E-04
        93    1.360449E-04
        94   -1.462826E-04
        95    1.896574E-01
        96    4.916116E-04
        97   -2.812984E-05
        98    1.901180E-01
        99   -4.535188E-03
       100   -4.232661E-03
       101    1.112776E-01
       102    8.003351E-06
       103   -2.373857E-06
       104   -5.629494E-06
       105    1.489182E-06
       106    4.983337E-03
       107   -5.480748E-04
       108    7.861713E-05
       109   -4.627202E-05
       110   -3.234511E-05
       111    1.507859E-05
       112    9.469612E-03
       113    3.946696E-04
       114   -7.257890E-04
       115    8.072079E-04
       116   -8.141886E-05
       117    5.290990E-04
       118    2.476646E-03
       119   -7.696041E-04
       120    3.870129E-06
       121   -8.019910E-07
       122   -1.174485E-03
       123   -8.453957E-07
       124    3.394577E-07
       125    1.419142E-03
       126   -4.346927E-06
       127    7.365262E-07
       128    1.565953E-04
       129    9.807795E-07
       130   -1.386111E-05
       131   -3.285352E-05
       132    1.274841E-04
       133   -5.085841E-04
       134   -9.104536E-03
       135   -4.328009E-04
       136    1.309300E-04
       137    8.470528E-05
       138    2.001645E-01
       139    3.086161E-04
       140    1.608806E-04
       141    2.028631E-01
       142   -5.105266E-03
       143    6.391765E-03
       144    1.294185E-01
       145   -1.155344E-05
       146   -6.046089E-07
       147    1.215805E-05
       148    7.198197E-06
       149   -4.706702E-03
       150   -4.905280E-04
       151   -1.248069E-04
       152    3.825869E-05
       153    8.654823E-05
       154    6.670523E-05
       155   -8.422811E-03
       156   -7.732385E-04
       157    2.120925E-04
       158   -4.023380E-04
       159    1.902455E-04
       160    8.489976E-04
       161   -6.685358E-04
       162   -2.550018E-03
       163    4.797306E-06
       164    1.211239E-06
       165   -1.313158E-03
       166   -2.998617E-06
       167    5.153179E-07
       168    1.468249E-03
       169   -3.437644E-06
       170   -2.140366E-06
       171    2.935369E-04
       172   -4.669528E-05
       173    6.096860E-07
       174    1.249900E-06
       175    4.137463E-06
       176   -1.172701E-05
       177   -2.738035E-03
       178   -1.666048E-04
       179   -1.255668E-07
       180   -1.142100E-04
       181    1.040002E-05
       182    1.250612E-05
       183   -1.013713E-04
       184    3.006983E-06
       185    9.692620E-04
       186    1.348419E-02
       187   -7.559189E-06
       188    2.119817E-07
       189   -1.037480E-07
       190   -1.082336E-07
       191   -2.156308E-05
       192   -1.640031E-06
       193    7.477484E-03
       194   -1.546570E-07
       195   -6.259841E-06
       196    6.414498E-06
       197   -8.906373E-05
       198   -1.206413E-06
       199    1.554963E-02
       200   -2.184585E-05
       201   -3.966434E-05
       202    6.151019E-05
       203   -2.502662E-03
       204    2.150922E-06
       205   -2.788812E-03
       206   -1.148326E-07
       207    4.448186E-06
       208    9.086089E-08
       209    2.312126E-07
       210   -3.260633E-06
       211   -2.521070E-07
       212   -7.714858E-08
       213   -2.707234E-06
       214    1.302044E-07
       215   -1.181764E-03
       216    1.466212E-05
       217    3.460460E-05
       218   -1.387967E-04
       219    5.406247E-04
       220    1.352714E-02
       221    5.886723E-04
       222   -1.360279E-04
       223    8.675137E-05
       224   -2.001270E-01
       225   -3.506204E-04
       226    1.932642E-04
       227   -2.028222E-01
       228    4.454343E-03
       229    8.278631E-03
       230   -1.292410E-01
       231    1.164149E-05
       232    1.673773E-07
       233   -1.180886E-05
       234    7.483602E-06
       235    4.707227E-03
       236   -4.901527E-04
       237    1.354342E-04
       238   -4.162262E-05
       239   -9.381153E-05
       240    7.399098E-05
       241    8.424240E-03
       242   -7.682313E-04
       243   -2.736952E-04
       244    5.269271E-04
       245   -2.532319E-04
       246    7.590505E-04
       247    6.466747E-04
       248   -2.529970E-03
       249   -5.083373E-06
       250    1.377439E-06
       251    1.313020E-03
       252    3.190753E-06
       253    6.050820E-07
       254   -1.468344E-03
       255    3.629308E-06
       256   -2.453110E-06
       257   -2.932569E-04
       258   -4.647868E-05
       259    2.924918E-05
       260    2.304025E-05
       261   -7.585399E-04
       262   -9.576553E-06
       263   -1.548779E-06
       264   -7.770220E-03
       265    5.244237E-05
       266   -2.972424E-04
       267   -7.601799E-03
       268   -2.644445E-05
       269   -4.060789E-05
       270    1.518822E-04
       271    8.760925E-06
       272   -2.918727E-07
       273    7.769547E-03
       274   -8.916243E-05
       275   -1.413396E-04
       276    7.569050E-03
       277    1.552934E-05
       278    2.182488E-05
       279   -1.762443E-03
       280    1.269242E-05
       281    3.123044E-06
       282    8.587736E-03
       283    4.728682E-04
       284    1.409142E-04
       285    9.465534E-03
       286   -1.960401E-05
       287   -1.417627E-05
       288    2.161578E-03
       289   -1.345712E-05
       290    4.534591E-06
       291   -8.586236E-03
       292   -5.008749E-04
       293    2.805947E-04
       294   -9.458610E-03
       295   -7.241066E-09
       296    8.676740E-09
       297   -6.488587E-07
       298    2.655470E-06
       299    1.426493E-04
       300   -7.100908E-05
       301    5.887573E-08
       302   -1.004537E-05
       303    2.507744E-07
       304    1.528322E-06
       305    5.607910E-06
       306    2.450880E-07
       307    3.118443E-05
       308    2.329942E-04
       309   -1.574436E-06
       310    6.738495E-08
       311   -8.075124E-08
       312    1.336629E-08
       313   -4.890104E-07
       314   -2.840732E-07
       315   -5.767641E-04
       316    1.793107E-07
       317    1.037090E-07
       318   -2.830197E-07
       319    9.229929E-06
       320   -7.193196E-07
       321   -1.267073E-03
       322   -6.524679E-06
       323   -6.315103E-06
       324    1.283978E-05
       325    1.404294E-04
       326    5.407060E-07
       327   -2.067286E-03
       328    1.783201E-08
       329   -7.089033E-07
       330   -7.486245E-09
       331   -3.285418E-08
       332    1.975606E-06
       333   -3.676585E-08
       334    8.930022E-09
       335   -1.024513E-06
       336    4.680971E-08
       337    2.717359E-04
       338    8.243692E-07
       339    2.074451E-06
       340   -3.825378E-06
       341    4.244586E-06
       342   -1.352476E-05
       343   -2.262422E-05
       344   -8.707259E-05
       345   -6.104726E-06
       346   -2.257438E-02
       347   -7.682385E-05
       348   -2.641183E-06
       349   -2.128744E-02
       350   -1.461178E-04
       351   -4.425995E-05
       352   -1.478438E-02
       353   -1.757570E-05
       354   -8.035170E-06
       355    3.365303E-04
       356    8.759585E-08
       357   -1.698673E-07
       358    8.227148E-08
       359    5.328546E-07
       360   -3.647638E-05
       361    1.664136E-04
       362   -2.579699E-06
       363    6.372175E-07
       364    1.942482E-06
       365    3.312738E-06
       366   -1.666190E-04
       367    7.309337E-04
       368   -5.904122E-06
       369    1.568916E-05
       370   -9.785041E-06
       371    6.773406E-06
       372    4.359663E-04
       373   -3.514053E-04
       374    1.639744E-07
       375   -7.408784E-08
       376    1.814769E-05
       377   -2.368038E-07
       378    3.851593E-07
       379    2.642423E-05
       380    1.680904E-08
       381   -2.857600E-07
       382   -5.077191E-05
       383    5.823139E-05
       384   -7.341982E-07
       385   -1.872812E-06
       386    3.966674E-06
       387   -7.707864E-06
       388    5.103422E-05
       389    6.409364E-05
       390    8.417260E-05
       391   -5.408223E-06
       392    2.258414E-02
       393    7.508583E-05
       394   -2.853417E-06
       395    2.129627E-02
       396    1.418065E-04
       397   -3.490843E-05
       398    1.479254E-02
       399    2.229286E-05
       400   -2.890277E-06
       401   -3.367905E-04
       402   -7.334642E-08
       403    1.702528E-07
       404   -9.690642E-08
       405    4.910027E-07
       406    3.648666E-05
       407    1.665020E-04
       408    2.395145E-06
       409   -6.362911E-07
       410   -1.758854E-06
       411    3.214547E-06
       412    1.667212E-04
       413    7.312249E-04
       414    5.522608E-06
       415   -1.434797E-05
       416    8.825360E-06
       417    4.891108E-06
       418   -4.366502E-04
       419   -3.505328E-04
       420   -1.678500E-07
       421   -5.994803E-08
       422   -1.816091E-05
       423    2.159703E-07
       424    3.688997E-07
       425   -2.643891E-05
       426    9.224136E-09
       427   -2.884710E-07
       428    5.080432E-05
       429    5.825487E-05
       430   -1.013329E-06
       431   -2.444764E-06
       432    4.030849E-06
       433    2.730227E-07
       434   -1.227948E-05
       435    7.634065E-05
       436    1.177486E-06
       437   -8.127151E-04
       438   -4.174111E-05
       439    3.006605E-06
       440   -1.074191E-03
       441   -4.071536E-05
       442   -3.943852E-05
       443   -1.382253E-03
       444   -3.759828E-05
       445    4.310142E-08
       446   -2.631044E-08
       447   -1.679098E-08
       448    1.817259E-05
       449   -4.630393E-08
       450    2.980410E-04
       451    3.141400E-07
       452    4.238505E-07
       453   -7.379906E-07
       454   -5.250574E-05
       455   -3.161142E-09
       456    6.529055E-04
       457    1.256835E-05
       458   -2.962293E-06
       459   -9.606057E-06
       460   -6.503711E-04
       461    1.379337E-06
       462   -1.081350E-03
       463    7.454982E-09
       464   -3.800679E-06
       465    1.789975E-07
       466    1.645054E-08
       467   -1.361517E-05
       468   -1.272615E-07
       469   -2.645245E-08
       470    1.871431E-05
       471   -1.128889E-07
       472   -1.337163E-04
       473    5.862497E-05
       474    5.953998E-04
       475    4.022075E-03
       476   -6.280636E-05
       477   -8.156081E-05
       478    3.725710E-04
       479   -3.105694E-04
       480   -8.572891E-04
       481    1.928863E-03
       482   -6.166644E-05
       483   -6.034908E-04
       484   -4.015056E-03
       485    6.388284E-05
       486   -8.253627E-05
       487   -3.765431E-04
       488    2.914882E-04
       489   -8.675963E-04
       490   -1.931375E-03
 Sym= X
 Ene= -0.649126
 Spin= Alpha
 Occup= -0.649126
         1   -1.250756E-04
         2   -2.924222E-04
         3    8.733359E-04
         4   -2.124574E-03
         5   -1.209685E-02
         6   -8.827177E-03
         7    1.052548E-03
         8    1.262252E-04
         9    3.101677E-02
        10   -2.057380E-03
        11    2.702456E-04
        12    2.908277E-02
        13   -2.948651E-02
        14    8.413179E-03
        15    6.272409E-03
        16   -6.560043E-06
        17   -4.696923E-06
        18    1.125697E-05
        19   -4.347740E-06
        20   -6.531759E-03
        21    4.134036E-03
        22   -5.363273E-04
        23    3.198620E-04
        24    2.164652E-04
        25   -5.373658E-04
        26   -1.469677E-02
        27    7.747652E-03
        28   -4.422810E-03
        29    4.146632E-03
        30    2.761780E-04
        31    8.042539E-04
        32    8.256034E-04
        33   -9.425670E-03
        34   -1.624454E-05
        35    4.854290E-06
        36   -1.609569E-04
        37    6.960211E-06
        38   -5.094459E-06
        39   -6.882794E-04
        40    1.483413E-05
        41   -1.418254E-06
        42    9.042257E-04
        43   -7.454639E-04
        44    1.851835E-05
        45    4.062071E-05
        46    9.345941E-05
        47   -1.941360E-03
        48   -4.365670E-02
        49    3.885105E-03
        50    4.254291E-04
        51    1.247899E-06
        52    2.188543E-01
        53   -1.906523E-04
        54    2.304082E-05
        55    2.267977E-01
        56   -1.406645E-02
        57   -1.542397E-03
        58    2.061178E-01
        59    2.185794E-05
        60   -1.989600E-05
        61   -1.961944E-06
        62    1.306287E-07