[Molden Format]
[Title]
ADC(2) - opt by CAM-B3LYP gaussian                                              
[Atoms] AU
 c     1    6 -.12588573623097E+01 -.22835126974190E+01 -.24083260376910E-01
 c     2    6 -.25578815622211E+01 0.23621577000000E-06 -.22837930855340E-01
 c     3    6 -.12588573623097E+01 0.22835131698505E+01 -.24090819281440E-01
 c     4    6 0.13318248850473E+01 0.22853065199506E+01 -.26003222127920E-01
 c     5    6 0.26868737956204E+01 0.23621577000000E-06 -.25389061134730E-01
 c     6    6 0.13318248850473E+01 -.22853060475191E+01 -.25993773497260E-01
 h     7    1 -.22974546243959E+01 -.40385977330627E+01 -.21598270512170E-01
 h     8    1 -.22974527346698E+01 0.40385982054942E+01 -.21613388321230E-01
 h     9    1 0.23510089905703E+01 0.40574312161345E+01 -.28191524989800E-01
 h    10    1 0.23510071008442E+01 -.40574307437030E+01 -.28172627728480E-01
 n    11    7 -.52726375582849E+01 0.23621577000000E-06 -.17238672323600E-01
 o    12    8 -.63813946825068E+01 0.20269261555273E+01 -.14842499587100E-01
 o    13    8 -.63813927927806E+01 -.20269275728219E+01 -.14865176300690E-01
 n    14    7 0.52430742102305E+01 0.23621577000000E-06 -.67376886081320E-01
 h    15    1 0.62051583509223E+01 0.16177513148781E+01 0.18115044628513E+00
 h    16    1 0.62051564611962E+01 -.16177527321727E+01 0.18114666683287E+00
[GTO]
    1 0
 s    6 1.00
 0.13575349682000E+05 0.60645503603591E-03
 0.20352333680000E+04 0.46979088884982E-02
 0.46322562359000E+03 0.24332477647552E-01
 0.13120019598000E+03 0.97399968307759E-01
 0.42853015891000E+02 0.30195584253780E+00
 0.15584185766000E+02 0.66233609137875E+00
 s    2 1.00
 0.62067138508000E+01 0.65595308539952E+00
 0.25764896527000E+01 0.37585633285142E+00
 s    1 1.00
 0.57696339419000E+00 0.10000000000000E+01
 s    1 1.00
 0.22972831358000E+00 0.10000000000000E+01
 s    1 1.00
 0.95164440028000E-01 0.10000000000000E+01
 s    1 1.00
 0.48475401370000E-01 0.10000000000000E+01
 p    4 1.00
 0.34697232244000E+02 0.11327220003114E-01
 0.79582622826000E+01 0.76169659202087E-01
 0.23780826883000E+01 0.30192252202676E+00
 0.81433208183000E+00 0.72785027349547E+00
 p    1 1.00
 0.28887547253000E+00 0.10000000000000E+01
 p    1 1.00
 0.10056823671000E+00 0.10000000000000E+01
 d    1 1.00
 0.10970000000000E+01 0.10000000000000E+01
 d    1 1.00
 0.31800000000000E+00 0.10000000000000E+01
 d    1 1.00
 0.90985336424000E-01 0.10000000000000E+01
 f    1 1.00
 0.76100000000000E+00 0.10000000000000E+01
 
    2 0
 s    6 1.00
 0.13575349682000E+05 0.60645503603591E-03
 0.20352333680000E+04 0.46979088884982E-02
 0.46322562359000E+03 0.24332477647552E-01
 0.13120019598000E+03 0.97399968307759E-01
 0.42853015891000E+02 0.30195584253780E+00
 0.15584185766000E+02 0.66233609137875E+00
 s    2 1.00
 0.62067138508000E+01 0.65595308539952E+00
 0.25764896527000E+01 0.37585633285142E+00
 s    1 1.00
 0.57696339419000E+00 0.10000000000000E+01
 s    1 1.00
 0.22972831358000E+00 0.10000000000000E+01
 s    1 1.00
 0.95164440028000E-01 0.10000000000000E+01
 s    1 1.00
 0.48475401370000E-01 0.10000000000000E+01
 p    4 1.00
 0.34697232244000E+02 0.11327220003114E-01
 0.79582622826000E+01 0.76169659202087E-01
 0.23780826883000E+01 0.30192252202676E+00
 0.81433208183000E+00 0.72785027349547E+00
 p    1 1.00
 0.28887547253000E+00 0.10000000000000E+01
 p    1 1.00
 0.10056823671000E+00 0.10000000000000E+01
 d    1 1.00
 0.10970000000000E+01 0.10000000000000E+01
 d    1 1.00
 0.31800000000000E+00 0.10000000000000E+01
 d    1 1.00
 0.90985336424000E-01 0.10000000000000E+01
 f    1 1.00
 0.76100000000000E+00 0.10000000000000E+01
 
    3 0
 s    6 1.00
 0.13575349682000E+05 0.60645503603591E-03
 0.20352333680000E+04 0.46979088884982E-02
 0.46322562359000E+03 0.24332477647552E-01
 0.13120019598000E+03 0.97399968307759E-01
 0.42853015891000E+02 0.30195584253780E+00
 0.15584185766000E+02 0.66233609137875E+00
 s    2 1.00
 0.62067138508000E+01 0.65595308539952E+00
 0.25764896527000E+01 0.37585633285142E+00
 s    1 1.00
 0.57696339419000E+00 0.10000000000000E+01
 s    1 1.00
 0.22972831358000E+00 0.10000000000000E+01
 s    1 1.00
 0.95164440028000E-01 0.10000000000000E+01
 s    1 1.00
 0.48475401370000E-01 0.10000000000000E+01
 p    4 1.00
 0.34697232244000E+02 0.11327220003114E-01
 0.79582622826000E+01 0.76169659202087E-01
 0.23780826883000E+01 0.30192252202676E+00
 0.81433208183000E+00 0.72785027349547E+00
 p    1 1.00
 0.28887547253000E+00 0.10000000000000E+01
 p    1 1.00
 0.10056823671000E+00 0.10000000000000E+01
 d    1 1.00
 0.10970000000000E+01 0.10000000000000E+01
 d    1 1.00
 0.31800000000000E+00 0.10000000000000E+01
 d    1 1.00
 0.90985336424000E-01 0.10000000000000E+01
 f    1 1.00
 0.76100000000000E+00 0.10000000000000E+01
 
    4 0
 s    6 1.00
 0.13575349682000E+05 0.60645503603591E-03
 0.20352333680000E+04 0.46979088884982E-02
 0.46322562359000E+03 0.24332477647552E-01
 0.13120019598000E+03 0.97399968307759E-01
 0.42853015891000E+02 0.30195584253780E+00
 0.15584185766000E+02 0.66233609137875E+00
 s    2 1.00
 0.62067138508000E+01 0.65595308539952E+00
 0.25764896527000E+01 0.37585633285142E+00
 s    1 1.00
 0.57696339419000E+00 0.10000000000000E+01
 s    1 1.00
 0.22972831358000E+00 0.10000000000000E+01
 s    1 1.00
 0.95164440028000E-01 0.10000000000000E+01
 s    1 1.00
 0.48475401370000E-01 0.10000000000000E+01
 p    4 1.00
 0.34697232244000E+02 0.11327220003114E-01
 0.79582622826000E+01 0.76169659202087E-01
 0.23780826883000E+01 0.30192252202676E+00
 0.81433208183000E+00 0.72785027349547E+00
 p    1 1.00
 0.28887547253000E+00 0.10000000000000E+01
 p    1 1.00
 0.10056823671000E+00 0.10000000000000E+01
 d    1 1.00
 0.10970000000000E+01 0.10000000000000E+01
 d    1 1.00
 0.31800000000000E+00 0.10000000000000E+01
 d    1 1.00
 0.90985336424000E-01 0.10000000000000E+01
 f    1 1.00
 0.76100000000000E+00 0.10000000000000E+01
 
    5 0
 s    6 1.00
 0.13575349682000E+05 0.60645503603591E-03
 0.20352333680000E+04 0.46979088884982E-02
 0.46322562359000E+03 0.24332477647552E-01
 0.13120019598000E+03 0.97399968307759E-01
 0.42853015891000E+02 0.30195584253780E+00
 0.15584185766000E+02 0.66233609137875E+00
 s    2 1.00
 0.62067138508000E+01 0.65595308539952E+00
 0.25764896527000E+01 0.37585633285142E+00
 s    1 1.00
 0.57696339419000E+00 0.10000000000000E+01
 s    1 1.00
 0.22972831358000E+00 0.10000000000000E+01
 s    1 1.00
 0.95164440028000E-01 0.10000000000000E+01
 s    1 1.00
 0.48475401370000E-01 0.10000000000000E+01
 p    4 1.00
 0.34697232244000E+02 0.11327220003114E-01
 0.79582622826000E+01 0.76169659202087E-01
 0.23780826883000E+01 0.30192252202676E+00
 0.81433208183000E+00 0.72785027349547E+00
 p    1 1.00
 0.28887547253000E+00 0.10000000000000E+01
 p    1 1.00
 0.10056823671000E+00 0.10000000000000E+01
 d    1 1.00
 0.10970000000000E+01 0.10000000000000E+01
 d    1 1.00
 0.31800000000000E+00 0.10000000000000E+01
 d    1 1.00
 0.90985336424000E-01 0.10000000000000E+01
 f    1 1.00
 0.76100000000000E+00 0.10000000000000E+01
 
    6 0
 s    6 1.00
 0.13575349682000E+05 0.60645503603591E-03
 0.20352333680000E+04 0.46979088884982E-02
 0.46322562359000E+03 0.24332477647552E-01
 0.13120019598000E+03 0.97399968307759E-01
 0.42853015891000E+02 0.30195584253780E+00
 0.15584185766000E+02 0.66233609137875E+00
 s    2 1.00
 0.62067138508000E+01 0.65595308539952E+00
 0.25764896527000E+01 0.37585633285142E+00
 s    1 1.00
 0.57696339419000E+00 0.10000000000000E+01
 s    1 1.00
 0.22972831358000E+00 0.10000000000000E+01
 s    1 1.00
 0.95164440028000E-01 0.10000000000000E+01
 s    1 1.00
 0.48475401370000E-01 0.10000000000000E+01
 p    4 1.00
 0.34697232244000E+02 0.11327220003114E-01
 0.79582622826000E+01 0.76169659202087E-01
 0.23780826883000E+01 0.30192252202676E+00
 0.81433208183000E+00 0.72785027349547E+00
 p    1 1.00
 0.28887547253000E+00 0.10000000000000E+01
 p    1 1.00
 0.10056823671000E+00 0.10000000000000E+01
 d    1 1.00
 0.10970000000000E+01 0.10000000000000E+01
 d    1 1.00
 0.31800000000000E+00 0.10000000000000E+01
 d    1 1.00
 0.90985336424000E-01 0.10000000000000E+01
 f    1 1.00
 0.76100000000000E+00 0.10000000000000E+01
 
    7 0
 s    3 1.00
 0.34061341000000E+02 0.25439307208879E-01
 0.51235746000000E+01 0.19008594890375E+00
 0.11646626000000E+01 0.85244113011042E+00
 s    1 1.00
 0.32723041000000E+00 0.10000000000000E+01
 s    1 1.00
 0.10307241000000E+00 0.10000000000000E+01
 p    1 1.00
 0.80000000000000E+00 0.10000000000000E+01
 p    1 1.00
 0.95774129632000E-01 0.10000000000000E+01
 
    8 0
 s    3 1.00
 0.34061341000000E+02 0.25439307208879E-01
 0.51235746000000E+01 0.19008594890375E+00
 0.11646626000000E+01 0.85244113011042E+00
 s    1 1.00
 0.32723041000000E+00 0.10000000000000E+01
 s    1 1.00
 0.10307241000000E+00 0.10000000000000E+01
 p    1 1.00
 0.80000000000000E+00 0.10000000000000E+01
 p    1 1.00
 0.95774129632000E-01 0.10000000000000E+01
 
    9 0
 s    3 1.00
 0.34061341000000E+02 0.25439307208879E-01
 0.51235746000000E+01 0.19008594890375E+00
 0.11646626000000E+01 0.85244113011042E+00
 s    1 1.00
 0.32723041000000E+00 0.10000000000000E+01
 s    1 1.00
 0.10307241000000E+00 0.10000000000000E+01
 p    1 1.00
 0.80000000000000E+00 0.10000000000000E+01
 p    1 1.00
 0.95774129632000E-01 0.10000000000000E+01
 
   10 0
 s    3 1.00
 0.34061341000000E+02 0.25439307208879E-01
 0.51235746000000E+01 0.19008594890375E+00
 0.11646626000000E+01 0.85244113011042E+00
 s    1 1.00
 0.32723041000000E+00 0.10000000000000E+01
 s    1 1.00
 0.10307241000000E+00 0.10000000000000E+01
 p    1 1.00
 0.80000000000000E+00 0.10000000000000E+01
 p    1 1.00
 0.95774129632000E-01 0.10000000000000E+01
 
   11 0
 s    6 1.00
 0.19730800647000E+05 0.58626402628763E-03
 0.29578958745000E+04 0.45428820586397E-02
 0.67322133595000E+03 0.23558413450084E-01
 0.19068249494000E+03 0.94709193292923E-01
 0.62295441898000E+02 0.29719784913376E+00
 0.22654161182000E+02 0.66916246895232E+00
 s    2 1.00
 0.89791477428000E+01 0.64596683630063E+00
 0.36863002370000E+01 0.38700574393705E+00
 s    1 1.00
 0.84660076805000E+00 0.10000000000000E+01
 s    1 1.00
 0.33647133771000E+00 0.10000000000000E+01
 s    1 1.00
 0.13647653675000E+00 0.10000000000000E+01
 s    1 1.00
 0.68441605847000E-01 0.10000000000000E+01
 p    4 1.00
 0.49200380510000E+02 0.11448825101764E-01
 0.11346790537000E+02 0.78422337970864E-01
 0.34273972411000E+01 0.30818094738830E+00
 0.11785525134000E+01 0.72027196368413E+00
 p    1 1.00
 0.41642204972000E+00 0.10000000000000E+01
 p    1 1.00
 0.14260826011000E+00 0.10000000000000E+01
 d    1 1.00
 0.16540000000000E+01 0.10000000000000E+01
 d    1 1.00
 0.46900000000000E+00 0.10000000000000E+01
 d    1 1.00
 0.12829642058000E+00 0.10000000000000E+01
 f    1 1.00
 0.10930000000000E+01 0.10000000000000E+01
 
   12 0
 s    6 1.00
 0.27032382631000E+05 0.57227335211155E-03
 0.40523871392000E+04 0.44353233492995E-02
 0.92232722710000E+03 0.23020107706038E-01
 0.26124070989000E+03 0.92822490667928E-01
 0.85354641351000E+02 0.29378500009671E+00
 0.31035035245000E+02 0.67401604501641E+00
 s    2 1.00
 0.12260860728000E+02 0.63839937025506E+00
 0.49987076005000E+01 0.39534587125718E+00
 s    1 1.00
 0.11703108158000E+01 0.10000000000000E+01
 s    1 1.00
 0.46474740994000E+00 0.10000000000000E+01
 s    1 1.00
 0.18504536357000E+00 0.10000000000000E+01
 s    1 1.00
 0.70288026270000E-01 0.10000000000000E+01
 p    4 1.00
 0.63274954801000E+02 0.12018332222616E-01
 0.14627049379000E+02 0.83005421790056E-01
 0.44501223456000E+01 0.31991743925964E+00
 0.15275799647000E+01 0.70715542916104E+00
 p    1 1.00
 0.52935117943000E+00 0.10000000000000E+01
 p    1 1.00
 0.17478421270000E+00 0.10000000000000E+01
 p    1 1.00
 0.51112745706000E-01 0.10000000000000E+01
 d    1 1.00
 0.23140000000000E+01 0.10000000000000E+01
 d    1 1.00
 0.64500000000000E+00 0.10000000000000E+01
 d    1 1.00
 0.14696477366000E+00 0.10000000000000E+01
 f    1 1.00
 0.14280000000000E+01 0.10000000000000E+01
 
   13 0
 s    6 1.00
 0.27032382631000E+05 0.57227335211155E-03
 0.40523871392000E+04 0.44353233492995E-02
 0.92232722710000E+03 0.23020107706038E-01
 0.26124070989000E+03 0.92822490667928E-01
 0.85354641351000E+02 0.29378500009671E+00
 0.31035035245000E+02 0.67401604501641E+00
 s    2 1.00
 0.12260860728000E+02 0.63839937025506E+00
 0.49987076005000E+01 0.39534587125718E+00
 s    1 1.00
 0.11703108158000E+01 0.10000000000000E+01
 s    1 1.00
 0.46474740994000E+00 0.10000000000000E+01
 s    1 1.00
 0.18504536357000E+00 0.10000000000000E+01
 s    1 1.00
 0.70288026270000E-01 0.10000000000000E+01
 p    4 1.00
 0.63274954801000E+02 0.12018332222616E-01
 0.14627049379000E+02 0.83005421790056E-01
 0.44501223456000E+01 0.31991743925964E+00
 0.15275799647000E+01 0.70715542916104E+00
 p    1 1.00
 0.52935117943000E+00 0.10000000000000E+01
 p    1 1.00
 0.17478421270000E+00 0.10000000000000E+01
 p    1 1.00
 0.51112745706000E-01 0.10000000000000E+01
 d    1 1.00
 0.23140000000000E+01 0.10000000000000E+01
 d    1 1.00
 0.64500000000000E+00 0.10000000000000E+01
 d    1 1.00
 0.14696477366000E+00 0.10000000000000E+01
 f    1 1.00
 0.14280000000000E+01 0.10000000000000E+01
 
   14 0
 s    6 1.00
 0.19730800647000E+05 0.58626402628763E-03
 0.29578958745000E+04 0.45428820586397E-02
 0.67322133595000E+03 0.23558413450084E-01
 0.19068249494000E+03 0.94709193292923E-01
 0.62295441898000E+02 0.29719784913376E+00
 0.22654161182000E+02 0.66916246895232E+00
 s    2 1.00
 0.89791477428000E+01 0.64596683630063E+00
 0.36863002370000E+01 0.38700574393705E+00
 s    1 1.00
 0.84660076805000E+00 0.10000000000000E+01
 s    1 1.00
 0.33647133771000E+00 0.10000000000000E+01
 s    1 1.00
 0.13647653675000E+00 0.10000000000000E+01
 s    1 1.00
 0.68441605847000E-01 0.10000000000000E+01
 p    4 1.00
 0.49200380510000E+02 0.11448825101764E-01
 0.11346790537000E+02 0.78422337970864E-01
 0.34273972411000E+01 0.30818094738830E+00
 0.11785525134000E+01 0.72027196368413E+00
 p    1 1.00
 0.41642204972000E+00 0.10000000000000E+01
 p    1 1.00
 0.14260826011000E+00 0.10000000000000E+01
 d    1 1.00
 0.16540000000000E+01 0.10000000000000E+01
 d    1 1.00
 0.46900000000000E+00 0.10000000000000E+01
 d    1 1.00
 0.12829642058000E+00 0.10000000000000E+01
 f    1 1.00
 0.10930000000000E+01 0.10000000000000E+01
 
   15 0
 s    3 1.00
 0.34061341000000E+02 0.25439307208879E-01
 0.51235746000000E+01 0.19008594890375E+00
 0.11646626000000E+01 0.85244113011042E+00
 s    1 1.00
 0.32723041000000E+00 0.10000000000000E+01
 s    1 1.00
 0.10307241000000E+00 0.10000000000000E+01
 p    1 1.00
 0.80000000000000E+00 0.10000000000000E+01
 p    1 1.00
 0.95774129632000E-01 0.10000000000000E+01
 
   16 0
 s    3 1.00
 0.34061341000000E+02 0.25439307208879E-01
 0.51235746000000E+01 0.19008594890375E+00
 0.11646626000000E+01 0.85244113011042E+00
 s    1 1.00
 0.32723041000000E+00 0.10000000000000E+01
 s    1 1.00
 0.10307241000000E+00 0.10000000000000E+01
 p    1 1.00
 0.80000000000000E+00 0.10000000000000E+01
 p    1 1.00
 0.95774129632000E-01 0.10000000000000E+01
 
[MO]
 Sym= X
 Ene= -0.077487
 Spin= Alpha
 Occup= -0.077487
         1    3.280715E-04
         2    7.522724E-04
         3   -1.567866E-03
         4    9.499133E-04
         5   -5.657627E-03
         6    9.512205E-03
         7   -5.003092E-03
         8   -3.594151E-04
         9    1.320066E-01
        10   -7.254892E-04
        11   -6.543393E-04
        12    1.300032E-01
        13    1.871884E-02
        14   -3.354277E-04
        15    5.066910E-02
        16   -1.379476E-04
        17    1.285094E-04
        18    9.438214E-06
        19    5.862252E-05
        20   -1.230884E-03
        21    4.493320E-03
        22    3.349117E-04
        23   -2.028855E-04
        24   -1.320262E-04
        25    7.438448E-04
        26   -3.201176E-03
        27    7.579408E-03
        28    1.635424E-03
        29   -1.414967E-03
        30   -2.204568E-04
        31   -1.725805E-03
        32   -6.865507E-03
        33    5.331686E-03
        34    3.478435E-06
        35   -8.979159E-06
        36   -1.090458E-03
        37    3.122604E-07
        38    7.962310E-06
        39    5.045972E-04
        40   -4.979071E-06
        41    4.084497E-06
        42    9.584057E-04
        43   -5.588777E-04
        44   -7.290989E-05
        45   -1.603696E-04
        46   -1.024880E-04
        47    4.000102E-03
        48    1.010579E-02
        49   -8.897203E-03
        50    1.787347E-03
        51   -2.638594E-06
        52    2.179313E-01
        53    2.330159E-03
        54    5.807422E-06
        55    2.206319E-01
        56    7.320197E-03
        57    1.096542E-03
        58    7.868747E-02
        59   -1.832288E-04
        60    1.828271E-04
        61    4.017587E-07
        62   -1.462291E-07
        63    2.480516E-03
        64   -2.913637E-07
        65   -5.722184E-04
        66    8.119777E-04
        67   -2.397594E-04
        68    1.228808E-06
        69    3.473611E-03
        70    8.636124E-07
        71   -1.047423E-02
        72    1.082559E-02
        73   -3.513611E-04
        74    1.264139E-04
        75    7.830158E-03
        76    1.811666E-05
        77    8.494276E-06
        78    1.217453E-07
        79   -1.673446E-03
        80    5.030683E-06
        81   -9.253588E-08
        82    8.836010E-04
        83   -1.642695E-05
        84   -7.080263E-08
        85    1.361562E-03
        86    5.308652E-08
        87    3.272824E-04
        88    7.505223E-04
        89   -1.566482E-03
        90    9.765577E-04
        91   -7.762470E-03
        92    9.567371E-03
        93   -5.009523E-03
        94    3.703200E-04
        95    1.319968E-01
        96   -7.162322E-04
        97    6.758741E-04
        98    1.299932E-01
        99    1.927399E-02
       100    1.401905E-03
       101    5.061709E-02
       102   -1.377725E-04
       103    1.285412E-04
       104    9.231273E-06
       105   -5.916108E-05
       106   -1.231137E-03
       107   -4.493486E-03
       108    3.344606E-04
       109   -2.020644E-04
       110   -1.323962E-04
       111   -7.479003E-04
       112   -3.200547E-03
       113   -7.577148E-03
       114    1.743297E-03
       115   -1.537147E-03
       116   -2.061499E-04
       117    1.581383E-03
       118   -6.849299E-03
       119   -5.274714E-03
       120    3.562527E-06
       121    9.021019E-06
       122   -1.090386E-03
       123    2.596077E-07
       124   -7.882265E-06
       125    5.045582E-04
       126   -5.039239E-06
       127   -4.220703E-06
       128    9.583475E-04
       129    5.587173E-04
       130   -2.592822E-04
       131   -5.776363E-04
       132   -5.118419E-06
       133    1.000412E-02
       134    2.879686E-03
       135   -1.107406E-02
       136    5.066057E-03
       137   -1.649081E-03
       138    2.787515E-02
       139    1.089991E-02
       140   -6.137007E-03
       141    2.774198E-02
       142    1.019823E-02
       143    8.952759E-03
       144    2.614011E-03
       145   -3.148139E-04
       146    3.608105E-04
       147   -4.599658E-05
       148   -4.684166E-06
       149   -4.032698E-03
       150    9.217434E-04
       151   -5.808684E-04
       152    7.954018E-04
       153   -2.145334E-04
       154   -1.552251E-03
       155   -7.142140E-03
       156    2.197626E-03
       157   -6.476954E-03
       158    5.419390E-03
       159    1.057564E-03
       160    7.271677E-03
       161   -3.288046E-03
       162    1.218686E-02
       163    1.555064E-05
       164   -2.170006E-05
       165   -2.432004E-04
       166    2.878302E-05
       167   -1.049417E-06
       168    5.016968E-04
       169   -4.964639E-05
       170    3.016310E-05
       171   -1.754092E-04
       172    3.966604E-04
       173    1.164607E-03
       174    2.643995E-03
       175   -3.226354E-03
       176   -1.452453E-02
       177    4.605743E-02
       178   -4.168494E-04
       179   -1.473612E-02
       180    5.960046E-06
       181   -9.608966E-02
       182   -3.714966E-03
       183    2.420148E-05
       184   -9.285280E-02
       185    3.434678E-02
       186   -6.676739E-04
       187    1.426787E-02
       188   -7.363257E-04
       189    5.233061E-04
       190    2.130196E-04
       191   -3.509991E-07
       192   -6.402582E-03
       193   -1.325900E-07
       194    1.635789E-03
       195   -3.382871E-03
       196    1.747082E-03
       197   -5.080735E-06
       198   -1.293606E-02
       199   -1.737505E-06
       200    6.866472E-03
       201   -7.080153E-03
       202    2.136811E-04
       203    1.960183E-04
       204   -4.292003E-03
       205   -3.680092E-05
       206   -1.307792E-04
       207    2.242387E-08
       208    9.130466E-04
       209    7.739469E-05
       210    1.234040E-07
       211   -1.358177E-03
       212    9.806405E-05
       213   -1.534888E-07
       214    1.331961E-04
       215    7.019644E-08
       216   -2.590299E-04
       217   -5.770081E-04
       218   -1.195089E-05
       219    1.005609E-02
       220    1.179691E-03
       221   -1.099409E-02
       222    5.061518E-03
       223    1.638496E-03
       224    2.788220E-02
       225    1.089635E-02
       226    6.150779E-03
       227    2.774859E-02
       228    9.915117E-03
       229   -9.842028E-03
       230    2.519017E-03
       231   -3.148207E-04
       232    3.608327E-04
       233   -4.601204E-05
       234    4.046623E-06
       235   -4.033187E-03
       236   -9.216176E-04
       237   -5.805874E-04
       238    7.988452E-04
       239   -2.182578E-04
       240    1.554961E-03
       241   -7.141475E-03
       242   -2.199012E-03
       243   -6.307511E-03
       244    5.247905E-03
       245    1.059607E-03
       246   -7.343923E-03
       247   -3.328857E-03
       248   -1.222792E-02
       249    1.532640E-05
       250    2.176213E-05
       251   -2.431955E-04
       252    2.908943E-05
       253    1.003597E-06
       254    5.017014E-04
       255   -4.965196E-05
       256   -3.020056E-05
       257   -1.754205E-04
       258   -3.966692E-04
       259    1.327526E-03
       260    1.816227E-03
       261    1.670410E-02
       262    1.561786E-05
       263    1.660258E-04
       264    4.743137E-03
       265    3.797501E-03
       266    1.385051E-03
       267    2.305913E-03
       268    1.334787E-03
       269    1.820784E-03
       270    1.648438E-02
       271    1.554863E-05
       272   -1.663723E-04
       273    4.742463E-03
       274    3.851760E-03
       275   -1.338412E-03
       276    2.267014E-03
       277    1.328602E-03
       278    3.483783E-03
       279   -3.059717E-02
       280    3.570633E-05
       281   -2.429979E-04
       282    5.228871E-04
       283    4.595738E-03
       284    1.897196E-03
       285   -1.019690E-02
       286    1.333193E-03
       287    3.479388E-03
       288   -3.072292E-02
       289    3.476501E-05
       290    2.425172E-04
       291    5.231085E-04
       292    4.527517E-03
       293   -1.965762E-03
       294   -1.020541E-02
       295    1.788482E-04
       296    4.229821E-04
       297   -5.594036E-04
       298   -1.472021E-03
       299    7.972236E-03
       300    5.480556E-03
       301   -2.421617E-03
       302    2.270371E-06
       303   -1.643001E-02
       304   -1.960148E-03
       305    5.466102E-06
       306   -1.562624E-02
       307    2.906286E-03
       308   -3.940334E-05
       309    8.550064E-03
       310   -6.123828E-05
       311    9.251718E-05
       312   -3.127890E-05
       313   -5.734915E-07
       314    4.330651E-03
       315   -6.413190E-07
       316   -1.279496E-04
       317    1.762556E-04
       318   -4.830597E-05
       319   -2.209731E-06
       320    1.241731E-02
       321   -2.044264E-06
       322    2.635796E-04
       323   -1.966186E-03
       324    1.702606E-03
       325   -3.357623E-05
       326    5.983790E-03
       327    3.155122E-06
       328   -2.733012E-06
       329   -1.187561E-07
       330    1.193851E-04
       331   -1.463724E-06
       332    2.028405E-07
       333    6.200194E-04
       334    5.130444E-06
       335   -4.351236E-08
       336   -7.801914E-04
       337    1.093705E-07
       338    4.207538E-05
       339    9.983908E-05
       340   -1.245401E-04
       341   -7.245901E-04
       342    4.735768E-03
       343    3.357811E-04
       344    1.596946E-03
       345   -2.739123E-04
       346   -7.996068E-02
       347    1.512531E-03
       348   -3.089876E-04
       349   -7.364501E-02
       350    1.779367E-03
       351   -6.432299E-04
       352   -5.304122E-02
       353    3.360492E-04
       354    4.541762E-05
       355   -4.664035E-03
       356   -6.595476E-06
       357    1.579887E-05
       358   -9.203399E-06
       359   -1.122826E-05
       360   -2.288632E-04
       361    8.345056E-04
       362    6.283941E-06
       363    3.614894E-05
       364   -4.243288E-05
       365   -2.289130E-05
       366   -1.119729E-03
       367    2.578988E-03
       368    2.638154E-05
       369    3.718329E-05
       370   -6.356483E-05
       371    1.123766E-05
       372   -1.598389E-03
       373    4.183354E-04
       374   -2.223866E-06
       375   -3.155306E-06
       376    1.295697E-04
       377    5.133166E-06
       378    5.437450E-07
       379    7.657432E-05
       380   -2.149537E-06
       381    3.689542E-06
       382   -2.504102E-04
       383    2.183534E-04
       384    4.217277E-05
       385    1.000379E-04
       386   -1.242978E-04
       387   -7.277153E-04
       388    4.771910E-03
       389    3.578063E-04
       390    1.625860E-03
       391    2.486694E-04
       392   -7.992458E-02
       393    1.540210E-03
       394    2.887757E-04
       395   -7.361301E-02
       396    1.776905E-03
       397    6.374514E-04
       398   -5.300771E-02
       399    3.434151E-04
       400   -4.748495E-05
       401   -4.658443E-03
       402   -6.287465E-06
       403    1.542808E-05
       404   -9.140613E-06
       405    1.119901E-05
       406   -2.287001E-04
       407   -8.341958E-04
       408    6.511623E-06
       409    3.608519E-05
       410   -4.259682E-05
       411    2.331965E-05
       412   -1.118980E-03
       413   -2.578108E-03
       414    2.922353E-05
       415    3.440469E-05
       416   -6.362822E-05
       417   -1.599658E-05
       418   -1.597796E-03
       419   -4.154300E-04
       420   -2.189378E-06
       421    3.085513E-06
       422    1.295161E-04
       423    5.120423E-06
       424   -4.553204E-07
       425    7.656533E-05
       426   -2.183064E-06
       427   -3.684330E-06
       428   -2.503295E-04
       429   -2.182597E-04
       430   -3.944035E-03
       431   -9.357517E-03
       432    1.451727E-02
       433    2.305447E-02
       434    4.364056E-03
       435    2.698703E-02
       436    2.004711E-02
       437   -1.514220E-05
       438   -2.378517E-01
       439    2.218154E-02
       440   -1.964829E-06
       441   -2.311335E-01
       442    2.789453E-02
       443    1.228213E-04
       444   -1.575166E-01
       445    3.317186E-05
       446    1.818800E-04
       447   -2.150518E-04
       448   -4.900377E-07
       449    1.986397E-03
       450   -4.118665E-07
       451   -1.970962E-04
       452    1.961617E-03
       453   -1.764521E-03
       454    5.572094E-06
       455    4.171630E-03
       456   -7.939104E-07
       457   -1.403211E-03
       458    5.291293E-03
       459   -3.888083E-03
       460    2.369625E-05
       461    5.061937E-04
       462   -4.290092E-06
       463    9.021389E-05
       464   -2.821203E-08
       465    1.289636E-03
       466    1.019361E-04
       467    1.402053E-08
       468   -1.114063E-03
       469   -2.229707E-04
       470    2.382987E-08
       471   -6.161660E-04
       472   -7.546954E-09
       473   -4.929496E-03
       474   -1.205697E-02
       475   -2.230663E-02
       476    2.198462E-03
       477    1.504562E-03
       478   -1.095089E-02
       479    2.831508E-03
       480    1.997845E-03
       481   -4.566509E-03
       482   -4.917944E-03
       483   -1.194638E-02
       484   -2.186986E-02
       485    2.192046E-03
       486   -1.494304E-03
       487   -1.095450E-02
       488    2.780754E-03
       489   -1.922847E-03
       490   -4.588992E-03
 Sym= X
 Ene= -0.843883
 Spin= Alpha
 Occup= -0.843883
         1   -1.658580E-04
         2   -3.859782E-04
         3    1.070263E-03
         4   -2.255620E-03
         5   -1.149839E-02
         6   -1.004788E-02
         7    1.668193E-03
         8    1.708245E-04
         9    1.520536E-02
        10   -1.984360E-03
        11    3.517390E-04
        12    1.350055E-02
        13   -3.197782E-02
        14    8.515812E-03
        15    1.619642E-04
        16    1.015310E-05
        17   -2.034607E-05
        18    1.019296E-05
        19   -1.150268E-05
        20   -6.430239E-03
        21    3.618478E-03
        22   -5.809654E-04
        23    3.468663E-04
        24    2.340992E-04
        25   -6.316993E-04
        26   -1.441590E-02
        27    6.883694E-03
        28   -4.654051E-03
        29    4.349056E-03
        30    3.049959E-04
        31    1.019864E-03
        32    1.665873E-03
        33   -1.014282E-02
        34   -1.678667E-05
        35    5.981009E-06
        36   -2.964397E-05
        37    6.973460E-06
        38   -6.099392E-06
        39   -7.546529E-04
        40    1.554822E-05
        41   -1.924974E-06
        42    7.944245E-04
        43   -6.830399E-04
        44    2.751350E-05
        45    6.040526E-05
        46    1.065996E-04
        47   -2.441673E-03
        48   -4.520570E-02
        49    4.994738E-03
        50    2.113855E-04
        51    1.577681E-06
        52    1.939840E-01
        53   -4.751818E-04
        54    2.250465E-05
        55    2.016578E-01
        56   -1.505935E-02
        57   -1.686977E-03
        58    1.980728E-01
        59    4.428202E-05
        60   -4.225683E-05
        61   -2.025190E-06
        62    1.493571E-07