[Molden Format]
[Title]
ADC(2) - opt by CAM-B3LYP gaussian                                              
[Atoms] AU
 c     1    6 -.12588573623097E+01 -.22835126974190E+01 -.24083260376910E-01
 c     2    6 -.25578815622211E+01 0.23621577000000E-06 -.22837930855340E-01
 c     3    6 -.12588573623097E+01 0.22835131698505E+01 -.24090819281440E-01
 c     4    6 0.13318248850473E+01 0.22853065199506E+01 -.26003222127920E-01
 c     5    6 0.26868737956204E+01 0.23621577000000E-06 -.25389061134730E-01
 c     6    6 0.13318248850473E+01 -.22853060475191E+01 -.25993773497260E-01
 h     7    1 -.22974546243959E+01 -.40385977330627E+01 -.21598270512170E-01
 h     8    1 -.22974527346698E+01 0.40385982054942E+01 -.21613388321230E-01
 h     9    1 0.23510089905703E+01 0.40574312161345E+01 -.28191524989800E-01
 h    10    1 0.23510071008442E+01 -.40574307437030E+01 -.28172627728480E-01
 n    11    7 -.52726375582849E+01 0.23621577000000E-06 -.17238672323600E-01
 o    12    8 -.63813946825068E+01 0.20269261555273E+01 -.14842499587100E-01
 o    13    8 -.63813927927806E+01 -.20269275728219E+01 -.14865176300690E-01
 n    14    7 0.52430742102305E+01 0.23621577000000E-06 -.67376886081320E-01
 h    15    1 0.62051583509223E+01 0.16177513148781E+01 0.18115044628513E+00
 h    16    1 0.62051564611962E+01 -.16177527321727E+01 0.18114666683287E+00
[GTO]
    1 0
 s    6 1.00
 0.13575349682000E+05 0.60645503603591E-03
 0.20352333680000E+04 0.46979088884982E-02
 0.46322562359000E+03 0.24332477647552E-01
 0.13120019598000E+03 0.97399968307759E-01
 0.42853015891000E+02 0.30195584253780E+00
 0.15584185766000E+02 0.66233609137875E+00
 s    2 1.00
 0.62067138508000E+01 0.65595308539952E+00
 0.25764896527000E+01 0.37585633285142E+00
 s    1 1.00
 0.57696339419000E+00 0.10000000000000E+01
 s    1 1.00
 0.22972831358000E+00 0.10000000000000E+01
 s    1 1.00
 0.95164440028000E-01 0.10000000000000E+01
 s    1 1.00
 0.48475401370000E-01 0.10000000000000E+01
 p    4 1.00
 0.34697232244000E+02 0.11327220003114E-01
 0.79582622826000E+01 0.76169659202087E-01
 0.23780826883000E+01 0.30192252202676E+00
 0.81433208183000E+00 0.72785027349547E+00
 p    1 1.00
 0.28887547253000E+00 0.10000000000000E+01
 p    1 1.00
 0.10056823671000E+00 0.10000000000000E+01
 d    1 1.00
 0.10970000000000E+01 0.10000000000000E+01
 d    1 1.00
 0.31800000000000E+00 0.10000000000000E+01
 d    1 1.00
 0.90985336424000E-01 0.10000000000000E+01
 f    1 1.00
 0.76100000000000E+00 0.10000000000000E+01
 
    2 0
 s    6 1.00
 0.13575349682000E+05 0.60645503603591E-03
 0.20352333680000E+04 0.46979088884982E-02
 0.46322562359000E+03 0.24332477647552E-01
 0.13120019598000E+03 0.97399968307759E-01
 0.42853015891000E+02 0.30195584253780E+00
 0.15584185766000E+02 0.66233609137875E+00
 s    2 1.00
 0.62067138508000E+01 0.65595308539952E+00
 0.25764896527000E+01 0.37585633285142E+00
 s    1 1.00
 0.57696339419000E+00 0.10000000000000E+01
 s    1 1.00
 0.22972831358000E+00 0.10000000000000E+01
 s    1 1.00
 0.95164440028000E-01 0.10000000000000E+01
 s    1 1.00
 0.48475401370000E-01 0.10000000000000E+01
 p    4 1.00
 0.34697232244000E+02 0.11327220003114E-01
 0.79582622826000E+01 0.76169659202087E-01
 0.23780826883000E+01 0.30192252202676E+00
 0.81433208183000E+00 0.72785027349547E+00
 p    1 1.00
 0.28887547253000E+00 0.10000000000000E+01
 p    1 1.00
 0.10056823671000E+00 0.10000000000000E+01
 d    1 1.00
 0.10970000000000E+01 0.10000000000000E+01
 d    1 1.00
 0.31800000000000E+00 0.10000000000000E+01
 d    1 1.00
 0.90985336424000E-01 0.10000000000000E+01
 f    1 1.00
 0.76100000000000E+00 0.10000000000000E+01
 
    3 0
 s    6 1.00
 0.13575349682000E+05 0.60645503603591E-03
 0.20352333680000E+04 0.46979088884982E-02
 0.46322562359000E+03 0.24332477647552E-01
 0.13120019598000E+03 0.97399968307759E-01
 0.42853015891000E+02 0.30195584253780E+00
 0.15584185766000E+02 0.66233609137875E+00
 s    2 1.00
 0.62067138508000E+01 0.65595308539952E+00
 0.25764896527000E+01 0.37585633285142E+00
 s    1 1.00
 0.57696339419000E+00 0.10000000000000E+01
 s    1 1.00
 0.22972831358000E+00 0.10000000000000E+01
 s    1 1.00
 0.95164440028000E-01 0.10000000000000E+01
 s    1 1.00
 0.48475401370000E-01 0.10000000000000E+01
 p    4 1.00
 0.34697232244000E+02 0.11327220003114E-01
 0.79582622826000E+01 0.76169659202087E-01
 0.23780826883000E+01 0.30192252202676E+00
 0.81433208183000E+00 0.72785027349547E+00
 p    1 1.00
 0.28887547253000E+00 0.10000000000000E+01
 p    1 1.00
 0.10056823671000E+00 0.10000000000000E+01
 d    1 1.00
 0.10970000000000E+01 0.10000000000000E+01
 d    1 1.00
 0.31800000000000E+00 0.10000000000000E+01
 d    1 1.00
 0.90985336424000E-01 0.10000000000000E+01
 f    1 1.00
 0.76100000000000E+00 0.10000000000000E+01
 
    4 0
 s    6 1.00
 0.13575349682000E+05 0.60645503603591E-03
 0.20352333680000E+04 0.46979088884982E-02
 0.46322562359000E+03 0.24332477647552E-01
 0.13120019598000E+03 0.97399968307759E-01
 0.42853015891000E+02 0.30195584253780E+00
 0.15584185766000E+02 0.66233609137875E+00
 s    2 1.00
 0.62067138508000E+01 0.65595308539952E+00
 0.25764896527000E+01 0.37585633285142E+00
 s    1 1.00
 0.57696339419000E+00 0.10000000000000E+01
 s    1 1.00
 0.22972831358000E+00 0.10000000000000E+01
 s    1 1.00
 0.95164440028000E-01 0.10000000000000E+01
 s    1 1.00
 0.48475401370000E-01 0.10000000000000E+01
 p    4 1.00
 0.34697232244000E+02 0.11327220003114E-01
 0.79582622826000E+01 0.76169659202087E-01
 0.23780826883000E+01 0.30192252202676E+00
 0.81433208183000E+00 0.72785027349547E+00
 p    1 1.00
 0.28887547253000E+00 0.10000000000000E+01
 p    1 1.00
 0.10056823671000E+00 0.10000000000000E+01
 d    1 1.00
 0.10970000000000E+01 0.10000000000000E+01
 d    1 1.00
 0.31800000000000E+00 0.10000000000000E+01
 d    1 1.00
 0.90985336424000E-01 0.10000000000000E+01
 f    1 1.00
 0.76100000000000E+00 0.10000000000000E+01
 
    5 0
 s    6 1.00
 0.13575349682000E+05 0.60645503603591E-03
 0.20352333680000E+04 0.46979088884982E-02
 0.46322562359000E+03 0.24332477647552E-01
 0.13120019598000E+03 0.97399968307759E-01
 0.42853015891000E+02 0.30195584253780E+00
 0.15584185766000E+02 0.66233609137875E+00
 s    2 1.00
 0.62067138508000E+01 0.65595308539952E+00
 0.25764896527000E+01 0.37585633285142E+00
 s    1 1.00
 0.57696339419000E+00 0.10000000000000E+01
 s    1 1.00
 0.22972831358000E+00 0.10000000000000E+01
 s    1 1.00
 0.95164440028000E-01 0.10000000000000E+01
 s    1 1.00
 0.48475401370000E-01 0.10000000000000E+01
 p    4 1.00
 0.34697232244000E+02 0.11327220003114E-01
 0.79582622826000E+01 0.76169659202087E-01
 0.23780826883000E+01 0.30192252202676E+00
 0.81433208183000E+00 0.72785027349547E+00
 p    1 1.00
 0.28887547253000E+00 0.10000000000000E+01
 p    1 1.00
 0.10056823671000E+00 0.10000000000000E+01
 d    1 1.00
 0.10970000000000E+01 0.10000000000000E+01
 d    1 1.00
 0.31800000000000E+00 0.10000000000000E+01
 d    1 1.00
 0.90985336424000E-01 0.10000000000000E+01
 f    1 1.00
 0.76100000000000E+00 0.10000000000000E+01
 
    6 0
 s    6 1.00
 0.13575349682000E+05 0.60645503603591E-03
 0.20352333680000E+04 0.46979088884982E-02
 0.46322562359000E+03 0.24332477647552E-01
 0.13120019598000E+03 0.97399968307759E-01
 0.42853015891000E+02 0.30195584253780E+00
 0.15584185766000E+02 0.66233609137875E+00
 s    2 1.00
 0.62067138508000E+01 0.65595308539952E+00
 0.25764896527000E+01 0.37585633285142E+00
 s    1 1.00
 0.57696339419000E+00 0.10000000000000E+01
 s    1 1.00
 0.22972831358000E+00 0.10000000000000E+01
 s    1 1.00
 0.95164440028000E-01 0.10000000000000E+01
 s    1 1.00
 0.48475401370000E-01 0.10000000000000E+01
 p    4 1.00
 0.34697232244000E+02 0.11327220003114E-01
 0.79582622826000E+01 0.76169659202087E-01
 0.23780826883000E+01 0.30192252202676E+00
 0.81433208183000E+00 0.72785027349547E+00
 p    1 1.00
 0.28887547253000E+00 0.10000000000000E+01
 p    1 1.00
 0.10056823671000E+00 0.10000000000000E+01
 d    1 1.00
 0.10970000000000E+01 0.10000000000000E+01
 d    1 1.00
 0.31800000000000E+00 0.10000000000000E+01
 d    1 1.00
 0.90985336424000E-01 0.10000000000000E+01
 f    1 1.00
 0.76100000000000E+00 0.10000000000000E+01
 
    7 0
 s    3 1.00
 0.34061341000000E+02 0.25439307208879E-01
 0.51235746000000E+01 0.19008594890375E+00
 0.11646626000000E+01 0.85244113011042E+00
 s    1 1.00
 0.32723041000000E+00 0.10000000000000E+01
 s    1 1.00
 0.10307241000000E+00 0.10000000000000E+01
 p    1 1.00
 0.80000000000000E+00 0.10000000000000E+01
 p    1 1.00
 0.95774129632000E-01 0.10000000000000E+01
 
    8 0
 s    3 1.00
 0.34061341000000E+02 0.25439307208879E-01
 0.51235746000000E+01 0.19008594890375E+00
 0.11646626000000E+01 0.85244113011042E+00
 s    1 1.00
 0.32723041000000E+00 0.10000000000000E+01
 s    1 1.00
 0.10307241000000E+00 0.10000000000000E+01
 p    1 1.00
 0.80000000000000E+00 0.10000000000000E+01
 p    1 1.00
 0.95774129632000E-01 0.10000000000000E+01
 
    9 0
 s    3 1.00
 0.34061341000000E+02 0.25439307208879E-01
 0.51235746000000E+01 0.19008594890375E+00
 0.11646626000000E+01 0.85244113011042E+00
 s    1 1.00
 0.32723041000000E+00 0.10000000000000E+01
 s    1 1.00
 0.10307241000000E+00 0.10000000000000E+01
 p    1 1.00
 0.80000000000000E+00 0.10000000000000E+01
 p    1 1.00
 0.95774129632000E-01 0.10000000000000E+01
 
   10 0
 s    3 1.00
 0.34061341000000E+02 0.25439307208879E-01
 0.51235746000000E+01 0.19008594890375E+00
 0.11646626000000E+01 0.85244113011042E+00
 s    1 1.00
 0.32723041000000E+00 0.10000000000000E+01
 s    1 1.00
 0.10307241000000E+00 0.10000000000000E+01
 p    1 1.00
 0.80000000000000E+00 0.10000000000000E+01
 p    1 1.00
 0.95774129632000E-01 0.10000000000000E+01
 
   11 0
 s    6 1.00
 0.19730800647000E+05 0.58626402628763E-03
 0.29578958745000E+04 0.45428820586397E-02
 0.67322133595000E+03 0.23558413450084E-01
 0.19068249494000E+03 0.94709193292923E-01
 0.62295441898000E+02 0.29719784913376E+00
 0.22654161182000E+02 0.66916246895232E+00
 s    2 1.00
 0.89791477428000E+01 0.64596683630063E+00
 0.36863002370000E+01 0.38700574393705E+00
 s    1 1.00
 0.84660076805000E+00 0.10000000000000E+01
 s    1 1.00
 0.33647133771000E+00 0.10000000000000E+01
 s    1 1.00
 0.13647653675000E+00 0.10000000000000E+01
 s    1 1.00
 0.68441605847000E-01 0.10000000000000E+01
 p    4 1.00
 0.49200380510000E+02 0.11448825101764E-01
 0.11346790537000E+02 0.78422337970864E-01
 0.34273972411000E+01 0.30818094738830E+00
 0.11785525134000E+01 0.72027196368413E+00
 p    1 1.00
 0.41642204972000E+00 0.10000000000000E+01
 p    1 1.00
 0.14260826011000E+00 0.10000000000000E+01
 d    1 1.00
 0.16540000000000E+01 0.10000000000000E+01
 d    1 1.00
 0.46900000000000E+00 0.10000000000000E+01
 d    1 1.00
 0.12829642058000E+00 0.10000000000000E+01
 f    1 1.00
 0.10930000000000E+01 0.10000000000000E+01
 
   12 0
 s    6 1.00
 0.27032382631000E+05 0.57227335211155E-03
 0.40523871392000E+04 0.44353233492995E-02
 0.92232722710000E+03 0.23020107706038E-01
 0.26124070989000E+03 0.92822490667928E-01
 0.85354641351000E+02 0.29378500009671E+00
 0.31035035245000E+02 0.67401604501641E+00
 s    2 1.00
 0.12260860728000E+02 0.63839937025506E+00
 0.49987076005000E+01 0.39534587125718E+00
 s    1 1.00
 0.11703108158000E+01 0.10000000000000E+01
 s    1 1.00
 0.46474740994000E+00 0.10000000000000E+01
 s    1 1.00
 0.18504536357000E+00 0.10000000000000E+01
 s    1 1.00
 0.70288026270000E-01 0.10000000000000E+01
 p    4 1.00
 0.63274954801000E+02 0.12018332222616E-01
 0.14627049379000E+02 0.83005421790056E-01
 0.44501223456000E+01 0.31991743925964E+00
 0.15275799647000E+01 0.70715542916104E+00
 p    1 1.00
 0.52935117943000E+00 0.10000000000000E+01
 p    1 1.00
 0.17478421270000E+00 0.10000000000000E+01
 p    1 1.00
 0.51112745706000E-01 0.10000000000000E+01
 d    1 1.00
 0.23140000000000E+01 0.10000000000000E+01
 d    1 1.00
 0.64500000000000E+00 0.10000000000000E+01
 d    1 1.00
 0.14696477366000E+00 0.10000000000000E+01
 f    1 1.00
 0.14280000000000E+01 0.10000000000000E+01
 
   13 0
 s    6 1.00
 0.27032382631000E+05 0.57227335211155E-03
 0.40523871392000E+04 0.44353233492995E-02
 0.92232722710000E+03 0.23020107706038E-01
 0.26124070989000E+03 0.92822490667928E-01
 0.85354641351000E+02 0.29378500009671E+00
 0.31035035245000E+02 0.67401604501641E+00
 s    2 1.00
 0.12260860728000E+02 0.63839937025506E+00
 0.49987076005000E+01 0.39534587125718E+00
 s    1 1.00
 0.11703108158000E+01 0.10000000000000E+01
 s    1 1.00
 0.46474740994000E+00 0.10000000000000E+01
 s    1 1.00
 0.18504536357000E+00 0.10000000000000E+01
 s    1 1.00
 0.70288026270000E-01 0.10000000000000E+01
 p    4 1.00
 0.63274954801000E+02 0.12018332222616E-01
 0.14627049379000E+02 0.83005421790056E-01
 0.44501223456000E+01 0.31991743925964E+00
 0.15275799647000E+01 0.70715542916104E+00
 p    1 1.00
 0.52935117943000E+00 0.10000000000000E+01
 p    1 1.00
 0.17478421270000E+00 0.10000000000000E+01
 p    1 1.00
 0.51112745706000E-01 0.10000000000000E+01
 d    1 1.00
 0.23140000000000E+01 0.10000000000000E+01
 d    1 1.00
 0.64500000000000E+00 0.10000000000000E+01
 d    1 1.00
 0.14696477366000E+00 0.10000000000000E+01
 f    1 1.00
 0.14280000000000E+01 0.10000000000000E+01
 
   14 0
 s    6 1.00
 0.19730800647000E+05 0.58626402628763E-03
 0.29578958745000E+04 0.45428820586397E-02
 0.67322133595000E+03 0.23558413450084E-01
 0.19068249494000E+03 0.94709193292923E-01
 0.62295441898000E+02 0.29719784913376E+00
 0.22654161182000E+02 0.66916246895232E+00
 s    2 1.00
 0.89791477428000E+01 0.64596683630063E+00
 0.36863002370000E+01 0.38700574393705E+00
 s    1 1.00
 0.84660076805000E+00 0.10000000000000E+01
 s    1 1.00
 0.33647133771000E+00 0.10000000000000E+01
 s    1 1.00
 0.13647653675000E+00 0.10000000000000E+01
 s    1 1.00
 0.68441605847000E-01 0.10000000000000E+01
 p    4 1.00
 0.49200380510000E+02 0.11448825101764E-01
 0.11346790537000E+02 0.78422337970864E-01
 0.34273972411000E+01 0.30818094738830E+00
 0.11785525134000E+01 0.72027196368413E+00
 p    1 1.00
 0.41642204972000E+00 0.10000000000000E+01
 p    1 1.00
 0.14260826011000E+00 0.10000000000000E+01
 d    1 1.00
 0.16540000000000E+01 0.10000000000000E+01
 d    1 1.00
 0.46900000000000E+00 0.10000000000000E+01
 d    1 1.00
 0.12829642058000E+00 0.10000000000000E+01
 f    1 1.00
 0.10930000000000E+01 0.10000000000000E+01
 
   15 0
 s    3 1.00
 0.34061341000000E+02 0.25439307208879E-01
 0.51235746000000E+01 0.19008594890375E+00
 0.11646626000000E+01 0.85244113011042E+00
 s    1 1.00
 0.32723041000000E+00 0.10000000000000E+01
 s    1 1.00
 0.10307241000000E+00 0.10000000000000E+01
 p    1 1.00
 0.80000000000000E+00 0.10000000000000E+01
 p    1 1.00
 0.95774129632000E-01 0.10000000000000E+01
 
   16 0
 s    3 1.00
 0.34061341000000E+02 0.25439307208879E-01
 0.51235746000000E+01 0.19008594890375E+00
 0.11646626000000E+01 0.85244113011042E+00
 s    1 1.00
 0.32723041000000E+00 0.10000000000000E+01
 s    1 1.00
 0.10307241000000E+00 0.10000000000000E+01
 p    1 1.00
 0.80000000000000E+00 0.10000000000000E+01
 p    1 1.00
 0.95774129632000E-01 0.10000000000000E+01
 
[MO]
 Sym= X
 Ene= -0.896865
 Spin= Alpha
 Occup= -0.896865
         1   -9.606370E-06
         2   -2.191938E-05
         3    4.957137E-05
         4   -2.993604E-05
         5   -2.203267E-03
         6   -2.707859E-04
         7   -7.030523E-05
         8   -8.749769E-05
         9   -6.986028E-02
        10   -1.361115E-04
        11   -6.444709E-05
        12   -7.002495E-02
        13    4.731587E-04
        14   -1.406504E-03
        15   -4.964738E-02
        16   -3.023309E-06
        17    1.647303E-06
        18    1.376006E-06
        19    2.326971E-06
        20   -1.606609E-03
        21   -2.432127E-04
        22   -1.757081E-05
        23    1.005777E-05
        24    7.513033E-06
        25    1.129668E-05
        26   -1.900013E-03
        27   -1.973110E-04
        28   -5.235245E-05
        29    4.509886E-05
        30    7.253586E-06
        31    5.287824E-05
        32    2.243320E-03
        33   -3.149275E-03
        34   -1.578366E-06
        35   -2.986053E-07
        36    4.979695E-04
        37    2.659589E-07
        38   -4.178782E-08
        39   -5.821354E-04
        40    1.851641E-06
        41    4.424088E-07
        42   -8.596077E-05
        43    5.642732E-05
        44    6.325153E-07
        45    1.445185E-06
        46   -3.035131E-06
        47   -1.356240E-05
        48    8.190873E-04
        49    9.214122E-05
        50    7.265293E-06
        51    5.582832E-05
        52    5.909291E-06
        53    3.296545E-06
        54    3.312274E-05
        55    9.450009E-06
        56    3.271360E-04
        57   -1.828615E-03
        58    3.511271E-05
        59   -3.213436E-07
        60    2.087871E-07
        61    1.125565E-07
        62    5.766684E-06
        63    1.214053E-07
        64    3.312470E-03
        65    5.795065E-07
        66    1.374885E-06
        67   -1.954391E-06
        68    1.699686E-05
        69    7.213411E-07
        70    5.839288E-03
        71   -8.588081E-06
        72    2.135020E-05
        73   -1.276212E-05
        74   -1.576494E-06
        75    6.363953E-06
        76   -5.345896E-03
        77   -2.694213E-08
        78   -2.775963E-07
        79   -1.097188E-07
        80    8.144233E-09
        81    4.179463E-07
        82    7.201571E-08
        83    2.800242E-08
        84   -4.551185E-08
        85    7.518757E-08
        86    2.296144E-04
        87    9.300089E-06
        88    2.123122E-05
        89   -4.754837E-05
        90    3.598292E-05
        91    7.346271E-04
        92    1.698822E-04
        93    6.644066E-05
        94   -9.056973E-05
        95    6.987203E-02
        96    1.227248E-04
        97   -6.176375E-05
        98    7.003592E-02
        99   -8.492104E-04
       100   -7.245076E-04
       101    4.958305E-02
       102    2.993905E-06
       103   -1.487990E-06
       104   -1.505914E-06
       105    2.221796E-06
       106    1.607053E-03
       107   -2.436071E-04
       108    1.228913E-05
       109   -6.521341E-06
       110   -5.767785E-06
       111    9.493936E-06
       112    1.900563E-03
       113   -1.963075E-04
       114    5.668223E-05
       115   -6.292052E-05
       116    6.238295E-06
       117    8.468557E-05
       118   -2.257067E-03
       119   -3.130896E-03
       120    1.533097E-06
       121   -3.250131E-07
       122   -4.980880E-04
       123   -3.247662E-07
       124    1.029811E-07
       125    5.822752E-04
       126   -1.732099E-06
       127    3.330697E-07
       128    8.598006E-05
       129    5.639099E-05
       130   -5.523358E-06
       131   -1.288051E-05
       132    4.086516E-05
       133   -1.508202E-04
       134   -5.055062E-04
       135   -2.468123E-04
       136    3.446661E-05
       137    5.486879E-05
       138    7.034979E-02
       139    5.465982E-05
       140    9.160841E-05
       141    7.186189E-02
       142   -1.026416E-03
       143    7.833642E-04
       144    4.636959E-02
       145   -4.319529E-06
       146   -2.142266E-07
       147    4.533756E-06
       148    4.560744E-06
       149   -1.676149E-03
       150   -1.769106E-04
       151   -2.872859E-05
       152    3.259091E-06
       153    2.546950E-05
       154    2.584528E-05
       155   -3.488306E-03
       156   -1.909235E-04
       157   -2.702283E-04
       158    2.417632E-04
       159    2.846509E-05
       160    1.060405E-04
       161   -1.017595E-04
       162    1.343997E-03
       163    1.478354E-06
       164    4.104074E-07
       165   -4.686069E-04
       166   -1.024172E-06
       167    2.342105E-07
       168    5.387159E-04
       169   -9.592481E-07
       170   -7.848298E-07
       171    8.998624E-05
       172   -7.309427E-06
       173    3.878991E-07
       174    8.274786E-07
       175    1.039834E-06
       176   -4.729028E-06
       177   -1.148007E-03
       178   -9.624388E-05
       179   -6.075018E-07
       180   -7.820669E-05
       181   -5.782811E-07
       182    3.743294E-06
       183   -4.681787E-05
       184   -2.921112E-06
       185    4.235720E-04
       186    2.400373E-03
       187   -6.483079E-06
       188    2.179285E-08
       189    2.508412E-08
       190   -4.687697E-08
       191   -6.480878E-06
       192   -9.640588E-07
       193    2.604081E-03
       194   -3.969161E-07
       195   -2.238289E-06
       196    2.635205E-06
       197   -4.116441E-05
       198   -1.189651E-06
       199    5.687887E-03
       200    2.227648E-06
       201   -2.585425E-05
       202    2.362660E-05
       203   -3.367475E-05
       204    5.549984E-07
       205   -5.699716E-04
       206   -6.315193E-08
       207    1.712205E-06
       208    7.461214E-08
       209    9.666812E-08
       210   -1.671307E-06
       211   -1.638367E-07
       212   -1.194091E-08
       213   -6.258560E-07
       214    6.373401E-08
       215   -4.217534E-04
       216    5.941293E-06
       217    1.376593E-05
       218   -4.424081E-05
       219    1.528315E-04
       220    2.346111E-03
       221    3.509699E-04
       222   -3.234064E-05
       223    5.437084E-05
       224   -7.033164E-02
       225   -6.259844E-05
       226    1.024078E-04
       227   -7.184244E-02
       228    7.604998E-04
       229    1.571776E-03
       230   -4.629733E-02
       231    4.171507E-06
       232    1.971725E-07
       233   -4.368679E-06
       234    4.483009E-06
       235    1.675929E-03
       236   -1.768405E-04
       237    3.203755E-05
       238   -3.924004E-06
       239   -2.811354E-05
       240    2.833283E-05
       241    3.487835E-03
       242   -1.892779E-04
       243    2.451393E-04
       244   -1.942634E-04
       245   -5.087584E-05
       246    7.725854E-05
       247    9.359788E-05
       248    1.352586E-03
       249   -1.529171E-06
       250    4.464329E-07
       251    4.685125E-04
       252    1.065255E-06
       253    3.064497E-07
       254   -5.386780E-04
       255    9.863430E-07
       256   -9.054023E-07
       257   -8.989749E-05
       258   -7.272323E-06
       259    3.203775E-05
       260    4.736310E-05
       261   -6.222408E-04
       262   -8.013058E-07
       263    2.184684E-06
       264   -3.165001E-03
       265   -1.916393E-04
       266   -2.160853E-05
       267   -3.001204E-03
       268   -3.111723E-05
       269   -5.746076E-05
       270    3.584348E-04
       271    2.714378E-07
       272    2.899347E-06
       273    3.165255E-03
       274    1.646306E-04
       275    2.910412E-05
       276    2.984452E-03
       277    1.741748E-05
       278    3.759963E-05
       279   -6.151213E-04
       280    1.622181E-06
       281    7.700787E-07
       282    2.989543E-03
       283    4.095389E-04
       284   -8.914332E-05
       285    1.138930E-03
       286   -1.704405E-05
       287   -3.149191E-05
       288    8.323124E-04
       289   -1.902936E-06
       290    1.570562E-06
       291   -2.988861E-03
       292   -4.225989E-04
       293   -2.223744E-05
       294   -1.136182E-03
       295    2.018250E-07
       296    4.662511E-07
       297   -7.997011E-07
       298    2.596691E-06
       299    6.159440E-05
       300   -6.981587E-05
       301   -6.087719E-06
       302   -8.799272E-06
       303   -8.777153E-07
       304   -7.061158E-06
       305   -8.604656E-06
       306   -6.624193E-07
       307   -1.825691E-05
       308    2.662256E-04
       309   -2.745353E-07
       310   -5.251201E-07
       311    5.832591E-07
       312   -5.813900E-08
       313    2.476267E-05
       314    1.097853E-07
       315    1.105199E-02
       316   -2.754106E-06
       317    2.270354E-06
       318    4.837524E-07
       319    7.550744E-05
       320    2.115641E-07
       321    3.228491E-02
       322    6.973516E-06
       323   -1.110372E-05
       324    4.130201E-06
       325    2.915306E-05
       326   -2.192130E-06
       327    8.067904E-04
       328   -8.309298E-09
       329   -1.671653E-07
       330    8.528644E-09
       331   -9.940263E-09
       332   -6.824889E-06
       333    1.226757E-08
       334    2.108836E-08
       335    7.049165E-06
       336   -2.370994E-08
       337   -1.881160E-03
       338    2.661209E-07
       339    7.384340E-07
       340   -2.530946E-06
       341    8.826042E-06
       342   -8.257707E-05
       343    2.851627E-05
       344    6.641369E-04
       345    1.336457E-05
       346    3.009325E-01
       347    6.086675E-04
       348    1.073127E-05
       349    2.759853E-01
       350    4.161320E-04
       351    4.091906E-05
       352    2.044472E-01
       353    6.674177E-05
       354    1.143695E-07
       355    2.888512E-02
       356    6.264812E-06
       357   -2.323163E-07
       358   -6.032496E-06
       359   -5.342825E-06
       360    1.623819E-03
       361   -2.464285E-03
       362    1.924177E-05
       363   -4.197915E-07
       364   -1.882198E-05
       365   -1.723872E-05
       366    5.204424E-03
       367   -8.295639E-03
       368    1.321960E-05
       369    9.102841E-07
       370   -1.412989E-05
       371   -6.972143E-06
       372    4.591431E-03
       373   -6.629523E-03
       374   -2.478502E-07
       375    3.219481E-08
       376   -4.601248E-04
       377    1.433003E-06
       378   -3.080737E-06
       379   -5.951928E-05
       380   -1.100477E-06
       381    3.037543E-06
       382    6.768415E-04
       383   -8.173311E-04
       384    3.739719E-08
       385    2.574218E-08
       386    9.772632E-07
       387   -1.090046E-05
       388    9.127403E-05
       389   -8.482782E-06
       390   -6.312744E-04
       391    1.228236E-05
       392   -3.009363E-01
       393   -5.800231E-04
       394    9.308847E-06
       395   -2.759886E-01
       396   -3.906375E-04
       397    2.256232E-05
       398   -2.044518E-01
       399   -6.421645E-05
       400    1.212070E-06
       401   -2.888626E-02
       402   -6.134235E-06
       403    3.050826E-07
       404    5.829152E-06
       405   -5.043848E-06
       406   -1.623848E-03
       407   -2.464326E-03
       408   -1.859711E-05
       409   -1.179522E-07
       410    1.871506E-05
       411   -1.730311E-05
       412   -5.204615E-03
       413   -8.295848E-03
       414   -1.017242E-05
       415   -5.296784E-06
       416    1.546920E-05
       417   -9.171339E-06
       418   -4.591752E-03
       419   -6.630210E-03
       420    2.853338E-07
       421   -1.437197E-08
       422    4.601347E-04
       423   -1.354389E-06
       424   -3.008910E-06
       425    5.951969E-05
       426    9.715737E-07
       427    3.028192E-06
       428   -6.768552E-04
       429   -8.173491E-04
       430   -5.309429E-07
       431   -1.269238E-06
       432    1.886311E-06
       433    2.293921E-06
       434   -2.633340E-05
       435    4.287194E-05
       436    1.703709E-06
       437   -2.691082E-04
       438   -2.805655E-05
       439    2.158905E-06
       440   -4.028778E-04
       441   -2.737442E-05
       442   -1.043263E-05
       443   -6.196999E-04
       444   -2.156242E-05
       445    1.419904E-08
       446    9.339782E-09
       447   -2.353882E-08
       448    8.001454E-06
       449    8.298387E-08
       450    1.062498E-04
       451    1.608232E-07
       452    2.330329E-07
       453   -3.938561E-07
       454   -4.096787E-05
       455    1.860878E-07
       456    1.806138E-04
       457    5.800979E-06
       458   -1.702969E-07
       459   -5.630683E-06
       460   -2.406694E-04
       461    5.404499E-07
       462   -4.069247E-04
       463    3.521296E-09
       464   -1.658251E-06
       465    1.329273E-07
       466    1.450678E-08
       467   -4.918939E-06
       468   -1.041220E-07
       469   -1.923110E-08
       470    7.143717E-06
       471   -7.421873E-08
       472   -4.505717E-05
       473    2.607421E-05
       474    3.145632E-04
       475    9.486448E-04
       476   -2.892754E-05
       477   -4.635658E-05
       478    1.354138E-04
       479    6.402730E-05
       480   -3.071913E-04
       481    5.599934E-04
       482   -2.763217E-05
       483   -3.195702E-04
       484   -9.661274E-04
       485    2.963558E-05
       486   -4.691854E-05
       487   -1.380345E-04
       488   -6.971441E-05
       489   -3.143532E-04
       490   -5.605258E-04
 Sym= X
 Ene= 0.896865
 Spin= Alpha
 Occup= 0.896865
         1    3.451444E-05
         2    7.416396E-05
         3    5.084197E-05
         4   -5.476130E-06
         5    1.605033E-01
         6    1.725952E-01
         7    2.128825E-04
         8    1.671954E-04
         9   -1.014776E-01
        10   -2.419429E-03
        11    2.138173E-03
        12   -1.053741E-01
        13    3.976541E-02
        14   -1.198111E-01
        15   -8.985195E-02
        16   -7.266862E-05
        17    8.294725E-05
        18   -1.027863E-05
        19    4.364487E-05
        20   -4.627950E-04
        21   -2.190744E-04
        22    2.985914E-06
        23    5.428908E-05
        24   -5.727499E-05
        25   -8.047286E-04
        26    5.697313E-04
        27    3.043276E-03
        28    1.681152E-02
        29   -2.134515E-02
        30    4.533630E-03
        31   -2.248429E-02
        32    5.273918E-02
        33   -2.210366E-02
        34   -1.731119E-05
        35   -2.996361E-06
        36    1.514025E-04
        37    1.453627E-05
        38    1.949410E-05
        39    5.772878E-05
        40    8.689133E-06
        41   -1.547406E-05
        42   -2.608565E-04
        43   -1.896927E-04
        44    1.033189E-04
        45    2.354760E-04
        46    1.330118E-04
        47   -4.333654E-03
        48    9.222511E-02
        49   -3.094039E-01
        50    8.553173E-04
        51   -8.362664E-07
        52    3.259666E-02
        53    5.178754E-05
        54    4.230943E-05
        55    2.833974E-02
        56    1.847941E-01
        57    8.779401E-04
        58    1.907012E-01
        59    3.610955E-05
        60   -1.556951E-05
        61   -2.054004E-05
        62   -1.615581E-08