[Molden Format]
[Title]
ADC(2) - opt by CAM-B3LYP gaussian                                              
[Atoms] AU
 c     1    6 -.12588573623097E+01 -.22835126974190E+01 -.24083260376910E-01
 c     2    6 -.25578815622211E+01 0.23621577000000E-06 -.22837930855340E-01
 c     3    6 -.12588573623097E+01 0.22835131698505E+01 -.24090819281440E-01
 c     4    6 0.13318248850473E+01 0.22853065199506E+01 -.26003222127920E-01
 c     5    6 0.26868737956204E+01 0.23621577000000E-06 -.25389061134730E-01
 c     6    6 0.13318248850473E+01 -.22853060475191E+01 -.25993773497260E-01
 h     7    1 -.22974546243959E+01 -.40385977330627E+01 -.21598270512170E-01
 h     8    1 -.22974527346698E+01 0.40385982054942E+01 -.21613388321230E-01
 h     9    1 0.23510089905703E+01 0.40574312161345E+01 -.28191524989800E-01
 h    10    1 0.23510071008442E+01 -.40574307437030E+01 -.28172627728480E-01
 n    11    7 -.52726375582849E+01 0.23621577000000E-06 -.17238672323600E-01
 o    12    8 -.63813946825068E+01 0.20269261555273E+01 -.14842499587100E-01
 o    13    8 -.63813927927806E+01 -.20269275728219E+01 -.14865176300690E-01
 n    14    7 0.52430742102305E+01 0.23621577000000E-06 -.67376886081320E-01
 h    15    1 0.62051583509223E+01 0.16177513148781E+01 0.18115044628513E+00
 h    16    1 0.62051564611962E+01 -.16177527321727E+01 0.18114666683287E+00
[GTO]
    1 0
 s    6 1.00
 0.13575349682000E+05 0.60645503603591E-03
 0.20352333680000E+04 0.46979088884982E-02
 0.46322562359000E+03 0.24332477647552E-01
 0.13120019598000E+03 0.97399968307759E-01
 0.42853015891000E+02 0.30195584253780E+00
 0.15584185766000E+02 0.66233609137875E+00
 s    2 1.00
 0.62067138508000E+01 0.65595308539952E+00
 0.25764896527000E+01 0.37585633285142E+00
 s    1 1.00
 0.57696339419000E+00 0.10000000000000E+01
 s    1 1.00
 0.22972831358000E+00 0.10000000000000E+01
 s    1 1.00
 0.95164440028000E-01 0.10000000000000E+01
 s    1 1.00
 0.48475401370000E-01 0.10000000000000E+01
 p    4 1.00
 0.34697232244000E+02 0.11327220003114E-01
 0.79582622826000E+01 0.76169659202087E-01
 0.23780826883000E+01 0.30192252202676E+00
 0.81433208183000E+00 0.72785027349547E+00
 p    1 1.00
 0.28887547253000E+00 0.10000000000000E+01
 p    1 1.00
 0.10056823671000E+00 0.10000000000000E+01
 d    1 1.00
 0.10970000000000E+01 0.10000000000000E+01
 d    1 1.00
 0.31800000000000E+00 0.10000000000000E+01
 d    1 1.00
 0.90985336424000E-01 0.10000000000000E+01
 f    1 1.00
 0.76100000000000E+00 0.10000000000000E+01
 
    2 0
 s    6 1.00
 0.13575349682000E+05 0.60645503603591E-03
 0.20352333680000E+04 0.46979088884982E-02
 0.46322562359000E+03 0.24332477647552E-01
 0.13120019598000E+03 0.97399968307759E-01
 0.42853015891000E+02 0.30195584253780E+00
 0.15584185766000E+02 0.66233609137875E+00
 s    2 1.00
 0.62067138508000E+01 0.65595308539952E+00
 0.25764896527000E+01 0.37585633285142E+00
 s    1 1.00
 0.57696339419000E+00 0.10000000000000E+01
 s    1 1.00
 0.22972831358000E+00 0.10000000000000E+01
 s    1 1.00
 0.95164440028000E-01 0.10000000000000E+01
 s    1 1.00
 0.48475401370000E-01 0.10000000000000E+01
 p    4 1.00
 0.34697232244000E+02 0.11327220003114E-01
 0.79582622826000E+01 0.76169659202087E-01
 0.23780826883000E+01 0.30192252202676E+00
 0.81433208183000E+00 0.72785027349547E+00
 p    1 1.00
 0.28887547253000E+00 0.10000000000000E+01
 p    1 1.00
 0.10056823671000E+00 0.10000000000000E+01
 d    1 1.00
 0.10970000000000E+01 0.10000000000000E+01
 d    1 1.00
 0.31800000000000E+00 0.10000000000000E+01
 d    1 1.00
 0.90985336424000E-01 0.10000000000000E+01
 f    1 1.00
 0.76100000000000E+00 0.10000000000000E+01
 
    3 0
 s    6 1.00
 0.13575349682000E+05 0.60645503603591E-03
 0.20352333680000E+04 0.46979088884982E-02
 0.46322562359000E+03 0.24332477647552E-01
 0.13120019598000E+03 0.97399968307759E-01
 0.42853015891000E+02 0.30195584253780E+00
 0.15584185766000E+02 0.66233609137875E+00
 s    2 1.00
 0.62067138508000E+01 0.65595308539952E+00
 0.25764896527000E+01 0.37585633285142E+00
 s    1 1.00
 0.57696339419000E+00 0.10000000000000E+01
 s    1 1.00
 0.22972831358000E+00 0.10000000000000E+01
 s    1 1.00
 0.95164440028000E-01 0.10000000000000E+01
 s    1 1.00
 0.48475401370000E-01 0.10000000000000E+01
 p    4 1.00
 0.34697232244000E+02 0.11327220003114E-01
 0.79582622826000E+01 0.76169659202087E-01
 0.23780826883000E+01 0.30192252202676E+00
 0.81433208183000E+00 0.72785027349547E+00
 p    1 1.00
 0.28887547253000E+00 0.10000000000000E+01
 p    1 1.00
 0.10056823671000E+00 0.10000000000000E+01
 d    1 1.00
 0.10970000000000E+01 0.10000000000000E+01
 d    1 1.00
 0.31800000000000E+00 0.10000000000000E+01
 d    1 1.00
 0.90985336424000E-01 0.10000000000000E+01
 f    1 1.00
 0.76100000000000E+00 0.10000000000000E+01
 
    4 0
 s    6 1.00
 0.13575349682000E+05 0.60645503603591E-03
 0.20352333680000E+04 0.46979088884982E-02
 0.46322562359000E+03 0.24332477647552E-01
 0.13120019598000E+03 0.97399968307759E-01
 0.42853015891000E+02 0.30195584253780E+00
 0.15584185766000E+02 0.66233609137875E+00
 s    2 1.00
 0.62067138508000E+01 0.65595308539952E+00
 0.25764896527000E+01 0.37585633285142E+00
 s    1 1.00
 0.57696339419000E+00 0.10000000000000E+01
 s    1 1.00
 0.22972831358000E+00 0.10000000000000E+01
 s    1 1.00
 0.95164440028000E-01 0.10000000000000E+01
 s    1 1.00
 0.48475401370000E-01 0.10000000000000E+01
 p    4 1.00
 0.34697232244000E+02 0.11327220003114E-01
 0.79582622826000E+01 0.76169659202087E-01
 0.23780826883000E+01 0.30192252202676E+00
 0.81433208183000E+00 0.72785027349547E+00
 p    1 1.00
 0.28887547253000E+00 0.10000000000000E+01
 p    1 1.00
 0.10056823671000E+00 0.10000000000000E+01
 d    1 1.00
 0.10970000000000E+01 0.10000000000000E+01
 d    1 1.00
 0.31800000000000E+00 0.10000000000000E+01
 d    1 1.00
 0.90985336424000E-01 0.10000000000000E+01
 f    1 1.00
 0.76100000000000E+00 0.10000000000000E+01
 
    5 0
 s    6 1.00
 0.13575349682000E+05 0.60645503603591E-03
 0.20352333680000E+04 0.46979088884982E-02
 0.46322562359000E+03 0.24332477647552E-01
 0.13120019598000E+03 0.97399968307759E-01
 0.42853015891000E+02 0.30195584253780E+00
 0.15584185766000E+02 0.66233609137875E+00
 s    2 1.00
 0.62067138508000E+01 0.65595308539952E+00
 0.25764896527000E+01 0.37585633285142E+00
 s    1 1.00
 0.57696339419000E+00 0.10000000000000E+01
 s    1 1.00
 0.22972831358000E+00 0.10000000000000E+01
 s    1 1.00
 0.95164440028000E-01 0.10000000000000E+01
 s    1 1.00
 0.48475401370000E-01 0.10000000000000E+01
 p    4 1.00
 0.34697232244000E+02 0.11327220003114E-01
 0.79582622826000E+01 0.76169659202087E-01
 0.23780826883000E+01 0.30192252202676E+00
 0.81433208183000E+00 0.72785027349547E+00
 p    1 1.00
 0.28887547253000E+00 0.10000000000000E+01
 p    1 1.00
 0.10056823671000E+00 0.10000000000000E+01
 d    1 1.00
 0.10970000000000E+01 0.10000000000000E+01
 d    1 1.00
 0.31800000000000E+00 0.10000000000000E+01
 d    1 1.00
 0.90985336424000E-01 0.10000000000000E+01
 f    1 1.00
 0.76100000000000E+00 0.10000000000000E+01
 
    6 0
 s    6 1.00
 0.13575349682000E+05 0.60645503603591E-03
 0.20352333680000E+04 0.46979088884982E-02
 0.46322562359000E+03 0.24332477647552E-01
 0.13120019598000E+03 0.97399968307759E-01
 0.42853015891000E+02 0.30195584253780E+00
 0.15584185766000E+02 0.66233609137875E+00
 s    2 1.00
 0.62067138508000E+01 0.65595308539952E+00
 0.25764896527000E+01 0.37585633285142E+00
 s    1 1.00
 0.57696339419000E+00 0.10000000000000E+01
 s    1 1.00
 0.22972831358000E+00 0.10000000000000E+01
 s    1 1.00
 0.95164440028000E-01 0.10000000000000E+01
 s    1 1.00
 0.48475401370000E-01 0.10000000000000E+01
 p    4 1.00
 0.34697232244000E+02 0.11327220003114E-01
 0.79582622826000E+01 0.76169659202087E-01
 0.23780826883000E+01 0.30192252202676E+00
 0.81433208183000E+00 0.72785027349547E+00
 p    1 1.00
 0.28887547253000E+00 0.10000000000000E+01
 p    1 1.00
 0.10056823671000E+00 0.10000000000000E+01
 d    1 1.00
 0.10970000000000E+01 0.10000000000000E+01
 d    1 1.00
 0.31800000000000E+00 0.10000000000000E+01
 d    1 1.00
 0.90985336424000E-01 0.10000000000000E+01
 f    1 1.00
 0.76100000000000E+00 0.10000000000000E+01
 
    7 0
 s    3 1.00
 0.34061341000000E+02 0.25439307208879E-01
 0.51235746000000E+01 0.19008594890375E+00
 0.11646626000000E+01 0.85244113011042E+00
 s    1 1.00
 0.32723041000000E+00 0.10000000000000E+01
 s    1 1.00
 0.10307241000000E+00 0.10000000000000E+01
 p    1 1.00
 0.80000000000000E+00 0.10000000000000E+01
 p    1 1.00
 0.95774129632000E-01 0.10000000000000E+01
 
    8 0
 s    3 1.00
 0.34061341000000E+02 0.25439307208879E-01
 0.51235746000000E+01 0.19008594890375E+00
 0.11646626000000E+01 0.85244113011042E+00
 s    1 1.00
 0.32723041000000E+00 0.10000000000000E+01
 s    1 1.00
 0.10307241000000E+00 0.10000000000000E+01
 p    1 1.00
 0.80000000000000E+00 0.10000000000000E+01
 p    1 1.00
 0.95774129632000E-01 0.10000000000000E+01
 
    9 0
 s    3 1.00
 0.34061341000000E+02 0.25439307208879E-01
 0.51235746000000E+01 0.19008594890375E+00
 0.11646626000000E+01 0.85244113011042E+00
 s    1 1.00
 0.32723041000000E+00 0.10000000000000E+01
 s    1 1.00
 0.10307241000000E+00 0.10000000000000E+01
 p    1 1.00
 0.80000000000000E+00 0.10000000000000E+01
 p    1 1.00
 0.95774129632000E-01 0.10000000000000E+01
 
   10 0
 s    3 1.00
 0.34061341000000E+02 0.25439307208879E-01
 0.51235746000000E+01 0.19008594890375E+00
 0.11646626000000E+01 0.85244113011042E+00
 s    1 1.00
 0.32723041000000E+00 0.10000000000000E+01
 s    1 1.00
 0.10307241000000E+00 0.10000000000000E+01
 p    1 1.00
 0.80000000000000E+00 0.10000000000000E+01
 p    1 1.00
 0.95774129632000E-01 0.10000000000000E+01
 
   11 0
 s    6 1.00
 0.19730800647000E+05 0.58626402628763E-03
 0.29578958745000E+04 0.45428820586397E-02
 0.67322133595000E+03 0.23558413450084E-01
 0.19068249494000E+03 0.94709193292923E-01
 0.62295441898000E+02 0.29719784913376E+00
 0.22654161182000E+02 0.66916246895232E+00
 s    2 1.00
 0.89791477428000E+01 0.64596683630063E+00
 0.36863002370000E+01 0.38700574393705E+00
 s    1 1.00
 0.84660076805000E+00 0.10000000000000E+01
 s    1 1.00
 0.33647133771000E+00 0.10000000000000E+01
 s    1 1.00
 0.13647653675000E+00 0.10000000000000E+01
 s    1 1.00
 0.68441605847000E-01 0.10000000000000E+01
 p    4 1.00
 0.49200380510000E+02 0.11448825101764E-01
 0.11346790537000E+02 0.78422337970864E-01
 0.34273972411000E+01 0.30818094738830E+00
 0.11785525134000E+01 0.72027196368413E+00
 p    1 1.00
 0.41642204972000E+00 0.10000000000000E+01
 p    1 1.00
 0.14260826011000E+00 0.10000000000000E+01
 d    1 1.00
 0.16540000000000E+01 0.10000000000000E+01
 d    1 1.00
 0.46900000000000E+00 0.10000000000000E+01
 d    1 1.00
 0.12829642058000E+00 0.10000000000000E+01
 f    1 1.00
 0.10930000000000E+01 0.10000000000000E+01
 
   12 0
 s    6 1.00
 0.27032382631000E+05 0.57227335211155E-03
 0.40523871392000E+04 0.44353233492995E-02
 0.92232722710000E+03 0.23020107706038E-01
 0.26124070989000E+03 0.92822490667928E-01
 0.85354641351000E+02 0.29378500009671E+00
 0.31035035245000E+02 0.67401604501641E+00
 s    2 1.00
 0.12260860728000E+02 0.63839937025506E+00
 0.49987076005000E+01 0.39534587125718E+00
 s    1 1.00
 0.11703108158000E+01 0.10000000000000E+01
 s    1 1.00
 0.46474740994000E+00 0.10000000000000E+01
 s    1 1.00
 0.18504536357000E+00 0.10000000000000E+01
 s    1 1.00
 0.70288026270000E-01 0.10000000000000E+01
 p    4 1.00
 0.63274954801000E+02 0.12018332222616E-01
 0.14627049379000E+02 0.83005421790056E-01
 0.44501223456000E+01 0.31991743925964E+00
 0.15275799647000E+01 0.70715542916104E+00
 p    1 1.00
 0.52935117943000E+00 0.10000000000000E+01
 p    1 1.00
 0.17478421270000E+00 0.10000000000000E+01
 p    1 1.00
 0.51112745706000E-01 0.10000000000000E+01
 d    1 1.00
 0.23140000000000E+01 0.10000000000000E+01
 d    1 1.00
 0.64500000000000E+00 0.10000000000000E+01
 d    1 1.00
 0.14696477366000E+00 0.10000000000000E+01
 f    1 1.00
 0.14280000000000E+01 0.10000000000000E+01
 
   13 0
 s    6 1.00
 0.27032382631000E+05 0.57227335211155E-03
 0.40523871392000E+04 0.44353233492995E-02
 0.92232722710000E+03 0.23020107706038E-01
 0.26124070989000E+03 0.92822490667928E-01
 0.85354641351000E+02 0.29378500009671E+00
 0.31035035245000E+02 0.67401604501641E+00
 s    2 1.00
 0.12260860728000E+02 0.63839937025506E+00
 0.49987076005000E+01 0.39534587125718E+00
 s    1 1.00
 0.11703108158000E+01 0.10000000000000E+01
 s    1 1.00
 0.46474740994000E+00 0.10000000000000E+01
 s    1 1.00
 0.18504536357000E+00 0.10000000000000E+01
 s    1 1.00
 0.70288026270000E-01 0.10000000000000E+01
 p    4 1.00
 0.63274954801000E+02 0.12018332222616E-01
 0.14627049379000E+02 0.83005421790056E-01
 0.44501223456000E+01 0.31991743925964E+00
 0.15275799647000E+01 0.70715542916104E+00
 p    1 1.00
 0.52935117943000E+00 0.10000000000000E+01
 p    1 1.00
 0.17478421270000E+00 0.10000000000000E+01
 p    1 1.00
 0.51112745706000E-01 0.10000000000000E+01
 d    1 1.00
 0.23140000000000E+01 0.10000000000000E+01
 d    1 1.00
 0.64500000000000E+00 0.10000000000000E+01
 d    1 1.00
 0.14696477366000E+00 0.10000000000000E+01
 f    1 1.00
 0.14280000000000E+01 0.10000000000000E+01
 
   14 0
 s    6 1.00
 0.19730800647000E+05 0.58626402628763E-03
 0.29578958745000E+04 0.45428820586397E-02
 0.67322133595000E+03 0.23558413450084E-01
 0.19068249494000E+03 0.94709193292923E-01
 0.62295441898000E+02 0.29719784913376E+00
 0.22654161182000E+02 0.66916246895232E+00
 s    2 1.00
 0.89791477428000E+01 0.64596683630063E+00
 0.36863002370000E+01 0.38700574393705E+00
 s    1 1.00
 0.84660076805000E+00 0.10000000000000E+01
 s    1 1.00
 0.33647133771000E+00 0.10000000000000E+01
 s    1 1.00
 0.13647653675000E+00 0.10000000000000E+01
 s    1 1.00
 0.68441605847000E-01 0.10000000000000E+01
 p    4 1.00
 0.49200380510000E+02 0.11448825101764E-01
 0.11346790537000E+02 0.78422337970864E-01
 0.34273972411000E+01 0.30818094738830E+00
 0.11785525134000E+01 0.72027196368413E+00
 p    1 1.00
 0.41642204972000E+00 0.10000000000000E+01
 p    1 1.00
 0.14260826011000E+00 0.10000000000000E+01
 d    1 1.00
 0.16540000000000E+01 0.10000000000000E+01
 d    1 1.00
 0.46900000000000E+00 0.10000000000000E+01
 d    1 1.00
 0.12829642058000E+00 0.10000000000000E+01
 f    1 1.00
 0.10930000000000E+01 0.10000000000000E+01
 
   15 0
 s    3 1.00
 0.34061341000000E+02 0.25439307208879E-01
 0.51235746000000E+01 0.19008594890375E+00
 0.11646626000000E+01 0.85244113011042E+00
 s    1 1.00
 0.32723041000000E+00 0.10000000000000E+01
 s    1 1.00
 0.10307241000000E+00 0.10000000000000E+01
 p    1 1.00
 0.80000000000000E+00 0.10000000000000E+01
 p    1 1.00
 0.95774129632000E-01 0.10000000000000E+01
 
   16 0
 s    3 1.00
 0.34061341000000E+02 0.25439307208879E-01
 0.51235746000000E+01 0.19008594890375E+00
 0.11646626000000E+01 0.85244113011042E+00
 s    1 1.00
 0.32723041000000E+00 0.10000000000000E+01
 s    1 1.00
 0.10307241000000E+00 0.10000000000000E+01
 p    1 1.00
 0.80000000000000E+00 0.10000000000000E+01
 p    1 1.00
 0.95774129632000E-01 0.10000000000000E+01
 
[MO]
 Sym= X
 Ene= -0.951960
 Spin= Alpha
 Occup= -0.951960
         1   -3.221375E-04
         2   -7.736973E-04
         3   -2.755061E-03
         4    2.719748E-02
         5    2.419232E-01
         6   -3.514789E-02
         7   -2.507051E-02
         8    5.777367E-02
         9   -3.347382E-03
        10   -9.389703E-03
        11    5.012743E-02
        12   -3.258537E-03
        13   -3.501178E-02
        14    9.082456E-02
        15   -7.361734E-04
        16   -2.361184E-03
        17    2.577466E-03
        18   -2.162822E-04
        19   -1.074748E-03
        20   -4.721594E-05
        21   -8.280265E-05
        22    1.372585E-03
        23    1.451216E-03
        24   -2.823802E-03
        25   -2.102823E-03
        26   -7.490587E-05
        27   -1.310117E-04
        28    3.987654E-04
        29    4.279416E-04
        30   -8.267070E-04
        31    1.112495E-02
        32    1.175104E-04
        33    4.753439E-05
        34    1.601345E-04
        35    5.610208E-04
        36    2.996965E-05
        37   -1.936246E-04
        38   -5.827741E-04
        39   -2.266991E-05
        40   -2.121837E-05
        41   -1.699143E-04
        42   -1.753860E-05
        43    6.074783E-06
        44    9.134121E-03
        45    2.063101E-02
        46   -2.932792E-02
        47   -6.295678E-02
        48   -2.203798E-01
        49    3.245679E-02
        50    1.583431E-01
        51    4.229752E-06
        52   -3.972114E-03
        53    1.148008E-01
        54    5.025322E-06
        55   -3.870818E-03
        56   -7.919981E-02
        57   -4.019766E-05
        58   -1.087646E-03
        59   -5.978544E-03
        60    5.303295E-03
        61    6.752491E-04
        62    1.365367E-07
        63   -5.944660E-05
        64    4.773090E-08
        65   -1.522567E-03
        66    1.308319E-03
        67    2.142476E-04
        68    1.357803E-07
        69   -1.277469E-04
        70   -8.336548E-07
        71    4.430329E-02
        72   -4.541390E-02
        73    1.110606E-03
        74   -1.896996E-06
        75   -2.418326E-04
        76    1.992351E-05
        77    1.125436E-03
        78    2.693786E-08
        79    3.617328E-05
        80   -7.667850E-04
        81   -1.415159E-08
        82   -2.171490E-05
        83   -7.431464E-04
        84   -2.198934E-08
        85   -2.681665E-05
        86   -1.970950E-08
        87   -3.224038E-04
        88   -7.743188E-04
        89   -2.754179E-03
        90    2.720282E-02
        91    2.420160E-01
        92   -3.515265E-02
        93   -2.507457E-02
        94   -5.777864E-02
        95   -3.346520E-03
        96   -9.388764E-03
        97   -5.012981E-02
        98   -3.256020E-03
        99   -3.503268E-02
       100   -9.085055E-02
       101   -7.105374E-04
       102   -2.361247E-03
       103    2.577577E-03
       104   -2.163302E-04
       105    1.075096E-03
       106   -4.716820E-05
       107    8.287548E-05
       108    1.373009E-03
       109    1.450837E-03
       110   -2.823846E-03
       111    2.103028E-03
       112   -7.482705E-05
       113    1.303584E-04
       114    4.029330E-04
       115    4.232803E-04
       116   -8.262133E-04
       117   -1.112423E-02
       118    1.612345E-04
       119   -2.222844E-05
       120    1.601534E-04
       121   -5.610613E-04
       122    2.991239E-05
       123   -1.936470E-04
       124    5.828053E-04
       125   -2.262516E-05
       126   -2.122134E-05
       127    1.699374E-04
       128   -1.750653E-05
       129   -6.018630E-06
       130    1.403609E-03
       131    3.199200E-03
       132   -2.458421E-03
       133   -2.518389E-02
       134   -7.574858E-02
       135    3.138964E-02
       136    3.032946E-02
       137    2.221511E-02
       138   -3.504695E-03
       139    3.779313E-02
       140    1.812352E-02
       141   -3.436981E-03
       142    2.528651E-02
       143    5.081831E-02
       144   -1.903796E-03
       145   -7.054708E-04
       146    5.948201E-04
       147    1.106508E-04
       148    2.158583E-03
       149    4.481359E-05
       150    7.997919E-05
       151   -2.915643E-03
       152    1.065719E-03
       153    1.849924E-03
       154    3.105992E-03
       155    9.566368E-05
       156    1.481550E-04
       157   -5.564755E-03
       158    6.489157E-03
       159   -9.244018E-04
       160   -1.817849E-02
       161    1.750973E-04
       162    9.924010E-05
       163    2.774999E-04
       164    3.545784E-04
       165    3.353111E-05
       166   -1.705034E-04
       167   -4.294403E-04
       168   -2.703297E-05
       169   -2.018017E-04
       170   -4.627662E-05
       171   -1.795373E-05
       172    6.171458E-06
       173    3.736222E-03
       174    8.513240E-03
       175   -1.529453E-02
       176   -7.889646E-03
       177   -4.658634E-02
       178   -3.639633E-02
       179    1.884986E-02
       180   -3.469999E-06
       181   -4.068928E-03
       182    1.159265E-02
       183   -2.905541E-06
       184   -3.935318E-03
       185   -1.020515E-02
       186    1.183616E-05
       187   -8.240053E-04
       188   -2.381543E-04
       189    1.899190E-04
       190    4.823530E-05
       191    1.607988E-07
       192    2.456770E-06
       193    3.643433E-08
       194    1.166362E-04
       195    4.745858E-04
       196   -5.912220E-04
       197    4.475088E-07
       198    6.021296E-05
       199   -2.278463E-07
       200   -1.608432E-02
       201    1.594312E-02
       202    1.411981E-04
       203    2.863946E-06
       204   -2.660569E-04
       205   -2.516615E-05
       206   -2.406343E-05
       207    1.800279E-08
       208    4.302752E-05
       209    8.781073E-05
       210   -2.655943E-08
       211   -3.540590E-05
       212   -5.552625E-05
       213    2.406155E-09
       214   -2.232157E-05
       215   -1.575911E-09
       216    1.403468E-03
       217    3.198877E-03
       218   -2.458357E-03
       219   -2.518165E-02
       220   -7.575197E-02
       221    3.138833E-02
       222    3.032712E-02
       223   -2.220732E-02
       224   -3.505490E-03
       225    3.778760E-02
       226   -1.811702E-02
       227   -3.437643E-03
       228    2.529316E-02
       229   -5.079314E-02
       230   -1.893399E-03
       231   -7.053548E-04
       232    5.947358E-04
       233    1.106190E-04
       234   -2.158269E-03
       235    4.493046E-05
       236   -8.001052E-05
       237   -2.914573E-03
       238    1.064922E-03
       239    1.849651E-03
       240   -3.105119E-03
       241    9.471447E-05
       242   -1.478875E-04
       243   -5.555633E-03
       244    6.479503E-03
       245   -9.238694E-04
       246    1.818238E-02
       247    1.307471E-04
       248   -1.208690E-04
       249    2.774647E-04
       250   -3.545607E-04
       251    3.353200E-05
       252   -1.704695E-04
       253    4.294461E-04
       254   -2.702113E-05
       255   -2.017885E-04
       256    4.624701E-05
       257   -1.796677E-05
       258   -6.178021E-06
       259   -1.202037E-02
       260   -1.686466E-02
       261   -1.454852E-02
       262   -2.884357E-03
       263   -1.470376E-03
       264   -1.067202E-04
       265   -6.485970E-03
       266    3.622431E-04
       267    4.199913E-05
       268   -1.202184E-02
       269   -1.686717E-02
       270   -1.454631E-02
       271   -2.884434E-03
       272    1.470510E-03
       273   -1.064769E-04
       274   -6.478858E-03
       275   -3.572392E-04
       276    3.399702E-05
       277    1.955913E-02
       278    3.077840E-02
       279    1.484692E-02
       280   -5.175496E-04
       281   -2.747504E-03
       282   -1.184809E-04
       283    8.602933E-03
       284   -3.106002E-03
       285   -1.695898E-04
       286    1.955501E-02
       287    3.077364E-02
       288    1.488350E-02
       289   -5.172901E-04
       290    2.747010E-03
       291   -1.191465E-04
       292    8.592589E-03
       293    3.103575E-03
       294   -1.683597E-04
       295    3.167056E-03
       296    7.355108E-03
       297   -6.687393E-03
       298   -3.940815E-02
       299   -1.667802E-01
       300    1.122687E-02
       301   -1.370613E-01
       302    1.078887E-06
       303    1.137757E-03
       304   -1.265314E-01
       305    1.194471E-06
       306    1.086715E-03
       307   -1.009290E-01
       308    2.517479E-06
       309    2.782599E-04
       310   -1.153463E-02
       311    1.289316E-02
       312   -1.358526E-03
       313   -2.339753E-07
       314   -4.893111E-05
       315   -5.246790E-07
       316   -3.334122E-02
       317    3.434614E-02
       318   -1.004926E-03
       319   -6.870542E-07
       320   -1.248179E-04
       321   -1.125876E-06
       322    1.435623E-02
       323   -4.859899E-03
       324   -9.496327E-03
       325    2.739490E-06
       326   -1.590509E-04
       327    7.936775E-07
       328    4.593929E-05
       329   -7.024629E-08
       330   -6.625316E-06
       331   -4.125568E-04
       332    9.953555E-08
       333   -7.646398E-06
       334    3.509228E-04
       335   -5.290271E-09
       336    1.653519E-05
       337    6.978968E-08
       338   -5.889911E-05
       339   -2.085688E-04
       340   -5.862968E-04
       341   -1.241744E-02
       342   -6.836422E-03
       343   -2.125808E-02
       344    2.985951E-01
       345    4.644849E-02
       346    8.897986E-04
       347    2.625787E-01
       348    4.605033E-02
       349    8.438329E-04
       350    2.006250E-01
       351    4.436969E-02
       352    4.606493E-04
       353    1.567954E-02
       354    8.755300E-03
       355    3.572804E-05
       356    6.886381E-04
       357    1.704250E-04
       358   -8.590632E-04
       359   -2.602368E-03
       360    3.888487E-06
       361   -1.500499E-05
       362    3.010156E-03
       363   -6.264329E-04
       364   -2.383723E-03
       365   -5.872583E-03
       366    1.711343E-05
       367   -4.762129E-05
       368    3.448328E-03
       369   -2.972366E-03
       370   -4.759614E-04
       371   -6.118134E-03
       372    2.638295E-05
       373    7.957958E-06
       374   -3.034820E-04
       375    4.017061E-04
       376   -2.242835E-06
       377    6.394744E-04
       378   -8.427420E-04
       379   -1.447375E-06
       380   -2.323106E-04
       381    3.037967E-04
       382    4.456454E-06
       383   -2.457928E-06
       384   -5.883111E-05
       385   -2.083939E-04
       386   -5.866009E-04
       387   -1.241751E-02
       388   -6.838551E-03
       389   -2.125977E-02
       390    2.986104E-01
       391   -4.646062E-02
       392    9.231493E-04
       393    2.625926E-01
       394   -4.606086E-02
       395    8.728732E-04
       396    2.006382E-01
       397   -4.437659E-02
       398    4.972033E-04
       399    1.568041E-02
       400   -8.755640E-03
       401    3.490413E-05
       402    6.887416E-04
       403    1.702760E-04
       404   -8.590176E-04
       405    2.602359E-03
       406    3.985710E-06
       407    1.527607E-05
       408    3.010537E-03
       409   -6.268020E-04
       410   -2.383735E-03
       411    5.872725E-03
       412    1.717989E-05
       413    4.912903E-05
       414    3.448829E-03
       415   -2.972711E-03
       416   -4.761185E-04
       417    6.118926E-03
       418    1.904598E-05
       419    1.223389E-07
       420   -3.034722E-04
       421   -4.017467E-04
       422   -2.395809E-06
       423    6.394531E-04
       424    8.427893E-04
       425   -1.329626E-06
       426   -2.323025E-04
       427   -3.037895E-04
       428    4.543940E-06
       429    2.497975E-06
       430    4.604587E-04
       431    1.097624E-03
       432   -1.631861E-03
       433   -5.190514E-03
       434    1.780695E-02
       435    2.568511E-02
       436   -7.586839E-03
       437    2.409935E-07
       438   -3.421859E-03
       439   -6.001092E-03
       440   -1.028716E-07
       441   -3.212829E-03
       442   -2.379080E-03
       443   -5.349765E-07
       444   -1.418092E-03
       445    1.151481E-04
       446   -1.058523E-04
       447   -9.295802E-06
       448    2.849931E-08
       449    1.751847E-05
       450   -1.825239E-09
       451    1.742878E-04
       452    1.615346E-04
       453   -3.358224E-04
       454    1.052523E-07
       455    7.778441E-05
       456    2.347047E-08
       457   -9.490737E-04
       458    1.026822E-03
       459   -7.774789E-05
       460   -8.082806E-07
       461   -9.654105E-05
       462    1.145850E-06
       463   -2.290949E-05
       464    5.433426E-09
       465    2.291647E-05
       466   -2.039701E-05
       467   -9.548119E-09
       468   -2.431212E-05
       469    5.113331E-05
       470    2.258413E-09
       471   -6.433557E-06
       472    3.907547E-09
       473   -2.008063E-03
       474   -3.561426E-03
       475    1.396271E-04
       476    3.139490E-06
       477    6.367769E-04
       478   -4.116946E-05
       479   -1.668122E-03
       480   -1.153442E-03
       481    4.046085E-04
       482   -2.008485E-03
       483   -3.561691E-03
       484    1.332957E-04
       485    3.125244E-06
       486   -6.368136E-04
       487   -4.112310E-05
       488   -1.668434E-03
       489    1.150333E-03
       490    4.065796E-04
 Sym= X
 Ene= 0.951960
 Spin= Alpha
 Occup= 0.951960
         1   -1.145635E-04
         2   -2.771837E-04
         3    7.219012E-04
         4   -2.640972E-03
         5   -3.993960E-01
         6   -7.337777E-02
         7   -3.414061E-04
         8   -5.102034E-04
         9    9.874619E-02
        10    7.682518E-04
        11   -2.737805E-03
        12    1.039547E-01
        13   -1.417400E-01
        14    1.559978E-01
        15    2.160217E-02
        16    7.153643E-05
        17   -6.672412E-05
        18   -4.812310E-06
        19   -7.177122E-05
        20    5.983957E-05
        21    9.154050E-04
        22   -8.574027E-04
        23    5.638312E-04
        24    2.935715E-04
        25    1.065629E-03
        26   -4.059750E-03
        27   -1.268734E-03
        28   -2.135056E-02
        29    2.688241E-02
        30   -5.531854E-03
        31   -9.306900E-03
        32   -4.708807E-02
        33   -3.426352E-02
        34    2.922291E-06
        35    1.016634E-05
        36   -1.174551E-04
        37   -9.621223E-06
        38   -2.597295E-05
        39   -2.322116E-04
        40    5.700558E-06
        41    1.233337E-05
        42    3.897941E-04
        43    1.559162E-04
        44   -1.205469E-04
        45   -3.024190E-04
        46    9.455638E-04
        47    1.235250E-03
        48   -4.214606E-01
        49    1.239590E-01
        50   -7.163732E-04
        51    1.483930E-06
        52   -1.063307E-02
        53    2.513409E-03
        54   -5.983068E-05
        55   -7.480778E-03
        56   -9.947144E-02
        57   -1.704053E-03
        58   -6.302047E-03
        59   -1.353264E-05
        60    2.961036E-05
        61   -1.607772E-05
        62    7.714804E-08