[Molden Format]
[Title]
ADC(2) - opt by CAM-B3LYP gaussian                                              
[Atoms] AU
 c     1    6 -.12588573623097E+01 -.22835126974190E+01 -.24083260376910E-01
 c     2    6 -.25578815622211E+01 0.23621577000000E-06 -.22837930855340E-01
 c     3    6 -.12588573623097E+01 0.22835131698505E+01 -.24090819281440E-01
 c     4    6 0.13318248850473E+01 0.22853065199506E+01 -.26003222127920E-01
 c     5    6 0.26868737956204E+01 0.23621577000000E-06 -.25389061134730E-01
 c     6    6 0.13318248850473E+01 -.22853060475191E+01 -.25993773497260E-01
 h     7    1 -.22974546243959E+01 -.40385977330627E+01 -.21598270512170E-01
 h     8    1 -.22974527346698E+01 0.40385982054942E+01 -.21613388321230E-01
 h     9    1 0.23510089905703E+01 0.40574312161345E+01 -.28191524989800E-01
 h    10    1 0.23510071008442E+01 -.40574307437030E+01 -.28172627728480E-01
 n    11    7 -.52726375582849E+01 0.23621577000000E-06 -.17238672323600E-01
 o    12    8 -.63813946825068E+01 0.20269261555273E+01 -.14842499587100E-01
 o    13    8 -.63813927927806E+01 -.20269275728219E+01 -.14865176300690E-01
 n    14    7 0.52430742102305E+01 0.23621577000000E-06 -.67376886081320E-01
 h    15    1 0.62051583509223E+01 0.16177513148781E+01 0.18115044628513E+00
 h    16    1 0.62051564611962E+01 -.16177527321727E+01 0.18114666683287E+00
[GTO]
    1 0
 s    6 1.00
 0.13575349682000E+05 0.60645503603591E-03
 0.20352333680000E+04 0.46979088884982E-02
 0.46322562359000E+03 0.24332477647552E-01
 0.13120019598000E+03 0.97399968307759E-01
 0.42853015891000E+02 0.30195584253780E+00
 0.15584185766000E+02 0.66233609137875E+00
 s    2 1.00
 0.62067138508000E+01 0.65595308539952E+00
 0.25764896527000E+01 0.37585633285142E+00
 s    1 1.00
 0.57696339419000E+00 0.10000000000000E+01
 s    1 1.00
 0.22972831358000E+00 0.10000000000000E+01
 s    1 1.00
 0.95164440028000E-01 0.10000000000000E+01
 s    1 1.00
 0.48475401370000E-01 0.10000000000000E+01
 p    4 1.00
 0.34697232244000E+02 0.11327220003114E-01
 0.79582622826000E+01 0.76169659202087E-01
 0.23780826883000E+01 0.30192252202676E+00
 0.81433208183000E+00 0.72785027349547E+00
 p    1 1.00
 0.28887547253000E+00 0.10000000000000E+01
 p    1 1.00
 0.10056823671000E+00 0.10000000000000E+01
 d    1 1.00
 0.10970000000000E+01 0.10000000000000E+01
 d    1 1.00
 0.31800000000000E+00 0.10000000000000E+01
 d    1 1.00
 0.90985336424000E-01 0.10000000000000E+01
 f    1 1.00
 0.76100000000000E+00 0.10000000000000E+01
 
    2 0
 s    6 1.00
 0.13575349682000E+05 0.60645503603591E-03
 0.20352333680000E+04 0.46979088884982E-02
 0.46322562359000E+03 0.24332477647552E-01
 0.13120019598000E+03 0.97399968307759E-01
 0.42853015891000E+02 0.30195584253780E+00
 0.15584185766000E+02 0.66233609137875E+00
 s    2 1.00
 0.62067138508000E+01 0.65595308539952E+00
 0.25764896527000E+01 0.37585633285142E+00
 s    1 1.00
 0.57696339419000E+00 0.10000000000000E+01
 s    1 1.00
 0.22972831358000E+00 0.10000000000000E+01
 s    1 1.00
 0.95164440028000E-01 0.10000000000000E+01
 s    1 1.00
 0.48475401370000E-01 0.10000000000000E+01
 p    4 1.00
 0.34697232244000E+02 0.11327220003114E-01
 0.79582622826000E+01 0.76169659202087E-01
 0.23780826883000E+01 0.30192252202676E+00
 0.81433208183000E+00 0.72785027349547E+00
 p    1 1.00
 0.28887547253000E+00 0.10000000000000E+01
 p    1 1.00
 0.10056823671000E+00 0.10000000000000E+01
 d    1 1.00
 0.10970000000000E+01 0.10000000000000E+01
 d    1 1.00
 0.31800000000000E+00 0.10000000000000E+01
 d    1 1.00
 0.90985336424000E-01 0.10000000000000E+01
 f    1 1.00
 0.76100000000000E+00 0.10000000000000E+01
 
    3 0
 s    6 1.00
 0.13575349682000E+05 0.60645503603591E-03
 0.20352333680000E+04 0.46979088884982E-02
 0.46322562359000E+03 0.24332477647552E-01
 0.13120019598000E+03 0.97399968307759E-01
 0.42853015891000E+02 0.30195584253780E+00
 0.15584185766000E+02 0.66233609137875E+00
 s    2 1.00
 0.62067138508000E+01 0.65595308539952E+00
 0.25764896527000E+01 0.37585633285142E+00
 s    1 1.00
 0.57696339419000E+00 0.10000000000000E+01
 s    1 1.00
 0.22972831358000E+00 0.10000000000000E+01
 s    1 1.00
 0.95164440028000E-01 0.10000000000000E+01
 s    1 1.00
 0.48475401370000E-01 0.10000000000000E+01
 p    4 1.00
 0.34697232244000E+02 0.11327220003114E-01
 0.79582622826000E+01 0.76169659202087E-01
 0.23780826883000E+01 0.30192252202676E+00
 0.81433208183000E+00 0.72785027349547E+00
 p    1 1.00
 0.28887547253000E+00 0.10000000000000E+01
 p    1 1.00
 0.10056823671000E+00 0.10000000000000E+01
 d    1 1.00
 0.10970000000000E+01 0.10000000000000E+01
 d    1 1.00
 0.31800000000000E+00 0.10000000000000E+01
 d    1 1.00
 0.90985336424000E-01 0.10000000000000E+01
 f    1 1.00
 0.76100000000000E+00 0.10000000000000E+01
 
    4 0
 s    6 1.00
 0.13575349682000E+05 0.60645503603591E-03
 0.20352333680000E+04 0.46979088884982E-02
 0.46322562359000E+03 0.24332477647552E-01
 0.13120019598000E+03 0.97399968307759E-01
 0.42853015891000E+02 0.30195584253780E+00
 0.15584185766000E+02 0.66233609137875E+00
 s    2 1.00
 0.62067138508000E+01 0.65595308539952E+00
 0.25764896527000E+01 0.37585633285142E+00
 s    1 1.00
 0.57696339419000E+00 0.10000000000000E+01
 s    1 1.00
 0.22972831358000E+00 0.10000000000000E+01
 s    1 1.00
 0.95164440028000E-01 0.10000000000000E+01
 s    1 1.00
 0.48475401370000E-01 0.10000000000000E+01
 p    4 1.00
 0.34697232244000E+02 0.11327220003114E-01
 0.79582622826000E+01 0.76169659202087E-01
 0.23780826883000E+01 0.30192252202676E+00
 0.81433208183000E+00 0.72785027349547E+00
 p    1 1.00
 0.28887547253000E+00 0.10000000000000E+01
 p    1 1.00
 0.10056823671000E+00 0.10000000000000E+01
 d    1 1.00
 0.10970000000000E+01 0.10000000000000E+01
 d    1 1.00
 0.31800000000000E+00 0.10000000000000E+01
 d    1 1.00
 0.90985336424000E-01 0.10000000000000E+01
 f    1 1.00
 0.76100000000000E+00 0.10000000000000E+01
 
    5 0
 s    6 1.00
 0.13575349682000E+05 0.60645503603591E-03
 0.20352333680000E+04 0.46979088884982E-02
 0.46322562359000E+03 0.24332477647552E-01
 0.13120019598000E+03 0.97399968307759E-01
 0.42853015891000E+02 0.30195584253780E+00
 0.15584185766000E+02 0.66233609137875E+00
 s    2 1.00
 0.62067138508000E+01 0.65595308539952E+00
 0.25764896527000E+01 0.37585633285142E+00
 s    1 1.00
 0.57696339419000E+00 0.10000000000000E+01
 s    1 1.00
 0.22972831358000E+00 0.10000000000000E+01
 s    1 1.00
 0.95164440028000E-01 0.10000000000000E+01
 s    1 1.00
 0.48475401370000E-01 0.10000000000000E+01
 p    4 1.00
 0.34697232244000E+02 0.11327220003114E-01
 0.79582622826000E+01 0.76169659202087E-01
 0.23780826883000E+01 0.30192252202676E+00
 0.81433208183000E+00 0.72785027349547E+00
 p    1 1.00
 0.28887547253000E+00 0.10000000000000E+01
 p    1 1.00
 0.10056823671000E+00 0.10000000000000E+01
 d    1 1.00
 0.10970000000000E+01 0.10000000000000E+01
 d    1 1.00
 0.31800000000000E+00 0.10000000000000E+01
 d    1 1.00
 0.90985336424000E-01 0.10000000000000E+01
 f    1 1.00
 0.76100000000000E+00 0.10000000000000E+01
 
    6 0
 s    6 1.00
 0.13575349682000E+05 0.60645503603591E-03
 0.20352333680000E+04 0.46979088884982E-02
 0.46322562359000E+03 0.24332477647552E-01
 0.13120019598000E+03 0.97399968307759E-01
 0.42853015891000E+02 0.30195584253780E+00
 0.15584185766000E+02 0.66233609137875E+00
 s    2 1.00
 0.62067138508000E+01 0.65595308539952E+00
 0.25764896527000E+01 0.37585633285142E+00
 s    1 1.00
 0.57696339419000E+00 0.10000000000000E+01
 s    1 1.00
 0.22972831358000E+00 0.10000000000000E+01
 s    1 1.00
 0.95164440028000E-01 0.10000000000000E+01
 s    1 1.00
 0.48475401370000E-01 0.10000000000000E+01
 p    4 1.00
 0.34697232244000E+02 0.11327220003114E-01
 0.79582622826000E+01 0.76169659202087E-01
 0.23780826883000E+01 0.30192252202676E+00
 0.81433208183000E+00 0.72785027349547E+00
 p    1 1.00
 0.28887547253000E+00 0.10000000000000E+01
 p    1 1.00
 0.10056823671000E+00 0.10000000000000E+01
 d    1 1.00
 0.10970000000000E+01 0.10000000000000E+01
 d    1 1.00
 0.31800000000000E+00 0.10000000000000E+01
 d    1 1.00
 0.90985336424000E-01 0.10000000000000E+01
 f    1 1.00
 0.76100000000000E+00 0.10000000000000E+01
 
    7 0
 s    3 1.00
 0.34061341000000E+02 0.25439307208879E-01
 0.51235746000000E+01 0.19008594890375E+00
 0.11646626000000E+01 0.85244113011042E+00
 s    1 1.00
 0.32723041000000E+00 0.10000000000000E+01
 s    1 1.00
 0.10307241000000E+00 0.10000000000000E+01
 p    1 1.00
 0.80000000000000E+00 0.10000000000000E+01
 p    1 1.00
 0.95774129632000E-01 0.10000000000000E+01
 
    8 0
 s    3 1.00
 0.34061341000000E+02 0.25439307208879E-01
 0.51235746000000E+01 0.19008594890375E+00
 0.11646626000000E+01 0.85244113011042E+00
 s    1 1.00
 0.32723041000000E+00 0.10000000000000E+01
 s    1 1.00
 0.10307241000000E+00 0.10000000000000E+01
 p    1 1.00
 0.80000000000000E+00 0.10000000000000E+01
 p    1 1.00
 0.95774129632000E-01 0.10000000000000E+01
 
    9 0
 s    3 1.00
 0.34061341000000E+02 0.25439307208879E-01
 0.51235746000000E+01 0.19008594890375E+00
 0.11646626000000E+01 0.85244113011042E+00
 s    1 1.00
 0.32723041000000E+00 0.10000000000000E+01
 s    1 1.00
 0.10307241000000E+00 0.10000000000000E+01
 p    1 1.00
 0.80000000000000E+00 0.10000000000000E+01
 p    1 1.00
 0.95774129632000E-01 0.10000000000000E+01
 
   10 0
 s    3 1.00
 0.34061341000000E+02 0.25439307208879E-01
 0.51235746000000E+01 0.19008594890375E+00
 0.11646626000000E+01 0.85244113011042E+00
 s    1 1.00
 0.32723041000000E+00 0.10000000000000E+01
 s    1 1.00
 0.10307241000000E+00 0.10000000000000E+01
 p    1 1.00
 0.80000000000000E+00 0.10000000000000E+01
 p    1 1.00
 0.95774129632000E-01 0.10000000000000E+01
 
   11 0
 s    6 1.00
 0.19730800647000E+05 0.58626402628763E-03
 0.29578958745000E+04 0.45428820586397E-02
 0.67322133595000E+03 0.23558413450084E-01
 0.19068249494000E+03 0.94709193292923E-01
 0.62295441898000E+02 0.29719784913376E+00
 0.22654161182000E+02 0.66916246895232E+00
 s    2 1.00
 0.89791477428000E+01 0.64596683630063E+00
 0.36863002370000E+01 0.38700574393705E+00
 s    1 1.00
 0.84660076805000E+00 0.10000000000000E+01
 s    1 1.00
 0.33647133771000E+00 0.10000000000000E+01
 s    1 1.00
 0.13647653675000E+00 0.10000000000000E+01
 s    1 1.00
 0.68441605847000E-01 0.10000000000000E+01
 p    4 1.00
 0.49200380510000E+02 0.11448825101764E-01
 0.11346790537000E+02 0.78422337970864E-01
 0.34273972411000E+01 0.30818094738830E+00
 0.11785525134000E+01 0.72027196368413E+00
 p    1 1.00
 0.41642204972000E+00 0.10000000000000E+01
 p    1 1.00
 0.14260826011000E+00 0.10000000000000E+01
 d    1 1.00
 0.16540000000000E+01 0.10000000000000E+01
 d    1 1.00
 0.46900000000000E+00 0.10000000000000E+01
 d    1 1.00
 0.12829642058000E+00 0.10000000000000E+01
 f    1 1.00
 0.10930000000000E+01 0.10000000000000E+01
 
   12 0
 s    6 1.00
 0.27032382631000E+05 0.57227335211155E-03
 0.40523871392000E+04 0.44353233492995E-02
 0.92232722710000E+03 0.23020107706038E-01
 0.26124070989000E+03 0.92822490667928E-01
 0.85354641351000E+02 0.29378500009671E+00
 0.31035035245000E+02 0.67401604501641E+00
 s    2 1.00
 0.12260860728000E+02 0.63839937025506E+00
 0.49987076005000E+01 0.39534587125718E+00
 s    1 1.00
 0.11703108158000E+01 0.10000000000000E+01
 s    1 1.00
 0.46474740994000E+00 0.10000000000000E+01
 s    1 1.00
 0.18504536357000E+00 0.10000000000000E+01
 s    1 1.00
 0.70288026270000E-01 0.10000000000000E+01
 p    4 1.00
 0.63274954801000E+02 0.12018332222616E-01
 0.14627049379000E+02 0.83005421790056E-01
 0.44501223456000E+01 0.31991743925964E+00
 0.15275799647000E+01 0.70715542916104E+00
 p    1 1.00
 0.52935117943000E+00 0.10000000000000E+01
 p    1 1.00
 0.17478421270000E+00 0.10000000000000E+01
 p    1 1.00
 0.51112745706000E-01 0.10000000000000E+01
 d    1 1.00
 0.23140000000000E+01 0.10000000000000E+01
 d    1 1.00
 0.64500000000000E+00 0.10000000000000E+01
 d    1 1.00
 0.14696477366000E+00 0.10000000000000E+01
 f    1 1.00
 0.14280000000000E+01 0.10000000000000E+01
 
   13 0
 s    6 1.00
 0.27032382631000E+05 0.57227335211155E-03
 0.40523871392000E+04 0.44353233492995E-02
 0.92232722710000E+03 0.23020107706038E-01
 0.26124070989000E+03 0.92822490667928E-01
 0.85354641351000E+02 0.29378500009671E+00
 0.31035035245000E+02 0.67401604501641E+00
 s    2 1.00
 0.12260860728000E+02 0.63839937025506E+00
 0.49987076005000E+01 0.39534587125718E+00
 s    1 1.00
 0.11703108158000E+01 0.10000000000000E+01
 s    1 1.00
 0.46474740994000E+00 0.10000000000000E+01
 s    1 1.00
 0.18504536357000E+00 0.10000000000000E+01
 s    1 1.00
 0.70288026270000E-01 0.10000000000000E+01
 p    4 1.00
 0.63274954801000E+02 0.12018332222616E-01
 0.14627049379000E+02 0.83005421790056E-01
 0.44501223456000E+01 0.31991743925964E+00
 0.15275799647000E+01 0.70715542916104E+00
 p    1 1.00
 0.52935117943000E+00 0.10000000000000E+01
 p    1 1.00
 0.17478421270000E+00 0.10000000000000E+01
 p    1 1.00
 0.51112745706000E-01 0.10000000000000E+01
 d    1 1.00
 0.23140000000000E+01 0.10000000000000E+01
 d    1 1.00
 0.64500000000000E+00 0.10000000000000E+01
 d    1 1.00
 0.14696477366000E+00 0.10000000000000E+01
 f    1 1.00
 0.14280000000000E+01 0.10000000000000E+01
 
   14 0
 s    6 1.00
 0.19730800647000E+05 0.58626402628763E-03
 0.29578958745000E+04 0.45428820586397E-02
 0.67322133595000E+03 0.23558413450084E-01
 0.19068249494000E+03 0.94709193292923E-01
 0.62295441898000E+02 0.29719784913376E+00
 0.22654161182000E+02 0.66916246895232E+00
 s    2 1.00
 0.89791477428000E+01 0.64596683630063E+00
 0.36863002370000E+01 0.38700574393705E+00
 s    1 1.00
 0.84660076805000E+00 0.10000000000000E+01
 s    1 1.00
 0.33647133771000E+00 0.10000000000000E+01
 s    1 1.00
 0.13647653675000E+00 0.10000000000000E+01
 s    1 1.00
 0.68441605847000E-01 0.10000000000000E+01
 p    4 1.00
 0.49200380510000E+02 0.11448825101764E-01
 0.11346790537000E+02 0.78422337970864E-01
 0.34273972411000E+01 0.30818094738830E+00
 0.11785525134000E+01 0.72027196368413E+00
 p    1 1.00
 0.41642204972000E+00 0.10000000000000E+01
 p    1 1.00
 0.14260826011000E+00 0.10000000000000E+01
 d    1 1.00
 0.16540000000000E+01 0.10000000000000E+01
 d    1 1.00
 0.46900000000000E+00 0.10000000000000E+01
 d    1 1.00
 0.12829642058000E+00 0.10000000000000E+01
 f    1 1.00
 0.10930000000000E+01 0.10000000000000E+01
 
   15 0
 s    3 1.00
 0.34061341000000E+02 0.25439307208879E-01
 0.51235746000000E+01 0.19008594890375E+00
 0.11646626000000E+01 0.85244113011042E+00
 s    1 1.00
 0.32723041000000E+00 0.10000000000000E+01
 s    1 1.00
 0.10307241000000E+00 0.10000000000000E+01
 p    1 1.00
 0.80000000000000E+00 0.10000000000000E+01
 p    1 1.00
 0.95774129632000E-01 0.10000000000000E+01
 
   16 0
 s    3 1.00
 0.34061341000000E+02 0.25439307208879E-01
 0.51235746000000E+01 0.19008594890375E+00
 0.11646626000000E+01 0.85244113011042E+00
 s    1 1.00
 0.32723041000000E+00 0.10000000000000E+01
 s    1 1.00
 0.10307241000000E+00 0.10000000000000E+01
 p    1 1.00
 0.80000000000000E+00 0.10000000000000E+01
 p    1 1.00
 0.95774129632000E-01 0.10000000000000E+01
 
[MO]
 Sym= X
 Ene= -0.079004
 Spin= Alpha
 Occup= -0.079004
         1    1.334460E-04
         2    3.116307E-04
         3   -9.140714E-04
         4    2.153497E-03
         5    1.199041E-02
         6    9.083702E-03
         7   -1.177924E-03
         8   -1.353666E-04
         9   -2.786507E-02
        10    2.045076E-03
        11   -2.869957E-04
        12   -2.597501E-02
        13    3.002354E-02
        14   -8.443771E-03
        15   -5.047690E-03
        16    3.197753E-06
        17    7.857912E-06
        18   -1.105567E-05
        19    5.795563E-06
        20    6.518972E-03
        21   -4.034943E-03
        22    5.459589E-04
        23   -3.256834E-04
        24   -2.202755E-04
        25    5.570192E-04
        26    1.465742E-02
        27   -7.582559E-03
        28    4.474640E-03
        29   -4.192326E-03
        30   -2.823136E-04
        31   -8.486751E-04
        32   -9.960050E-04
        33    9.581364E-03
        34    1.637297E-05
        35   -5.087190E-06
        36    1.346685E-04
        37   -6.971071E-06
        38    5.303085E-06
        39    7.024725E-04
        40   -1.499557E-05
        41    1.522097E-06
        42   -8.831493E-04
        43    7.337538E-04
        44   -2.035390E-05
        45   -4.465781E-05
        46   -9.621893E-05
        47    2.044526E-03
        48    4.402039E-02
        49   -4.113420E-03
        50   -3.827702E-04
        51   -1.315864E-06
        52   -2.140969E-01
        53    2.482486E-04
        54   -2.295981E-05
        55   -2.219954E-01
        56    1.428320E-02
        57    1.573364E-03
        58   -2.047381E-01
        59   -2.640520E-05
        60    2.442820E-05
        61    1.977005E-06
        62   -1.345587E-07
        63    8.486815E-04
        64   -1.204129E-06
        65   -2.897185E-04
        66    4.871912E-04
        67   -1.974728E-04
        68   -4.944944E-06
        69    3.729606E-03
        70   -2.154919E-06
        71   -6.847976E-03
        72    7.785650E-03
        73   -9.376742E-04
        74    2.714737E-04
        75   -5.385401E-03
        76    2.367814E-05
        77   -6.951580E-06
        78   -5.114342E-08
        79    1.224982E-03
        80    5.122979E-06
        81   -3.890120E-08
        82   -7.580042E-04
        83    4.203544E-06
        84    1.075173E-07
        85   -8.854820E-04
        86   -1.479221E-07
        87    1.336694E-04
        88    3.122764E-04
        89   -9.241380E-04
        90    2.238076E-03
        91    9.437798E-03
        92    9.002323E-03
        93   -1.179169E-03
        94    1.370390E-04
        95   -2.792277E-02
        96    2.030246E-03
        97    2.712778E-04
        98   -2.603033E-02
        99    3.113051E-02
       100    1.010076E-02
       101   -5.171151E-03
       102    3.390453E-06
       103    7.854807E-06
       104   -1.124526E-05
       105   -6.081890E-06
       106    6.518261E-03
       107    4.035205E-03
       108    5.423866E-04
       109   -3.204670E-04
       110   -2.219196E-04
       111   -5.529020E-04
       112    1.465326E-02
       113    7.581961E-03
       114    4.789040E-03
       115   -4.538467E-03
       116   -2.505729E-04
       117    6.178795E-04
       118   -9.907669E-04
       119   -9.541513E-03
       120    1.656994E-05
       121    5.060503E-06
       122    1.349796E-04
       123   -7.299261E-06
       124   -5.310932E-06
       125    7.021226E-04
       126   -1.493165E-05
       127   -1.478445E-06
       128   -8.832168E-04
       129   -7.336767E-04
       130   -8.329327E-05
       131   -1.780748E-04
       132   -5.005521E-04
       133    8.249418E-03
       134   -2.759352E-02
       135   -1.010663E-02
       136    8.928517E-04
       137   -4.150752E-04
       138    1.577505E-01
       139    7.155796E-03
       140   -4.840954E-03
       141    1.604478E-01
       142    2.244900E-02
       143    5.291466E-03
       144    9.680687E-02
       145   -1.072229E-04
       146    1.288468E-04
       147   -2.162392E-05
       148    4.986815E-06
       149    1.043776E-03
       150   -3.178390E-03
       151   -4.986460E-04
       152    5.917440E-04
       153   -9.309800E-05
       154   -1.354137E-03
       155    4.386967E-03
       156   -5.435139E-03
       157   -6.966631E-03
       158    5.510756E-03
       159    1.455875E-03
       160    6.738236E-03
       161   -3.048348E-03
       162    1.080037E-02
       163    1.233000E-05
       164   -6.225417E-06
       165   -9.037526E-04
       166    1.423174E-05
       167   -1.480999E-05
       168    2.289387E-04
       169   -3.077417E-05
       170    2.316226E-05
       171    9.835727E-04
       172   -3.800505E-04
       173    8.577698E-04
       174    1.958041E-03
       175   -1.980650E-03
       176   -1.760089E-02
       177    7.126808E-03
       178   -8.232459E-03
       179   -6.717172E-03
       180   -1.132564E-06
       181    1.271068E-01
       182   -1.017524E-04
       183    1.386940E-05
       184    1.291607E-01
       185    1.862936E-02
       186   -1.660970E-03
       187    1.297462E-01
       188   -3.634504E-04
       189    1.991913E-04
       190    1.642591E-04
       191   -6.101474E-08
       192   -9.340992E-03
       193   -1.028946E-06
       194    1.497785E-03
       195   -3.288170E-03
       196    1.790385E-03
       197   -3.619288E-06
       198   -2.347618E-02
       199    1.293688E-06
       200    4.289400E-03
       201   -5.395614E-03
       202    1.106214E-03
       203    3.306047E-04
       204   -1.906836E-02
       205   -3.834497E-06
       206   -8.878202E-05
       207   -3.355723E-08
       208   -4.801062E-04
       209    6.321468E-05
       210    1.190853E-07
       211   -8.553386E-04
       212    5.589889E-05
       213   -7.406357E-08
       214    1.499469E-03
       215   -5.161659E-09
       216   -8.403755E-05
       217   -1.795705E-04
       218   -5.053690E-04
       219    8.336101E-03
       220   -3.050441E-02
       221   -1.014673E-02
       222    8.944173E-04
       223    4.093592E-04
       224    1.577939E-01
       225    7.158859E-03
       226    4.855501E-03
       227    1.605010E-01
       228    2.122124E-02
       229   -7.231415E-03
       230    9.674778E-02
       231   -1.069493E-04
       232    1.294082E-04
       233   -2.245891E-05
       234   -5.036336E-06
       235    1.042503E-03
       236    3.178617E-03
       237   -5.003896E-04
       238    5.943681E-04
       239   -9.397850E-05
       240    1.356507E-03
       241    4.383207E-03
       242    5.435140E-03
       243   -6.640075E-03
       244    5.166862E-03
       245    1.473213E-03
       246   -7.006408E-03
       247   -3.056208E-03
       248   -1.085169E-02
       249    1.223927E-05
       250    6.292441E-06
       251   -9.043044E-04
       252    1.448926E-05
       253    1.472446E-05
       254    2.295123E-04
       255   -3.090996E-05
       256   -2.316665E-05
       257    9.837394E-04
       258    3.800400E-04
       259    2.379682E-04
       260    9.446001E-05
       261    1.405436E-02
       262    9.612720E-06
       263   -7.667312E-06
       264   -1.085281E-03
       265    4.325175E-03
       266    1.303022E-04
       267    6.252001E-03
       268    2.394769E-04
       269    8.830117E-05
       270    1.383887E-02
       271    8.410705E-06
       272    8.342612E-06
       273   -1.087980E-03
       274    4.494887E-03
       275    6.387277E-06
       276    6.223405E-03
       277    3.183131E-04
       278    1.872422E-03
       279   -2.730451E-02
       280    3.463177E-06
       281   -7.671409E-05
       282    6.423414E-03
       283    1.209086E-03
       284    2.183632E-03
       285   -6.186939E-04
       286    3.226029E-04
       287    1.873541E-03
       288   -2.773600E-02
       289    3.194630E-06
       290    7.665978E-05
       291    6.425688E-03
       292    1.070775E-03
       293   -2.346823E-03
       294   -6.493435E-04
       295    3.200923E-05
       296    7.383324E-05
       297   -5.450897E-05
       298   -3.194881E-04
       299    5.031151E-03
       300   -1.416238E-03
       301   -3.470629E-04
       302    2.235091E-07
       303   -2.702114E-02
       304   -1.082746E-04
       305   -8.720720E-07
       306   -2.911867E-02
       307    2.337202E-03
       308   -2.731594E-05
       309   -1.260969E-02
       310   -2.053326E-05
       311    5.220975E-06
       312    1.531229E-05
       313   -6.129382E-09
       314   -4.610961E-03
       315   -1.205584E-08
       316   -1.408731E-05
       317   -4.954448E-05
       318    6.363179E-05
       319    5.898121E-07
       320   -1.396221E-02
       321    1.709869E-07
       322    9.325546E-04
       323   -2.344621E-03
       324    1.412066E-03
       325   -4.454304E-05
       326   -3.660574E-03
       327   -4.122473E-06
       328   -6.130734E-06
       329   -1.336794E-08
       330    2.890540E-05
       331    4.107634E-06
       332   -1.275845E-08
       333   -7.464121E-04
       334    4.117608E-06
       335    3.069343E-08
       336    7.076314E-04
       337   -2.999014E-08
       338    7.610475E-06
       339    1.573019E-05
       340    1.254504E-05
       341   -3.940418E-04
       342    4.685741E-03
       343    7.267511E-04
       344    2.204746E-04
       345   -7.034965E-05
       346    7.976254E-02
       347    2.791710E-04
       348   -1.798834E-04
       349    7.404904E-02
       350    1.287650E-03
       351   -3.381954E-04
       352    6.149741E-02
       353    1.198747E-04
       354   -1.853553E-04
       355    7.760313E-03
       356   -2.859030E-06
       357    3.127834E-06
       358   -2.688045E-07
       359   -6.229606E-07
       360   -5.173934E-05
       361   -4.225916E-04
       362    1.115271E-05
       363    6.900139E-06
       364   -1.805285E-05
       365   -1.067291E-05
       366    4.118399E-04
       367   -1.452783E-03
       368    7.307495E-05
       369   -5.876835E-05
       370   -1.430660E-05
       371   -8.957538E-05
       372    1.727108E-04
       373   -1.639306E-04
       374   -7.206307E-07
       375   -1.080240E-06
       376   -5.348077E-05
       377    1.206879E-06
       378    1.158018E-08
       379   -8.706034E-05
       380   -2.400519E-07
       381    1.437713E-06
       382    1.588123E-04
       383   -1.233049E-04
       384    7.491573E-06
       385    1.547989E-05
       386    1.243600E-05
       387   -3.895837E-04
       388    4.703404E-03
       389    6.834040E-04
       390    2.166232E-04
       391    7.084744E-05
       392    7.975942E-02
       393    2.760465E-04
       394    1.794211E-04
       395    7.404641E-02
       396    1.243842E-03
       397    3.444473E-04
       398    6.148990E-02
       399    1.006960E-04
       400    1.905023E-04
       401    7.765724E-03
       402   -2.824691E-06
       403    3.126042E-06
       404   -3.013514E-07
       405    6.769795E-07
       406   -5.169781E-05
       407    4.225699E-04
       408    1.068347E-05
       409    6.893497E-06
       410   -1.757697E-05
       411    1.014582E-05
       412    4.117374E-04
       413    1.452696E-03
       414    7.275699E-05
       415   -5.966216E-05
       416   -1.309482E-05
       417    8.887117E-05
       418    1.738713E-04
       419    1.633348E-04
       420   -7.207946E-07
       421    1.075842E-06
       422   -5.348600E-05
       423    1.187061E-06
       424   -1.717650E-08
       425   -8.705029E-05
       426   -2.200139E-07
       427   -1.426217E-06
       428    1.588093E-04
       429    1.233046E-04
       430   -3.744669E-03
       431   -8.911257E-03
       432    1.397145E-02
       433    2.151601E-02
       434    1.961527E-02
       435    5.962496E-02
       436    1.320074E-02
       437   -9.504659E-06
       438   -2.230320E-01
       439    1.526466E-02
       440    4.009957E-06
       441   -2.210578E-01
       442    1.310034E-02
       443    1.372597E-04
       444   -1.852107E-01
       445    7.926874E-05
       446   -2.017738E-05
       447   -5.909136E-05
       448   -2.352768E-07
       449   -1.039436E-03
       450   -3.434842E-07
       451    1.952486E-04
       452    1.145268E-03
       453   -1.340516E-03
       454    5.339560E-06
       455   -4.238781E-03
       456   -1.047018E-06
       457    1.748851E-03
       458    2.072273E-03
       459   -3.821124E-03
       460    2.095079E-05
       461   -2.278151E-03
       462   -1.062282E-05
       463    1.207443E-04
       464   -6.484203E-09
       465    8.420931E-04
       466    6.119999E-05
       467    2.657901E-08
       468   -3.948953E-04
       469   -2.231955E-04
       470   -1.787954E-08
       471   -7.348911E-04
       472   -4.224534E-09
       473   -8.176524E-03
       474   -1.500929E-02
       475   -2.456614E-02
       476    1.813716E-03
       477    1.570541E-03
       478   -1.149910E-02
       479   -1.578558E-03
       480    2.934625E-03
       481   -1.433415E-02
       482   -8.170610E-03
       483   -1.490996E-02
       484   -2.409371E-02
       485    1.808659E-03
       486   -1.561048E-03
       487   -1.150357E-02
       488   -1.636041E-03
       489   -2.864361E-03
       490   -1.435401E-02
 Sym= X
 Ene= -0.872051
 Spin= Alpha
 Occup= -0.872051
         1   -3.425376E-04
         2   -7.859893E-04
         3    1.663773E-03
         4   -1.163015E-03
         5    4.522362E-03
         6   -1.043688E-02
         7    5.140651E-03
         8    3.742140E-04
         9   -1.299249E-01
        10    5.307378E-04
        11    6.852107E-04
        12   -1.280953E-01
        13   -2.171550E-02
        14    1.155121E-03
        15   -5.041731E-02
        16    1.382837E-04
        17   -1.298725E-04
        18   -8.411221E-06
        19   -5.945858E-05
        20    6.050203E-04
        21   -4.123414E-03
        22   -3.893784E-04
        23    2.353913E-04
        24    1.539871E-04
        25   -8.012982E-04
        26    1.795999E-03
        27   -6.880223E-03
        28   -2.076633E-03
        29    1.827791E-03
        30    2.488427E-04
        31    1.816116E-03
        32    6.994161E-03
        33   -6.284998E-03
        34   -5.081112E-06
        35    9.514109E-06
        36    1.082516E-03
        37    3.617090E-07
        38   -8.513416E-06
        39   -5.750232E-04
        40    6.455318E-06
        41   -4.251101E-06
        42   -8.773249E-04
        43    4.904010E-04
        44    7.522343E-05
        45    1.654475E-04
        46    1.122907E-04
        47   -4.216929E-03
        48   -1.441828E-02
        49    9.337420E-03
        50   -1.758630E-03
        51    2.778445E-06
        52   -1.982078E-01
        53   -2.365124E-03
        54   -3.610026E-06
        55   -2.001559E-01
        56   -8.738386E-03
        57   -1.254121E-03
        58   -5.921875E-02
        59    1.866453E-04
        60   -1.860501E-04
        61   -5.951934E-07
        62    1.599513E-07