[Molden Format]
[Title]
ADC(2) - opt by CAM-B3LYP gaussian                                              
[Atoms] AU
 c     1    6 -.12588573623097E+01 -.22835126974190E+01 -.24083260376910E-01
 c     2    6 -.25578815622211E+01 0.23621577000000E-06 -.22837930855340E-01
 c     3    6 -.12588573623097E+01 0.22835131698505E+01 -.24090819281440E-01
 c     4    6 0.13318248850473E+01 0.22853065199506E+01 -.26003222127920E-01
 c     5    6 0.26868737956204E+01 0.23621577000000E-06 -.25389061134730E-01
 c     6    6 0.13318248850473E+01 -.22853060475191E+01 -.25993773497260E-01
 h     7    1 -.22974546243959E+01 -.40385977330627E+01 -.21598270512170E-01
 h     8    1 -.22974527346698E+01 0.40385982054942E+01 -.21613388321230E-01
 h     9    1 0.23510089905703E+01 0.40574312161345E+01 -.28191524989800E-01
 h    10    1 0.23510071008442E+01 -.40574307437030E+01 -.28172627728480E-01
 n    11    7 -.52726375582849E+01 0.23621577000000E-06 -.17238672323600E-01
 o    12    8 -.63813946825068E+01 0.20269261555273E+01 -.14842499587100E-01
 o    13    8 -.63813927927806E+01 -.20269275728219E+01 -.14865176300690E-01
 n    14    7 0.52430742102305E+01 0.23621577000000E-06 -.67376886081320E-01
 h    15    1 0.62051583509223E+01 0.16177513148781E+01 0.18115044628513E+00
 h    16    1 0.62051564611962E+01 -.16177527321727E+01 0.18114666683287E+00
[GTO]
    1 0
 s    6 1.00
 0.13575349682000E+05 0.60645503603591E-03
 0.20352333680000E+04 0.46979088884982E-02
 0.46322562359000E+03 0.24332477647552E-01
 0.13120019598000E+03 0.97399968307759E-01
 0.42853015891000E+02 0.30195584253780E+00
 0.15584185766000E+02 0.66233609137875E+00
 s    2 1.00
 0.62067138508000E+01 0.65595308539952E+00
 0.25764896527000E+01 0.37585633285142E+00
 s    1 1.00
 0.57696339419000E+00 0.10000000000000E+01
 s    1 1.00
 0.22972831358000E+00 0.10000000000000E+01
 s    1 1.00
 0.95164440028000E-01 0.10000000000000E+01
 s    1 1.00
 0.48475401370000E-01 0.10000000000000E+01
 p    4 1.00
 0.34697232244000E+02 0.11327220003114E-01
 0.79582622826000E+01 0.76169659202087E-01
 0.23780826883000E+01 0.30192252202676E+00
 0.81433208183000E+00 0.72785027349547E+00
 p    1 1.00
 0.28887547253000E+00 0.10000000000000E+01
 p    1 1.00
 0.10056823671000E+00 0.10000000000000E+01
 d    1 1.00
 0.10970000000000E+01 0.10000000000000E+01
 d    1 1.00
 0.31800000000000E+00 0.10000000000000E+01
 d    1 1.00
 0.90985336424000E-01 0.10000000000000E+01
 f    1 1.00
 0.76100000000000E+00 0.10000000000000E+01
 
    2 0
 s    6 1.00
 0.13575349682000E+05 0.60645503603591E-03
 0.20352333680000E+04 0.46979088884982E-02
 0.46322562359000E+03 0.24332477647552E-01
 0.13120019598000E+03 0.97399968307759E-01
 0.42853015891000E+02 0.30195584253780E+00
 0.15584185766000E+02 0.66233609137875E+00
 s    2 1.00
 0.62067138508000E+01 0.65595308539952E+00
 0.25764896527000E+01 0.37585633285142E+00
 s    1 1.00
 0.57696339419000E+00 0.10000000000000E+01
 s    1 1.00
 0.22972831358000E+00 0.10000000000000E+01
 s    1 1.00
 0.95164440028000E-01 0.10000000000000E+01
 s    1 1.00
 0.48475401370000E-01 0.10000000000000E+01
 p    4 1.00
 0.34697232244000E+02 0.11327220003114E-01
 0.79582622826000E+01 0.76169659202087E-01
 0.23780826883000E+01 0.30192252202676E+00
 0.81433208183000E+00 0.72785027349547E+00
 p    1 1.00
 0.28887547253000E+00 0.10000000000000E+01
 p    1 1.00
 0.10056823671000E+00 0.10000000000000E+01
 d    1 1.00
 0.10970000000000E+01 0.10000000000000E+01
 d    1 1.00
 0.31800000000000E+00 0.10000000000000E+01
 d    1 1.00
 0.90985336424000E-01 0.10000000000000E+01
 f    1 1.00
 0.76100000000000E+00 0.10000000000000E+01
 
    3 0
 s    6 1.00
 0.13575349682000E+05 0.60645503603591E-03
 0.20352333680000E+04 0.46979088884982E-02
 0.46322562359000E+03 0.24332477647552E-01
 0.13120019598000E+03 0.97399968307759E-01
 0.42853015891000E+02 0.30195584253780E+00
 0.15584185766000E+02 0.66233609137875E+00
 s    2 1.00
 0.62067138508000E+01 0.65595308539952E+00
 0.25764896527000E+01 0.37585633285142E+00
 s    1 1.00
 0.57696339419000E+00 0.10000000000000E+01
 s    1 1.00
 0.22972831358000E+00 0.10000000000000E+01
 s    1 1.00
 0.95164440028000E-01 0.10000000000000E+01
 s    1 1.00
 0.48475401370000E-01 0.10000000000000E+01
 p    4 1.00
 0.34697232244000E+02 0.11327220003114E-01
 0.79582622826000E+01 0.76169659202087E-01
 0.23780826883000E+01 0.30192252202676E+00
 0.81433208183000E+00 0.72785027349547E+00
 p    1 1.00
 0.28887547253000E+00 0.10000000000000E+01
 p    1 1.00
 0.10056823671000E+00 0.10000000000000E+01
 d    1 1.00
 0.10970000000000E+01 0.10000000000000E+01
 d    1 1.00
 0.31800000000000E+00 0.10000000000000E+01
 d    1 1.00
 0.90985336424000E-01 0.10000000000000E+01
 f    1 1.00
 0.76100000000000E+00 0.10000000000000E+01
 
    4 0
 s    6 1.00
 0.13575349682000E+05 0.60645503603591E-03
 0.20352333680000E+04 0.46979088884982E-02
 0.46322562359000E+03 0.24332477647552E-01
 0.13120019598000E+03 0.97399968307759E-01
 0.42853015891000E+02 0.30195584253780E+00
 0.15584185766000E+02 0.66233609137875E+00
 s    2 1.00
 0.62067138508000E+01 0.65595308539952E+00
 0.25764896527000E+01 0.37585633285142E+00
 s    1 1.00
 0.57696339419000E+00 0.10000000000000E+01
 s    1 1.00
 0.22972831358000E+00 0.10000000000000E+01
 s    1 1.00
 0.95164440028000E-01 0.10000000000000E+01
 s    1 1.00
 0.48475401370000E-01 0.10000000000000E+01
 p    4 1.00
 0.34697232244000E+02 0.11327220003114E-01
 0.79582622826000E+01 0.76169659202087E-01
 0.23780826883000E+01 0.30192252202676E+00
 0.81433208183000E+00 0.72785027349547E+00
 p    1 1.00
 0.28887547253000E+00 0.10000000000000E+01
 p    1 1.00
 0.10056823671000E+00 0.10000000000000E+01
 d    1 1.00
 0.10970000000000E+01 0.10000000000000E+01
 d    1 1.00
 0.31800000000000E+00 0.10000000000000E+01
 d    1 1.00
 0.90985336424000E-01 0.10000000000000E+01
 f    1 1.00
 0.76100000000000E+00 0.10000000000000E+01
 
    5 0
 s    6 1.00
 0.13575349682000E+05 0.60645503603591E-03
 0.20352333680000E+04 0.46979088884982E-02
 0.46322562359000E+03 0.24332477647552E-01
 0.13120019598000E+03 0.97399968307759E-01
 0.42853015891000E+02 0.30195584253780E+00
 0.15584185766000E+02 0.66233609137875E+00
 s    2 1.00
 0.62067138508000E+01 0.65595308539952E+00
 0.25764896527000E+01 0.37585633285142E+00
 s    1 1.00
 0.57696339419000E+00 0.10000000000000E+01
 s    1 1.00
 0.22972831358000E+00 0.10000000000000E+01
 s    1 1.00
 0.95164440028000E-01 0.10000000000000E+01
 s    1 1.00
 0.48475401370000E-01 0.10000000000000E+01
 p    4 1.00
 0.34697232244000E+02 0.11327220003114E-01
 0.79582622826000E+01 0.76169659202087E-01
 0.23780826883000E+01 0.30192252202676E+00
 0.81433208183000E+00 0.72785027349547E+00
 p    1 1.00
 0.28887547253000E+00 0.10000000000000E+01
 p    1 1.00
 0.10056823671000E+00 0.10000000000000E+01
 d    1 1.00
 0.10970000000000E+01 0.10000000000000E+01
 d    1 1.00
 0.31800000000000E+00 0.10000000000000E+01
 d    1 1.00
 0.90985336424000E-01 0.10000000000000E+01
 f    1 1.00
 0.76100000000000E+00 0.10000000000000E+01
 
    6 0
 s    6 1.00
 0.13575349682000E+05 0.60645503603591E-03
 0.20352333680000E+04 0.46979088884982E-02
 0.46322562359000E+03 0.24332477647552E-01
 0.13120019598000E+03 0.97399968307759E-01
 0.42853015891000E+02 0.30195584253780E+00
 0.15584185766000E+02 0.66233609137875E+00
 s    2 1.00
 0.62067138508000E+01 0.65595308539952E+00
 0.25764896527000E+01 0.37585633285142E+00
 s    1 1.00
 0.57696339419000E+00 0.10000000000000E+01
 s    1 1.00
 0.22972831358000E+00 0.10000000000000E+01
 s    1 1.00
 0.95164440028000E-01 0.10000000000000E+01
 s    1 1.00
 0.48475401370000E-01 0.10000000000000E+01
 p    4 1.00
 0.34697232244000E+02 0.11327220003114E-01
 0.79582622826000E+01 0.76169659202087E-01
 0.23780826883000E+01 0.30192252202676E+00
 0.81433208183000E+00 0.72785027349547E+00
 p    1 1.00
 0.28887547253000E+00 0.10000000000000E+01
 p    1 1.00
 0.10056823671000E+00 0.10000000000000E+01
 d    1 1.00
 0.10970000000000E+01 0.10000000000000E+01
 d    1 1.00
 0.31800000000000E+00 0.10000000000000E+01
 d    1 1.00
 0.90985336424000E-01 0.10000000000000E+01
 f    1 1.00
 0.76100000000000E+00 0.10000000000000E+01
 
    7 0
 s    3 1.00
 0.34061341000000E+02 0.25439307208879E-01
 0.51235746000000E+01 0.19008594890375E+00
 0.11646626000000E+01 0.85244113011042E+00
 s    1 1.00
 0.32723041000000E+00 0.10000000000000E+01
 s    1 1.00
 0.10307241000000E+00 0.10000000000000E+01
 p    1 1.00
 0.80000000000000E+00 0.10000000000000E+01
 p    1 1.00
 0.95774129632000E-01 0.10000000000000E+01
 
    8 0
 s    3 1.00
 0.34061341000000E+02 0.25439307208879E-01
 0.51235746000000E+01 0.19008594890375E+00
 0.11646626000000E+01 0.85244113011042E+00
 s    1 1.00
 0.32723041000000E+00 0.10000000000000E+01
 s    1 1.00
 0.10307241000000E+00 0.10000000000000E+01
 p    1 1.00
 0.80000000000000E+00 0.10000000000000E+01
 p    1 1.00
 0.95774129632000E-01 0.10000000000000E+01
 
    9 0
 s    3 1.00
 0.34061341000000E+02 0.25439307208879E-01
 0.51235746000000E+01 0.19008594890375E+00
 0.11646626000000E+01 0.85244113011042E+00
 s    1 1.00
 0.32723041000000E+00 0.10000000000000E+01
 s    1 1.00
 0.10307241000000E+00 0.10000000000000E+01
 p    1 1.00
 0.80000000000000E+00 0.10000000000000E+01
 p    1 1.00
 0.95774129632000E-01 0.10000000000000E+01
 
   10 0
 s    3 1.00
 0.34061341000000E+02 0.25439307208879E-01
 0.51235746000000E+01 0.19008594890375E+00
 0.11646626000000E+01 0.85244113011042E+00
 s    1 1.00
 0.32723041000000E+00 0.10000000000000E+01
 s    1 1.00
 0.10307241000000E+00 0.10000000000000E+01
 p    1 1.00
 0.80000000000000E+00 0.10000000000000E+01
 p    1 1.00
 0.95774129632000E-01 0.10000000000000E+01
 
   11 0
 s    6 1.00
 0.19730800647000E+05 0.58626402628763E-03
 0.29578958745000E+04 0.45428820586397E-02
 0.67322133595000E+03 0.23558413450084E-01
 0.19068249494000E+03 0.94709193292923E-01
 0.62295441898000E+02 0.29719784913376E+00
 0.22654161182000E+02 0.66916246895232E+00
 s    2 1.00
 0.89791477428000E+01 0.64596683630063E+00
 0.36863002370000E+01 0.38700574393705E+00
 s    1 1.00
 0.84660076805000E+00 0.10000000000000E+01
 s    1 1.00
 0.33647133771000E+00 0.10000000000000E+01
 s    1 1.00
 0.13647653675000E+00 0.10000000000000E+01
 s    1 1.00
 0.68441605847000E-01 0.10000000000000E+01
 p    4 1.00
 0.49200380510000E+02 0.11448825101764E-01
 0.11346790537000E+02 0.78422337970864E-01
 0.34273972411000E+01 0.30818094738830E+00
 0.11785525134000E+01 0.72027196368413E+00
 p    1 1.00
 0.41642204972000E+00 0.10000000000000E+01
 p    1 1.00
 0.14260826011000E+00 0.10000000000000E+01
 d    1 1.00
 0.16540000000000E+01 0.10000000000000E+01
 d    1 1.00
 0.46900000000000E+00 0.10000000000000E+01
 d    1 1.00
 0.12829642058000E+00 0.10000000000000E+01
 f    1 1.00
 0.10930000000000E+01 0.10000000000000E+01
 
   12 0
 s    6 1.00
 0.27032382631000E+05 0.57227335211155E-03
 0.40523871392000E+04 0.44353233492995E-02
 0.92232722710000E+03 0.23020107706038E-01
 0.26124070989000E+03 0.92822490667928E-01
 0.85354641351000E+02 0.29378500009671E+00
 0.31035035245000E+02 0.67401604501641E+00
 s    2 1.00
 0.12260860728000E+02 0.63839937025506E+00
 0.49987076005000E+01 0.39534587125718E+00
 s    1 1.00
 0.11703108158000E+01 0.10000000000000E+01
 s    1 1.00
 0.46474740994000E+00 0.10000000000000E+01
 s    1 1.00
 0.18504536357000E+00 0.10000000000000E+01
 s    1 1.00
 0.70288026270000E-01 0.10000000000000E+01
 p    4 1.00
 0.63274954801000E+02 0.12018332222616E-01
 0.14627049379000E+02 0.83005421790056E-01
 0.44501223456000E+01 0.31991743925964E+00
 0.15275799647000E+01 0.70715542916104E+00
 p    1 1.00
 0.52935117943000E+00 0.10000000000000E+01
 p    1 1.00
 0.17478421270000E+00 0.10000000000000E+01
 p    1 1.00
 0.51112745706000E-01 0.10000000000000E+01
 d    1 1.00
 0.23140000000000E+01 0.10000000000000E+01
 d    1 1.00
 0.64500000000000E+00 0.10000000000000E+01
 d    1 1.00
 0.14696477366000E+00 0.10000000000000E+01
 f    1 1.00
 0.14280000000000E+01 0.10000000000000E+01
 
   13 0
 s    6 1.00
 0.27032382631000E+05 0.57227335211155E-03
 0.40523871392000E+04 0.44353233492995E-02
 0.92232722710000E+03 0.23020107706038E-01
 0.26124070989000E+03 0.92822490667928E-01
 0.85354641351000E+02 0.29378500009671E+00
 0.31035035245000E+02 0.67401604501641E+00
 s    2 1.00
 0.12260860728000E+02 0.63839937025506E+00
 0.49987076005000E+01 0.39534587125718E+00
 s    1 1.00
 0.11703108158000E+01 0.10000000000000E+01
 s    1 1.00
 0.46474740994000E+00 0.10000000000000E+01
 s    1 1.00
 0.18504536357000E+00 0.10000000000000E+01
 s    1 1.00
 0.70288026270000E-01 0.10000000000000E+01
 p    4 1.00
 0.63274954801000E+02 0.12018332222616E-01
 0.14627049379000E+02 0.83005421790056E-01
 0.44501223456000E+01 0.31991743925964E+00
 0.15275799647000E+01 0.70715542916104E+00
 p    1 1.00
 0.52935117943000E+00 0.10000000000000E+01
 p    1 1.00
 0.17478421270000E+00 0.10000000000000E+01
 p    1 1.00
 0.51112745706000E-01 0.10000000000000E+01
 d    1 1.00
 0.23140000000000E+01 0.10000000000000E+01
 d    1 1.00
 0.64500000000000E+00 0.10000000000000E+01
 d    1 1.00
 0.14696477366000E+00 0.10000000000000E+01
 f    1 1.00
 0.14280000000000E+01 0.10000000000000E+01
 
   14 0
 s    6 1.00
 0.19730800647000E+05 0.58626402628763E-03
 0.29578958745000E+04 0.45428820586397E-02
 0.67322133595000E+03 0.23558413450084E-01
 0.19068249494000E+03 0.94709193292923E-01
 0.62295441898000E+02 0.29719784913376E+00
 0.22654161182000E+02 0.66916246895232E+00
 s    2 1.00
 0.89791477428000E+01 0.64596683630063E+00
 0.36863002370000E+01 0.38700574393705E+00
 s    1 1.00
 0.84660076805000E+00 0.10000000000000E+01
 s    1 1.00
 0.33647133771000E+00 0.10000000000000E+01
 s    1 1.00
 0.13647653675000E+00 0.10000000000000E+01
 s    1 1.00
 0.68441605847000E-01 0.10000000000000E+01
 p    4 1.00
 0.49200380510000E+02 0.11448825101764E-01
 0.11346790537000E+02 0.78422337970864E-01
 0.34273972411000E+01 0.30818094738830E+00
 0.11785525134000E+01 0.72027196368413E+00
 p    1 1.00
 0.41642204972000E+00 0.10000000000000E+01
 p    1 1.00
 0.14260826011000E+00 0.10000000000000E+01
 d    1 1.00
 0.16540000000000E+01 0.10000000000000E+01
 d    1 1.00
 0.46900000000000E+00 0.10000000000000E+01
 d    1 1.00
 0.12829642058000E+00 0.10000000000000E+01
 f    1 1.00
 0.10930000000000E+01 0.10000000000000E+01
 
   15 0
 s    3 1.00
 0.34061341000000E+02 0.25439307208879E-01
 0.51235746000000E+01 0.19008594890375E+00
 0.11646626000000E+01 0.85244113011042E+00
 s    1 1.00
 0.32723041000000E+00 0.10000000000000E+01
 s    1 1.00
 0.10307241000000E+00 0.10000000000000E+01
 p    1 1.00
 0.80000000000000E+00 0.10000000000000E+01
 p    1 1.00
 0.95774129632000E-01 0.10000000000000E+01
 
   16 0
 s    3 1.00
 0.34061341000000E+02 0.25439307208879E-01
 0.51235746000000E+01 0.19008594890375E+00
 0.11646626000000E+01 0.85244113011042E+00
 s    1 1.00
 0.32723041000000E+00 0.10000000000000E+01
 s    1 1.00
 0.10307241000000E+00 0.10000000000000E+01
 p    1 1.00
 0.80000000000000E+00 0.10000000000000E+01
 p    1 1.00
 0.95774129632000E-01 0.10000000000000E+01
 
[MO]
 Sym= X
 Ene= -0.902268
 Spin= Alpha
 Occup= -0.902268
         1   -2.122435E-05
         2   -4.835150E-05
         3    1.194287E-04
         4   -1.642897E-04
         5   -9.540287E-03
         6   -4.343568E-04
         7   -1.333673E-04
         8   -1.470876E-04
         9   -1.884437E-01
        10   -5.362701E-04
        11   -3.222006E-05
        12   -1.889037E-01
        13    3.561021E-03
        14   -6.114574E-03
        15   -1.100943E-01
        16   -7.514933E-06
        17    2.252775E-06
        18    5.262159E-06
        19    1.629545E-06
        20   -4.966512E-03
        21   -5.417905E-04
        22   -9.358900E-05
        23    5.571517E-05
        24    3.787383E-05
        25    1.773015E-05
        26   -9.522414E-03
        27    4.121710E-04
        28    7.954464E-04
        29   -9.330803E-04
        30    1.376339E-04
        31    4.312325E-04
        32   -2.723276E-03
        33   -5.926921E-04
        34   -4.084144E-06
        35   -8.196863E-07
        36    1.162143E-03
        37    8.349601E-07
        38    1.947870E-07
        39   -1.405392E-03
        40    4.644494E-06
        41    9.049376E-07
        42   -1.537867E-04
        43   -2.888023E-06
        44    1.191455E-07
        45    2.849523E-07
        46    6.895751E-07
        47   -3.281372E-05
        48    2.188889E-03
        49    1.148034E-04
        50   -1.928424E-06
        51    9.710250E-05
        52   -1.546268E-05
        53   -4.239721E-06
        54    1.889159E-04
        55   -8.206593E-06
        56    1.044436E-03
        57   -9.235608E-03
        58    4.636673E-05
        59   -9.081630E-09
        60   -1.209924E-07
        61    1.300741E-07
        62    9.646664E-06
        63   -2.244227E-07
        64    7.024489E-03
        65   -1.113857E-06
        66    2.684972E-06
        67   -1.571115E-06
        68    6.692521E-05
        69    2.548990E-06
        70    1.592037E-02
        71    2.274420E-05
        72    1.349617E-05
        73   -3.624037E-05
        74   -1.356976E-03
        75    9.528961E-06
        76    1.694633E-03
        77    5.076370E-08
        78    1.974334E-07
        79   -2.287405E-08
        80   -7.805636E-08
        81    1.634127E-06
        82    8.256141E-09
        83    9.949707E-09
        84   -1.899012E-06
        85    2.243261E-08
        86    1.016429E-03
        87    2.046140E-05
        88    4.678822E-05
        89   -1.160891E-04
        90    1.910154E-04
        91    5.763025E-03
        92    2.881983E-04
        93    1.339741E-04
        94   -1.426565E-04
        95    1.884348E-01
        96    4.927140E-04
        97   -2.418842E-05
        98    1.888929E-01
        99   -4.566056E-03
       100   -4.266449E-03
       101    1.099321E-01
       102    7.948440E-06
       103   -2.313680E-06
       104   -5.634760E-06
       105    1.357186E-06
       106    4.967955E-03
       107   -5.414920E-04
       108    7.933012E-05
       109   -4.674373E-05
       110   -3.258639E-05
       111    1.469326E-05
       112    9.524746E-03
       113    4.171224E-04
       114   -7.448171E-04
       115    8.283618E-04
       116   -8.354463E-05
       117    5.337527E-04
       118    2.692539E-03
       119   -5.563502E-04
       120    3.837332E-06
       121   -7.946595E-07
       122   -1.162130E-03
       123   -8.389722E-07
       124    3.388846E-07
       125    1.405645E-03
       126   -4.309349E-06
       127    7.272630E-07
       128    1.535164E-04
       129   -3.124274E-06
       130   -1.374128E-05
       131   -3.258491E-05
       132    1.271086E-04
       133   -5.079793E-04
       134   -9.254237E-03
       135   -4.236201E-04
       136    1.310933E-04
       137    8.242828E-05
       138    1.991224E-01
       139    3.109455E-04
       140    1.574779E-04
       141    2.017657E-01
       142   -5.134860E-03
       143    6.465517E-03
       144    1.286800E-01
       145   -1.147435E-05
       146   -6.013345E-07
       147    1.207568E-05
       148    7.012158E-06
       149   -4.680594E-03
       150   -4.876443E-04
       151   -1.252644E-04
       152    3.880474E-05
       153    8.645965E-05
       154    6.618231E-05
       155   -8.340334E-03
       156   -7.751264E-04
       157    2.362093E-04
       158   -4.282732E-04
       159    1.920640E-04
       160    8.586484E-04
       161   -6.747996E-04
       162   -2.700621E-03
       163    4.787525E-06
       164    1.206052E-06
       165   -1.305803E-03
       166   -2.985180E-06
       167    5.087509E-07
       168    1.458946E-03
       169   -3.437958E-06
       170   -2.126839E-06
       171    2.929728E-04
       172   -4.711802E-05
       173    5.938111E-07
       174    1.214995E-06
       175    4.146232E-06
       176   -1.162152E-05
       177   -2.710196E-03
       178   -1.629804E-04
       179   -8.370093E-08
       180   -1.108308E-04
       181    1.065557E-05
       182    1.248871E-05
       183   -1.000249E-04
       184    3.282327E-06
       185    9.581504E-04
       186    1.358507E-02
       187   -7.239928E-06
       188    2.147339E-07
       189   -1.077103E-07
       190   -1.070237E-07
       191   -2.153111E-05
       192   -1.603135E-06
       193    7.440308E-03
       194   -1.287926E-07
       195   -6.224456E-06
       196    6.353248E-06
       197   -8.787861E-05
       198   -1.144123E-06
       199    1.545237E-02
       200   -2.245674E-05
       201   -3.858631E-05
       202    6.104305E-05
       203   -2.551513E-03
       204    2.154425E-06
       205   -2.804299E-03
       206   -1.125674E-07
       207    4.414139E-06
       208    8.726581E-08
       209    2.288819E-07
       210   -3.205229E-06
       211   -2.452911E-07
       212   -7.785694E-08
       213   -2.716960E-06
       214    1.282118E-07
       215   -1.175142E-03
       216    1.452813E-05
       217    3.430712E-05
       218   -1.384063E-04
       219    5.405297E-04
       220    1.363288E-02
       221    5.750680E-04
       222   -1.364512E-04
       223    8.455275E-05
       224   -1.990854E-01
       225   -3.532304E-04
       226    1.897355E-04
       227   -2.017254E-01
       228    4.490043E-03
       229    8.333397E-03
       230   -1.285042E-01
       231    1.157503E-05
       232    1.563855E-07
       233   -1.173141E-05
       234    7.309102E-06
       235    4.681146E-03
       236   -4.872664E-04
       237    1.358675E-04
       238   -4.218901E-05
       239   -9.367847E-05
       240    7.343547E-05
       241    8.341827E-03
       242   -7.701370E-04
       243   -2.972397E-04
       244    5.519422E-04
       245   -2.547025E-04
       246    7.689625E-04
       247    6.530873E-04
       248   -2.680791E-03
       249   -5.075740E-06
       250    1.373024E-06
       251    1.305669E-03
       252    3.178250E-06
       253    5.950710E-07
       254   -1.459045E-03
       255    3.631570E-06
       256   -2.437176E-06
       257   -2.926936E-04
       258   -4.689969E-05
       259    2.750526E-05
       260    2.004792E-05
       261   -7.285744E-04
       262   -9.714294E-06
       263   -1.740351E-06
       264   -7.698012E-03
       265    6.753662E-05
       266   -3.017564E-04
       267   -7.538121E-03
       268   -2.471035E-05
       269   -3.723710E-05
       270    1.287759E-04
       271    8.920703E-06
       272   -5.099529E-07
       273    7.697307E-03
       274   -1.030338E-04
       275   -1.463667E-04
       276    7.505926E-03
       277    1.457361E-05
       278    1.952186E-05
       279   -1.753583E-03
       280    1.283400E-05
       281    3.130746E-06
       282    8.545127E-03
       283    4.526050E-04
       284    1.503247E-04
       285    9.576301E-03
       286   -1.875915E-05
       287   -1.216321E-05
       288    2.145014E-03
       289   -1.359384E-05
       290    4.512678E-06
       291   -8.543646E-03
       292   -4.802305E-04
       293    2.879747E-04
       294   -9.569435E-03
       295   -2.215362E-08
       296   -2.525296E-08
       297   -6.036626E-07
       298    2.519962E-06
       299    1.410684E-04
       300   -6.735783E-05
       301    5.054171E-07
       302   -9.607645E-06
       303    3.201237E-07
       304    2.076203E-06
       305    6.352350E-06
       306    2.985712E-07
       307    3.315938E-05
       308    2.182964E-04
       309   -1.586636E-06
       310    1.071807E-07
       311   -1.250741E-07
       312    1.789339E-08
       313   -2.310498E-06
       314   -2.979290E-07
       315   -1.397075E-03
       316    3.844581E-07
       317   -6.024744E-08
       318   -3.242107E-07
       319    3.895594E-06
       320   -7.495452E-07
       321   -3.654787E-03
       322   -7.168594E-06
       323   -5.632320E-06
       324    1.280091E-05
       325    1.411762E-04
       326    7.121533E-07
       327   -2.168692E-03
       328    1.880549E-08
       329   -7.112101E-07
       330   -8.263639E-09
       331   -3.280066E-08
       332    2.515375E-06
       333   -3.841711E-08
       334    7.570450E-09
       335   -1.561186E-06
       336    4.950395E-08
       337    4.149199E-04
       338    8.218047E-07
       339    2.062967E-06
       340   -3.718668E-06
       341    3.685967E-06
       342   -7.761323E-06
       343   -2.517416E-05
       344   -1.374415E-04
       345   -7.207555E-06
       346   -4.505132E-02
       347   -1.229248E-04
       348   -3.480362E-06
       349   -4.191304E-02
       350   -1.795551E-04
       351   -4.816081E-05
       352   -3.004341E-02
       353   -2.281843E-05
       354   -8.208290E-06
       355   -1.769599E-03
       356   -3.688971E-07
       357   -1.563557E-07
       358    5.252528E-07
       359    9.346234E-07
       360   -1.560114E-04
       361    3.500953E-04
       362   -4.040185E-06
       363    6.809921E-07
       364    3.359193E-06
       365    4.641725E-06
       366   -5.507540E-04
       367    1.352771E-03
       368   -6.992233E-06
       369    1.594427E-05
       370   -8.952033E-06
       371    7.422321E-06
       372    1.090290E-04
       373    1.263581E-04
       374    1.854675E-07
       375   -7.796208E-08
       376    5.217925E-05
       377   -3.464876E-07
       378    6.184214E-07
       379    3.132004E-05
       380    9.765678E-08
       381   -5.138242E-07
       382   -1.013258E-04
       383    1.192155E-04
       384   -7.519880E-07
       385   -1.913096E-06
       386    3.976518E-06
       387   -7.068507E-06
       388    4.540368E-05
       389    6.602836E-05
       390    1.320780E-04
       391   -6.417604E-06
       392    4.506157E-02
       393    1.190558E-04
       394   -3.592893E-06
       395    4.192229E-02
       396    1.732903E-04
       397   -3.727469E-05
       398    3.005209E-02
       399    2.744758E-05
       400   -3.038206E-06
       401    1.769417E-03
       402    3.738866E-07
       403    1.514260E-07
       404   -5.253126E-07
       405    8.700422E-07
       406    1.560239E-04
       407    3.501886E-04
       408    3.804687E-06
       409   -6.407091E-07
       410   -3.163978E-06
       411    4.546231E-06
       412    5.508722E-04
       413    1.353083E-03
       414    6.379986E-06
       415   -1.425469E-05
       416    7.874700E-06
       417    5.662306E-06
       418   -1.097034E-04
       419    1.272987E-04
       420   -1.921646E-07
       421   -6.012586E-08
       422   -5.219346E-05
       423    3.194760E-07
       424    5.965740E-07
       425   -3.133505E-05
       426   -6.166014E-08
       427   -5.159067E-07
       428    1.013599E-04
       429    1.192408E-04
       430   -9.952662E-07
       431   -2.402043E-06
       432    3.975509E-06
       433    1.108139E-07
       434   -1.060490E-05
       435    7.476974E-05
       436    1.076999E-06
       437   -8.096931E-04
       438   -4.054456E-05
       439    2.910322E-06
       440   -1.066745E-03
       441   -3.954767E-05
       442   -3.948400E-05
       443   -1.365262E-03
       444   -3.679185E-05
       445    4.294648E-08
       446   -2.753315E-08
       447   -1.541333E-08
       448    1.795987E-05
       449   -5.332386E-08
       450    2.963795E-04
       451    3.088165E-07
       452    4.154942E-07
       453   -7.243107E-07
       454   -5.058540E-05
       455   -1.683882E-08
       456    6.530803E-04
       457    1.240170E-05
       458   -3.010575E-06
       459   -9.391120E-06
       460   -6.461008E-04
       461    1.368083E-06
       462   -1.073755E-03
       463    7.350247E-09
       464   -3.757302E-06
       465    1.729437E-07
       466    1.572663E-08
       467   -1.353450E-05
       468   -1.222540E-07
       469   -2.558802E-08
       470    1.857545E-05
       471   -1.097743E-07
       472   -1.331620E-04
       473    5.791962E-05
       474    5.845967E-04
       475    4.035148E-03
       476   -6.197802E-05
       477   -7.984203E-05
       478    3.703044E-04
       479   -3.216211E-04
       480   -8.523951E-04
       481    1.927448E-03
       482   -6.090949E-05
       483   -5.924874E-04
       484   -4.026706E-03
       485    6.302477E-05
       486   -8.079638E-05
       487   -3.741662E-04
       488    3.025647E-04
       489   -8.623897E-04
       490   -1.929972E-03
 Sym= X
 Ene= 0.902268
 Spin= Alpha
 Occup= 0.902268
         1    1.811784E-04
         2    4.651170E-04
         3   -1.509993E-03
         4    8.594780E-03
         5   -4.745318E-02
         6    6.246586E-02
         7   -4.847081E-04
         8   -2.692626E-04
         9   -1.945312E-01
        10   -6.849045E-03
        11   -9.869328E-04
        12   -2.125288E-01
        13   -1.690513E-01
        14    1.151638E-01
        15   -2.378591E-01
        16    3.461910E-05
        17    7.312813E-06
        18   -4.193191E-05
        19    1.441561E-05
        20    5.956812E-03
        21   -7.170270E-04
        22   -1.744000E-03
        23    1.288494E-03
        24    4.555062E-04
        25   -3.332497E-04
        26    1.683446E-02
        27    2.769950E-03
        28   -4.223530E-02
        29    3.498920E-02
        30    7.246092E-03
        31   -6.888563E-02
        32    3.220687E-02
        33    9.074686E-02
        34   -2.709354E-05
        35   -3.216411E-06
        36    2.463523E-04
        37   -2.619397E-05
        38   -2.764869E-05
        39    2.717146E-04
        40    6.254378E-05
        41    3.196396E-05
        42   -6.022309E-04
        43    3.664204E-05
        44   -5.917585E-06
        45   -1.295027E-05
        46   -1.119847E-05
        47    2.672682E-04
        48   -5.413055E-03
        49   -1.894451E-02
        50    2.421240E-05
        51    4.827378E-05
        52   -2.975401E-04
        53    8.917237E-05
        54    2.194646E-03
        55   -4.119981E-04
        56    1.271214E-02
        57    2.599696E-01
        58    4.869152E-05
        59    4.001982E-06
        60   -3.721610E-06
        61   -2.803716E-07
        62    6.225902E-05