[Molden Format]
[Title]
ADC(2) - opt by CAM-B3LYP gaussian                                              
[Atoms] AU
 c     1    6 -.12588573623097E+01 -.22835126974190E+01 -.24083260376910E-01
 c     2    6 -.25578815622211E+01 0.23621577000000E-06 -.22837930855340E-01
 c     3    6 -.12588573623097E+01 0.22835131698505E+01 -.24090819281440E-01
 c     4    6 0.13318248850473E+01 0.22853065199506E+01 -.26003222127920E-01
 c     5    6 0.26868737956204E+01 0.23621577000000E-06 -.25389061134730E-01
 c     6    6 0.13318248850473E+01 -.22853060475191E+01 -.25993773497260E-01
 h     7    1 -.22974546243959E+01 -.40385977330627E+01 -.21598270512170E-01
 h     8    1 -.22974527346698E+01 0.40385982054942E+01 -.21613388321230E-01
 h     9    1 0.23510089905703E+01 0.40574312161345E+01 -.28191524989800E-01
 h    10    1 0.23510071008442E+01 -.40574307437030E+01 -.28172627728480E-01
 n    11    7 -.52726375582849E+01 0.23621577000000E-06 -.17238672323600E-01
 o    12    8 -.63813946825068E+01 0.20269261555273E+01 -.14842499587100E-01
 o    13    8 -.63813927927806E+01 -.20269275728219E+01 -.14865176300690E-01
 n    14    7 0.52430742102305E+01 0.23621577000000E-06 -.67376886081320E-01
 h    15    1 0.62051583509223E+01 0.16177513148781E+01 0.18115044628513E+00
 h    16    1 0.62051564611962E+01 -.16177527321727E+01 0.18114666683287E+00
[GTO]
    1 0
 s    6 1.00
 0.13575349682000E+05 0.60645503603591E-03
 0.20352333680000E+04 0.46979088884982E-02
 0.46322562359000E+03 0.24332477647552E-01
 0.13120019598000E+03 0.97399968307759E-01
 0.42853015891000E+02 0.30195584253780E+00
 0.15584185766000E+02 0.66233609137875E+00
 s    2 1.00
 0.62067138508000E+01 0.65595308539952E+00
 0.25764896527000E+01 0.37585633285142E+00
 s    1 1.00
 0.57696339419000E+00 0.10000000000000E+01
 s    1 1.00
 0.22972831358000E+00 0.10000000000000E+01
 s    1 1.00
 0.95164440028000E-01 0.10000000000000E+01
 s    1 1.00
 0.48475401370000E-01 0.10000000000000E+01
 p    4 1.00
 0.34697232244000E+02 0.11327220003114E-01
 0.79582622826000E+01 0.76169659202087E-01
 0.23780826883000E+01 0.30192252202676E+00
 0.81433208183000E+00 0.72785027349547E+00
 p    1 1.00
 0.28887547253000E+00 0.10000000000000E+01
 p    1 1.00
 0.10056823671000E+00 0.10000000000000E+01
 d    1 1.00
 0.10970000000000E+01 0.10000000000000E+01
 d    1 1.00
 0.31800000000000E+00 0.10000000000000E+01
 d    1 1.00
 0.90985336424000E-01 0.10000000000000E+01
 f    1 1.00
 0.76100000000000E+00 0.10000000000000E+01
 
    2 0
 s    6 1.00
 0.13575349682000E+05 0.60645503603591E-03
 0.20352333680000E+04 0.46979088884982E-02
 0.46322562359000E+03 0.24332477647552E-01
 0.13120019598000E+03 0.97399968307759E-01
 0.42853015891000E+02 0.30195584253780E+00
 0.15584185766000E+02 0.66233609137875E+00
 s    2 1.00
 0.62067138508000E+01 0.65595308539952E+00
 0.25764896527000E+01 0.37585633285142E+00
 s    1 1.00
 0.57696339419000E+00 0.10000000000000E+01
 s    1 1.00
 0.22972831358000E+00 0.10000000000000E+01
 s    1 1.00
 0.95164440028000E-01 0.10000000000000E+01
 s    1 1.00
 0.48475401370000E-01 0.10000000000000E+01
 p    4 1.00
 0.34697232244000E+02 0.11327220003114E-01
 0.79582622826000E+01 0.76169659202087E-01
 0.23780826883000E+01 0.30192252202676E+00
 0.81433208183000E+00 0.72785027349547E+00
 p    1 1.00
 0.28887547253000E+00 0.10000000000000E+01
 p    1 1.00
 0.10056823671000E+00 0.10000000000000E+01
 d    1 1.00
 0.10970000000000E+01 0.10000000000000E+01
 d    1 1.00
 0.31800000000000E+00 0.10000000000000E+01
 d    1 1.00
 0.90985336424000E-01 0.10000000000000E+01
 f    1 1.00
 0.76100000000000E+00 0.10000000000000E+01
 
    3 0
 s    6 1.00
 0.13575349682000E+05 0.60645503603591E-03
 0.20352333680000E+04 0.46979088884982E-02
 0.46322562359000E+03 0.24332477647552E-01
 0.13120019598000E+03 0.97399968307759E-01
 0.42853015891000E+02 0.30195584253780E+00
 0.15584185766000E+02 0.66233609137875E+00
 s    2 1.00
 0.62067138508000E+01 0.65595308539952E+00
 0.25764896527000E+01 0.37585633285142E+00
 s    1 1.00
 0.57696339419000E+00 0.10000000000000E+01
 s    1 1.00
 0.22972831358000E+00 0.10000000000000E+01
 s    1 1.00
 0.95164440028000E-01 0.10000000000000E+01
 s    1 1.00
 0.48475401370000E-01 0.10000000000000E+01
 p    4 1.00
 0.34697232244000E+02 0.11327220003114E-01
 0.79582622826000E+01 0.76169659202087E-01
 0.23780826883000E+01 0.30192252202676E+00
 0.81433208183000E+00 0.72785027349547E+00
 p    1 1.00
 0.28887547253000E+00 0.10000000000000E+01
 p    1 1.00
 0.10056823671000E+00 0.10000000000000E+01
 d    1 1.00
 0.10970000000000E+01 0.10000000000000E+01
 d    1 1.00
 0.31800000000000E+00 0.10000000000000E+01
 d    1 1.00
 0.90985336424000E-01 0.10000000000000E+01
 f    1 1.00
 0.76100000000000E+00 0.10000000000000E+01
 
    4 0
 s    6 1.00
 0.13575349682000E+05 0.60645503603591E-03
 0.20352333680000E+04 0.46979088884982E-02
 0.46322562359000E+03 0.24332477647552E-01
 0.13120019598000E+03 0.97399968307759E-01
 0.42853015891000E+02 0.30195584253780E+00
 0.15584185766000E+02 0.66233609137875E+00
 s    2 1.00
 0.62067138508000E+01 0.65595308539952E+00
 0.25764896527000E+01 0.37585633285142E+00
 s    1 1.00
 0.57696339419000E+00 0.10000000000000E+01
 s    1 1.00
 0.22972831358000E+00 0.10000000000000E+01
 s    1 1.00
 0.95164440028000E-01 0.10000000000000E+01
 s    1 1.00
 0.48475401370000E-01 0.10000000000000E+01
 p    4 1.00
 0.34697232244000E+02 0.11327220003114E-01
 0.79582622826000E+01 0.76169659202087E-01
 0.23780826883000E+01 0.30192252202676E+00
 0.81433208183000E+00 0.72785027349547E+00
 p    1 1.00
 0.28887547253000E+00 0.10000000000000E+01
 p    1 1.00
 0.10056823671000E+00 0.10000000000000E+01
 d    1 1.00
 0.10970000000000E+01 0.10000000000000E+01
 d    1 1.00
 0.31800000000000E+00 0.10000000000000E+01
 d    1 1.00
 0.90985336424000E-01 0.10000000000000E+01
 f    1 1.00
 0.76100000000000E+00 0.10000000000000E+01
 
    5 0
 s    6 1.00
 0.13575349682000E+05 0.60645503603591E-03
 0.20352333680000E+04 0.46979088884982E-02
 0.46322562359000E+03 0.24332477647552E-01
 0.13120019598000E+03 0.97399968307759E-01
 0.42853015891000E+02 0.30195584253780E+00
 0.15584185766000E+02 0.66233609137875E+00
 s    2 1.00
 0.62067138508000E+01 0.65595308539952E+00
 0.25764896527000E+01 0.37585633285142E+00
 s    1 1.00
 0.57696339419000E+00 0.10000000000000E+01
 s    1 1.00
 0.22972831358000E+00 0.10000000000000E+01
 s    1 1.00
 0.95164440028000E-01 0.10000000000000E+01
 s    1 1.00
 0.48475401370000E-01 0.10000000000000E+01
 p    4 1.00
 0.34697232244000E+02 0.11327220003114E-01
 0.79582622826000E+01 0.76169659202087E-01
 0.23780826883000E+01 0.30192252202676E+00
 0.81433208183000E+00 0.72785027349547E+00
 p    1 1.00
 0.28887547253000E+00 0.10000000000000E+01
 p    1 1.00
 0.10056823671000E+00 0.10000000000000E+01
 d    1 1.00
 0.10970000000000E+01 0.10000000000000E+01
 d    1 1.00
 0.31800000000000E+00 0.10000000000000E+01
 d    1 1.00
 0.90985336424000E-01 0.10000000000000E+01
 f    1 1.00
 0.76100000000000E+00 0.10000000000000E+01
 
    6 0
 s    6 1.00
 0.13575349682000E+05 0.60645503603591E-03
 0.20352333680000E+04 0.46979088884982E-02
 0.46322562359000E+03 0.24332477647552E-01
 0.13120019598000E+03 0.97399968307759E-01
 0.42853015891000E+02 0.30195584253780E+00
 0.15584185766000E+02 0.66233609137875E+00
 s    2 1.00
 0.62067138508000E+01 0.65595308539952E+00
 0.25764896527000E+01 0.37585633285142E+00
 s    1 1.00
 0.57696339419000E+00 0.10000000000000E+01
 s    1 1.00
 0.22972831358000E+00 0.10000000000000E+01
 s    1 1.00
 0.95164440028000E-01 0.10000000000000E+01
 s    1 1.00
 0.48475401370000E-01 0.10000000000000E+01
 p    4 1.00
 0.34697232244000E+02 0.11327220003114E-01
 0.79582622826000E+01 0.76169659202087E-01
 0.23780826883000E+01 0.30192252202676E+00
 0.81433208183000E+00 0.72785027349547E+00
 p    1 1.00
 0.28887547253000E+00 0.10000000000000E+01
 p    1 1.00
 0.10056823671000E+00 0.10000000000000E+01
 d    1 1.00
 0.10970000000000E+01 0.10000000000000E+01
 d    1 1.00
 0.31800000000000E+00 0.10000000000000E+01
 d    1 1.00
 0.90985336424000E-01 0.10000000000000E+01
 f    1 1.00
 0.76100000000000E+00 0.10000000000000E+01
 
    7 0
 s    3 1.00
 0.34061341000000E+02 0.25439307208879E-01
 0.51235746000000E+01 0.19008594890375E+00
 0.11646626000000E+01 0.85244113011042E+00
 s    1 1.00
 0.32723041000000E+00 0.10000000000000E+01
 s    1 1.00
 0.10307241000000E+00 0.10000000000000E+01
 p    1 1.00
 0.80000000000000E+00 0.10000000000000E+01
 p    1 1.00
 0.95774129632000E-01 0.10000000000000E+01
 
    8 0
 s    3 1.00
 0.34061341000000E+02 0.25439307208879E-01
 0.51235746000000E+01 0.19008594890375E+00
 0.11646626000000E+01 0.85244113011042E+00
 s    1 1.00
 0.32723041000000E+00 0.10000000000000E+01
 s    1 1.00
 0.10307241000000E+00 0.10000000000000E+01
 p    1 1.00
 0.80000000000000E+00 0.10000000000000E+01
 p    1 1.00
 0.95774129632000E-01 0.10000000000000E+01
 
    9 0
 s    3 1.00
 0.34061341000000E+02 0.25439307208879E-01
 0.51235746000000E+01 0.19008594890375E+00
 0.11646626000000E+01 0.85244113011042E+00
 s    1 1.00
 0.32723041000000E+00 0.10000000000000E+01
 s    1 1.00
 0.10307241000000E+00 0.10000000000000E+01
 p    1 1.00
 0.80000000000000E+00 0.10000000000000E+01
 p    1 1.00
 0.95774129632000E-01 0.10000000000000E+01
 
   10 0
 s    3 1.00
 0.34061341000000E+02 0.25439307208879E-01
 0.51235746000000E+01 0.19008594890375E+00
 0.11646626000000E+01 0.85244113011042E+00
 s    1 1.00
 0.32723041000000E+00 0.10000000000000E+01
 s    1 1.00
 0.10307241000000E+00 0.10000000000000E+01
 p    1 1.00
 0.80000000000000E+00 0.10000000000000E+01
 p    1 1.00
 0.95774129632000E-01 0.10000000000000E+01
 
   11 0
 s    6 1.00
 0.19730800647000E+05 0.58626402628763E-03
 0.29578958745000E+04 0.45428820586397E-02
 0.67322133595000E+03 0.23558413450084E-01
 0.19068249494000E+03 0.94709193292923E-01
 0.62295441898000E+02 0.29719784913376E+00
 0.22654161182000E+02 0.66916246895232E+00
 s    2 1.00
 0.89791477428000E+01 0.64596683630063E+00
 0.36863002370000E+01 0.38700574393705E+00
 s    1 1.00
 0.84660076805000E+00 0.10000000000000E+01
 s    1 1.00
 0.33647133771000E+00 0.10000000000000E+01
 s    1 1.00
 0.13647653675000E+00 0.10000000000000E+01
 s    1 1.00
 0.68441605847000E-01 0.10000000000000E+01
 p    4 1.00
 0.49200380510000E+02 0.11448825101764E-01
 0.11346790537000E+02 0.78422337970864E-01
 0.34273972411000E+01 0.30818094738830E+00
 0.11785525134000E+01 0.72027196368413E+00
 p    1 1.00
 0.41642204972000E+00 0.10000000000000E+01
 p    1 1.00
 0.14260826011000E+00 0.10000000000000E+01
 d    1 1.00
 0.16540000000000E+01 0.10000000000000E+01
 d    1 1.00
 0.46900000000000E+00 0.10000000000000E+01
 d    1 1.00
 0.12829642058000E+00 0.10000000000000E+01
 f    1 1.00
 0.10930000000000E+01 0.10000000000000E+01
 
   12 0
 s    6 1.00
 0.27032382631000E+05 0.57227335211155E-03
 0.40523871392000E+04 0.44353233492995E-02
 0.92232722710000E+03 0.23020107706038E-01
 0.26124070989000E+03 0.92822490667928E-01
 0.85354641351000E+02 0.29378500009671E+00
 0.31035035245000E+02 0.67401604501641E+00
 s    2 1.00
 0.12260860728000E+02 0.63839937025506E+00
 0.49987076005000E+01 0.39534587125718E+00
 s    1 1.00
 0.11703108158000E+01 0.10000000000000E+01
 s    1 1.00
 0.46474740994000E+00 0.10000000000000E+01
 s    1 1.00
 0.18504536357000E+00 0.10000000000000E+01
 s    1 1.00
 0.70288026270000E-01 0.10000000000000E+01
 p    4 1.00
 0.63274954801000E+02 0.12018332222616E-01
 0.14627049379000E+02 0.83005421790056E-01
 0.44501223456000E+01 0.31991743925964E+00
 0.15275799647000E+01 0.70715542916104E+00
 p    1 1.00
 0.52935117943000E+00 0.10000000000000E+01
 p    1 1.00
 0.17478421270000E+00 0.10000000000000E+01
 p    1 1.00
 0.51112745706000E-01 0.10000000000000E+01
 d    1 1.00
 0.23140000000000E+01 0.10000000000000E+01
 d    1 1.00
 0.64500000000000E+00 0.10000000000000E+01
 d    1 1.00
 0.14696477366000E+00 0.10000000000000E+01
 f    1 1.00
 0.14280000000000E+01 0.10000000000000E+01
 
   13 0
 s    6 1.00
 0.27032382631000E+05 0.57227335211155E-03
 0.40523871392000E+04 0.44353233492995E-02
 0.92232722710000E+03 0.23020107706038E-01
 0.26124070989000E+03 0.92822490667928E-01
 0.85354641351000E+02 0.29378500009671E+00
 0.31035035245000E+02 0.67401604501641E+00
 s    2 1.00
 0.12260860728000E+02 0.63839937025506E+00
 0.49987076005000E+01 0.39534587125718E+00
 s    1 1.00
 0.11703108158000E+01 0.10000000000000E+01
 s    1 1.00
 0.46474740994000E+00 0.10000000000000E+01
 s    1 1.00
 0.18504536357000E+00 0.10000000000000E+01
 s    1 1.00
 0.70288026270000E-01 0.10000000000000E+01
 p    4 1.00
 0.63274954801000E+02 0.12018332222616E-01
 0.14627049379000E+02 0.83005421790056E-01
 0.44501223456000E+01 0.31991743925964E+00
 0.15275799647000E+01 0.70715542916104E+00
 p    1 1.00
 0.52935117943000E+00 0.10000000000000E+01
 p    1 1.00
 0.17478421270000E+00 0.10000000000000E+01
 p    1 1.00
 0.51112745706000E-01 0.10000000000000E+01
 d    1 1.00
 0.23140000000000E+01 0.10000000000000E+01
 d    1 1.00
 0.64500000000000E+00 0.10000000000000E+01
 d    1 1.00
 0.14696477366000E+00 0.10000000000000E+01
 f    1 1.00
 0.14280000000000E+01 0.10000000000000E+01
 
   14 0
 s    6 1.00
 0.19730800647000E+05 0.58626402628763E-03
 0.29578958745000E+04 0.45428820586397E-02
 0.67322133595000E+03 0.23558413450084E-01
 0.19068249494000E+03 0.94709193292923E-01
 0.62295441898000E+02 0.29719784913376E+00
 0.22654161182000E+02 0.66916246895232E+00
 s    2 1.00
 0.89791477428000E+01 0.64596683630063E+00
 0.36863002370000E+01 0.38700574393705E+00
 s    1 1.00
 0.84660076805000E+00 0.10000000000000E+01
 s    1 1.00
 0.33647133771000E+00 0.10000000000000E+01
 s    1 1.00
 0.13647653675000E+00 0.10000000000000E+01
 s    1 1.00
 0.68441605847000E-01 0.10000000000000E+01
 p    4 1.00
 0.49200380510000E+02 0.11448825101764E-01
 0.11346790537000E+02 0.78422337970864E-01
 0.34273972411000E+01 0.30818094738830E+00
 0.11785525134000E+01 0.72027196368413E+00
 p    1 1.00
 0.41642204972000E+00 0.10000000000000E+01
 p    1 1.00
 0.14260826011000E+00 0.10000000000000E+01
 d    1 1.00
 0.16540000000000E+01 0.10000000000000E+01
 d    1 1.00
 0.46900000000000E+00 0.10000000000000E+01
 d    1 1.00
 0.12829642058000E+00 0.10000000000000E+01
 f    1 1.00
 0.10930000000000E+01 0.10000000000000E+01
 
   15 0
 s    3 1.00
 0.34061341000000E+02 0.25439307208879E-01
 0.51235746000000E+01 0.19008594890375E+00
 0.11646626000000E+01 0.85244113011042E+00
 s    1 1.00
 0.32723041000000E+00 0.10000000000000E+01
 s    1 1.00
 0.10307241000000E+00 0.10000000000000E+01
 p    1 1.00
 0.80000000000000E+00 0.10000000000000E+01
 p    1 1.00
 0.95774129632000E-01 0.10000000000000E+01
 
   16 0
 s    3 1.00
 0.34061341000000E+02 0.25439307208879E-01
 0.51235746000000E+01 0.19008594890375E+00
 0.11646626000000E+01 0.85244113011042E+00
 s    1 1.00
 0.32723041000000E+00 0.10000000000000E+01
 s    1 1.00
 0.10307241000000E+00 0.10000000000000E+01
 p    1 1.00
 0.80000000000000E+00 0.10000000000000E+01
 p    1 1.00
 0.95774129632000E-01 0.10000000000000E+01
 
[MO]
 Sym= X
 Ene= -0.954709
 Spin= Alpha
 Occup= -0.954709
         1   -5.260447E-03
         2   -1.206304E-02
         3    2.489944E-02
         4   -7.457986E-03
         5    2.217107E-01
         6    3.264242E-02
         7   -5.303474E-02
         8   -1.087229E-02
         9    6.479958E-05
        10   -5.915257E-02
        11   -1.044757E-02
        12    5.969067E-05
        13   -9.066928E-02
        14    1.006542E-01
        15    3.617857E-05
        16   -1.722197E-03
        17    1.947544E-03
        18   -2.253470E-04
        19   -5.257515E-05
        20    5.405167E-07
        21   -1.393331E-06
        22   -9.844881E-03
        23    6.932198E-03
        24    2.912684E-03
        25    1.200610E-03
        26    1.250883E-05
        27   -1.654718E-06
        28   -2.344583E-03
        29    6.328799E-03
        30   -3.984216E-03
        31   -1.752889E-02
        32    8.474490E-05
        33   -3.891094E-05
        34   -7.627420E-05
        35    1.232858E-04
        36   -2.389855E-07
        37   -6.807306E-05
        38   -2.174491E-04
        39   -2.464195E-08
        40    1.704056E-04
        41    5.204389E-05
        42    3.452746E-07
        43    5.478795E-07
        44    2.890870E-07
        45    6.553947E-07
        46   -7.766550E-07
        47   -4.601465E-06
        48   -3.815943E-05
        49    5.393389E-06
        50    4.489532E-06
        51   -3.091507E-02
        52    1.110632E-05
        53    1.771063E-06
        54   -3.938543E-02
        55    1.144525E-05
        56   -1.861754E-05
        57    2.412474E-01
        58    1.909407E-05
        59   -2.118679E-07
        60    1.804978E-07
        61    3.137003E-08
        62   -1.588442E-03
        63    6.897591E-08
        64    2.169799E-06
        65    2.422257E-07
        66   -3.024089E-07
        67    6.018328E-08
        68    3.451106E-03
        69   -2.137134E-07
        70   -4.927569E-06
        71   -3.648185E-06
        72    2.856466E-06
        73    7.917189E-07
        74    4.385001E-02
        75    1.291051E-07
        76   -1.872116E-04
        77    3.475657E-08
        78   -6.116180E-04
        79   -1.124366E-07
        80   -3.173807E-08
        81    5.916757E-04
        82    8.336767E-08
        83   -1.489276E-08
        84    2.288960E-04
        85    6.748188E-08
        86   -4.205552E-07
        87    5.260480E-03
        88    1.206311E-02
        89   -2.489975E-02
        90    7.457037E-03
        91   -2.216751E-01
        92   -3.265051E-02
        93    5.303160E-02
        94   -1.087474E-02
        95   -5.188967E-05
        96    5.914790E-02
        97   -1.045148E-02
        98   -4.781534E-05
        99    9.067087E-02
       100    1.006164E-01
       101   -2.101345E-05
       102    1.722030E-03
       103   -1.947372E-03
       104    2.253418E-04
       105   -5.256094E-05
       106   -6.997078E-07
       107   -1.829963E-06
       108    9.844453E-03
       109   -6.931763E-03
       110   -2.912690E-03
       111    1.201254E-03
       112   -1.296258E-05
       113   -2.221929E-06
       114    2.340615E-03
       115   -6.322526E-03
       116    3.981911E-03
       117   -1.753294E-02
       118   -7.610196E-05
       119   -3.547720E-05
       120    7.627860E-05
       121    1.232522E-04
       122    1.521346E-07
       123    6.806760E-05
       124   -2.174223E-04
       125    4.652971E-08
       126   -1.704061E-04
       127    5.206218E-05
       128   -2.506396E-07
       129    6.073702E-07
       130   -3.225410E-03
       131   -7.322031E-03
       132    1.406418E-02
       133   -1.178743E-02
       134    6.718600E-02
       135    1.053964E-02
       136   -3.811452E-02
       137   -2.212337E-03
       138    3.633491E-05
       139   -6.027077E-03
       140   -8.111028E-03
       141    4.944540E-05
       142    4.500107E-02
       143   -3.085985E-02
       144   -1.427968E-04
       145    1.079624E-03
       146   -9.475458E-04
       147   -1.320787E-04
       148    2.760635E-04
       149   -8.997813E-07
       150    2.662816E-07
       151   -4.432538E-03
       152    2.782743E-03
       153    1.649794E-03
       154    1.542567E-04
       155    1.618067E-05
       156   -1.169106E-05
       157   -1.364669E-02
       158    1.447667E-02
       159   -8.299779E-04
       160   -3.800908E-03
       161   -9.710646E-05
       162    4.828196E-05
       163   -3.848462E-05
       164   -1.188405E-05
       165   -8.503462E-07
       166   -1.556639E-05
       167   -5.651090E-06
       168    5.461717E-07
       169    6.719892E-05
       170    2.159522E-05
       171    5.946874E-07
       172   -8.630806E-07
       173    6.579075E-08
       174    1.410626E-07
       175   -1.159068E-07
       176    3.671638E-07
       177    5.477895E-05
       178   -5.191784E-06
       179   -1.041626E-06
       180   -1.812672E-02
       181   -5.936362E-06
       182    1.290710E-06
       183   -2.261431E-02
       184   -5.569421E-06
       185   -2.184480E-05
       186   -7.914038E-02
       187    6.116146E-06
       188   -7.913751E-08
       189    8.804531E-08
       190   -8.907800E-09
       191   -2.664584E-06
       192   -4.126337E-07
       193    7.241304E-06
       194    5.799390E-07
       195   -7.418529E-07
       196    1.619139E-07
       197    3.216058E-03
       198   -6.352147E-07
       199   -2.386671E-05
       200    4.180753E-06
       201   -2.845737E-06
       202   -1.335016E-06
       203    1.429224E-02
       204   -1.390197E-06
       205    1.835375E-04
       206   -1.975027E-09
       207   -2.578508E-04
       208    6.280569E-08
       209    6.067829E-09
       210    2.557752E-04
       211   -8.891057E-08
       212   -3.418053E-09
       213    9.016803E-05
       214    4.647896E-09
       215    1.833427E-07
       216    3.225546E-03
       217    7.322338E-03
       218   -1.406531E-02
       219    1.179434E-02
       220   -6.723963E-02
       221   -1.053340E-02
       222    3.811815E-02
       223   -2.212678E-03
       224   -3.414434E-05
       225    6.030475E-03
       226   -8.109522E-03
       227   -4.569568E-05
       228   -4.500088E-02
       229   -3.089644E-02
       230    1.184272E-04
       231   -1.079740E-03
       232    9.476944E-04
       233    1.320460E-04
       234    2.759746E-04
       235    4.517720E-07
       236    1.391647E-07
       237    4.432889E-03
       238   -2.782917E-03
       239   -1.649972E-03
       240    1.545120E-04
       241   -1.690942E-05
       242   -1.180207E-05
       243    1.365192E-02
       244   -1.448492E-02
       245    8.330019E-04
       246   -3.795377E-03
       247    1.017739E-04
       248    4.614788E-05
       249    3.849355E-05
       250   -1.190563E-05
       251    8.408186E-07
       252    1.558501E-05
       253   -5.615963E-06
       254   -5.165163E-07
       255   -6.722953E-05
       256    2.158904E-05
       257   -6.115602E-07
       258   -9.124176E-07
       259    2.032131E-02
       260    2.844449E-02
       261    3.640700E-02
       262    2.011848E-03
       263    3.297327E-03
       264   -4.681660E-06
       265    3.452058E-03
       266    1.447571E-03
       267   -1.214173E-05
       268   -2.032115E-02
       269   -2.844348E-02
       270   -3.641105E-02
       271   -2.011926E-03
       272    3.297221E-03
       273    5.354169E-06
       274   -3.452309E-03
       275    1.445984E-03
       276    1.040782E-05
       277   -6.750503E-03
       278   -1.078267E-02
       279   -2.144504E-02
       280   -1.847878E-04
       281    1.033780E-03
       282   -4.100662E-07
       283    3.541945E-03
       284   -6.413851E-04
       285    3.099082E-06
       286    6.751812E-03
       287    1.078515E-02
       288    2.146035E-02
       289    1.848053E-04
       290    1.033897E-03
       291    2.492485E-07
       292   -3.542639E-03
       293   -6.436037E-04
       294   -7.197453E-06
       295    1.008617E-07
       296    2.382293E-07
       297   -2.989088E-07
       298   -5.712517E-07
       299   -3.419409E-06
       300   -3.801552E-07
       301   -4.030635E-06
       302   -4.501503E-02
       303    2.489899E-06
       304   -4.073997E-06
       305   -3.402894E-02
       306    3.558211E-06
       307   -4.085511E-06
       308    4.301473E-03
       309    7.531711E-06
       310   -3.402669E-07
       311    3.959663E-07
       312   -5.569944E-08
       313    9.536765E-03
       314    3.423944E-07
       315   -2.136273E-05
       316   -1.077943E-06
       317    1.045478E-06
       318    3.246538E-08
       319    2.580022E-02
       320    2.488592E-07
       321   -5.859501E-05
       322    3.844986E-07
       323   -4.101185E-07
       324    2.561995E-08
       325   -8.261996E-03
       326   -4.582559E-06
       327    3.165714E-05
       328    3.756070E-09
       329    2.166829E-03
       330   -2.200532E-08
       331   -1.653893E-08
       332   -3.100466E-03
       333    2.075969E-08
       334    1.149963E-08
       335    1.933602E-04
       336    8.763544E-09
       337    8.301995E-06
       338    3.240405E-04
       339    8.945116E-04
       340   -9.103855E-04
       341    7.504115E-03
       342   -6.148479E-03
       343    1.713670E-02
       344    2.533575E-01
       345    2.327421E-01
       346   -5.707421E-04
       347    2.304037E-01
       348    2.039659E-01
       349   -5.180431E-04
       350    1.763079E-01
       351    1.480020E-01
       352   -4.135457E-04
       353    2.929681E-02
       354    1.507658E-02
       355   -6.662864E-05
       356    2.063574E-03
       357   -2.782107E-03
       358    7.185322E-04
       359    2.102991E-04
       360   -3.402603E-06
       361   -2.882417E-07
       362    6.260443E-03
       363   -7.225970E-03
       364    9.655271E-04
       365   -7.812559E-04
       366   -1.314278E-05
       367    2.912612E-06
       368    6.812769E-03
       369   -6.306685E-03
       370   -5.060845E-04
       371   -1.442650E-03
       372   -1.605565E-05
       373    7.083822E-06
       374    2.757792E-04
       375    7.827084E-04
       376   -5.853048E-07
       377   -5.067664E-04
       378   -8.537600E-04
       379   -2.551813E-07
       380    1.367698E-04
       381   -1.963535E-04
       382    1.040450E-06
       383    1.658968E-06
       384   -3.240719E-04
       385   -8.945955E-04
       386    9.105032E-04
       387   -7.504670E-03
       388    6.149399E-03
       389   -1.713668E-02
       390   -2.533409E-01
       391    2.327395E-01
       392    5.661688E-04
       393   -2.303891E-01
       394    2.039633E-01
       395    5.143727E-04
       396   -1.762962E-01
       397    1.479985E-01
       398    3.955157E-04
       399   -2.929557E-02
       400    1.507588E-02
       401    6.606361E-05
       402   -2.063542E-03
       403    2.782130E-03
       404   -7.185875E-04
       405    2.104485E-04
       406    3.525340E-06
       407   -2.422047E-07
       408   -6.260263E-03
       409    7.225953E-03
       410   -9.656904E-04
       411   -7.809476E-04
       412    1.381604E-05
       413    2.222207E-06
       414   -6.812556E-03
       415    6.306479E-03
       416    5.060767E-04
       417   -1.442536E-03
       418    2.243341E-05
       419    1.670365E-06
       420   -2.757949E-04
       421    7.826882E-04
       422    6.655099E-07
       423    5.068025E-04
       424   -8.537141E-04
       425    1.782631E-07
       426   -1.367848E-04
       427   -1.963723E-04
       428   -1.071138E-06
       429    1.737155E-06
       430   -1.602780E-07
       431   -3.792208E-07
       432    6.334511E-07
       433    5.184986E-08
       434    1.650871E-06
       435    4.158258E-06
       436    1.284957E-06
       437    1.085052E-02
       438   -1.539168E-05
       439    2.013874E-06
       440    8.631900E-03
       441   -1.493791E-05
       442    5.599408E-06
       443    5.904444E-03
       444   -1.081520E-05
       445    4.927584E-09
       446    6.250009E-09
       447   -1.117759E-08
       448    5.021516E-04
       449    1.169752E-07
       450    9.116437E-05
       451   -2.398455E-07
       452    3.487770E-07
       453   -1.089315E-07
       454    1.519464E-03
       455    2.914881E-07
       456    1.412680E-04
       457   -1.295182E-06
       458    1.622988E-06
       459   -3.278051E-07
       460   -8.923235E-04
       461    4.787380E-07
       462    3.320913E-08
       463    6.891646E-09
       464    8.451025E-05
       465    8.343990E-08
       466    8.219409E-09
       467   -8.405010E-05
       468   -7.048057E-08
       469   -1.746552E-08
       470   -2.933230E-05
       471   -4.146580E-08
       472    1.919397E-05
       473    5.465446E-03
       474    7.788577E-03
       475    4.997209E-03
       476   -4.459170E-04
       477   -5.298753E-04
       478   -1.210358E-04
       479   -7.356554E-04
       480   -2.257182E-04
       481   -1.369027E-04
       482   -5.466108E-03
       483   -7.791733E-03
       484   -5.010012E-03
       485    4.463233E-04
       486   -5.301979E-04
       487    1.193135E-04
       488    7.388660E-04
       489   -2.260757E-04
       490    1.354596E-04
 Sym= X
 Ene= 0.954709
 Spin= Alpha
 Occup= 0.954709
         1    5.530742E-05
         2    1.066034E-04
         3    6.094978E-04
         4   -9.814062E-03
         5    9.091154E-01
         6    2.990618E-01
         7   -3.503475E-04
         8   -4.881243E-04
         9   -1.742756E-01
        10   -1.102569E-02
        11    1.714964E-03
        12   -1.949493E-01
        13   -2.196364E-01
        14    4.259594E-01
        15    1.555864E-01
        16   -3.377467E-05
        17    1.086981E-05
        18    2.290486E-05
        19    1.560590E-06
        20    5.302795E-03
        21   -5.124578E-04
        22   -2.006238E-03
        23    2.311818E-03
        24   -3.055805E-04
        25   -4.101393E-04
        26    1.688844E-02
        27    5.247757E-03
        28   -5.326349E-02
        29    6.903847E-02
        30   -1.577499E-02
        31   -1.271306E-01
        32   -1.429791E-01
        33    1.640230E-01
        34   -2.855848E-05
        35   -4.920573E-06
        36    1.188129E-04
        37   -3.877452E-05
        38   -1.391016E-05
        39    2.895549E-04
        40    7.708975E-05
        41    2.051180E-05
        42   -4.489592E-04
        43   -1.316329E-04
        44   -6.149263E-06
        45   -1.421781E-05
        46    2.712837E-05
        47   -1.891262E-05
        48   -7.297894E-03
        49   -2.487985E-02
        50    3.731743E-06
        51   -1.789270E-04
        52    1.545947E-06
        53    5.085334E-05
        54    5.824390E-03
        55    2.454639E-05
        56    1.606520E-02
        57    9.152485E-01
        58   -4.052986E-04
        59    2.091038E-06
        60   -2.669066E-06
        61    5.780285E-07
        62    3.308738E-05