[Molden Format]
[Title]
ADC(2) - opt by CAM-B3LYP gaussian                                              
[Atoms] AU
 c     1    6 -.12589065566052E+01 -.22830902054421E+01 -.26005390588660E-01
 c     2    6 -.25569912224779E+01 0.86573078000000E-06 -.24733756079320E-01
 c     3    6 -.12589060841737E+01 0.22830907841707E+01 -.26008073999770E-01
 c     4    6 0.13324295737882E+01 0.22846183820847E+01 -.28114684000920E-01
 c     5    6 0.26867573459717E+01 0.39329925000000E-06 -.27723246129760E-01
 c     6    6 0.13324281942881E+01 -.22846180679178E+01 -.28111244699360E-01
 h     7    1 -.22982509786098E+01 -.40377481062879E+01 -.23319125993500E-01
 h     8    1 -.22982490510892E+01 0.40377494409070E+01 -.23324322740370E-01
 h     9    1 0.23514918675648E+01 0.40568894753521E+01 -.30529017005560E-01
 h    10    1 0.23514910360853E+01 -.40568888210345E+01 -.30521911635300E-01
 n    11    7 -.52742123095903E+01 0.14763485000000E-06 -.18925267070140E-01
 o    12    8 -.63809534361791E+01 0.20269762391752E+01 -.16457057973460E-01
 o    13    8 -.63809510362269E+01 -.20269772478165E+01 -.16464881439650E-01
 n    14    7 0.52454603626942E+01 -.57046108000000E-06 -.73989411041200E-01
 h    15    1 0.62036818842731E+01 0.16164996606794E+01 0.19711589672944E+00
 h    16    1 0.62036804102867E+01 -.16165023700742E+01 0.19711149366755E+00
[GTO]
    1 0
 s    6 1.00
 0.13575349682000E+05 0.60645503603591E-03
 0.20352333680000E+04 0.46979088884982E-02
 0.46322562359000E+03 0.24332477647552E-01
 0.13120019598000E+03 0.97399968307759E-01
 0.42853015891000E+02 0.30195584253780E+00
 0.15584185766000E+02 0.66233609137875E+00
 s    2 1.00
 0.62067138508000E+01 0.65595308539952E+00
 0.25764896527000E+01 0.37585633285142E+00
 s    1 1.00
 0.57696339419000E+00 0.10000000000000E+01
 s    1 1.00
 0.22972831358000E+00 0.10000000000000E+01
 s    1 1.00
 0.95164440028000E-01 0.10000000000000E+01
 s    1 1.00
 0.48475401370000E-01 0.10000000000000E+01
 p    4 1.00
 0.34697232244000E+02 0.11327220003114E-01
 0.79582622826000E+01 0.76169659202087E-01
 0.23780826883000E+01 0.30192252202676E+00
 0.81433208183000E+00 0.72785027349547E+00
 p    1 1.00
 0.28887547253000E+00 0.10000000000000E+01
 p    1 1.00
 0.10056823671000E+00 0.10000000000000E+01
 d    1 1.00
 0.10970000000000E+01 0.10000000000000E+01
 d    1 1.00
 0.31800000000000E+00 0.10000000000000E+01
 d    1 1.00
 0.90985336424000E-01 0.10000000000000E+01
 f    1 1.00
 0.76100000000000E+00 0.10000000000000E+01
 
    2 0
 s    6 1.00
 0.13575349682000E+05 0.60645503603591E-03
 0.20352333680000E+04 0.46979088884982E-02
 0.46322562359000E+03 0.24332477647552E-01
 0.13120019598000E+03 0.97399968307759E-01
 0.42853015891000E+02 0.30195584253780E+00
 0.15584185766000E+02 0.66233609137875E+00
 s    2 1.00
 0.62067138508000E+01 0.65595308539952E+00
 0.25764896527000E+01 0.37585633285142E+00
 s    1 1.00
 0.57696339419000E+00 0.10000000000000E+01
 s    1 1.00
 0.22972831358000E+00 0.10000000000000E+01
 s    1 1.00
 0.95164440028000E-01 0.10000000000000E+01
 s    1 1.00
 0.48475401370000E-01 0.10000000000000E+01
 p    4 1.00
 0.34697232244000E+02 0.11327220003114E-01
 0.79582622826000E+01 0.76169659202087E-01
 0.23780826883000E+01 0.30192252202676E+00
 0.81433208183000E+00 0.72785027349547E+00
 p    1 1.00
 0.28887547253000E+00 0.10000000000000E+01
 p    1 1.00
 0.10056823671000E+00 0.10000000000000E+01
 d    1 1.00
 0.10970000000000E+01 0.10000000000000E+01
 d    1 1.00
 0.31800000000000E+00 0.10000000000000E+01
 d    1 1.00
 0.90985336424000E-01 0.10000000000000E+01
 f    1 1.00
 0.76100000000000E+00 0.10000000000000E+01
 
    3 0
 s    6 1.00
 0.13575349682000E+05 0.60645503603591E-03
 0.20352333680000E+04 0.46979088884982E-02
 0.46322562359000E+03 0.24332477647552E-01
 0.13120019598000E+03 0.97399968307759E-01
 0.42853015891000E+02 0.30195584253780E+00
 0.15584185766000E+02 0.66233609137875E+00
 s    2 1.00
 0.62067138508000E+01 0.65595308539952E+00
 0.25764896527000E+01 0.37585633285142E+00
 s    1 1.00
 0.57696339419000E+00 0.10000000000000E+01
 s    1 1.00
 0.22972831358000E+00 0.10000000000000E+01
 s    1 1.00
 0.95164440028000E-01 0.10000000000000E+01
 s    1 1.00
 0.48475401370000E-01 0.10000000000000E+01
 p    4 1.00
 0.34697232244000E+02 0.11327220003114E-01
 0.79582622826000E+01 0.76169659202087E-01
 0.23780826883000E+01 0.30192252202676E+00
 0.81433208183000E+00 0.72785027349547E+00
 p    1 1.00
 0.28887547253000E+00 0.10000000000000E+01
 p    1 1.00
 0.10056823671000E+00 0.10000000000000E+01
 d    1 1.00
 0.10970000000000E+01 0.10000000000000E+01
 d    1 1.00
 0.31800000000000E+00 0.10000000000000E+01
 d    1 1.00
 0.90985336424000E-01 0.10000000000000E+01
 f    1 1.00
 0.76100000000000E+00 0.10000000000000E+01
 
    4 0
 s    6 1.00
 0.13575349682000E+05 0.60645503603591E-03
 0.20352333680000E+04 0.46979088884982E-02
 0.46322562359000E+03 0.24332477647552E-01
 0.13120019598000E+03 0.97399968307759E-01
 0.42853015891000E+02 0.30195584253780E+00
 0.15584185766000E+02 0.66233609137875E+00
 s    2 1.00
 0.62067138508000E+01 0.65595308539952E+00
 0.25764896527000E+01 0.37585633285142E+00
 s    1 1.00
 0.57696339419000E+00 0.10000000000000E+01
 s    1 1.00
 0.22972831358000E+00 0.10000000000000E+01
 s    1 1.00
 0.95164440028000E-01 0.10000000000000E+01
 s    1 1.00
 0.48475401370000E-01 0.10000000000000E+01
 p    4 1.00
 0.34697232244000E+02 0.11327220003114E-01
 0.79582622826000E+01 0.76169659202087E-01
 0.23780826883000E+01 0.30192252202676E+00
 0.81433208183000E+00 0.72785027349547E+00
 p    1 1.00
 0.28887547253000E+00 0.10000000000000E+01
 p    1 1.00
 0.10056823671000E+00 0.10000000000000E+01
 d    1 1.00
 0.10970000000000E+01 0.10000000000000E+01
 d    1 1.00
 0.31800000000000E+00 0.10000000000000E+01
 d    1 1.00
 0.90985336424000E-01 0.10000000000000E+01
 f    1 1.00
 0.76100000000000E+00 0.10000000000000E+01
 
    5 0
 s    6 1.00
 0.13575349682000E+05 0.60645503603591E-03
 0.20352333680000E+04 0.46979088884982E-02
 0.46322562359000E+03 0.24332477647552E-01
 0.13120019598000E+03 0.97399968307759E-01
 0.42853015891000E+02 0.30195584253780E+00
 0.15584185766000E+02 0.66233609137875E+00
 s    2 1.00
 0.62067138508000E+01 0.65595308539952E+00
 0.25764896527000E+01 0.37585633285142E+00
 s    1 1.00
 0.57696339419000E+00 0.10000000000000E+01
 s    1 1.00
 0.22972831358000E+00 0.10000000000000E+01
 s    1 1.00
 0.95164440028000E-01 0.10000000000000E+01
 s    1 1.00
 0.48475401370000E-01 0.10000000000000E+01
 p    4 1.00
 0.34697232244000E+02 0.11327220003114E-01
 0.79582622826000E+01 0.76169659202087E-01
 0.23780826883000E+01 0.30192252202676E+00
 0.81433208183000E+00 0.72785027349547E+00
 p    1 1.00
 0.28887547253000E+00 0.10000000000000E+01
 p    1 1.00
 0.10056823671000E+00 0.10000000000000E+01
 d    1 1.00
 0.10970000000000E+01 0.10000000000000E+01
 d    1 1.00
 0.31800000000000E+00 0.10000000000000E+01
 d    1 1.00
 0.90985336424000E-01 0.10000000000000E+01
 f    1 1.00
 0.76100000000000E+00 0.10000000000000E+01
 
    6 0
 s    6 1.00
 0.13575349682000E+05 0.60645503603591E-03
 0.20352333680000E+04 0.46979088884982E-02
 0.46322562359000E+03 0.24332477647552E-01
 0.13120019598000E+03 0.97399968307759E-01
 0.42853015891000E+02 0.30195584253780E+00
 0.15584185766000E+02 0.66233609137875E+00
 s    2 1.00
 0.62067138508000E+01 0.65595308539952E+00
 0.25764896527000E+01 0.37585633285142E+00
 s    1 1.00
 0.57696339419000E+00 0.10000000000000E+01
 s    1 1.00
 0.22972831358000E+00 0.10000000000000E+01
 s    1 1.00
 0.95164440028000E-01 0.10000000000000E+01
 s    1 1.00
 0.48475401370000E-01 0.10000000000000E+01
 p    4 1.00
 0.34697232244000E+02 0.11327220003114E-01
 0.79582622826000E+01 0.76169659202087E-01
 0.23780826883000E+01 0.30192252202676E+00
 0.81433208183000E+00 0.72785027349547E+00
 p    1 1.00
 0.28887547253000E+00 0.10000000000000E+01
 p    1 1.00
 0.10056823671000E+00 0.10000000000000E+01
 d    1 1.00
 0.10970000000000E+01 0.10000000000000E+01
 d    1 1.00
 0.31800000000000E+00 0.10000000000000E+01
 d    1 1.00
 0.90985336424000E-01 0.10000000000000E+01
 f    1 1.00
 0.76100000000000E+00 0.10000000000000E+01
 
    7 0
 s    3 1.00
 0.34061341000000E+02 0.25439307208879E-01
 0.51235746000000E+01 0.19008594890375E+00
 0.11646626000000E+01 0.85244113011042E+00
 s    1 1.00
 0.32723041000000E+00 0.10000000000000E+01
 s    1 1.00
 0.10307241000000E+00 0.10000000000000E+01
 p    1 1.00
 0.80000000000000E+00 0.10000000000000E+01
 p    1 1.00
 0.95774129632000E-01 0.10000000000000E+01
 
    8 0
 s    3 1.00
 0.34061341000000E+02 0.25439307208879E-01
 0.51235746000000E+01 0.19008594890375E+00
 0.11646626000000E+01 0.85244113011042E+00
 s    1 1.00
 0.32723041000000E+00 0.10000000000000E+01
 s    1 1.00
 0.10307241000000E+00 0.10000000000000E+01
 p    1 1.00
 0.80000000000000E+00 0.10000000000000E+01
 p    1 1.00
 0.95774129632000E-01 0.10000000000000E+01
 
    9 0
 s    3 1.00
 0.34061341000000E+02 0.25439307208879E-01
 0.51235746000000E+01 0.19008594890375E+00
 0.11646626000000E+01 0.85244113011042E+00
 s    1 1.00
 0.32723041000000E+00 0.10000000000000E+01
 s    1 1.00
 0.10307241000000E+00 0.10000000000000E+01
 p    1 1.00
 0.80000000000000E+00 0.10000000000000E+01
 p    1 1.00
 0.95774129632000E-01 0.10000000000000E+01
 
   10 0
 s    3 1.00
 0.34061341000000E+02 0.25439307208879E-01
 0.51235746000000E+01 0.19008594890375E+00
 0.11646626000000E+01 0.85244113011042E+00
 s    1 1.00
 0.32723041000000E+00 0.10000000000000E+01
 s    1 1.00
 0.10307241000000E+00 0.10000000000000E+01
 p    1 1.00
 0.80000000000000E+00 0.10000000000000E+01
 p    1 1.00
 0.95774129632000E-01 0.10000000000000E+01
 
   11 0
 s    6 1.00
 0.19730800647000E+05 0.58626402628763E-03
 0.29578958745000E+04 0.45428820586397E-02
 0.67322133595000E+03 0.23558413450084E-01
 0.19068249494000E+03 0.94709193292923E-01
 0.62295441898000E+02 0.29719784913376E+00
 0.22654161182000E+02 0.66916246895232E+00
 s    2 1.00
 0.89791477428000E+01 0.64596683630063E+00
 0.36863002370000E+01 0.38700574393705E+00
 s    1 1.00
 0.84660076805000E+00 0.10000000000000E+01
 s    1 1.00
 0.33647133771000E+00 0.10000000000000E+01
 s    1 1.00
 0.13647653675000E+00 0.10000000000000E+01
 s    1 1.00
 0.68441605847000E-01 0.10000000000000E+01
 p    4 1.00
 0.49200380510000E+02 0.11448825101764E-01
 0.11346790537000E+02 0.78422337970864E-01
 0.34273972411000E+01 0.30818094738830E+00
 0.11785525134000E+01 0.72027196368413E+00
 p    1 1.00
 0.41642204972000E+00 0.10000000000000E+01
 p    1 1.00
 0.14260826011000E+00 0.10000000000000E+01
 d    1 1.00
 0.16540000000000E+01 0.10000000000000E+01
 d    1 1.00
 0.46900000000000E+00 0.10000000000000E+01
 d    1 1.00
 0.12829642058000E+00 0.10000000000000E+01
 f    1 1.00
 0.10930000000000E+01 0.10000000000000E+01
 
   12 0
 s    6 1.00
 0.27032382631000E+05 0.57227335211155E-03
 0.40523871392000E+04 0.44353233492995E-02
 0.92232722710000E+03 0.23020107706038E-01
 0.26124070989000E+03 0.92822490667928E-01
 0.85354641351000E+02 0.29378500009671E+00
 0.31035035245000E+02 0.67401604501641E+00
 s    2 1.00
 0.12260860728000E+02 0.63839937025506E+00
 0.49987076005000E+01 0.39534587125718E+00
 s    1 1.00
 0.11703108158000E+01 0.10000000000000E+01
 s    1 1.00
 0.46474740994000E+00 0.10000000000000E+01
 s    1 1.00
 0.18504536357000E+00 0.10000000000000E+01
 s    1 1.00
 0.70288026270000E-01 0.10000000000000E+01
 p    4 1.00
 0.63274954801000E+02 0.12018332222616E-01
 0.14627049379000E+02 0.83005421790056E-01
 0.44501223456000E+01 0.31991743925964E+00
 0.15275799647000E+01 0.70715542916104E+00
 p    1 1.00
 0.52935117943000E+00 0.10000000000000E+01
 p    1 1.00
 0.17478421270000E+00 0.10000000000000E+01
 p    1 1.00
 0.51112745706000E-01 0.10000000000000E+01
 d    1 1.00
 0.23140000000000E+01 0.10000000000000E+01
 d    1 1.00
 0.64500000000000E+00 0.10000000000000E+01
 d    1 1.00
 0.14696477366000E+00 0.10000000000000E+01
 f    1 1.00
 0.14280000000000E+01 0.10000000000000E+01
 
   13 0
 s    6 1.00
 0.27032382631000E+05 0.57227335211155E-03
 0.40523871392000E+04 0.44353233492995E-02
 0.92232722710000E+03 0.23020107706038E-01
 0.26124070989000E+03 0.92822490667928E-01
 0.85354641351000E+02 0.29378500009671E+00
 0.31035035245000E+02 0.67401604501641E+00
 s    2 1.00
 0.12260860728000E+02 0.63839937025506E+00
 0.49987076005000E+01 0.39534587125718E+00
 s    1 1.00
 0.11703108158000E+01 0.10000000000000E+01
 s    1 1.00
 0.46474740994000E+00 0.10000000000000E+01
 s    1 1.00
 0.18504536357000E+00 0.10000000000000E+01
 s    1 1.00
 0.70288026270000E-01 0.10000000000000E+01
 p    4 1.00
 0.63274954801000E+02 0.12018332222616E-01
 0.14627049379000E+02 0.83005421790056E-01
 0.44501223456000E+01 0.31991743925964E+00
 0.15275799647000E+01 0.70715542916104E+00
 p    1 1.00
 0.52935117943000E+00 0.10000000000000E+01
 p    1 1.00
 0.17478421270000E+00 0.10000000000000E+01
 p    1 1.00
 0.51112745706000E-01 0.10000000000000E+01
 d    1 1.00
 0.23140000000000E+01 0.10000000000000E+01
 d    1 1.00
 0.64500000000000E+00 0.10000000000000E+01
 d    1 1.00
 0.14696477366000E+00 0.10000000000000E+01
 f    1 1.00
 0.14280000000000E+01 0.10000000000000E+01
 
   14 0
 s    6 1.00
 0.19730800647000E+05 0.58626402628763E-03
 0.29578958745000E+04 0.45428820586397E-02
 0.67322133595000E+03 0.23558413450084E-01
 0.19068249494000E+03 0.94709193292923E-01
 0.62295441898000E+02 0.29719784913376E+00
 0.22654161182000E+02 0.66916246895232E+00
 s    2 1.00
 0.89791477428000E+01 0.64596683630063E+00
 0.36863002370000E+01 0.38700574393705E+00
 s    1 1.00
 0.84660076805000E+00 0.10000000000000E+01
 s    1 1.00
 0.33647133771000E+00 0.10000000000000E+01
 s    1 1.00
 0.13647653675000E+00 0.10000000000000E+01
 s    1 1.00
 0.68441605847000E-01 0.10000000000000E+01
 p    4 1.00
 0.49200380510000E+02 0.11448825101764E-01
 0.11346790537000E+02 0.78422337970864E-01
 0.34273972411000E+01 0.30818094738830E+00
 0.11785525134000E+01 0.72027196368413E+00
 p    1 1.00
 0.41642204972000E+00 0.10000000000000E+01
 p    1 1.00
 0.14260826011000E+00 0.10000000000000E+01
 d    1 1.00
 0.16540000000000E+01 0.10000000000000E+01
 d    1 1.00
 0.46900000000000E+00 0.10000000000000E+01
 d    1 1.00
 0.12829642058000E+00 0.10000000000000E+01
 f    1 1.00
 0.10930000000000E+01 0.10000000000000E+01
 
   15 0
 s    3 1.00
 0.34061341000000E+02 0.25439307208879E-01
 0.51235746000000E+01 0.19008594890375E+00
 0.11646626000000E+01 0.85244113011042E+00
 s    1 1.00
 0.32723041000000E+00 0.10000000000000E+01
 s    1 1.00
 0.10307241000000E+00 0.10000000000000E+01
 p    1 1.00
 0.80000000000000E+00 0.10000000000000E+01
 p    1 1.00
 0.95774129632000E-01 0.10000000000000E+01
 
   16 0
 s    3 1.00
 0.34061341000000E+02 0.25439307208879E-01
 0.51235746000000E+01 0.19008594890375E+00
 0.11646626000000E+01 0.85244113011042E+00
 s    1 1.00
 0.32723041000000E+00 0.10000000000000E+01
 s    1 1.00
 0.10307241000000E+00 0.10000000000000E+01
 p    1 1.00
 0.80000000000000E+00 0.10000000000000E+01
 p    1 1.00
 0.95774129632000E-01 0.10000000000000E+01
 
[MO]
 Sym= X
 Ene= -0.805618
 Spin= Alpha
 Occup= -0.805618
         1    1.239360E-05
         2    2.829566E-05
         3   -6.652594E-05
         4    6.321050E-05
         5    2.438787E-03
         6    3.285699E-04
         7    6.180329E-05
         8    1.217024E-04
         9    7.460051E-02
        10    1.726044E-04
        11    8.516778E-05
        12    7.476538E-02
        13   -5.404625E-04
        14    1.577097E-03
        15    5.256123E-02
        16    3.119784E-06
        17   -1.557397E-06
        18   -1.562387E-06
        19   -2.994154E-06
        20    1.731440E-03
        21    2.578788E-04
        22    2.619003E-05
        23   -1.527416E-05
        24   -1.091587E-05
        25   -1.217802E-05
        26    2.157474E-03
        27    1.794484E-04
        28    4.057282E-05
        29   -3.099573E-05
        30   -9.577097E-06
        31   -7.327921E-05
        32   -2.051775E-03
        33    3.074925E-03
        34    1.908541E-06
        35    3.239881E-07
        36   -5.272005E-04
        37   -4.539615E-07
        38    1.672408E-07
        39    6.178428E-04
        40   -2.106615E-06
        41   -6.019165E-07
        42    8.947083E-05
        43   -5.548031E-05
        44    2.202121E-07
        45    4.565417E-07
        46    1.618401E-06
        47   -3.791096E-07
        48   -9.585375E-04
        49   -1.103446E-04
        50    9.766402E-07
        51   -8.549446E-05
        52   -1.111754E-05
        53   -1.113649E-06
        54   -6.987133E-05
        55   -1.346195E-05
        56   -3.774691E-04
        57    2.004306E-03
        58   -1.433128E-05
        59    7.626190E-09
        60    7.186409E-09
        61   -1.481260E-08
        62   -6.956296E-06
        63   -8.230604E-08
        64   -3.489943E-03
        65   -2.968403E-07
        66   -2.321507E-06
        67    2.618348E-06
        68   -2.439808E-05
        69    1.761522E-07
        70   -6.279228E-03
        71    4.677527E-07
        72   -1.858064E-05
        73    1.811289E-05
        74    1.544059E-05
        75   -3.593429E-06
        76    5.317209E-03
        77    9.516146E-08
        78    2.257048E-07
        79    9.723416E-08
        80   -8.895095E-08
        81   -5.216062E-07
        82   -6.445733E-08
        83   -3.872154E-08
        84    2.187915E-07
        85   -6.599598E-08
        86   -2.564215E-04
        87   -1.199995E-05
        88   -2.735883E-05
        89    5.951412E-05
        90   -4.169957E-05
        91   -5.163901E-04
        92   -1.952642E-04
        93   -6.022614E-05
        94    1.201459E-04
        95   -7.460768E-02
        96   -1.466262E-04
        97    7.199973E-05
        98   -7.477437E-02
        99    1.079344E-03
       100    7.509641E-04
       101   -5.254415E-02
       102   -3.231251E-06
       103    1.560110E-06
       104    1.671141E-06
       105   -2.805323E-06
       106   -1.731039E-03
       107    2.583844E-04
       108   -1.767642E-05
       109    1.099769E-05
       110    6.678722E-06
       111   -8.922853E-06
       112   -2.157662E-03
       113    1.797578E-04
       114   -3.212942E-05
       115    4.683293E-05
       116   -1.470351E-05
       117   -1.141891E-04
       118    2.055407E-03
       119    3.073868E-03
       120   -1.720399E-06
       121    2.704485E-07
       122    5.273414E-04
       123    3.914426E-07
       124    6.963406E-08
       125   -6.179272E-04
       126    1.916714E-06
       127   -4.324788E-07
       128   -8.957561E-05
       129   -5.550273E-05
       130    8.089214E-06
       131    1.876627E-05
       132   -5.327509E-05
       133    1.845570E-04
       134    5.918163E-04
       135    2.553014E-04
       136   -6.256833E-05
       137   -4.124413E-05
       138   -7.546290E-02
       139   -9.492908E-05
       140   -8.589508E-05
       141   -7.704395E-02
       142    1.373194E-03
       143   -9.122832E-04
       144   -4.958715E-02
       145    5.556784E-06
       146   -1.962902E-08
       147   -5.537155E-06
       148   -4.682182E-06
       149    1.789849E-03
       150    1.889354E-04
       151    3.838824E-05
       152   -8.373489E-06
       153   -3.001475E-05
       154   -2.925133E-05
       155    3.677755E-03
       156    1.974374E-04
       157    2.907236E-04
       158   -2.571441E-04
       159   -3.357945E-05
       160   -1.567358E-04
       161   -7.790436E-05
       162   -1.214358E-03
       163   -1.729444E-06
       164   -3.996198E-07
       165    5.021905E-04
       166    1.043850E-06
       167   -2.401066E-07
       168   -5.755967E-04
       169    1.276444E-06
       170    7.762529E-07
       171   -9.816258E-05
       172    8.511859E-06
       173   -2.286549E-07
       174   -4.392165E-07
       175   -2.742979E-06
       176    5.414257E-06
       177    1.309246E-03
       178    1.137338E-04
       179    1.313727E-06
       180    6.585253E-05
       181    4.473498E-06
       182   -5.741855E-06
       183    4.112464E-05
       184    5.914372E-06
       185   -4.976362E-04
       186   -3.097520E-03
       187   -1.518550E-05
       188   -1.198577E-07
       189    2.674336E-08
       190    9.311429E-08
       191    9.078256E-06
       192    4.042864E-08
       193   -2.801024E-03
       194    6.565119E-07
       195    2.960381E-06
       196   -3.616893E-06
       197    4.636486E-05
       198    1.657154E-07
       199   -6.102881E-03
       200    2.744328E-06
       201    2.716761E-05
       202   -2.991194E-05
       203    4.794858E-05
       204    3.866624E-06
       205    8.174527E-04
       206    5.573749E-08
       207   -2.155816E-06
       208   -3.916730E-08
       209   -1.264642E-07
       210    2.291614E-06
       211    4.181118E-08
       212    5.168448E-08
       213    6.007168E-07
       214    1.073727E-08
       215    4.518337E-04
       216   -8.461039E-06
       217   -1.957214E-05
       218    6.083959E-05
       219   -2.154838E-04
       220   -2.907856E-03
       221   -3.946408E-04
       222    6.348097E-05
       223   -4.290947E-05
       224    7.546743E-02
       225    1.192223E-04
       226   -1.022083E-04
       227    7.704905E-02
       228   -9.462775E-04
       229   -1.842936E-03
       230    4.959223E-02
       231   -5.550110E-06
       232    1.077632E-07
       233    5.442347E-06
       234   -4.831083E-06
       235   -1.789672E-03
       236    1.890652E-04
       237   -4.568320E-05
       238    9.578591E-06
       239    3.610461E-05
       240   -3.252032E-05
       241   -3.678154E-03
       242    1.972561E-04
       243   -2.800340E-04
       244    2.114503E-04
       245    6.858373E-05
       246   -1.085750E-04
       247    7.656195E-05
       248   -1.208125E-03
       249    1.949287E-06
       250   -4.977786E-07
       251   -5.022461E-04
       252   -1.236362E-06
       253   -2.753167E-07
       254    5.756548E-04
       255   -1.378882E-06
       256    9.431567E-07
       257    9.817898E-05
       258    8.544289E-06
       259   -4.152169E-05
       260   -6.278183E-05
       261    6.967431E-04
       262   -4.227253E-07
       263   -2.998222E-06
       264    3.358964E-03
       265    1.945956E-04
       266    3.675298E-05
       267    3.192746E-03
       268    3.951688E-05
       269    7.266653E-05
       270   -3.789496E-04
       271    7.473986E-07
       272   -3.794398E-06
       273   -3.359402E-03
       274   -1.594961E-04
       275   -2.495825E-05
       276   -3.195146E-03
       277   -1.635390E-05
       278   -2.979127E-05
       279    6.749477E-04
       280   -3.679931E-06
       281   -1.326648E-06
       282   -3.214734E-03
       283   -4.402956E-04
       284    1.087385E-04
       285   -1.443037E-03
       286    1.781779E-05
       287    2.768363E-05
       288   -9.406756E-04
       289    3.850907E-06
       290   -1.750988E-06
       291    3.215132E-03
       292    4.722275E-04
       293    2.936032E-05
       294    1.450091E-03
       295    1.649890E-07
       296    3.868400E-07
       297   -1.719722E-07
       298   -6.979332E-06
       299   -5.514809E-05
       300    7.979478E-05
       301   -4.095732E-07
       302    1.667746E-05
       303    3.697092E-08
       304    5.787520E-07
       305    1.256746E-05
       306    2.020324E-07
       307    1.112444E-05
       308   -2.837247E-04
       309   -2.242006E-06
       310   -1.511371E-07
       311    9.037642E-08
       312    6.076066E-08
       313   -2.606064E-05
       314   -2.332292E-07
       315   -1.095873E-02
       316    6.199862E-07
       317   -2.570183E-07
       318   -3.629679E-07
       319   -7.953758E-05
       320   -5.547919E-07
       321   -3.204678E-02
       322   -4.663265E-06
       323    9.862585E-06
       324   -5.199320E-06
       325   -2.758520E-05
       326    1.319988E-06
       327   -9.348281E-04
       328    6.599351E-09
       329    2.179262E-07
       330   -9.008399E-09
       331    6.875669E-09
       332    6.932829E-06
       333   -2.942249E-08
       334   -1.572963E-08
       335   -7.225208E-06
       336    4.150852E-08
       337    1.855040E-03
       338   -3.569658E-07
       339   -9.755579E-07
       340    2.781709E-06
       341   -9.256963E-06
       342    9.041580E-05
       343   -3.404710E-05
       344   -6.624085E-04
       345   -2.062550E-05
       346   -2.974672E-01
       347   -6.076952E-04
       348   -1.702859E-05
       349   -2.728177E-01
       350   -4.129448E-04
       351   -4.351666E-05
       352   -2.017482E-01
       353   -6.659084E-05
       354    1.502018E-06
       355   -2.864420E-02
       356   -6.445830E-06
       357    4.160556E-07
       358    6.029775E-06
       359    5.210904E-06
       360   -1.613523E-03
       361    2.445199E-03
       362   -1.959312E-05
       363    8.407328E-07
       364    1.875239E-05
       365    1.696690E-05
       366   -5.184590E-03
       367    8.213849E-03
       368   -1.269259E-05
       369   -1.468791E-06
       370    1.416138E-05
       371    7.085609E-06
       372   -4.698550E-03
       373    6.626387E-03
       374    2.219764E-07
       375   -3.348497E-08
       376    4.542635E-04
       377   -1.363987E-06
       378    3.106345E-06
       379    6.020023E-05
       380    1.066174E-06
       381   -3.061421E-06
       382   -6.696587E-04
       383    8.083122E-04
       384   -3.505882E-07
       385   -7.814648E-07
       386    1.064931E-07
       387    1.220472E-05
       388   -1.017136E-04
       389    6.206044E-06
       390    6.651331E-04
       391   -2.543971E-05
       392    2.974754E-01
       393    6.102110E-04
       394   -2.132313E-05
       395    2.728252E-01
       396    4.119330E-04
       397   -3.301952E-05
       398    2.017559E-01
       399    6.524168E-05
       400   -7.140951E-07
       401    2.864529E-02
       402    6.429983E-06
       403   -4.981709E-07
       404   -5.931812E-06
       405    5.210468E-06
       406    1.613542E-03
       407    2.445263E-03
       408    1.942163E-05
       409   -4.826114E-07
       410   -1.893902E-05
       411    1.760386E-05
       412    5.184791E-03
       413    8.214134E-03
       414    1.044256E-05
       415    4.760128E-06
       416   -1.520269E-05
       417    1.010262E-05
       418    4.698635E-03
       419    6.626958E-03
       420   -2.812789E-07
       421   -3.801883E-08
       422   -4.542744E-04
       423    1.361096E-06
       424    3.140890E-06
       425   -6.020731E-05
       426   -9.837204E-07
       427   -3.089882E-06
       428    6.696804E-04
       429    8.083339E-04
       430    4.410607E-07
       431    1.076206E-06
       432   -1.751611E-06
       433    1.809446E-08
       434    2.623788E-05
       435   -3.779902E-05
       436   -1.674918E-06
       437    3.771186E-04
       438    4.702069E-06
       439   -2.244625E-06
       440    5.149700E-04
       441    4.395507E-06
       442    1.684116E-05
       443    7.267498E-04
       444    3.023301E-06
       445    2.046192E-08
       446   -2.995644E-08
       447    9.494525E-09
       448   -7.666142E-06
       449   -8.533750E-08
       450   -1.136487E-04
       451   -8.340818E-08
       452   -2.781373E-07
       453    3.615455E-07
       454    4.425983E-05
       455   -1.307975E-07
       456   -1.950197E-04
       457   -6.916773E-06
       458    9.559224E-07
       459    5.960850E-06
       460    2.462965E-04
       461   -5.306035E-07
       462    4.108645E-04
       463    2.666665E-09
       464    2.056930E-06
       465   -1.826610E-08
       466   -1.018075E-08
       467    5.684383E-06
       468    2.294666E-08
       469    6.603045E-09
       470   -8.444044E-06
       471    1.559891E-09
       472    4.858901E-05
       473   -6.368009E-06
       474   -3.083733E-04
       475   -9.768642E-04
       476    3.005112E-05
       477    4.733251E-05
       478   -1.455311E-04
       479   -7.855586E-05
       480    3.273013E-04
       481   -5.904872E-04
       482    5.280821E-06
       483    3.097927E-04
       484    9.874560E-04
       485   -3.046410E-05
       486    4.735496E-05
       487    1.458811E-04
       488    8.407510E-05
       489    3.332860E-04
       490    5.883485E-04
 Sym= X
 Ene= 0.805618
 Spin= Alpha
 Occup= 0.805618
         1   -2.394831E-05
         2   -5.683979E-05
         3    1.647322E-04
         4   -7.044620E-06
         5   -4.330048E-02
         6    2.599852E-03
         7    2.630374E-04
         8    7.280101E-05
         9    1.080941E-01
        10    5.034767E-04
        11   -8.860807E-06
        12    1.079103E-01
        13   -2.373632E-02
        14    2.188237E-02
        15    5.128380E-02
        16    1.123224E-05
        17   -3.384076E-06
        18   -7.848167E-06
        19    2.885556E-06
        20    1.313559E-04
        21   -3.862286E-05
        22   -1.031926E-04
        23    2.710600E-05
        24    7.608657E-05
        25    1.298509E-05
        26   -4.440420E-03
        27   -1.416534E-03
        28   -9.620235E-03
        29    1.042930E-02
        30   -8.090627E-04
        31   -1.039890E-03
        32   -8.226064E-03
        33   -2.420962E-02
        34   -3.092058E-06
        35    1.135579E-06
        36   -1.659236E-04
        37    4.553199E-06
        38    6.140636E-07
        39   -1.397724E-04
        40   -4.047673E-07
        41   -2.137603E-06
        42    3.623822E-04
        43    1.263758E-04
        44   -8.656910E-06
        45   -1.463984E-05
        46   -1.409544E-04
        47    2.643635E-03
        48   -8.572031E-02
        49   -1.106300E-02
        50   -3.460707E-05
        51    1.354389E-06
        52   -3.151687E-02
        53    2.664845E-04
        54   -6.921923E-06
        55   -2.981650E-02
        56   -3.043409E-02
        57    4.403843E-04
        58    5.815537E-02
        59    3.746947E-05
        60    5.350817E-06
        61   -4.282029E-05
        62   -7.000059E-08