[Molden Format]
[Title]
ADC(2) - opt by CAM-B3LYP gaussian                                              
[Atoms] AU
 c     1    6 -.12589065566052E+01 -.22830902054421E+01 -.26005390588660E-01
 c     2    6 -.25569912224779E+01 0.86573078000000E-06 -.24733756079320E-01
 c     3    6 -.12589060841737E+01 0.22830907841707E+01 -.26008073999770E-01
 c     4    6 0.13324295737882E+01 0.22846183820847E+01 -.28114684000920E-01
 c     5    6 0.26867573459717E+01 0.39329925000000E-06 -.27723246129760E-01
 c     6    6 0.13324281942881E+01 -.22846180679178E+01 -.28111244699360E-01
 h     7    1 -.22982509786098E+01 -.40377481062879E+01 -.23319125993500E-01
 h     8    1 -.22982490510892E+01 0.40377494409070E+01 -.23324322740370E-01
 h     9    1 0.23514918675648E+01 0.40568894753521E+01 -.30529017005560E-01
 h    10    1 0.23514910360853E+01 -.40568888210345E+01 -.30521911635300E-01
 n    11    7 -.52742123095903E+01 0.14763485000000E-06 -.18925267070140E-01
 o    12    8 -.63809534361791E+01 0.20269762391752E+01 -.16457057973460E-01
 o    13    8 -.63809510362269E+01 -.20269772478165E+01 -.16464881439650E-01
 n    14    7 0.52454603626942E+01 -.57046108000000E-06 -.73989411041200E-01
 h    15    1 0.62036818842731E+01 0.16164996606794E+01 0.19711589672944E+00
 h    16    1 0.62036804102867E+01 -.16165023700742E+01 0.19711149366755E+00
[GTO]
    1 0
 s    6 1.00
 0.13575349682000E+05 0.60645503603591E-03
 0.20352333680000E+04 0.46979088884982E-02
 0.46322562359000E+03 0.24332477647552E-01
 0.13120019598000E+03 0.97399968307759E-01
 0.42853015891000E+02 0.30195584253780E+00
 0.15584185766000E+02 0.66233609137875E+00
 s    2 1.00
 0.62067138508000E+01 0.65595308539952E+00
 0.25764896527000E+01 0.37585633285142E+00
 s    1 1.00
 0.57696339419000E+00 0.10000000000000E+01
 s    1 1.00
 0.22972831358000E+00 0.10000000000000E+01
 s    1 1.00
 0.95164440028000E-01 0.10000000000000E+01
 s    1 1.00
 0.48475401370000E-01 0.10000000000000E+01
 p    4 1.00
 0.34697232244000E+02 0.11327220003114E-01
 0.79582622826000E+01 0.76169659202087E-01
 0.23780826883000E+01 0.30192252202676E+00
 0.81433208183000E+00 0.72785027349547E+00
 p    1 1.00
 0.28887547253000E+00 0.10000000000000E+01
 p    1 1.00
 0.10056823671000E+00 0.10000000000000E+01
 d    1 1.00
 0.10970000000000E+01 0.10000000000000E+01
 d    1 1.00
 0.31800000000000E+00 0.10000000000000E+01
 d    1 1.00
 0.90985336424000E-01 0.10000000000000E+01
 f    1 1.00
 0.76100000000000E+00 0.10000000000000E+01
 
    2 0
 s    6 1.00
 0.13575349682000E+05 0.60645503603591E-03
 0.20352333680000E+04 0.46979088884982E-02
 0.46322562359000E+03 0.24332477647552E-01
 0.13120019598000E+03 0.97399968307759E-01
 0.42853015891000E+02 0.30195584253780E+00
 0.15584185766000E+02 0.66233609137875E+00
 s    2 1.00
 0.62067138508000E+01 0.65595308539952E+00
 0.25764896527000E+01 0.37585633285142E+00
 s    1 1.00
 0.57696339419000E+00 0.10000000000000E+01
 s    1 1.00
 0.22972831358000E+00 0.10000000000000E+01
 s    1 1.00
 0.95164440028000E-01 0.10000000000000E+01
 s    1 1.00
 0.48475401370000E-01 0.10000000000000E+01
 p    4 1.00
 0.34697232244000E+02 0.11327220003114E-01
 0.79582622826000E+01 0.76169659202087E-01
 0.23780826883000E+01 0.30192252202676E+00
 0.81433208183000E+00 0.72785027349547E+00
 p    1 1.00
 0.28887547253000E+00 0.10000000000000E+01
 p    1 1.00
 0.10056823671000E+00 0.10000000000000E+01
 d    1 1.00
 0.10970000000000E+01 0.10000000000000E+01
 d    1 1.00
 0.31800000000000E+00 0.10000000000000E+01
 d    1 1.00
 0.90985336424000E-01 0.10000000000000E+01
 f    1 1.00
 0.76100000000000E+00 0.10000000000000E+01
 
    3 0
 s    6 1.00
 0.13575349682000E+05 0.60645503603591E-03
 0.20352333680000E+04 0.46979088884982E-02
 0.46322562359000E+03 0.24332477647552E-01
 0.13120019598000E+03 0.97399968307759E-01
 0.42853015891000E+02 0.30195584253780E+00
 0.15584185766000E+02 0.66233609137875E+00
 s    2 1.00
 0.62067138508000E+01 0.65595308539952E+00
 0.25764896527000E+01 0.37585633285142E+00
 s    1 1.00
 0.57696339419000E+00 0.10000000000000E+01
 s    1 1.00
 0.22972831358000E+00 0.10000000000000E+01
 s    1 1.00
 0.95164440028000E-01 0.10000000000000E+01
 s    1 1.00
 0.48475401370000E-01 0.10000000000000E+01
 p    4 1.00
 0.34697232244000E+02 0.11327220003114E-01
 0.79582622826000E+01 0.76169659202087E-01
 0.23780826883000E+01 0.30192252202676E+00
 0.81433208183000E+00 0.72785027349547E+00
 p    1 1.00
 0.28887547253000E+00 0.10000000000000E+01
 p    1 1.00
 0.10056823671000E+00 0.10000000000000E+01
 d    1 1.00
 0.10970000000000E+01 0.10000000000000E+01
 d    1 1.00
 0.31800000000000E+00 0.10000000000000E+01
 d    1 1.00
 0.90985336424000E-01 0.10000000000000E+01
 f    1 1.00
 0.76100000000000E+00 0.10000000000000E+01
 
    4 0
 s    6 1.00
 0.13575349682000E+05 0.60645503603591E-03
 0.20352333680000E+04 0.46979088884982E-02
 0.46322562359000E+03 0.24332477647552E-01
 0.13120019598000E+03 0.97399968307759E-01
 0.42853015891000E+02 0.30195584253780E+00
 0.15584185766000E+02 0.66233609137875E+00
 s    2 1.00
 0.62067138508000E+01 0.65595308539952E+00
 0.25764896527000E+01 0.37585633285142E+00
 s    1 1.00
 0.57696339419000E+00 0.10000000000000E+01
 s    1 1.00
 0.22972831358000E+00 0.10000000000000E+01
 s    1 1.00
 0.95164440028000E-01 0.10000000000000E+01
 s    1 1.00
 0.48475401370000E-01 0.10000000000000E+01
 p    4 1.00
 0.34697232244000E+02 0.11327220003114E-01
 0.79582622826000E+01 0.76169659202087E-01
 0.23780826883000E+01 0.30192252202676E+00
 0.81433208183000E+00 0.72785027349547E+00
 p    1 1.00
 0.28887547253000E+00 0.10000000000000E+01
 p    1 1.00
 0.10056823671000E+00 0.10000000000000E+01
 d    1 1.00
 0.10970000000000E+01 0.10000000000000E+01
 d    1 1.00
 0.31800000000000E+00 0.10000000000000E+01
 d    1 1.00
 0.90985336424000E-01 0.10000000000000E+01
 f    1 1.00
 0.76100000000000E+00 0.10000000000000E+01
 
    5 0
 s    6 1.00
 0.13575349682000E+05 0.60645503603591E-03
 0.20352333680000E+04 0.46979088884982E-02
 0.46322562359000E+03 0.24332477647552E-01
 0.13120019598000E+03 0.97399968307759E-01
 0.42853015891000E+02 0.30195584253780E+00
 0.15584185766000E+02 0.66233609137875E+00
 s    2 1.00
 0.62067138508000E+01 0.65595308539952E+00
 0.25764896527000E+01 0.37585633285142E+00
 s    1 1.00
 0.57696339419000E+00 0.10000000000000E+01
 s    1 1.00
 0.22972831358000E+00 0.10000000000000E+01
 s    1 1.00
 0.95164440028000E-01 0.10000000000000E+01
 s    1 1.00
 0.48475401370000E-01 0.10000000000000E+01
 p    4 1.00
 0.34697232244000E+02 0.11327220003114E-01
 0.79582622826000E+01 0.76169659202087E-01
 0.23780826883000E+01 0.30192252202676E+00
 0.81433208183000E+00 0.72785027349547E+00
 p    1 1.00
 0.28887547253000E+00 0.10000000000000E+01
 p    1 1.00
 0.10056823671000E+00 0.10000000000000E+01
 d    1 1.00
 0.10970000000000E+01 0.10000000000000E+01
 d    1 1.00
 0.31800000000000E+00 0.10000000000000E+01
 d    1 1.00
 0.90985336424000E-01 0.10000000000000E+01
 f    1 1.00
 0.76100000000000E+00 0.10000000000000E+01
 
    6 0
 s    6 1.00
 0.13575349682000E+05 0.60645503603591E-03
 0.20352333680000E+04 0.46979088884982E-02
 0.46322562359000E+03 0.24332477647552E-01
 0.13120019598000E+03 0.97399968307759E-01
 0.42853015891000E+02 0.30195584253780E+00
 0.15584185766000E+02 0.66233609137875E+00
 s    2 1.00
 0.62067138508000E+01 0.65595308539952E+00
 0.25764896527000E+01 0.37585633285142E+00
 s    1 1.00
 0.57696339419000E+00 0.10000000000000E+01
 s    1 1.00
 0.22972831358000E+00 0.10000000000000E+01
 s    1 1.00
 0.95164440028000E-01 0.10000000000000E+01
 s    1 1.00
 0.48475401370000E-01 0.10000000000000E+01
 p    4 1.00
 0.34697232244000E+02 0.11327220003114E-01
 0.79582622826000E+01 0.76169659202087E-01
 0.23780826883000E+01 0.30192252202676E+00
 0.81433208183000E+00 0.72785027349547E+00
 p    1 1.00
 0.28887547253000E+00 0.10000000000000E+01
 p    1 1.00
 0.10056823671000E+00 0.10000000000000E+01
 d    1 1.00
 0.10970000000000E+01 0.10000000000000E+01
 d    1 1.00
 0.31800000000000E+00 0.10000000000000E+01
 d    1 1.00
 0.90985336424000E-01 0.10000000000000E+01
 f    1 1.00
 0.76100000000000E+00 0.10000000000000E+01
 
    7 0
 s    3 1.00
 0.34061341000000E+02 0.25439307208879E-01
 0.51235746000000E+01 0.19008594890375E+00
 0.11646626000000E+01 0.85244113011042E+00
 s    1 1.00
 0.32723041000000E+00 0.10000000000000E+01
 s    1 1.00
 0.10307241000000E+00 0.10000000000000E+01
 p    1 1.00
 0.80000000000000E+00 0.10000000000000E+01
 p    1 1.00
 0.95774129632000E-01 0.10000000000000E+01
 
    8 0
 s    3 1.00
 0.34061341000000E+02 0.25439307208879E-01
 0.51235746000000E+01 0.19008594890375E+00
 0.11646626000000E+01 0.85244113011042E+00
 s    1 1.00
 0.32723041000000E+00 0.10000000000000E+01
 s    1 1.00
 0.10307241000000E+00 0.10000000000000E+01
 p    1 1.00
 0.80000000000000E+00 0.10000000000000E+01
 p    1 1.00
 0.95774129632000E-01 0.10000000000000E+01
 
    9 0
 s    3 1.00
 0.34061341000000E+02 0.25439307208879E-01
 0.51235746000000E+01 0.19008594890375E+00
 0.11646626000000E+01 0.85244113011042E+00
 s    1 1.00
 0.32723041000000E+00 0.10000000000000E+01
 s    1 1.00
 0.10307241000000E+00 0.10000000000000E+01
 p    1 1.00
 0.80000000000000E+00 0.10000000000000E+01
 p    1 1.00
 0.95774129632000E-01 0.10000000000000E+01
 
   10 0
 s    3 1.00
 0.34061341000000E+02 0.25439307208879E-01
 0.51235746000000E+01 0.19008594890375E+00
 0.11646626000000E+01 0.85244113011042E+00
 s    1 1.00
 0.32723041000000E+00 0.10000000000000E+01
 s    1 1.00
 0.10307241000000E+00 0.10000000000000E+01
 p    1 1.00
 0.80000000000000E+00 0.10000000000000E+01
 p    1 1.00
 0.95774129632000E-01 0.10000000000000E+01
 
   11 0
 s    6 1.00
 0.19730800647000E+05 0.58626402628763E-03
 0.29578958745000E+04 0.45428820586397E-02
 0.67322133595000E+03 0.23558413450084E-01
 0.19068249494000E+03 0.94709193292923E-01
 0.62295441898000E+02 0.29719784913376E+00
 0.22654161182000E+02 0.66916246895232E+00
 s    2 1.00
 0.89791477428000E+01 0.64596683630063E+00
 0.36863002370000E+01 0.38700574393705E+00
 s    1 1.00
 0.84660076805000E+00 0.10000000000000E+01
 s    1 1.00
 0.33647133771000E+00 0.10000000000000E+01
 s    1 1.00
 0.13647653675000E+00 0.10000000000000E+01
 s    1 1.00
 0.68441605847000E-01 0.10000000000000E+01
 p    4 1.00
 0.49200380510000E+02 0.11448825101764E-01
 0.11346790537000E+02 0.78422337970864E-01
 0.34273972411000E+01 0.30818094738830E+00
 0.11785525134000E+01 0.72027196368413E+00
 p    1 1.00
 0.41642204972000E+00 0.10000000000000E+01
 p    1 1.00
 0.14260826011000E+00 0.10000000000000E+01
 d    1 1.00
 0.16540000000000E+01 0.10000000000000E+01
 d    1 1.00
 0.46900000000000E+00 0.10000000000000E+01
 d    1 1.00
 0.12829642058000E+00 0.10000000000000E+01
 f    1 1.00
 0.10930000000000E+01 0.10000000000000E+01
 
   12 0
 s    6 1.00
 0.27032382631000E+05 0.57227335211155E-03
 0.40523871392000E+04 0.44353233492995E-02
 0.92232722710000E+03 0.23020107706038E-01
 0.26124070989000E+03 0.92822490667928E-01
 0.85354641351000E+02 0.29378500009671E+00
 0.31035035245000E+02 0.67401604501641E+00
 s    2 1.00
 0.12260860728000E+02 0.63839937025506E+00
 0.49987076005000E+01 0.39534587125718E+00
 s    1 1.00
 0.11703108158000E+01 0.10000000000000E+01
 s    1 1.00
 0.46474740994000E+00 0.10000000000000E+01
 s    1 1.00
 0.18504536357000E+00 0.10000000000000E+01
 s    1 1.00
 0.70288026270000E-01 0.10000000000000E+01
 p    4 1.00
 0.63274954801000E+02 0.12018332222616E-01
 0.14627049379000E+02 0.83005421790056E-01
 0.44501223456000E+01 0.31991743925964E+00
 0.15275799647000E+01 0.70715542916104E+00
 p    1 1.00
 0.52935117943000E+00 0.10000000000000E+01
 p    1 1.00
 0.17478421270000E+00 0.10000000000000E+01
 p    1 1.00
 0.51112745706000E-01 0.10000000000000E+01
 d    1 1.00
 0.23140000000000E+01 0.10000000000000E+01
 d    1 1.00
 0.64500000000000E+00 0.10000000000000E+01
 d    1 1.00
 0.14696477366000E+00 0.10000000000000E+01
 f    1 1.00
 0.14280000000000E+01 0.10000000000000E+01
 
   13 0
 s    6 1.00
 0.27032382631000E+05 0.57227335211155E-03
 0.40523871392000E+04 0.44353233492995E-02
 0.92232722710000E+03 0.23020107706038E-01
 0.26124070989000E+03 0.92822490667928E-01
 0.85354641351000E+02 0.29378500009671E+00
 0.31035035245000E+02 0.67401604501641E+00
 s    2 1.00
 0.12260860728000E+02 0.63839937025506E+00
 0.49987076005000E+01 0.39534587125718E+00
 s    1 1.00
 0.11703108158000E+01 0.10000000000000E+01
 s    1 1.00
 0.46474740994000E+00 0.10000000000000E+01
 s    1 1.00
 0.18504536357000E+00 0.10000000000000E+01
 s    1 1.00
 0.70288026270000E-01 0.10000000000000E+01
 p    4 1.00
 0.63274954801000E+02 0.12018332222616E-01
 0.14627049379000E+02 0.83005421790056E-01
 0.44501223456000E+01 0.31991743925964E+00
 0.15275799647000E+01 0.70715542916104E+00
 p    1 1.00
 0.52935117943000E+00 0.10000000000000E+01
 p    1 1.00
 0.17478421270000E+00 0.10000000000000E+01
 p    1 1.00
 0.51112745706000E-01 0.10000000000000E+01
 d    1 1.00
 0.23140000000000E+01 0.10000000000000E+01
 d    1 1.00
 0.64500000000000E+00 0.10000000000000E+01
 d    1 1.00
 0.14696477366000E+00 0.10000000000000E+01
 f    1 1.00
 0.14280000000000E+01 0.10000000000000E+01
 
   14 0
 s    6 1.00
 0.19730800647000E+05 0.58626402628763E-03
 0.29578958745000E+04 0.45428820586397E-02
 0.67322133595000E+03 0.23558413450084E-01
 0.19068249494000E+03 0.94709193292923E-01
 0.62295441898000E+02 0.29719784913376E+00
 0.22654161182000E+02 0.66916246895232E+00
 s    2 1.00
 0.89791477428000E+01 0.64596683630063E+00
 0.36863002370000E+01 0.38700574393705E+00
 s    1 1.00
 0.84660076805000E+00 0.10000000000000E+01
 s    1 1.00
 0.33647133771000E+00 0.10000000000000E+01
 s    1 1.00
 0.13647653675000E+00 0.10000000000000E+01
 s    1 1.00
 0.68441605847000E-01 0.10000000000000E+01
 p    4 1.00
 0.49200380510000E+02 0.11448825101764E-01
 0.11346790537000E+02 0.78422337970864E-01
 0.34273972411000E+01 0.30818094738830E+00
 0.11785525134000E+01 0.72027196368413E+00
 p    1 1.00
 0.41642204972000E+00 0.10000000000000E+01
 p    1 1.00
 0.14260826011000E+00 0.10000000000000E+01
 d    1 1.00
 0.16540000000000E+01 0.10000000000000E+01
 d    1 1.00
 0.46900000000000E+00 0.10000000000000E+01
 d    1 1.00
 0.12829642058000E+00 0.10000000000000E+01
 f    1 1.00
 0.10930000000000E+01 0.10000000000000E+01
 
   15 0
 s    3 1.00
 0.34061341000000E+02 0.25439307208879E-01
 0.51235746000000E+01 0.19008594890375E+00
 0.11646626000000E+01 0.85244113011042E+00
 s    1 1.00
 0.32723041000000E+00 0.10000000000000E+01
 s    1 1.00
 0.10307241000000E+00 0.10000000000000E+01
 p    1 1.00
 0.80000000000000E+00 0.10000000000000E+01
 p    1 1.00
 0.95774129632000E-01 0.10000000000000E+01
 
   16 0
 s    3 1.00
 0.34061341000000E+02 0.25439307208879E-01
 0.51235746000000E+01 0.19008594890375E+00
 0.11646626000000E+01 0.85244113011042E+00
 s    1 1.00
 0.32723041000000E+00 0.10000000000000E+01
 s    1 1.00
 0.10307241000000E+00 0.10000000000000E+01
 p    1 1.00
 0.80000000000000E+00 0.10000000000000E+01
 p    1 1.00
 0.95774129632000E-01 0.10000000000000E+01
 
[MO]
 Sym= X
 Ene= -0.895042
 Spin= Alpha
 Occup= -0.895042
         1   -1.397164E-04
         2   -3.285333E-04
         3    1.021958E-03
         4   -2.675929E-03
         5   -9.293857E-03
         6   -1.074568E-02
         7    1.752302E-03
         8    4.381386E-04
         9    2.703436E-02
        10   -2.215094E-03
        11    6.004032E-04
        12    2.513459E-02
        13   -3.487853E-02
        14    1.051682E-02
        15    5.023743E-03
        16    4.105065E-06
        17   -1.734581E-05
        18    1.324074E-05
        19   -2.052907E-05
        20   -6.318214E-03
        21    3.906211E-03
        22   -6.391772E-04
        23    3.852296E-04
        24    2.539476E-04
        25   -6.948166E-04
        26   -1.425504E-02
        27    7.355838E-03
        28   -5.039559E-03
        29    4.722522E-03
        30    3.170378E-04
        31    9.930244E-04
        32    1.587442E-03
        33   -1.038733E-02
        34   -1.877288E-05
        35    8.007613E-06
        36   -1.253205E-04
        37    8.465558E-06
        38   -7.606759E-06
        39   -6.914810E-04
        40    1.672090E-05
        41   -3.136581E-06
        42    8.596161E-04
        43   -7.039202E-04
        44    2.198002E-05
        45    4.605589E-05
        46    1.589051E-04
        47   -2.670192E-03
        48   -5.070670E-02
        49    5.147939E-03
        50    5.593142E-04
        51    2.091306E-06
        52    2.063144E-01
        53   -2.737683E-04
        54    2.006567E-05
        55    2.139652E-01
        56   -1.632273E-02
        57   -6.274093E-04
        58    2.029888E-01
        59    3.862312E-05
        60   -3.587299E-05
        61   -2.750124E-06
        62    1.165810E-07
        63   -7.086191E-04
        64   -2.119095E-07
        65    3.679989E-04
        66   -6.122959E-04
        67    2.442971E-04
        68    4.248552E-06
        69   -3.387383E-03
        70   -4.659803E-07
        71    8.803099E-03
        72   -9.910502E-03
        73    1.107403E-03
        74   -1.026942E-04
        75    5.104377E-03
        76   -1.613158E-05
        77    8.469011E-06
        78    4.578889E-08
        79   -1.164810E-03
        80   -6.871575E-06
        81    2.760878E-08
        82    7.017250E-04
        83   -4.490795E-06
        84   -8.904103E-08
        85    8.610316E-04
        86    4.473943E-09
        87   -1.398947E-04
        88   -3.289409E-04
        89    1.024802E-03
        90   -2.698225E-03
        91   -7.868966E-03
        92   -1.071576E-02
        93    1.752628E-03
        94   -4.410137E-04
        95    2.702461E-02
        96   -2.183640E-03
        97   -5.935596E-04
        98    2.512070E-02
        99   -3.517297E-02
       100   -1.107725E-02
       101    5.012819E-03
       102    4.166219E-06
       103   -1.734177E-05
       104    1.317555E-05
       105    2.088415E-05
       106   -6.318522E-03
       107   -3.906291E-03
       108   -6.329291E-04
       109    3.783172E-04
       110    2.546119E-04
       111    6.911343E-04
       112   -1.425627E-02
       113   -7.354717E-03
       114   -5.146474E-03
       115    4.837391E-03
       116    3.090830E-04
       117   -8.896425E-04
       118    1.569796E-03
       119    1.038351E-02
       120   -1.880623E-05
       121   -7.970255E-06
       122   -1.251487E-04
       123    8.658386E-06
       124    7.554998E-06
       125   -6.917051E-04
       126    1.657282E-05
       127    3.138220E-06
       128    8.596097E-04
       129    7.038430E-04
       130    6.420803E-05
       131    1.352469E-04
       132    7.357411E-04
       133   -9.917678E-03
       134    2.987267E-02
       135    1.205045E-02
       136   -1.245895E-03
       137    7.316045E-04
       138   -1.528489E-01
       139   -8.755549E-03
       140    6.047665E-03
       141   -1.556937E-01
       142   -2.408373E-02
       143   -7.386332E-03
       144   -9.376308E-02
       145    1.414875E-04
       146   -1.667452E-04
       147    2.525770E-05
       148    4.974511E-06
       149   -9.262121E-04
       150    2.989506E-03
       151    6.035893E-04
       152   -7.292925E-04
       153    1.257031E-04
       154    1.643235E-03
       155   -4.239290E-03
       156    5.051332E-03
       157    8.002040E-03
       158   -6.253704E-03
       159   -1.748335E-03
       160   -8.363460E-03
       161    3.461416E-03
       162   -1.208826E-02
       163   -1.502486E-05
       164    1.009072E-05
       165    8.567761E-04
       166   -1.752100E-05
       167    1.556229E-05
       168   -2.044049E-04
       169    3.767897E-05
       170   -2.910042E-05
       171   -9.450809E-04
       172    3.465776E-04
       173   -1.060066E-03
       174   -2.414550E-03
       175    2.434828E-03
       176    2.115133E-02
       177   -1.518168E-02
       178    9.324912E-03
       179    8.603039E-03
       180   -2.103646E-06
       181   -1.145747E-01
       182    4.349989E-04
       183   -1.136229E-05
       184   -1.172400E-01
       185   -2.426178E-02
       186    8.704662E-04
       187   -1.327915E-01
       188    4.554877E-04
       189   -2.517718E-04
       190   -2.037159E-04
       191    3.493617E-07
       192    9.748850E-03
       193    3.717849E-08
       194   -1.782849E-03
       195    3.947900E-03
       196   -2.165051E-03
       197    6.725758E-07
       198    2.414356E-02
       199   -2.601908E-06
       200   -5.527216E-03
       201    6.748599E-03
       202   -1.221383E-03
       203   -1.209228E-04
       204    1.881473E-02
       205    4.394756E-06
       206    1.113540E-04
       207    3.971252E-09
       208    3.418926E-04
       209   -7.867971E-05
       210   -2.849380E-08
       211    1.013102E-03
       212   -7.071738E-05
       213    2.316581E-08
       214   -1.471799E-03
       215    9.727653E-08
       216    6.445886E-05
       217    1.355872E-04
       218    7.365751E-04
       219   -9.929303E-03
       220    3.159431E-02
       221    1.206798E-02
       222   -1.245676E-03
       223   -7.230385E-04
       224   -1.528382E-01
       225   -8.770802E-03
       226   -6.049015E-03
       227   -1.556869E-01
       228   -2.366038E-02
       229    8.220592E-03
       230   -9.376775E-02
       231    1.414516E-04
       232   -1.670722E-04
       233    2.562063E-05
       234   -4.535976E-06
       235   -9.267335E-04
       236   -2.989479E-03
       237    6.076560E-04
       238   -7.314652E-04
       239    1.238092E-04
       240   -1.647005E-03
       241   -4.237046E-03
       242   -5.051422E-03
       243    7.922958E-03
       244   -6.172739E-03
       245   -1.750218E-03
       246    8.488805E-03
       247    3.486912E-03
       248    1.209134E-02
       249   -1.518279E-05
       250   -1.013131E-05
       251    8.568577E-04
       252   -1.747461E-05
       253   -1.552503E-05
       254   -2.045260E-04
       255    3.784447E-05
       256    2.911761E-05
       257   -9.450692E-04
       258   -3.466084E-04
       259   -5.210132E-04
       260   -4.548005E-04
       261   -1.659547E-02
       262   -2.608463E-05
       263   -2.235950E-05
       264    1.046335E-03
       265   -5.144473E-03
       266   -2.072824E-04
       267   -6.572771E-03
       268   -5.231750E-04
       269   -4.495269E-04
       270   -1.657245E-02
       271   -2.523435E-05
       272    2.148566E-05
       273    1.045802E-03
       274   -5.239382E-03
       275    1.745981E-04
       276   -6.577837E-03
       277   -3.028185E-04
       278   -2.118216E-03
       279    3.285838E-02
       280   -1.782677E-05
       281    8.171682E-05
       282   -6.221219E-03
       283   -1.561085E-03
       284   -2.649766E-03
       285    1.525068E-03
       286   -3.069556E-04
       287   -2.129317E-03
       288    3.314669E-02
       289   -1.710642E-05
       290   -8.238576E-05
       291   -6.221497E-03
       292   -1.541235E-03
       293    2.703096E-03
       294    1.514720E-03
       295   -4.433713E-05
       296   -1.026002E-04
       297    9.212900E-05
       298    3.904448E-04
       299   -6.598545E-03
       300    1.099202E-03
       301    3.406657E-04
       302   -5.769028E-08
       303    1.941907E-02
       304    6.072844E-05
       305    1.221695E-06
       306    2.185263E-02
       307   -2.944960E-03
       308    2.929419E-05
       309    9.341498E-03
       310    1.157548E-05
       311    4.496086E-06
       312   -1.607157E-05
       313   -3.550218E-08
       314    4.514470E-03
       315    1.902465E-08
       316   -1.994589E-05
       317    8.610516E-05
       318   -6.615927E-05
       319   -7.439803E-07
       320    1.356808E-02
       321   -1.430677E-07
       322   -9.855253E-04
       323    2.742727E-03
       324   -1.757202E-03
       325    2.188464E-05
       326    3.226124E-03
       327    5.156549E-06
       328    6.923367E-06
       329   -1.280164E-08
       330    1.161347E-05
       331   -5.189487E-06
       332    4.104711E-08
       333    7.098146E-04
       334   -4.099185E-06
       335   -2.387191E-08
       336   -7.253957E-04
       337   -5.583103E-09
       338   -1.511745E-05
       339   -3.351994E-05
       340    6.362802E-06
       341    4.976346E-04
       342   -5.627776E-03
       343   -8.964593E-04
       344    1.815438E-05
       345    1.513880E-04
       346   -8.067284E-02
       347   -9.079829E-05
       348    2.749778E-04
       349   -7.480381E-02
       350   -1.263652E-03
       351    5.005992E-04
       352   -6.074568E-02
       353   -1.431845E-04
       354    2.150138E-04
       355   -7.460828E-03
       356    3.978423E-06
       357   -4.134728E-06
       358    1.563053E-07
       359   -1.727011E-06
       360    3.203036E-06
       361    4.945616E-04
       362   -1.045270E-05
       363   -1.015784E-05
       364    2.061054E-05
       365    5.492339E-06
       366   -5.456334E-04
       367    1.642185E-03
       368   -7.820256E-05
       369    5.458424E-05
       370    2.361832E-05
       371    8.094980E-05
       372   -2.277928E-04
       373    2.664896E-04
       374    4.826238E-07
       375    1.913211E-06
       376    6.790576E-05
       377   -8.437251E-07
       378   -1.049383E-06
       379    8.572897E-05
       380    1.962173E-07
       381   -1.517458E-06
       382   -1.768341E-04
       383    1.407394E-04
       384   -1.494085E-05
       385   -3.312972E-05
       386    6.302290E-06
       387    4.925613E-04
       388   -5.618030E-03
       389   -8.699851E-04
       390    2.474734E-05
       391   -1.547867E-04
       392   -8.067324E-02
       393   -8.435713E-05
       394   -2.773803E-04
       395   -7.480514E-02
       396   -1.234719E-03
       397   -4.955247E-04
       398   -6.073696E-02
       399   -1.282223E-04
       400   -2.207632E-04
       401   -7.460742E-03
       402    4.014277E-06
       403   -4.186402E-06
       404    1.721247E-07
       405    1.684712E-06
       406    3.184511E-06
       407   -4.945652E-04
       408   -1.019837E-05
       409   -1.009386E-05
       410    2.029223E-05
       411   -4.999579E-06
       412   -5.455408E-04
       413   -1.642223E-03
       414   -7.735605E-05
       415    5.576252E-05
       416    2.159354E-05
       417   -8.037761E-05
       418   -2.275632E-04
       419   -2.651221E-04
       420    4.857554E-07
       421   -1.917747E-06
       422    6.790836E-05
       423   -8.283733E-07
       424    1.062663E-06
       425    8.572913E-05
       426    1.766641E-07
       427    1.510265E-06
       428   -1.768377E-04
       429   -1.407445E-04
       430    4.819283E-03
       431    1.143085E-02
       432   -1.775437E-02
       433   -2.751820E-02
       434   -2.188662E-02
       435   -6.777026E-02
       436   -1.670013E-02
       437    8.337916E-06
       438    2.466526E-01
       439   -1.906934E-02
       440    1.434940E-06
       441    2.438087E-01
       442   -1.741268E-02
       443   -1.022057E-04
       444    2.008217E-01
       445   -9.939250E-05
       446   -8.901938E-06
       447    1.082944E-04
       448    2.686008E-07
       449    8.308204E-04
       450    2.155614E-07
       451   -2.351729E-04
       452   -1.469321E-03
       453    1.704494E-03
       454   -3.662112E-06
       455    3.746107E-03
       456    1.419633E-06
       457   -1.848373E-03
       458   -2.861618E-03
       459    4.709990E-03
       460   -3.799423E-06
       461    2.200441E-03
       462    7.619317E-06
       463   -1.364877E-04
       464    3.443240E-08
       465   -9.666031E-04
       466   -8.447169E-05
       467   -4.086004E-09
       468    5.053733E-04
       469    2.675892E-04
       470   -4.210990E-08
       471    7.914608E-04
       472    1.007205E-08
       473    9.184702E-03
       474    1.739750E-02
       475    2.925555E-02
       476   -2.181740E-03
       477   -1.828639E-03
       478    1.253969E-02
       479    1.434563E-03
       480   -3.439950E-03
       481    1.475711E-02
       482    9.178655E-03
       483    1.733189E-02
       484    2.907503E-02
       485   -2.178493E-03
       486    1.822331E-03
       487    1.254293E-02
       488    1.450553E-03
       489    3.404641E-03
       490    1.476527E-02
 Sym= X
 Ene= 0.895042
 Spin= Alpha
 Occup= 0.895042
         1   -4.796217E-03
         2   -1.098715E-02
         3    1.881529E-02
         4    1.357019E-02
         5    2.994421E+00
         6   -4.137821E-01
         7   -2.830969E-02
         8   -4.296326E-02
         9    1.498511E-03
        10   -4.382716E-03
        11   -1.177239E-01
        12    5.189225E-04
        13   -2.975268E-01
        14    1.698553E+00
        15    1.471047E-02
        16    2.548140E-03
        17   -5.990083E-03
        18    3.441944E-03
        19   -3.164207E-03
        20    6.414502E-05
        21   -1.359474E-04
        22   -6.168752E-03
        23   -5.467768E-03
        24    1.163652E-02
        25   -8.317465E-04
        26    1.119282E-04
        27   -1.299398E-04
        28   -2.616817E-01
        29    6.494301E-02
        30    1.967387E-01
        31   -6.274096E-01
        32    8.904994E-03
        33   -1.698011E-02
        34    7.805949E-05
        35   -3.626035E-04
        36    1.278454E-05
        37   -5.661630E-04
        38   -2.521018E-04
        39   -2.473701E-05
        40    4.614352E-04
        41    7.385855E-04
        42    7.584741E-06
        43    2.227000E-05
        44   -9.460115E-04
        45   -2.315155E-03
        46    1.011694E-03
        47   -7.031230E-02
        48   -5.345053E+00
        49    5.528216E+00
        50   -6.903192E-02
        51    1.346185E-06
        52   -3.336940E-03
        53   -7.458206E-02
        54    3.913162E-05
        55   -5.156657E-03
        56   -3.302445E+00
        57   -1.168885E-03
        58    5.861319E-02
        59   -6.960885E-03
        60    2.554403E-03
        61    4.406482E-03
        62   -3.819310E-07