[Molden Format]
[Title]
ADC(2) - opt by CAM-B3LYP gaussian                                              
[Atoms] AU
 c     1    6 -.12589065566052E+01 -.22830902054421E+01 -.26005390588660E-01
 c     2    6 -.25569912224779E+01 0.86573078000000E-06 -.24733756079320E-01
 c     3    6 -.12589060841737E+01 0.22830907841707E+01 -.26008073999770E-01
 c     4    6 0.13324295737882E+01 0.22846183820847E+01 -.28114684000920E-01
 c     5    6 0.26867573459717E+01 0.39329925000000E-06 -.27723246129760E-01
 c     6    6 0.13324281942881E+01 -.22846180679178E+01 -.28111244699360E-01
 h     7    1 -.22982509786098E+01 -.40377481062879E+01 -.23319125993500E-01
 h     8    1 -.22982490510892E+01 0.40377494409070E+01 -.23324322740370E-01
 h     9    1 0.23514918675648E+01 0.40568894753521E+01 -.30529017005560E-01
 h    10    1 0.23514910360853E+01 -.40568888210345E+01 -.30521911635300E-01
 n    11    7 -.52742123095903E+01 0.14763485000000E-06 -.18925267070140E-01
 o    12    8 -.63809534361791E+01 0.20269762391752E+01 -.16457057973460E-01
 o    13    8 -.63809510362269E+01 -.20269772478165E+01 -.16464881439650E-01
 n    14    7 0.52454603626942E+01 -.57046108000000E-06 -.73989411041200E-01
 h    15    1 0.62036818842731E+01 0.16164996606794E+01 0.19711589672944E+00
 h    16    1 0.62036804102867E+01 -.16165023700742E+01 0.19711149366755E+00
[GTO]
    1 0
 s    6 1.00
 0.13575349682000E+05 0.60645503603591E-03
 0.20352333680000E+04 0.46979088884982E-02
 0.46322562359000E+03 0.24332477647552E-01
 0.13120019598000E+03 0.97399968307759E-01
 0.42853015891000E+02 0.30195584253780E+00
 0.15584185766000E+02 0.66233609137875E+00
 s    2 1.00
 0.62067138508000E+01 0.65595308539952E+00
 0.25764896527000E+01 0.37585633285142E+00
 s    1 1.00
 0.57696339419000E+00 0.10000000000000E+01
 s    1 1.00
 0.22972831358000E+00 0.10000000000000E+01
 s    1 1.00
 0.95164440028000E-01 0.10000000000000E+01
 s    1 1.00
 0.48475401370000E-01 0.10000000000000E+01
 p    4 1.00
 0.34697232244000E+02 0.11327220003114E-01
 0.79582622826000E+01 0.76169659202087E-01
 0.23780826883000E+01 0.30192252202676E+00
 0.81433208183000E+00 0.72785027349547E+00
 p    1 1.00
 0.28887547253000E+00 0.10000000000000E+01
 p    1 1.00
 0.10056823671000E+00 0.10000000000000E+01
 d    1 1.00
 0.10970000000000E+01 0.10000000000000E+01
 d    1 1.00
 0.31800000000000E+00 0.10000000000000E+01
 d    1 1.00
 0.90985336424000E-01 0.10000000000000E+01
 f    1 1.00
 0.76100000000000E+00 0.10000000000000E+01
 
    2 0
 s    6 1.00
 0.13575349682000E+05 0.60645503603591E-03
 0.20352333680000E+04 0.46979088884982E-02
 0.46322562359000E+03 0.24332477647552E-01
 0.13120019598000E+03 0.97399968307759E-01
 0.42853015891000E+02 0.30195584253780E+00
 0.15584185766000E+02 0.66233609137875E+00
 s    2 1.00
 0.62067138508000E+01 0.65595308539952E+00
 0.25764896527000E+01 0.37585633285142E+00
 s    1 1.00
 0.57696339419000E+00 0.10000000000000E+01
 s    1 1.00
 0.22972831358000E+00 0.10000000000000E+01
 s    1 1.00
 0.95164440028000E-01 0.10000000000000E+01
 s    1 1.00
 0.48475401370000E-01 0.10000000000000E+01
 p    4 1.00
 0.34697232244000E+02 0.11327220003114E-01
 0.79582622826000E+01 0.76169659202087E-01
 0.23780826883000E+01 0.30192252202676E+00
 0.81433208183000E+00 0.72785027349547E+00
 p    1 1.00
 0.28887547253000E+00 0.10000000000000E+01
 p    1 1.00
 0.10056823671000E+00 0.10000000000000E+01
 d    1 1.00
 0.10970000000000E+01 0.10000000000000E+01
 d    1 1.00
 0.31800000000000E+00 0.10000000000000E+01
 d    1 1.00
 0.90985336424000E-01 0.10000000000000E+01
 f    1 1.00
 0.76100000000000E+00 0.10000000000000E+01
 
    3 0
 s    6 1.00
 0.13575349682000E+05 0.60645503603591E-03
 0.20352333680000E+04 0.46979088884982E-02
 0.46322562359000E+03 0.24332477647552E-01
 0.13120019598000E+03 0.97399968307759E-01
 0.42853015891000E+02 0.30195584253780E+00
 0.15584185766000E+02 0.66233609137875E+00
 s    2 1.00
 0.62067138508000E+01 0.65595308539952E+00
 0.25764896527000E+01 0.37585633285142E+00
 s    1 1.00
 0.57696339419000E+00 0.10000000000000E+01
 s    1 1.00
 0.22972831358000E+00 0.10000000000000E+01
 s    1 1.00
 0.95164440028000E-01 0.10000000000000E+01
 s    1 1.00
 0.48475401370000E-01 0.10000000000000E+01
 p    4 1.00
 0.34697232244000E+02 0.11327220003114E-01
 0.79582622826000E+01 0.76169659202087E-01
 0.23780826883000E+01 0.30192252202676E+00
 0.81433208183000E+00 0.72785027349547E+00
 p    1 1.00
 0.28887547253000E+00 0.10000000000000E+01
 p    1 1.00
 0.10056823671000E+00 0.10000000000000E+01
 d    1 1.00
 0.10970000000000E+01 0.10000000000000E+01
 d    1 1.00
 0.31800000000000E+00 0.10000000000000E+01
 d    1 1.00
 0.90985336424000E-01 0.10000000000000E+01
 f    1 1.00
 0.76100000000000E+00 0.10000000000000E+01
 
    4 0
 s    6 1.00
 0.13575349682000E+05 0.60645503603591E-03
 0.20352333680000E+04 0.46979088884982E-02
 0.46322562359000E+03 0.24332477647552E-01
 0.13120019598000E+03 0.97399968307759E-01
 0.42853015891000E+02 0.30195584253780E+00
 0.15584185766000E+02 0.66233609137875E+00
 s    2 1.00
 0.62067138508000E+01 0.65595308539952E+00
 0.25764896527000E+01 0.37585633285142E+00
 s    1 1.00
 0.57696339419000E+00 0.10000000000000E+01
 s    1 1.00
 0.22972831358000E+00 0.10000000000000E+01
 s    1 1.00
 0.95164440028000E-01 0.10000000000000E+01
 s    1 1.00
 0.48475401370000E-01 0.10000000000000E+01
 p    4 1.00
 0.34697232244000E+02 0.11327220003114E-01
 0.79582622826000E+01 0.76169659202087E-01
 0.23780826883000E+01 0.30192252202676E+00
 0.81433208183000E+00 0.72785027349547E+00
 p    1 1.00
 0.28887547253000E+00 0.10000000000000E+01
 p    1 1.00
 0.10056823671000E+00 0.10000000000000E+01
 d    1 1.00
 0.10970000000000E+01 0.10000000000000E+01
 d    1 1.00
 0.31800000000000E+00 0.10000000000000E+01
 d    1 1.00
 0.90985336424000E-01 0.10000000000000E+01
 f    1 1.00
 0.76100000000000E+00 0.10000000000000E+01
 
    5 0
 s    6 1.00
 0.13575349682000E+05 0.60645503603591E-03
 0.20352333680000E+04 0.46979088884982E-02
 0.46322562359000E+03 0.24332477647552E-01
 0.13120019598000E+03 0.97399968307759E-01
 0.42853015891000E+02 0.30195584253780E+00
 0.15584185766000E+02 0.66233609137875E+00
 s    2 1.00
 0.62067138508000E+01 0.65595308539952E+00
 0.25764896527000E+01 0.37585633285142E+00
 s    1 1.00
 0.57696339419000E+00 0.10000000000000E+01
 s    1 1.00
 0.22972831358000E+00 0.10000000000000E+01
 s    1 1.00
 0.95164440028000E-01 0.10000000000000E+01
 s    1 1.00
 0.48475401370000E-01 0.10000000000000E+01
 p    4 1.00
 0.34697232244000E+02 0.11327220003114E-01
 0.79582622826000E+01 0.76169659202087E-01
 0.23780826883000E+01 0.30192252202676E+00
 0.81433208183000E+00 0.72785027349547E+00
 p    1 1.00
 0.28887547253000E+00 0.10000000000000E+01
 p    1 1.00
 0.10056823671000E+00 0.10000000000000E+01
 d    1 1.00
 0.10970000000000E+01 0.10000000000000E+01
 d    1 1.00
 0.31800000000000E+00 0.10000000000000E+01
 d    1 1.00
 0.90985336424000E-01 0.10000000000000E+01
 f    1 1.00
 0.76100000000000E+00 0.10000000000000E+01
 
    6 0
 s    6 1.00
 0.13575349682000E+05 0.60645503603591E-03
 0.20352333680000E+04 0.46979088884982E-02
 0.46322562359000E+03 0.24332477647552E-01
 0.13120019598000E+03 0.97399968307759E-01
 0.42853015891000E+02 0.30195584253780E+00
 0.15584185766000E+02 0.66233609137875E+00
 s    2 1.00
 0.62067138508000E+01 0.65595308539952E+00
 0.25764896527000E+01 0.37585633285142E+00
 s    1 1.00
 0.57696339419000E+00 0.10000000000000E+01
 s    1 1.00
 0.22972831358000E+00 0.10000000000000E+01
 s    1 1.00
 0.95164440028000E-01 0.10000000000000E+01
 s    1 1.00
 0.48475401370000E-01 0.10000000000000E+01
 p    4 1.00
 0.34697232244000E+02 0.11327220003114E-01
 0.79582622826000E+01 0.76169659202087E-01
 0.23780826883000E+01 0.30192252202676E+00
 0.81433208183000E+00 0.72785027349547E+00
 p    1 1.00
 0.28887547253000E+00 0.10000000000000E+01
 p    1 1.00
 0.10056823671000E+00 0.10000000000000E+01
 d    1 1.00
 0.10970000000000E+01 0.10000000000000E+01
 d    1 1.00
 0.31800000000000E+00 0.10000000000000E+01
 d    1 1.00
 0.90985336424000E-01 0.10000000000000E+01
 f    1 1.00
 0.76100000000000E+00 0.10000000000000E+01
 
    7 0
 s    3 1.00
 0.34061341000000E+02 0.25439307208879E-01
 0.51235746000000E+01 0.19008594890375E+00
 0.11646626000000E+01 0.85244113011042E+00
 s    1 1.00
 0.32723041000000E+00 0.10000000000000E+01
 s    1 1.00
 0.10307241000000E+00 0.10000000000000E+01
 p    1 1.00
 0.80000000000000E+00 0.10000000000000E+01
 p    1 1.00
 0.95774129632000E-01 0.10000000000000E+01
 
    8 0
 s    3 1.00
 0.34061341000000E+02 0.25439307208879E-01
 0.51235746000000E+01 0.19008594890375E+00
 0.11646626000000E+01 0.85244113011042E+00
 s    1 1.00
 0.32723041000000E+00 0.10000000000000E+01
 s    1 1.00
 0.10307241000000E+00 0.10000000000000E+01
 p    1 1.00
 0.80000000000000E+00 0.10000000000000E+01
 p    1 1.00
 0.95774129632000E-01 0.10000000000000E+01
 
    9 0
 s    3 1.00
 0.34061341000000E+02 0.25439307208879E-01
 0.51235746000000E+01 0.19008594890375E+00
 0.11646626000000E+01 0.85244113011042E+00
 s    1 1.00
 0.32723041000000E+00 0.10000000000000E+01
 s    1 1.00
 0.10307241000000E+00 0.10000000000000E+01
 p    1 1.00
 0.80000000000000E+00 0.10000000000000E+01
 p    1 1.00
 0.95774129632000E-01 0.10000000000000E+01
 
   10 0
 s    3 1.00
 0.34061341000000E+02 0.25439307208879E-01
 0.51235746000000E+01 0.19008594890375E+00
 0.11646626000000E+01 0.85244113011042E+00
 s    1 1.00
 0.32723041000000E+00 0.10000000000000E+01
 s    1 1.00
 0.10307241000000E+00 0.10000000000000E+01
 p    1 1.00
 0.80000000000000E+00 0.10000000000000E+01
 p    1 1.00
 0.95774129632000E-01 0.10000000000000E+01
 
   11 0
 s    6 1.00
 0.19730800647000E+05 0.58626402628763E-03
 0.29578958745000E+04 0.45428820586397E-02
 0.67322133595000E+03 0.23558413450084E-01
 0.19068249494000E+03 0.94709193292923E-01
 0.62295441898000E+02 0.29719784913376E+00
 0.22654161182000E+02 0.66916246895232E+00
 s    2 1.00
 0.89791477428000E+01 0.64596683630063E+00
 0.36863002370000E+01 0.38700574393705E+00
 s    1 1.00
 0.84660076805000E+00 0.10000000000000E+01
 s    1 1.00
 0.33647133771000E+00 0.10000000000000E+01
 s    1 1.00
 0.13647653675000E+00 0.10000000000000E+01
 s    1 1.00
 0.68441605847000E-01 0.10000000000000E+01
 p    4 1.00
 0.49200380510000E+02 0.11448825101764E-01
 0.11346790537000E+02 0.78422337970864E-01
 0.34273972411000E+01 0.30818094738830E+00
 0.11785525134000E+01 0.72027196368413E+00
 p    1 1.00
 0.41642204972000E+00 0.10000000000000E+01
 p    1 1.00
 0.14260826011000E+00 0.10000000000000E+01
 d    1 1.00
 0.16540000000000E+01 0.10000000000000E+01
 d    1 1.00
 0.46900000000000E+00 0.10000000000000E+01
 d    1 1.00
 0.12829642058000E+00 0.10000000000000E+01
 f    1 1.00
 0.10930000000000E+01 0.10000000000000E+01
 
   12 0
 s    6 1.00
 0.27032382631000E+05 0.57227335211155E-03
 0.40523871392000E+04 0.44353233492995E-02
 0.92232722710000E+03 0.23020107706038E-01
 0.26124070989000E+03 0.92822490667928E-01
 0.85354641351000E+02 0.29378500009671E+00
 0.31035035245000E+02 0.67401604501641E+00
 s    2 1.00
 0.12260860728000E+02 0.63839937025506E+00
 0.49987076005000E+01 0.39534587125718E+00
 s    1 1.00
 0.11703108158000E+01 0.10000000000000E+01
 s    1 1.00
 0.46474740994000E+00 0.10000000000000E+01
 s    1 1.00
 0.18504536357000E+00 0.10000000000000E+01
 s    1 1.00
 0.70288026270000E-01 0.10000000000000E+01
 p    4 1.00
 0.63274954801000E+02 0.12018332222616E-01
 0.14627049379000E+02 0.83005421790056E-01
 0.44501223456000E+01 0.31991743925964E+00
 0.15275799647000E+01 0.70715542916104E+00
 p    1 1.00
 0.52935117943000E+00 0.10000000000000E+01
 p    1 1.00
 0.17478421270000E+00 0.10000000000000E+01
 p    1 1.00
 0.51112745706000E-01 0.10000000000000E+01
 d    1 1.00
 0.23140000000000E+01 0.10000000000000E+01
 d    1 1.00
 0.64500000000000E+00 0.10000000000000E+01
 d    1 1.00
 0.14696477366000E+00 0.10000000000000E+01
 f    1 1.00
 0.14280000000000E+01 0.10000000000000E+01
 
   13 0
 s    6 1.00
 0.27032382631000E+05 0.57227335211155E-03
 0.40523871392000E+04 0.44353233492995E-02
 0.92232722710000E+03 0.23020107706038E-01
 0.26124070989000E+03 0.92822490667928E-01
 0.85354641351000E+02 0.29378500009671E+00
 0.31035035245000E+02 0.67401604501641E+00
 s    2 1.00
 0.12260860728000E+02 0.63839937025506E+00
 0.49987076005000E+01 0.39534587125718E+00
 s    1 1.00
 0.11703108158000E+01 0.10000000000000E+01
 s    1 1.00
 0.46474740994000E+00 0.10000000000000E+01
 s    1 1.00
 0.18504536357000E+00 0.10000000000000E+01
 s    1 1.00
 0.70288026270000E-01 0.10000000000000E+01
 p    4 1.00
 0.63274954801000E+02 0.12018332222616E-01
 0.14627049379000E+02 0.83005421790056E-01
 0.44501223456000E+01 0.31991743925964E+00
 0.15275799647000E+01 0.70715542916104E+00
 p    1 1.00
 0.52935117943000E+00 0.10000000000000E+01
 p    1 1.00
 0.17478421270000E+00 0.10000000000000E+01
 p    1 1.00
 0.51112745706000E-01 0.10000000000000E+01
 d    1 1.00
 0.23140000000000E+01 0.10000000000000E+01
 d    1 1.00
 0.64500000000000E+00 0.10000000000000E+01
 d    1 1.00
 0.14696477366000E+00 0.10000000000000E+01
 f    1 1.00
 0.14280000000000E+01 0.10000000000000E+01
 
   14 0
 s    6 1.00
 0.19730800647000E+05 0.58626402628763E-03
 0.29578958745000E+04 0.45428820586397E-02
 0.67322133595000E+03 0.23558413450084E-01
 0.19068249494000E+03 0.94709193292923E-01
 0.62295441898000E+02 0.29719784913376E+00
 0.22654161182000E+02 0.66916246895232E+00
 s    2 1.00
 0.89791477428000E+01 0.64596683630063E+00
 0.36863002370000E+01 0.38700574393705E+00
 s    1 1.00
 0.84660076805000E+00 0.10000000000000E+01
 s    1 1.00
 0.33647133771000E+00 0.10000000000000E+01
 s    1 1.00
 0.13647653675000E+00 0.10000000000000E+01
 s    1 1.00
 0.68441605847000E-01 0.10000000000000E+01
 p    4 1.00
 0.49200380510000E+02 0.11448825101764E-01
 0.11346790537000E+02 0.78422337970864E-01
 0.34273972411000E+01 0.30818094738830E+00
 0.11785525134000E+01 0.72027196368413E+00
 p    1 1.00
 0.41642204972000E+00 0.10000000000000E+01
 p    1 1.00
 0.14260826011000E+00 0.10000000000000E+01
 d    1 1.00
 0.16540000000000E+01 0.10000000000000E+01
 d    1 1.00
 0.46900000000000E+00 0.10000000000000E+01
 d    1 1.00
 0.12829642058000E+00 0.10000000000000E+01
 f    1 1.00
 0.10930000000000E+01 0.10000000000000E+01
 
   15 0
 s    3 1.00
 0.34061341000000E+02 0.25439307208879E-01
 0.51235746000000E+01 0.19008594890375E+00
 0.11646626000000E+01 0.85244113011042E+00
 s    1 1.00
 0.32723041000000E+00 0.10000000000000E+01
 s    1 1.00
 0.10307241000000E+00 0.10000000000000E+01
 p    1 1.00
 0.80000000000000E+00 0.10000000000000E+01
 p    1 1.00
 0.95774129632000E-01 0.10000000000000E+01
 
   16 0
 s    3 1.00
 0.34061341000000E+02 0.25439307208879E-01
 0.51235746000000E+01 0.19008594890375E+00
 0.11646626000000E+01 0.85244113011042E+00
 s    1 1.00
 0.32723041000000E+00 0.10000000000000E+01
 s    1 1.00
 0.10307241000000E+00 0.10000000000000E+01
 p    1 1.00
 0.80000000000000E+00 0.10000000000000E+01
 p    1 1.00
 0.95774129632000E-01 0.10000000000000E+01
 
[MO]
 Sym= X
 Ene= -0.908050
 Spin= Alpha
 Occup= -0.908050
         1   -1.986718E-04
         2   -4.615141E-04
         3    1.267069E-03
         4   -2.636954E-03
         5   -8.055490E-03
         6   -1.174201E-02
         7    1.672417E-03
         8    1.933411E-04
         9    2.007262E-02
        10   -2.582243E-03
        11    4.259744E-04
        12    1.823944E-02
        13   -3.676879E-02
        14    1.055083E-02
        15    2.012935E-03
        16    2.675934E-06
        17   -1.343757E-05
        18    1.076164E-05
        19   -1.568186E-05
        20   -6.171297E-03
        21    3.638564E-03
        22   -6.845004E-04
        23    4.173323E-04
        24    2.671681E-04
        25   -7.593186E-04
        26   -1.392100E-02
        27    6.900430E-03
        28   -5.214190E-03
        29    4.882368E-03
        30    3.318218E-04
        31    1.227567E-03
        32    2.083494E-03
        33   -1.100564E-02
        34   -2.007721E-05
        35    7.494440E-06
        36   -7.083096E-05
        37    7.544831E-06
        38   -7.709889E-06
        39   -7.070161E-04
        40    1.939157E-05
        41   -2.344957E-06
        42    8.020458E-04
        43   -6.653530E-04
        44    1.458926E-05
        45    3.092816E-05
        46    1.991775E-04
        47   -2.964892E-03
        48   -5.161154E-02
        49    6.030826E-03
        50    4.034272E-04
        51   -2.026990E-06
        52    1.930951E-01
        53   -4.926085E-04
        54    1.457139E-05
        55    2.004681E-01
        56   -1.719076E-02
        57   -6.332496E-04
        58    1.986326E-01
        59    3.716557E-05
        60   -3.425497E-05
        61   -2.910601E-06
        62   -6.275570E-08
        63   -8.380811E-04
        64   -8.436892E-08
        65    4.017556E-04
        66   -6.638614E-04
        67    2.621058E-04
        68    3.912505E-06
        69   -3.558177E-03
        70   -2.004657E-07
        71    9.829144E-03
        72   -1.097988E-02
        73    1.150732E-03
        74   -1.003814E-04
        75    4.633785E-03
        76   -1.758080E-05
        77    7.815816E-06
        78    6.937067E-09
        79   -1.069832E-03
        80   -7.543542E-06
        81    4.923699E-08
        82    6.524488E-04
        83   -2.942475E-06
        84   -5.854404E-08
        85    7.828818E-04
        86    2.203974E-08
        87   -1.980341E-04
        88   -4.600772E-04
        89    1.266629E-03
        90   -2.660801E-03
        91   -6.574649E-03
        92   -1.171892E-02
        93    1.677296E-03
        94   -1.925568E-04
        95    2.006974E-02
        96   -2.548463E-03
        97   -4.180747E-04
        98    1.823238E-02
        99   -3.703334E-02
       100   -1.112329E-02
       101    2.007451E-03
       102    2.794466E-06
       103   -1.356501E-05
       104    1.077055E-05
       105    1.578312E-05
       106   -6.171418E-03
       107   -3.638653E-03
       108   -6.778338E-04
       109    4.101853E-04
       110    2.676485E-04
       111    7.557900E-04
       112   -1.392196E-02
       113   -6.899395E-03
       114   -5.316103E-03
       115    4.992431E-03
       116    3.236721E-04
       117   -1.126741E-03
       118    2.063663E-03
       119    1.099934E-02
       120   -2.011934E-05
       121   -7.439810E-06
       122   -7.069798E-05
       123    7.752396E-06
       124    7.637178E-06
       125   -7.071956E-04
       126    1.924053E-05
       127    2.344375E-06
       128    8.020468E-04
       129    6.652810E-04
       130    1.336470E-04
       131    2.894988E-04
       132    5.917807E-04
       133   -1.109258E-02
       134    2.946276E-02
       135    1.318193E-02
       136   -1.343600E-03
       137    7.677642E-04
       138   -1.514326E-01
       139   -9.530931E-03
       140    6.561352E-03
       141   -1.543573E-01
       142   -2.487793E-02
       143   -8.452341E-03
       144   -9.220830E-02
       145    1.551031E-04
       146   -1.885661E-04
       147    3.346299E-05
       148   -4.552450E-06
       149   -6.537784E-04
       150    2.830366E-03
       151    6.372124E-04
       152   -7.893331E-04
       153    1.521207E-04
       154    1.783408E-03
       155   -3.756896E-03
       156    4.730571E-03
       157    8.563478E-03
       158   -6.710270E-03
       159   -1.853208E-03
       160   -9.136696E-03
       161    3.791935E-03
       162   -1.322799E-02
       163   -1.501639E-05
       164    1.081855E-05
       165    8.420400E-04
       166   -2.086419E-05
       167    1.729564E-05
       168   -2.170231E-04
       169    4.101079E-05
       170   -3.181025E-05
       171   -9.126922E-04
       172    3.089511E-04
       173   -1.210156E-03
       174   -2.755914E-03
       175    2.868803E-03
       176    2.282652E-02
       177   -2.005309E-02
       178    9.479024E-03
       179    9.698076E-03
       180   -1.804092E-06
       181   -1.027618E-01
       182    5.847026E-04
       183   -1.267242E-05
       184   -1.058447E-01
       185   -2.729746E-02
       186    8.426061E-04
       187   -1.339476E-01
       188    5.054870E-04
       189   -2.812888E-04
       190   -2.241982E-04
       191    3.541237E-07
       192    1.024270E-02
       193    1.704535E-07
       194   -1.960945E-03
       195    4.305143E-03
       196   -2.344199E-03
       197    1.225251E-06
       198    2.506761E-02
       199   -2.149618E-06
       200   -6.234884E-03
       201    7.504807E-03
       202   -1.269923E-03
       203   -1.193463E-04
       204    1.903671E-02
       205    7.395990E-06
       206    1.240819E-04
       207   -2.525761E-08
       208    2.255926E-04
       209   -8.705942E-05
       210   -3.446492E-09
       211    1.155053E-03
       212   -7.941395E-05
       213    3.733313E-08
       214   -1.457717E-03
       215    6.824333E-08
       216    1.331696E-04
       217    2.882228E-04
       218    5.954820E-04
       219   -1.110465E-02
       220    3.119586E-02
       221    1.319339E-02
       222   -1.339259E-03
       223   -7.632409E-04
       224   -1.514292E-01
       225   -9.544454E-03
       226   -6.568375E-03
       227   -1.543577E-01
       228   -2.450082E-02
       229    9.277132E-03
       230   -9.221228E-02
       231    1.549935E-04
       232   -1.887554E-04
       233    3.376190E-05
       234    4.790258E-06
       235   -6.541335E-04
       236   -2.830365E-03
       237    6.412478E-04
       238   -7.916956E-04
       239    1.504478E-04
       240   -1.787764E-03
       241   -3.754262E-03
       242   -4.730557E-03
       243    8.485552E-03
       244   -6.630942E-03
       245   -1.854611E-03
       246    9.254658E-03
       247    3.820754E-03
       248    1.323333E-02
       249   -1.515861E-05
       250   -1.087388E-05
       251    8.421618E-04
       252   -2.082584E-05
       253   -1.725969E-05
       254   -2.171955E-04
       255    4.116326E-05
       256    3.184853E-05
       257   -9.126831E-04
       258   -3.089780E-04
       259   -3.510679E-04
       260   -1.943344E-04
       261   -1.830666E-02
       262   -1.273692E-05
       263    4.625582E-06
       264    7.876746E-04
       265   -5.515149E-03
       266   -3.537621E-04
       267   -6.886855E-03
       268   -3.529794E-04
       269   -1.880579E-04
       270   -1.827277E-02
       271   -1.187162E-05
       272   -5.433653E-06
       273    7.874126E-04
       274   -5.606857E-03
       275    3.210645E-04
       276   -6.891031E-03
       277   -4.368002E-04
       278   -2.457192E-03
       279    3.597363E-02
       280   -1.163058E-05
       281    1.020626E-04
       282   -6.134114E-03
       283   -1.963303E-03
       284   -2.888364E-03
       285    2.464794E-03
       286   -4.371369E-04
       287   -2.461982E-03
       288    3.626293E-02
       289   -1.106981E-05
       290   -1.021733E-04
       291   -6.134705E-03
       292   -1.944327E-03
       293    2.942373E-03
       294    2.454353E-03
       295   -4.444084E-05
       296   -1.026239E-04
       297    8.169861E-05
       298    4.201558E-04
       299   -7.506253E-03
       300    6.603453E-04
       301    4.191143E-04
       302   -1.911459E-06
       303    2.069005E-02
       304    9.494757E-05
       305   -2.021062E-07
       306    2.305373E-02
       307   -3.291261E-03
       308    3.212133E-05
       309    8.721651E-03
       310    1.934242E-05
       311   -5.094238E-06
       312   -1.424818E-05
       313    4.069703E-07
       314    4.240824E-03
       315   -4.763552E-08
       316   -6.146103E-06
       317    7.035519E-05
       318   -6.420909E-05
       319    4.338786E-07
       320    1.278701E-02
       321   -3.214258E-07
       322   -1.005244E-03
       323    2.939932E-03
       324   -1.934688E-03
       325    2.238289E-05
       326    2.849640E-03
       327    5.003172E-06
       328    6.883266E-06
       329    9.306436E-08
       330    1.871942E-06
       331   -5.068483E-06
       332   -1.116009E-07
       333    6.717655E-04
       334   -4.166387E-06
       335   -1.325806E-08
       336   -6.742769E-04
       337    9.368670E-09
       338   -9.691653E-06
       339   -1.987703E-05
       340   -1.732167E-05
       341    5.122774E-04
       342   -6.144880E-03
       343   -9.684713E-04
       344   -1.759520E-04
       345    1.099736E-04
       346   -7.543415E-02
       347   -2.733280E-04
       348    2.498165E-04
       349   -6.998634E-02
       350   -1.449077E-03
       351    5.307074E-04
       352   -5.725660E-02
       353   -1.794892E-04
       354    2.149711E-04
       355   -7.146525E-03
       356    3.549170E-06
       357   -4.099890E-06
       358    5.507200E-07
       359    1.475975E-07
       360    1.950180E-05
       361    4.389218E-04
       362   -1.259110E-05
       363   -1.042009E-05
       364    2.301119E-05
       365    1.154515E-05
       366   -4.696740E-04
       367    1.469365E-03
       368   -8.082656E-05
       369    5.165769E-05
       370    2.916887E-05
       371    7.820615E-05
       372   -1.151692E-04
       373    2.331451E-04
       374    7.519422E-07
       375    1.581643E-06
       376    5.905377E-05
       377   -1.381303E-06
       378   -3.522697E-07
       379    8.084279E-05
       380    3.724666E-07
       381   -1.769727E-06
       382   -1.600717E-04
       383    1.261289E-04
       384   -1.078780E-05
       385   -2.258341E-05
       386   -1.294957E-05
       387    5.129448E-04
       388   -6.131697E-03
       389   -9.446644E-04
       390   -1.943200E-04
       391   -9.374803E-05
       392   -7.543070E-02
       393   -2.894867E-04
       394   -2.349403E-04
       395   -6.998408E-02
       396   -1.436547E-03
       397   -5.128842E-04
       398   -5.724566E-02
       399   -1.678207E-04
       400   -2.190819E-04
       401   -7.146236E-03
       402    3.394359E-06
       403   -3.905621E-06
       404    5.112617E-07
       405   -1.917365E-07
       406    1.950261E-05
       407   -4.388959E-04
       408   -1.290891E-05
       409   -9.726890E-06
       410    2.263580E-05
       411   -1.117066E-05
       412   -4.695307E-04
       413   -1.469287E-03
       414   -8.075683E-05
       415    5.354667E-05
       416    2.721017E-05
       417   -7.755555E-05
       418   -1.148766E-04
       419   -2.318360E-04
       420    7.313173E-07
       421   -1.514107E-06
       422    5.905123E-05
       423   -1.324261E-06
       424    2.858264E-07
       425    8.084140E-05
       426    3.430958E-07
       427    1.745562E-06
       428   -1.600669E-04
       429   -1.261234E-04
       430    5.256610E-03
       431    1.246581E-02
       432   -1.934210E-02
       433   -3.006488E-02
       434   -2.261354E-02
       435   -7.044826E-02
       436   -1.835469E-02
       437    1.171375E-05
       438    2.688009E-01
       439   -2.095222E-02
       440    3.930961E-06
       441    2.652618E-01
       442   -1.997248E-02
       443   -1.057179E-04
       444    2.152949E-01
       445   -1.116188E-04
       446   -2.178622E-05
       447    1.334050E-04
       448    3.500150E-07
       449    6.195182E-04
       450    2.675604E-07
       451   -2.374649E-04
       452   -1.657560E-03
       453    1.895025E-03
       454   -3.850590E-06
       455    3.277322E-03
       456    1.571883E-06
       457   -1.720223E-03
       458   -3.385950E-03
       459    5.106173E-03
       460   -4.676442E-06
       461    2.097414E-03
       462    8.121889E-06
       463   -1.431742E-04
       464    4.779325E-08
       465   -1.089932E-03
       466   -9.553799E-05
       467   -3.891664E-09
       468    6.151568E-04
       469    2.876263E-04
       470   -6.022970E-08
       471    8.471403E-04
       472    1.193557E-08
       473    9.734873E-03
       474    1.868119E-02
       475    3.143138E-02
       476   -2.399918E-03
       477   -1.993566E-03
       478    1.354072E-02
       479    1.174748E-03
       480   -3.644784E-03
       481    1.513592E-02
       482    9.726042E-03
       483    1.860775E-02
       484    3.124156E-02
       485   -2.396155E-03
       486    1.986527E-03
       487    1.354422E-02
       488    1.190661E-03
       489    3.606913E-03
       490    1.514547E-02
 Sym= X
 Ene= 0.908050
 Spin= Alpha
 Occup= 0.908050
         1   -6.710300E-03
         2   -1.487896E-02
         3    1.950458E-02
         4    1.303879E-01
         5   -2.352591E+00
         6   -2.783025E-02
         7   -1.944673E-02
         8   -9.346486E-03
         9    5.907189E-04
        10   -1.235806E-01
        11   -1.160698E-02
        12    2.040364E-03
        13   -1.041361E+00
        14   -7.131328E-01
        15    2.649143E-02
        16    1.612710E-03
        17    2.905954E-04
        18   -1.903305E-03
        19   -1.672354E-03
        20    3.550094E-05
        21   -6.563177E-05
        22   -1.311984E-02
        23    1.855368E-02
        24   -5.433842E-03
        25   -3.449739E-03
        26    7.214677E-04
        27   -1.803415E-04
        28   -5.566146E-01
        29    3.493156E-01
        30    2.072990E-01
        31   -4.126633E-01
        32   -6.633035E-03
        33    1.673922E-02
        34   -1.165995E-04
        35   -1.138080E-04
        36    1.230150E-05
        37   -5.553368E-04
        38   -4.268739E-05
        39    1.219437E-05
        40    7.117714E-04
        41    1.953769E-04
        42   -2.869856E-05
        43    1.669286E-05
        44   -7.562641E-03
        45   -1.658252E-02
        46    1.022077E-02
        47    2.294881E-01
        48    1.124008E-03
        49   -1.247459E+00
        50   -6.513011E-03
        51    6.057392E-07
        52   -2.648172E-03
        53   -8.503725E-02
        54   -4.687748E-05
        55   -3.042555E-04
        56   -1.053572E+00
        57   -2.668938E-03
        58   -6.897610E-02
        59   -1.575737E-03
        60    3.771807E-03
        61   -2.196071E-03
        62   -8.806068E-08