[Molden Format]
[Title]
ADC(2) - opt by CAM-B3LYP gaussian                                              
[Atoms] AU
 c     1    6 -.12589065566052E+01 -.22830902054421E+01 -.26005390588660E-01
 c     2    6 -.25569912224779E+01 0.86573078000000E-06 -.24733756079320E-01
 c     3    6 -.12589060841737E+01 0.22830907841707E+01 -.26008073999770E-01
 c     4    6 0.13324295737882E+01 0.22846183820847E+01 -.28114684000920E-01
 c     5    6 0.26867573459717E+01 0.39329925000000E-06 -.27723246129760E-01
 c     6    6 0.13324281942881E+01 -.22846180679178E+01 -.28111244699360E-01
 h     7    1 -.22982509786098E+01 -.40377481062879E+01 -.23319125993500E-01
 h     8    1 -.22982490510892E+01 0.40377494409070E+01 -.23324322740370E-01
 h     9    1 0.23514918675648E+01 0.40568894753521E+01 -.30529017005560E-01
 h    10    1 0.23514910360853E+01 -.40568888210345E+01 -.30521911635300E-01
 n    11    7 -.52742123095903E+01 0.14763485000000E-06 -.18925267070140E-01
 o    12    8 -.63809534361791E+01 0.20269762391752E+01 -.16457057973460E-01
 o    13    8 -.63809510362269E+01 -.20269772478165E+01 -.16464881439650E-01
 n    14    7 0.52454603626942E+01 -.57046108000000E-06 -.73989411041200E-01
 h    15    1 0.62036818842731E+01 0.16164996606794E+01 0.19711589672944E+00
 h    16    1 0.62036804102867E+01 -.16165023700742E+01 0.19711149366755E+00
[GTO]
    1 0
 s    6 1.00
 0.13575349682000E+05 0.60645503603591E-03
 0.20352333680000E+04 0.46979088884982E-02
 0.46322562359000E+03 0.24332477647552E-01
 0.13120019598000E+03 0.97399968307759E-01
 0.42853015891000E+02 0.30195584253780E+00
 0.15584185766000E+02 0.66233609137875E+00
 s    2 1.00
 0.62067138508000E+01 0.65595308539952E+00
 0.25764896527000E+01 0.37585633285142E+00
 s    1 1.00
 0.57696339419000E+00 0.10000000000000E+01
 s    1 1.00
 0.22972831358000E+00 0.10000000000000E+01
 s    1 1.00
 0.95164440028000E-01 0.10000000000000E+01
 s    1 1.00
 0.48475401370000E-01 0.10000000000000E+01
 p    4 1.00
 0.34697232244000E+02 0.11327220003114E-01
 0.79582622826000E+01 0.76169659202087E-01
 0.23780826883000E+01 0.30192252202676E+00
 0.81433208183000E+00 0.72785027349547E+00
 p    1 1.00
 0.28887547253000E+00 0.10000000000000E+01
 p    1 1.00
 0.10056823671000E+00 0.10000000000000E+01
 d    1 1.00
 0.10970000000000E+01 0.10000000000000E+01
 d    1 1.00
 0.31800000000000E+00 0.10000000000000E+01
 d    1 1.00
 0.90985336424000E-01 0.10000000000000E+01
 f    1 1.00
 0.76100000000000E+00 0.10000000000000E+01
 
    2 0
 s    6 1.00
 0.13575349682000E+05 0.60645503603591E-03
 0.20352333680000E+04 0.46979088884982E-02
 0.46322562359000E+03 0.24332477647552E-01
 0.13120019598000E+03 0.97399968307759E-01
 0.42853015891000E+02 0.30195584253780E+00
 0.15584185766000E+02 0.66233609137875E+00
 s    2 1.00
 0.62067138508000E+01 0.65595308539952E+00
 0.25764896527000E+01 0.37585633285142E+00
 s    1 1.00
 0.57696339419000E+00 0.10000000000000E+01
 s    1 1.00
 0.22972831358000E+00 0.10000000000000E+01
 s    1 1.00
 0.95164440028000E-01 0.10000000000000E+01
 s    1 1.00
 0.48475401370000E-01 0.10000000000000E+01
 p    4 1.00
 0.34697232244000E+02 0.11327220003114E-01
 0.79582622826000E+01 0.76169659202087E-01
 0.23780826883000E+01 0.30192252202676E+00
 0.81433208183000E+00 0.72785027349547E+00
 p    1 1.00
 0.28887547253000E+00 0.10000000000000E+01
 p    1 1.00
 0.10056823671000E+00 0.10000000000000E+01
 d    1 1.00
 0.10970000000000E+01 0.10000000000000E+01
 d    1 1.00
 0.31800000000000E+00 0.10000000000000E+01
 d    1 1.00
 0.90985336424000E-01 0.10000000000000E+01
 f    1 1.00
 0.76100000000000E+00 0.10000000000000E+01
 
    3 0
 s    6 1.00
 0.13575349682000E+05 0.60645503603591E-03
 0.20352333680000E+04 0.46979088884982E-02
 0.46322562359000E+03 0.24332477647552E-01
 0.13120019598000E+03 0.97399968307759E-01
 0.42853015891000E+02 0.30195584253780E+00
 0.15584185766000E+02 0.66233609137875E+00
 s    2 1.00
 0.62067138508000E+01 0.65595308539952E+00
 0.25764896527000E+01 0.37585633285142E+00
 s    1 1.00
 0.57696339419000E+00 0.10000000000000E+01
 s    1 1.00
 0.22972831358000E+00 0.10000000000000E+01
 s    1 1.00
 0.95164440028000E-01 0.10000000000000E+01
 s    1 1.00
 0.48475401370000E-01 0.10000000000000E+01
 p    4 1.00
 0.34697232244000E+02 0.11327220003114E-01
 0.79582622826000E+01 0.76169659202087E-01
 0.23780826883000E+01 0.30192252202676E+00
 0.81433208183000E+00 0.72785027349547E+00
 p    1 1.00
 0.28887547253000E+00 0.10000000000000E+01
 p    1 1.00
 0.10056823671000E+00 0.10000000000000E+01
 d    1 1.00
 0.10970000000000E+01 0.10000000000000E+01
 d    1 1.00
 0.31800000000000E+00 0.10000000000000E+01
 d    1 1.00
 0.90985336424000E-01 0.10000000000000E+01
 f    1 1.00
 0.76100000000000E+00 0.10000000000000E+01
 
    4 0
 s    6 1.00
 0.13575349682000E+05 0.60645503603591E-03
 0.20352333680000E+04 0.46979088884982E-02
 0.46322562359000E+03 0.24332477647552E-01
 0.13120019598000E+03 0.97399968307759E-01
 0.42853015891000E+02 0.30195584253780E+00
 0.15584185766000E+02 0.66233609137875E+00
 s    2 1.00
 0.62067138508000E+01 0.65595308539952E+00
 0.25764896527000E+01 0.37585633285142E+00
 s    1 1.00
 0.57696339419000E+00 0.10000000000000E+01
 s    1 1.00
 0.22972831358000E+00 0.10000000000000E+01
 s    1 1.00
 0.95164440028000E-01 0.10000000000000E+01
 s    1 1.00
 0.48475401370000E-01 0.10000000000000E+01
 p    4 1.00
 0.34697232244000E+02 0.11327220003114E-01
 0.79582622826000E+01 0.76169659202087E-01
 0.23780826883000E+01 0.30192252202676E+00
 0.81433208183000E+00 0.72785027349547E+00
 p    1 1.00
 0.28887547253000E+00 0.10000000000000E+01
 p    1 1.00
 0.10056823671000E+00 0.10000000000000E+01
 d    1 1.00
 0.10970000000000E+01 0.10000000000000E+01
 d    1 1.00
 0.31800000000000E+00 0.10000000000000E+01
 d    1 1.00
 0.90985336424000E-01 0.10000000000000E+01
 f    1 1.00
 0.76100000000000E+00 0.10000000000000E+01
 
    5 0
 s    6 1.00
 0.13575349682000E+05 0.60645503603591E-03
 0.20352333680000E+04 0.46979088884982E-02
 0.46322562359000E+03 0.24332477647552E-01
 0.13120019598000E+03 0.97399968307759E-01
 0.42853015891000E+02 0.30195584253780E+00
 0.15584185766000E+02 0.66233609137875E+00
 s    2 1.00
 0.62067138508000E+01 0.65595308539952E+00
 0.25764896527000E+01 0.37585633285142E+00
 s    1 1.00
 0.57696339419000E+00 0.10000000000000E+01
 s    1 1.00
 0.22972831358000E+00 0.10000000000000E+01
 s    1 1.00
 0.95164440028000E-01 0.10000000000000E+01
 s    1 1.00
 0.48475401370000E-01 0.10000000000000E+01
 p    4 1.00
 0.34697232244000E+02 0.11327220003114E-01
 0.79582622826000E+01 0.76169659202087E-01
 0.23780826883000E+01 0.30192252202676E+00
 0.81433208183000E+00 0.72785027349547E+00
 p    1 1.00
 0.28887547253000E+00 0.10000000000000E+01
 p    1 1.00
 0.10056823671000E+00 0.10000000000000E+01
 d    1 1.00
 0.10970000000000E+01 0.10000000000000E+01
 d    1 1.00
 0.31800000000000E+00 0.10000000000000E+01
 d    1 1.00
 0.90985336424000E-01 0.10000000000000E+01
 f    1 1.00
 0.76100000000000E+00 0.10000000000000E+01
 
    6 0
 s    6 1.00
 0.13575349682000E+05 0.60645503603591E-03
 0.20352333680000E+04 0.46979088884982E-02
 0.46322562359000E+03 0.24332477647552E-01
 0.13120019598000E+03 0.97399968307759E-01
 0.42853015891000E+02 0.30195584253780E+00
 0.15584185766000E+02 0.66233609137875E+00
 s    2 1.00
 0.62067138508000E+01 0.65595308539952E+00
 0.25764896527000E+01 0.37585633285142E+00
 s    1 1.00
 0.57696339419000E+00 0.10000000000000E+01
 s    1 1.00
 0.22972831358000E+00 0.10000000000000E+01
 s    1 1.00
 0.95164440028000E-01 0.10000000000000E+01
 s    1 1.00
 0.48475401370000E-01 0.10000000000000E+01
 p    4 1.00
 0.34697232244000E+02 0.11327220003114E-01
 0.79582622826000E+01 0.76169659202087E-01
 0.23780826883000E+01 0.30192252202676E+00
 0.81433208183000E+00 0.72785027349547E+00
 p    1 1.00
 0.28887547253000E+00 0.10000000000000E+01
 p    1 1.00
 0.10056823671000E+00 0.10000000000000E+01
 d    1 1.00
 0.10970000000000E+01 0.10000000000000E+01
 d    1 1.00
 0.31800000000000E+00 0.10000000000000E+01
 d    1 1.00
 0.90985336424000E-01 0.10000000000000E+01
 f    1 1.00
 0.76100000000000E+00 0.10000000000000E+01
 
    7 0
 s    3 1.00
 0.34061341000000E+02 0.25439307208879E-01
 0.51235746000000E+01 0.19008594890375E+00
 0.11646626000000E+01 0.85244113011042E+00
 s    1 1.00
 0.32723041000000E+00 0.10000000000000E+01
 s    1 1.00
 0.10307241000000E+00 0.10000000000000E+01
 p    1 1.00
 0.80000000000000E+00 0.10000000000000E+01
 p    1 1.00
 0.95774129632000E-01 0.10000000000000E+01
 
    8 0
 s    3 1.00
 0.34061341000000E+02 0.25439307208879E-01
 0.51235746000000E+01 0.19008594890375E+00
 0.11646626000000E+01 0.85244113011042E+00
 s    1 1.00
 0.32723041000000E+00 0.10000000000000E+01
 s    1 1.00
 0.10307241000000E+00 0.10000000000000E+01
 p    1 1.00
 0.80000000000000E+00 0.10000000000000E+01
 p    1 1.00
 0.95774129632000E-01 0.10000000000000E+01
 
    9 0
 s    3 1.00
 0.34061341000000E+02 0.25439307208879E-01
 0.51235746000000E+01 0.19008594890375E+00
 0.11646626000000E+01 0.85244113011042E+00
 s    1 1.00
 0.32723041000000E+00 0.10000000000000E+01
 s    1 1.00
 0.10307241000000E+00 0.10000000000000E+01
 p    1 1.00
 0.80000000000000E+00 0.10000000000000E+01
 p    1 1.00
 0.95774129632000E-01 0.10000000000000E+01
 
   10 0
 s    3 1.00
 0.34061341000000E+02 0.25439307208879E-01
 0.51235746000000E+01 0.19008594890375E+00
 0.11646626000000E+01 0.85244113011042E+00
 s    1 1.00
 0.32723041000000E+00 0.10000000000000E+01
 s    1 1.00
 0.10307241000000E+00 0.10000000000000E+01
 p    1 1.00
 0.80000000000000E+00 0.10000000000000E+01
 p    1 1.00
 0.95774129632000E-01 0.10000000000000E+01
 
   11 0
 s    6 1.00
 0.19730800647000E+05 0.58626402628763E-03
 0.29578958745000E+04 0.45428820586397E-02
 0.67322133595000E+03 0.23558413450084E-01
 0.19068249494000E+03 0.94709193292923E-01
 0.62295441898000E+02 0.29719784913376E+00
 0.22654161182000E+02 0.66916246895232E+00
 s    2 1.00
 0.89791477428000E+01 0.64596683630063E+00
 0.36863002370000E+01 0.38700574393705E+00
 s    1 1.00
 0.84660076805000E+00 0.10000000000000E+01
 s    1 1.00
 0.33647133771000E+00 0.10000000000000E+01
 s    1 1.00
 0.13647653675000E+00 0.10000000000000E+01
 s    1 1.00
 0.68441605847000E-01 0.10000000000000E+01
 p    4 1.00
 0.49200380510000E+02 0.11448825101764E-01
 0.11346790537000E+02 0.78422337970864E-01
 0.34273972411000E+01 0.30818094738830E+00
 0.11785525134000E+01 0.72027196368413E+00
 p    1 1.00
 0.41642204972000E+00 0.10000000000000E+01
 p    1 1.00
 0.14260826011000E+00 0.10000000000000E+01
 d    1 1.00
 0.16540000000000E+01 0.10000000000000E+01
 d    1 1.00
 0.46900000000000E+00 0.10000000000000E+01
 d    1 1.00
 0.12829642058000E+00 0.10000000000000E+01
 f    1 1.00
 0.10930000000000E+01 0.10000000000000E+01
 
   12 0
 s    6 1.00
 0.27032382631000E+05 0.57227335211155E-03
 0.40523871392000E+04 0.44353233492995E-02
 0.92232722710000E+03 0.23020107706038E-01
 0.26124070989000E+03 0.92822490667928E-01
 0.85354641351000E+02 0.29378500009671E+00
 0.31035035245000E+02 0.67401604501641E+00
 s    2 1.00
 0.12260860728000E+02 0.63839937025506E+00
 0.49987076005000E+01 0.39534587125718E+00
 s    1 1.00
 0.11703108158000E+01 0.10000000000000E+01
 s    1 1.00
 0.46474740994000E+00 0.10000000000000E+01
 s    1 1.00
 0.18504536357000E+00 0.10000000000000E+01
 s    1 1.00
 0.70288026270000E-01 0.10000000000000E+01
 p    4 1.00
 0.63274954801000E+02 0.12018332222616E-01
 0.14627049379000E+02 0.83005421790056E-01
 0.44501223456000E+01 0.31991743925964E+00
 0.15275799647000E+01 0.70715542916104E+00
 p    1 1.00
 0.52935117943000E+00 0.10000000000000E+01
 p    1 1.00
 0.17478421270000E+00 0.10000000000000E+01
 p    1 1.00
 0.51112745706000E-01 0.10000000000000E+01
 d    1 1.00
 0.23140000000000E+01 0.10000000000000E+01
 d    1 1.00
 0.64500000000000E+00 0.10000000000000E+01
 d    1 1.00
 0.14696477366000E+00 0.10000000000000E+01
 f    1 1.00
 0.14280000000000E+01 0.10000000000000E+01
 
   13 0
 s    6 1.00
 0.27032382631000E+05 0.57227335211155E-03
 0.40523871392000E+04 0.44353233492995E-02
 0.92232722710000E+03 0.23020107706038E-01
 0.26124070989000E+03 0.92822490667928E-01
 0.85354641351000E+02 0.29378500009671E+00
 0.31035035245000E+02 0.67401604501641E+00
 s    2 1.00
 0.12260860728000E+02 0.63839937025506E+00
 0.49987076005000E+01 0.39534587125718E+00
 s    1 1.00
 0.11703108158000E+01 0.10000000000000E+01
 s    1 1.00
 0.46474740994000E+00 0.10000000000000E+01
 s    1 1.00
 0.18504536357000E+00 0.10000000000000E+01
 s    1 1.00
 0.70288026270000E-01 0.10000000000000E+01
 p    4 1.00
 0.63274954801000E+02 0.12018332222616E-01
 0.14627049379000E+02 0.83005421790056E-01
 0.44501223456000E+01 0.31991743925964E+00
 0.15275799647000E+01 0.70715542916104E+00
 p    1 1.00
 0.52935117943000E+00 0.10000000000000E+01
 p    1 1.00
 0.17478421270000E+00 0.10000000000000E+01
 p    1 1.00
 0.51112745706000E-01 0.10000000000000E+01
 d    1 1.00
 0.23140000000000E+01 0.10000000000000E+01
 d    1 1.00
 0.64500000000000E+00 0.10000000000000E+01
 d    1 1.00
 0.14696477366000E+00 0.10000000000000E+01
 f    1 1.00
 0.14280000000000E+01 0.10000000000000E+01
 
   14 0
 s    6 1.00
 0.19730800647000E+05 0.58626402628763E-03
 0.29578958745000E+04 0.45428820586397E-02
 0.67322133595000E+03 0.23558413450084E-01
 0.19068249494000E+03 0.94709193292923E-01
 0.62295441898000E+02 0.29719784913376E+00
 0.22654161182000E+02 0.66916246895232E+00
 s    2 1.00
 0.89791477428000E+01 0.64596683630063E+00
 0.36863002370000E+01 0.38700574393705E+00
 s    1 1.00
 0.84660076805000E+00 0.10000000000000E+01
 s    1 1.00
 0.33647133771000E+00 0.10000000000000E+01
 s    1 1.00
 0.13647653675000E+00 0.10000000000000E+01
 s    1 1.00
 0.68441605847000E-01 0.10000000000000E+01
 p    4 1.00
 0.49200380510000E+02 0.11448825101764E-01
 0.11346790537000E+02 0.78422337970864E-01
 0.34273972411000E+01 0.30818094738830E+00
 0.11785525134000E+01 0.72027196368413E+00
 p    1 1.00
 0.41642204972000E+00 0.10000000000000E+01
 p    1 1.00
 0.14260826011000E+00 0.10000000000000E+01
 d    1 1.00
 0.16540000000000E+01 0.10000000000000E+01
 d    1 1.00
 0.46900000000000E+00 0.10000000000000E+01
 d    1 1.00
 0.12829642058000E+00 0.10000000000000E+01
 f    1 1.00
 0.10930000000000E+01 0.10000000000000E+01
 
   15 0
 s    3 1.00
 0.34061341000000E+02 0.25439307208879E-01
 0.51235746000000E+01 0.19008594890375E+00
 0.11646626000000E+01 0.85244113011042E+00
 s    1 1.00
 0.32723041000000E+00 0.10000000000000E+01
 s    1 1.00
 0.10307241000000E+00 0.10000000000000E+01
 p    1 1.00
 0.80000000000000E+00 0.10000000000000E+01
 p    1 1.00
 0.95774129632000E-01 0.10000000000000E+01
 
   16 0
 s    3 1.00
 0.34061341000000E+02 0.25439307208879E-01
 0.51235746000000E+01 0.19008594890375E+00
 0.11646626000000E+01 0.85244113011042E+00
 s    1 1.00
 0.32723041000000E+00 0.10000000000000E+01
 s    1 1.00
 0.10307241000000E+00 0.10000000000000E+01
 p    1 1.00
 0.80000000000000E+00 0.10000000000000E+01
 p    1 1.00
 0.95774129632000E-01 0.10000000000000E+01
 
[MO]
 Sym= X
 Ene= -0.893849
 Spin= Alpha
 Occup= -0.893849
         1   -1.919950E-04
         2   -4.460301E-04
         3    1.228481E-03
         4   -2.583837E-03
         5   -8.667004E-03
         6   -1.138945E-02
         7    1.684252E-03
         8    2.003292E-04
         9    2.131378E-02
        10   -2.455033E-03
        11    4.183081E-04
        12    1.948902E-02
        13   -3.593780E-02
        14    1.046025E-02
        15    2.723232E-03
        16    3.921483E-06
        17   -1.471131E-05
        18    1.078982E-05
        19   -1.472241E-05
        20   -6.247815E-03
        21    3.705646E-03
        22   -6.653589E-04
        23    4.039184E-04
        24    2.614405E-04
        25   -7.312792E-04
        26   -1.408342E-02
        27    7.017118E-03
        28   -5.142899E-03
        29    4.818947E-03
        30    3.239518E-04
        31    1.149460E-03
        32    1.916883E-03
        33   -1.072134E-02
        34   -1.943193E-05
        35    7.323154E-06
        36   -7.875384E-05
        37    7.544030E-06
        38   -7.565654E-06
        39   -7.111305E-04
        40    1.852663E-05
        41   -2.259388E-06
        42    8.167899E-04
        43   -6.777443E-04
        44    2.354674E-05
        45    5.113025E-05
        46    1.569765E-04
        47   -2.870661E-03
        48   -5.095610E-02
        49    5.726022E-03
        50    4.070450E-04
        51    1.420376E-06
        52    1.965294E-01
        53   -4.499465E-04
        54    1.863393E-05
        55    2.040379E-01
        56   -1.678639E-02
        57   -6.498811E-04
        58    1.997258E-01
        59    3.768465E-05
        60   -3.518979E-05
        61   -2.494869E-06
        62    9.008678E-08
        63   -8.125454E-04
        64    2.694686E-07
        65    3.889523E-04
        66   -6.426499E-04
        67    2.536976E-04
        68    4.026300E-06
        69   -3.531706E-03
        70    5.891849E-07
        71    9.381012E-03
        72   -1.051150E-02
        73    1.130483E-03
        74   -1.040548E-04
        75    4.753484E-03
        76   -1.677412E-05
        77    7.825134E-06
        78    4.307205E-08
        79   -1.090425E-03
        80   -7.328514E-06
        81    2.414013E-08
        82    6.620087E-04
        83   -3.170005E-06
        84   -8.192735E-08
        85    8.009498E-04
        86    7.145258E-08
        87   -1.924201E-04
        88   -4.469835E-04
        89    1.232100E-03
        90   -2.605526E-03
        91   -7.161816E-03
        92   -1.136198E-02
        93    1.683849E-03
        94   -2.010516E-04
        95    2.132953E-02
        96   -2.425156E-03
        97   -4.107532E-04
        98    1.950061E-02
        99   -3.622290E-02
       100   -1.104632E-02
       101    2.728592E-03
       102    3.940057E-06
       103   -1.465728E-05
       104    1.071722E-05
       105    1.495557E-05
       106   -6.247452E-03
       107   -3.705793E-03
       108   -6.591825E-04
       109    3.971314E-04
       110    2.620512E-04
       111    7.276896E-04
       112   -1.408345E-02
       113   -7.016021E-03
       114   -5.247734E-03
       115    4.932329E-03
       116    3.154054E-04
       117   -1.045729E-03
       118    1.898537E-03
       119    1.071578E-02
       120   -1.946274E-05
       121   -7.282593E-06
       122   -7.873727E-05
       123    7.728771E-06
       124    7.509292E-06
       125   -7.111690E-04
       126    1.838323E-05
       127    2.261332E-06
       128    8.168062E-04
       129    6.776717E-04
       130    1.271445E-04
       131    2.748246E-04
       132    5.786270E-04
       133   -1.070373E-02
       134    2.949591E-02
       135    1.278428E-02
       136   -1.356791E-03
       137    7.344612E-04
       138   -1.533957E-01
       139   -9.266198E-03
       140    6.339725E-03
       141   -1.562602E-01
       142   -2.455137E-02
       143   -8.058370E-03
       144   -9.347681E-02
       145    1.514811E-04
       146   -1.830870E-04
       147    3.160589E-05
       148   -3.691364E-06
       149   -7.365445E-04
       150    2.922477E-03
       151    6.260719E-04
       152   -7.683671E-04
       153    1.422951E-04
       154    1.725767E-03
       155   -3.905459E-03
       156    4.905174E-03
       157    8.350323E-03
       158   -6.542299E-03
       159   -1.808023E-03
       160   -8.842235E-03
       161    3.647626E-03
       162   -1.276086E-02
       163   -1.480313E-05
       164    1.043075E-05
       165    8.605999E-04
       166   -2.006173E-05
       167    1.669038E-05
       168   -2.225518E-04
       169    3.992221E-05
       170   -3.068470E-05
       171   -9.320642E-04
       172    3.252044E-04
       173   -1.157346E-03
       174   -2.636340E-03
       175    2.726643E-03
       176    2.219987E-02
       177   -1.817672E-02
       178    9.345027E-03
       179    9.369930E-03
       180   -7.543284E-07
       181   -1.087143E-01
       182    5.986571E-04
       183   -1.082755E-05
       184   -1.115875E-01
       185   -2.614399E-02
       186    8.673631E-04
       187   -1.336370E-01
       188    4.921289E-04
       189   -2.752551E-04
       190   -2.168739E-04
       191    3.144495E-07
       192    1.007494E-02
       193    5.381781E-07
       194   -1.886954E-03
       195    4.158971E-03
       196   -2.272016E-03
       197    7.889886E-07
       198    2.478718E-02
       199   -1.461560E-06
       200   -5.937636E-03
       201    7.184620E-03
       202   -1.246984E-03
       203   -1.218048E-04
       204    1.901064E-02
       205    5.846240E-06
       206    1.197036E-04
       207   -3.973419E-10
       208    2.844154E-04
       209   -8.408086E-05
       210   -2.358419E-08
       211    1.091514E-03
       212   -7.651836E-05
       213    2.411728E-08
       214   -1.473097E-03
       215    1.361075E-08
       216    1.272180E-04
       217    2.747611E-04
       218    5.803977E-04
       219   -1.071696E-02
       220    3.125670E-02
       221    1.279908E-02
       222   -1.356727E-03
       223   -7.283797E-04
       224   -1.534120E-01
       225   -9.281750E-03
       226   -6.343951E-03
       227   -1.562806E-01
       228   -2.415047E-02
       229    8.901444E-03
       230   -9.349531E-02
       231    1.514501E-04
       232   -1.834070E-04
       233    3.195697E-05
       234    3.992809E-06
       235   -7.364361E-04
       236   -2.922521E-03
       237    6.300205E-04
       238   -7.705610E-04
       239    1.405405E-04
       240   -1.729851E-03
       241   -3.902024E-03
       242   -4.905273E-03
       243    8.270730E-03
       244   -6.460757E-03
       245   -1.809973E-03
       246    8.964271E-03
       247    3.674878E-03
       248    1.276512E-02
       249   -1.495351E-05
       250   -1.047753E-05
       251    8.608544E-04
       252   -2.002638E-05
       253   -1.665630E-05
       254   -2.228705E-04
       255    4.008862E-05
       256    3.071339E-05
       257   -9.320868E-04
       258   -3.252384E-04
       259   -3.597116E-04
       260   -2.162843E-04
       261   -1.765193E-02
       262   -1.269044E-05
       263    1.250551E-06
       264    8.382221E-04
       265   -5.365558E-03
       266   -3.016342E-04
       267   -6.736466E-03
       268   -3.603322E-04
       269   -2.083701E-04
       270   -1.761941E-02
       271   -1.169628E-05
       272   -2.342842E-06
       273    8.387271E-04
       274   -5.458614E-03
       275    2.687923E-04
       276   -6.739901E-03
       277   -4.323658E-04
       278   -2.396443E-03
       279    3.481223E-02
       280   -1.182176E-05
       281    1.010739E-04
       282   -6.217716E-03
       283   -1.815729E-03
       284   -2.803888E-03
       285    2.076643E-03
       286   -4.350678E-04
       287   -2.404972E-03
       288    3.510337E-02
       289   -1.118508E-05
       290   -1.015410E-04
       291   -6.219147E-03
       292   -1.796447E-03
       293    2.858226E-03
       294    2.065380E-03
       295   -4.358202E-05
       296   -1.007312E-04
       297    8.221499E-05
       298    4.066403E-04
       299   -7.076448E-03
       300    8.583726E-04
       301    4.176757E-04
       302   -4.856929E-08
       303    1.990544E-02
       304    1.061960E-04
       305    1.042850E-06
       306    2.231932E-02
       307   -3.134466E-03
       308    3.118976E-05
       309    8.868313E-03
       310    1.829845E-05
       311   -3.767538E-06
       312   -1.453091E-05
       313   -4.208934E-08
       314    4.324650E-03
       315   -9.801898E-09
       316   -6.139852E-06
       317    7.069798E-05
       318   -6.455812E-05
       319   -7.425487E-07
       320    1.301987E-02
       321   -1.931863E-07
       322   -1.001888E-03
       323    2.860578E-03
       324   -1.858690E-03
       325    2.271360E-05
       326    2.945419E-03
       327    4.891503E-06
       328    6.819353E-06
       329   -1.191318E-08
       330    8.117254E-06
       331   -4.964112E-06
       332    3.884165E-08
       333    6.815010E-04
       334   -4.185009E-06
       335   -2.285843E-08
       336   -6.923915E-04
       337    1.087436E-08
       338   -1.292445E-05
       339   -2.791543E-05
       340   -3.865352E-06
       341    5.131794E-04
       342   -5.930717E-03
       343   -9.433050E-04
       344   -1.629030E-04
       345    1.168265E-04
       346   -7.729495E-02
       347   -2.570125E-04
       348    2.505087E-04
       349   -7.169064E-02
       350   -1.418688E-03
       351    5.079185E-04
       352   -5.846919E-02
       353   -1.695746E-04
       354    2.143630E-04
       355   -7.256799E-03
       356    3.617153E-06
       357   -4.198538E-06
       358    5.813852E-07
       359   -4.189979E-09
       360    1.154550E-05
       361    4.608694E-04
       362   -1.210786E-05
       363   -1.038684E-05
       364    2.249471E-05
       365    1.073971E-05
       366   -5.017355E-04
       367    1.537013E-03
       368   -7.994069E-05
       369    5.317480E-05
       370    2.676589E-05
       371    8.069207E-05
       372   -1.536158E-04
       373    2.516883E-04
       374    7.230150E-07
       375    1.629444E-06
       376    6.284838E-05
       377   -1.311500E-06
       378   -4.435507E-07
       379    8.232278E-05
       380    3.414737E-07
       381   -1.742577E-06
       382   -1.666427E-04
       383    1.319421E-04
       384   -1.275364E-05
       385   -2.753847E-05
       386   -3.908103E-06
       387    5.082306E-04
       388   -5.921361E-03
       389   -9.174318E-04
       390   -1.563762E-04
       391   -1.203380E-04
       392   -7.729291E-02
       393   -2.506739E-04
       394   -2.530926E-04
       395   -7.168962E-02
       396   -1.389215E-03
       397   -5.029559E-04
       398   -5.845923E-02
       399   -1.548731E-04
       400   -2.199371E-04
       401   -7.256889E-03
       402    3.651582E-06
       403   -4.249410E-06
       404    5.978273E-07
       405   -3.712481E-08
       406    1.153011E-05
       407   -4.608559E-04
       408   -1.184520E-05
       409   -1.034989E-05
       410    2.219508E-05
       411   -1.025684E-05
       412   -5.016356E-04
       413   -1.536965E-03
       414   -7.920278E-05
       415    5.445830E-05
       416    2.474448E-05
       417   -7.994258E-05
       418   -1.534438E-04
       419   -2.504592E-04
       420    7.262001E-07
       421   -1.635132E-06
       422    6.284940E-05
       423   -1.298374E-06
       424    4.577640E-07
       425    8.231953E-05
       426    3.240745E-07
       427    1.735995E-06
       428   -1.666409E-04
       429   -1.319409E-04
       430    5.080687E-03
       431    1.204867E-02
       432   -1.870185E-02
       433   -2.902593E-02
       434   -2.230246E-02
       435   -6.941565E-02
       436   -1.784750E-02
       437    9.275130E-06
       438    2.597369E-01
       439   -2.033638E-02
       440    2.012551E-06
       441    2.565047E-01
       442   -1.899451E-02
       443   -1.053591E-04
       444    2.094646E-01
       445   -1.027507E-04
       446   -1.971879E-05
       447    1.224695E-04
       448    2.822736E-07
       449    7.171232E-04
       450    2.544625E-07
       451   -2.288698E-04
       452   -1.586196E-03
       453    1.815065E-03
       454   -3.854632E-06
       455    3.501531E-03
       456    1.532297E-06
       457   -1.774939E-03
       458   -3.173743E-03
       459    4.948681E-03
       460   -4.189250E-06
       461    2.160431E-03
       462    7.867550E-06
       463   -1.412298E-04
       464    3.689759E-08
       465   -1.037749E-03
       466   -9.101509E-05
       467   -1.632475E-09
       468    5.674414E-04
       469    2.804948E-04
       470   -4.787084E-08
       471    8.248447E-04
       472    2.243152E-09
       473    9.473093E-03
       474    1.811465E-02
       475    3.056980E-02
       476   -2.310516E-03
       477   -1.918265E-03
       478    1.313788E-02
       479    1.279903E-03
       480   -3.560998E-03
       481    1.500207E-02
       482    9.466337E-03
       483    1.804559E-02
       484    3.038342E-02
       485   -2.307044E-03
       486    1.911615E-03
       487    1.314120E-02
       488    1.296053E-03
       489    3.524182E-03
       490    1.501082E-02
 Sym= X
 Ene= 0.893849
 Spin= Alpha
 Occup= 0.893849
         1    5.902701E-03
         2    1.280519E-02
         3   -3.196680E-03
         4   -2.757247E-01
         5   -8.735348E+00
         6    2.450703E-01
         7    1.803372E-02
         8    4.905807E-02
         9    1.431529E-03
        10    8.562153E-02
        11    7.183203E-03
        12    6.830266E-04
        13    3.984774E+00
        14   -3.892231E+00
        15    6.950626E-03
        16   -9.296654E-04
        17    9.683115E-05
        18    8.328342E-04
        19    1.971179E-03
        20   -7.284757E-05
        21    1.888505E-05
        22    1.558540E-02
        23   -2.133066E-02
        24    5.745254E-03
        25    2.013667E-02
        26   -3.089543E-04
        27   -1.986738E-04
        28    1.516938E+00
        29   -1.453073E+00
        30   -6.386523E-02
        31    1.075438E+00
        32    2.192011E-03
        33    4.783371E-03
        34    9.214528E-05
        35   -2.767156E-04
        36    1.474594E-05
        37    6.893207E-04
        38    4.943213E-04
        39   -2.769131E-05
        40   -8.129465E-04
        41   -1.230684E-04
        42    7.907547E-06
        43   -3.014070E-06
        44   -8.064682E-07
        45   -1.440340E-06
        46   -6.435133E-06
        47    1.142111E-04
        48    3.345527E-03
        49   -6.258784E-04
        50    6.226248E-06
        51    1.449977E-02
        52    1.861903E-06
        53   -1.202669E-05
        54   -9.997111E-02
        55   -2.049310E-06
        56    3.998661E-04
        57   -8.942449E+00
        58    7.559023E-05
        59    1.617196E-06
        60    2.038383E-07
        61   -1.821034E-06
        62   -1.855990E-03