[Molden Format]
[Title]
ADC(2) - opt by CAM-B3LYP gaussian                                              
[Atoms] AU
 c     1    6 -.12589065566052E+01 -.22830902054421E+01 -.26005390588660E-01
 c     2    6 -.25569912224779E+01 0.86573078000000E-06 -.24733756079320E-01
 c     3    6 -.12589060841737E+01 0.22830907841707E+01 -.26008073999770E-01
 c     4    6 0.13324295737882E+01 0.22846183820847E+01 -.28114684000920E-01
 c     5    6 0.26867573459717E+01 0.39329925000000E-06 -.27723246129760E-01
 c     6    6 0.13324281942881E+01 -.22846180679178E+01 -.28111244699360E-01
 h     7    1 -.22982509786098E+01 -.40377481062879E+01 -.23319125993500E-01
 h     8    1 -.22982490510892E+01 0.40377494409070E+01 -.23324322740370E-01
 h     9    1 0.23514918675648E+01 0.40568894753521E+01 -.30529017005560E-01
 h    10    1 0.23514910360853E+01 -.40568888210345E+01 -.30521911635300E-01
 n    11    7 -.52742123095903E+01 0.14763485000000E-06 -.18925267070140E-01
 o    12    8 -.63809534361791E+01 0.20269762391752E+01 -.16457057973460E-01
 o    13    8 -.63809510362269E+01 -.20269772478165E+01 -.16464881439650E-01
 n    14    7 0.52454603626942E+01 -.57046108000000E-06 -.73989411041200E-01
 h    15    1 0.62036818842731E+01 0.16164996606794E+01 0.19711589672944E+00
 h    16    1 0.62036804102867E+01 -.16165023700742E+01 0.19711149366755E+00
[GTO]
    1 0
 s    6 1.00
 0.13575349682000E+05 0.60645503603591E-03
 0.20352333680000E+04 0.46979088884982E-02
 0.46322562359000E+03 0.24332477647552E-01
 0.13120019598000E+03 0.97399968307759E-01
 0.42853015891000E+02 0.30195584253780E+00
 0.15584185766000E+02 0.66233609137875E+00
 s    2 1.00
 0.62067138508000E+01 0.65595308539952E+00
 0.25764896527000E+01 0.37585633285142E+00
 s    1 1.00
 0.57696339419000E+00 0.10000000000000E+01
 s    1 1.00
 0.22972831358000E+00 0.10000000000000E+01
 s    1 1.00
 0.95164440028000E-01 0.10000000000000E+01
 s    1 1.00
 0.48475401370000E-01 0.10000000000000E+01
 p    4 1.00
 0.34697232244000E+02 0.11327220003114E-01
 0.79582622826000E+01 0.76169659202087E-01
 0.23780826883000E+01 0.30192252202676E+00
 0.81433208183000E+00 0.72785027349547E+00
 p    1 1.00
 0.28887547253000E+00 0.10000000000000E+01
 p    1 1.00
 0.10056823671000E+00 0.10000000000000E+01
 d    1 1.00
 0.10970000000000E+01 0.10000000000000E+01
 d    1 1.00
 0.31800000000000E+00 0.10000000000000E+01
 d    1 1.00
 0.90985336424000E-01 0.10000000000000E+01
 f    1 1.00
 0.76100000000000E+00 0.10000000000000E+01
 
    2 0
 s    6 1.00
 0.13575349682000E+05 0.60645503603591E-03
 0.20352333680000E+04 0.46979088884982E-02
 0.46322562359000E+03 0.24332477647552E-01
 0.13120019598000E+03 0.97399968307759E-01
 0.42853015891000E+02 0.30195584253780E+00
 0.15584185766000E+02 0.66233609137875E+00
 s    2 1.00
 0.62067138508000E+01 0.65595308539952E+00
 0.25764896527000E+01 0.37585633285142E+00
 s    1 1.00
 0.57696339419000E+00 0.10000000000000E+01
 s    1 1.00
 0.22972831358000E+00 0.10000000000000E+01
 s    1 1.00
 0.95164440028000E-01 0.10000000000000E+01
 s    1 1.00
 0.48475401370000E-01 0.10000000000000E+01
 p    4 1.00
 0.34697232244000E+02 0.11327220003114E-01
 0.79582622826000E+01 0.76169659202087E-01
 0.23780826883000E+01 0.30192252202676E+00
 0.81433208183000E+00 0.72785027349547E+00
 p    1 1.00
 0.28887547253000E+00 0.10000000000000E+01
 p    1 1.00
 0.10056823671000E+00 0.10000000000000E+01
 d    1 1.00
 0.10970000000000E+01 0.10000000000000E+01
 d    1 1.00
 0.31800000000000E+00 0.10000000000000E+01
 d    1 1.00
 0.90985336424000E-01 0.10000000000000E+01
 f    1 1.00
 0.76100000000000E+00 0.10000000000000E+01
 
    3 0
 s    6 1.00
 0.13575349682000E+05 0.60645503603591E-03
 0.20352333680000E+04 0.46979088884982E-02
 0.46322562359000E+03 0.24332477647552E-01
 0.13120019598000E+03 0.97399968307759E-01
 0.42853015891000E+02 0.30195584253780E+00
 0.15584185766000E+02 0.66233609137875E+00
 s    2 1.00
 0.62067138508000E+01 0.65595308539952E+00
 0.25764896527000E+01 0.37585633285142E+00
 s    1 1.00
 0.57696339419000E+00 0.10000000000000E+01
 s    1 1.00
 0.22972831358000E+00 0.10000000000000E+01
 s    1 1.00
 0.95164440028000E-01 0.10000000000000E+01
 s    1 1.00
 0.48475401370000E-01 0.10000000000000E+01
 p    4 1.00
 0.34697232244000E+02 0.11327220003114E-01
 0.79582622826000E+01 0.76169659202087E-01
 0.23780826883000E+01 0.30192252202676E+00
 0.81433208183000E+00 0.72785027349547E+00
 p    1 1.00
 0.28887547253000E+00 0.10000000000000E+01
 p    1 1.00
 0.10056823671000E+00 0.10000000000000E+01
 d    1 1.00
 0.10970000000000E+01 0.10000000000000E+01
 d    1 1.00
 0.31800000000000E+00 0.10000000000000E+01
 d    1 1.00
 0.90985336424000E-01 0.10000000000000E+01
 f    1 1.00
 0.76100000000000E+00 0.10000000000000E+01
 
    4 0
 s    6 1.00
 0.13575349682000E+05 0.60645503603591E-03
 0.20352333680000E+04 0.46979088884982E-02
 0.46322562359000E+03 0.24332477647552E-01
 0.13120019598000E+03 0.97399968307759E-01
 0.42853015891000E+02 0.30195584253780E+00
 0.15584185766000E+02 0.66233609137875E+00
 s    2 1.00
 0.62067138508000E+01 0.65595308539952E+00
 0.25764896527000E+01 0.37585633285142E+00
 s    1 1.00
 0.57696339419000E+00 0.10000000000000E+01
 s    1 1.00
 0.22972831358000E+00 0.10000000000000E+01
 s    1 1.00
 0.95164440028000E-01 0.10000000000000E+01
 s    1 1.00
 0.48475401370000E-01 0.10000000000000E+01
 p    4 1.00
 0.34697232244000E+02 0.11327220003114E-01
 0.79582622826000E+01 0.76169659202087E-01
 0.23780826883000E+01 0.30192252202676E+00
 0.81433208183000E+00 0.72785027349547E+00
 p    1 1.00
 0.28887547253000E+00 0.10000000000000E+01
 p    1 1.00
 0.10056823671000E+00 0.10000000000000E+01
 d    1 1.00
 0.10970000000000E+01 0.10000000000000E+01
 d    1 1.00
 0.31800000000000E+00 0.10000000000000E+01
 d    1 1.00
 0.90985336424000E-01 0.10000000000000E+01
 f    1 1.00
 0.76100000000000E+00 0.10000000000000E+01
 
    5 0
 s    6 1.00
 0.13575349682000E+05 0.60645503603591E-03
 0.20352333680000E+04 0.46979088884982E-02
 0.46322562359000E+03 0.24332477647552E-01
 0.13120019598000E+03 0.97399968307759E-01
 0.42853015891000E+02 0.30195584253780E+00
 0.15584185766000E+02 0.66233609137875E+00
 s    2 1.00
 0.62067138508000E+01 0.65595308539952E+00
 0.25764896527000E+01 0.37585633285142E+00
 s    1 1.00
 0.57696339419000E+00 0.10000000000000E+01
 s    1 1.00
 0.22972831358000E+00 0.10000000000000E+01
 s    1 1.00
 0.95164440028000E-01 0.10000000000000E+01
 s    1 1.00
 0.48475401370000E-01 0.10000000000000E+01
 p    4 1.00
 0.34697232244000E+02 0.11327220003114E-01
 0.79582622826000E+01 0.76169659202087E-01
 0.23780826883000E+01 0.30192252202676E+00
 0.81433208183000E+00 0.72785027349547E+00
 p    1 1.00
 0.28887547253000E+00 0.10000000000000E+01
 p    1 1.00
 0.10056823671000E+00 0.10000000000000E+01
 d    1 1.00
 0.10970000000000E+01 0.10000000000000E+01
 d    1 1.00
 0.31800000000000E+00 0.10000000000000E+01
 d    1 1.00
 0.90985336424000E-01 0.10000000000000E+01
 f    1 1.00
 0.76100000000000E+00 0.10000000000000E+01
 
    6 0
 s    6 1.00
 0.13575349682000E+05 0.60645503603591E-03
 0.20352333680000E+04 0.46979088884982E-02
 0.46322562359000E+03 0.24332477647552E-01
 0.13120019598000E+03 0.97399968307759E-01
 0.42853015891000E+02 0.30195584253780E+00
 0.15584185766000E+02 0.66233609137875E+00
 s    2 1.00
 0.62067138508000E+01 0.65595308539952E+00
 0.25764896527000E+01 0.37585633285142E+00
 s    1 1.00
 0.57696339419000E+00 0.10000000000000E+01
 s    1 1.00
 0.22972831358000E+00 0.10000000000000E+01
 s    1 1.00
 0.95164440028000E-01 0.10000000000000E+01
 s    1 1.00
 0.48475401370000E-01 0.10000000000000E+01
 p    4 1.00
 0.34697232244000E+02 0.11327220003114E-01
 0.79582622826000E+01 0.76169659202087E-01
 0.23780826883000E+01 0.30192252202676E+00
 0.81433208183000E+00 0.72785027349547E+00
 p    1 1.00
 0.28887547253000E+00 0.10000000000000E+01
 p    1 1.00
 0.10056823671000E+00 0.10000000000000E+01
 d    1 1.00
 0.10970000000000E+01 0.10000000000000E+01
 d    1 1.00
 0.31800000000000E+00 0.10000000000000E+01
 d    1 1.00
 0.90985336424000E-01 0.10000000000000E+01
 f    1 1.00
 0.76100000000000E+00 0.10000000000000E+01
 
    7 0
 s    3 1.00
 0.34061341000000E+02 0.25439307208879E-01
 0.51235746000000E+01 0.19008594890375E+00
 0.11646626000000E+01 0.85244113011042E+00
 s    1 1.00
 0.32723041000000E+00 0.10000000000000E+01
 s    1 1.00
 0.10307241000000E+00 0.10000000000000E+01
 p    1 1.00
 0.80000000000000E+00 0.10000000000000E+01
 p    1 1.00
 0.95774129632000E-01 0.10000000000000E+01
 
    8 0
 s    3 1.00
 0.34061341000000E+02 0.25439307208879E-01
 0.51235746000000E+01 0.19008594890375E+00
 0.11646626000000E+01 0.85244113011042E+00
 s    1 1.00
 0.32723041000000E+00 0.10000000000000E+01
 s    1 1.00
 0.10307241000000E+00 0.10000000000000E+01
 p    1 1.00
 0.80000000000000E+00 0.10000000000000E+01
 p    1 1.00
 0.95774129632000E-01 0.10000000000000E+01
 
    9 0
 s    3 1.00
 0.34061341000000E+02 0.25439307208879E-01
 0.51235746000000E+01 0.19008594890375E+00
 0.11646626000000E+01 0.85244113011042E+00
 s    1 1.00
 0.32723041000000E+00 0.10000000000000E+01
 s    1 1.00
 0.10307241000000E+00 0.10000000000000E+01
 p    1 1.00
 0.80000000000000E+00 0.10000000000000E+01
 p    1 1.00
 0.95774129632000E-01 0.10000000000000E+01
 
   10 0
 s    3 1.00
 0.34061341000000E+02 0.25439307208879E-01
 0.51235746000000E+01 0.19008594890375E+00
 0.11646626000000E+01 0.85244113011042E+00
 s    1 1.00
 0.32723041000000E+00 0.10000000000000E+01
 s    1 1.00
 0.10307241000000E+00 0.10000000000000E+01
 p    1 1.00
 0.80000000000000E+00 0.10000000000000E+01
 p    1 1.00
 0.95774129632000E-01 0.10000000000000E+01
 
   11 0
 s    6 1.00
 0.19730800647000E+05 0.58626402628763E-03
 0.29578958745000E+04 0.45428820586397E-02
 0.67322133595000E+03 0.23558413450084E-01
 0.19068249494000E+03 0.94709193292923E-01
 0.62295441898000E+02 0.29719784913376E+00
 0.22654161182000E+02 0.66916246895232E+00
 s    2 1.00
 0.89791477428000E+01 0.64596683630063E+00
 0.36863002370000E+01 0.38700574393705E+00
 s    1 1.00
 0.84660076805000E+00 0.10000000000000E+01
 s    1 1.00
 0.33647133771000E+00 0.10000000000000E+01
 s    1 1.00
 0.13647653675000E+00 0.10000000000000E+01
 s    1 1.00
 0.68441605847000E-01 0.10000000000000E+01
 p    4 1.00
 0.49200380510000E+02 0.11448825101764E-01
 0.11346790537000E+02 0.78422337970864E-01
 0.34273972411000E+01 0.30818094738830E+00
 0.11785525134000E+01 0.72027196368413E+00
 p    1 1.00
 0.41642204972000E+00 0.10000000000000E+01
 p    1 1.00
 0.14260826011000E+00 0.10000000000000E+01
 d    1 1.00
 0.16540000000000E+01 0.10000000000000E+01
 d    1 1.00
 0.46900000000000E+00 0.10000000000000E+01
 d    1 1.00
 0.12829642058000E+00 0.10000000000000E+01
 f    1 1.00
 0.10930000000000E+01 0.10000000000000E+01
 
   12 0
 s    6 1.00
 0.27032382631000E+05 0.57227335211155E-03
 0.40523871392000E+04 0.44353233492995E-02
 0.92232722710000E+03 0.23020107706038E-01
 0.26124070989000E+03 0.92822490667928E-01
 0.85354641351000E+02 0.29378500009671E+00
 0.31035035245000E+02 0.67401604501641E+00
 s    2 1.00
 0.12260860728000E+02 0.63839937025506E+00
 0.49987076005000E+01 0.39534587125718E+00
 s    1 1.00
 0.11703108158000E+01 0.10000000000000E+01
 s    1 1.00
 0.46474740994000E+00 0.10000000000000E+01
 s    1 1.00
 0.18504536357000E+00 0.10000000000000E+01
 s    1 1.00
 0.70288026270000E-01 0.10000000000000E+01
 p    4 1.00
 0.63274954801000E+02 0.12018332222616E-01
 0.14627049379000E+02 0.83005421790056E-01
 0.44501223456000E+01 0.31991743925964E+00
 0.15275799647000E+01 0.70715542916104E+00
 p    1 1.00
 0.52935117943000E+00 0.10000000000000E+01
 p    1 1.00
 0.17478421270000E+00 0.10000000000000E+01
 p    1 1.00
 0.51112745706000E-01 0.10000000000000E+01
 d    1 1.00
 0.23140000000000E+01 0.10000000000000E+01
 d    1 1.00
 0.64500000000000E+00 0.10000000000000E+01
 d    1 1.00
 0.14696477366000E+00 0.10000000000000E+01
 f    1 1.00
 0.14280000000000E+01 0.10000000000000E+01
 
   13 0
 s    6 1.00
 0.27032382631000E+05 0.57227335211155E-03
 0.40523871392000E+04 0.44353233492995E-02
 0.92232722710000E+03 0.23020107706038E-01
 0.26124070989000E+03 0.92822490667928E-01
 0.85354641351000E+02 0.29378500009671E+00
 0.31035035245000E+02 0.67401604501641E+00
 s    2 1.00
 0.12260860728000E+02 0.63839937025506E+00
 0.49987076005000E+01 0.39534587125718E+00
 s    1 1.00
 0.11703108158000E+01 0.10000000000000E+01
 s    1 1.00
 0.46474740994000E+00 0.10000000000000E+01
 s    1 1.00
 0.18504536357000E+00 0.10000000000000E+01
 s    1 1.00
 0.70288026270000E-01 0.10000000000000E+01
 p    4 1.00
 0.63274954801000E+02 0.12018332222616E-01
 0.14627049379000E+02 0.83005421790056E-01
 0.44501223456000E+01 0.31991743925964E+00
 0.15275799647000E+01 0.70715542916104E+00
 p    1 1.00
 0.52935117943000E+00 0.10000000000000E+01
 p    1 1.00
 0.17478421270000E+00 0.10000000000000E+01
 p    1 1.00
 0.51112745706000E-01 0.10000000000000E+01
 d    1 1.00
 0.23140000000000E+01 0.10000000000000E+01
 d    1 1.00
 0.64500000000000E+00 0.10000000000000E+01
 d    1 1.00
 0.14696477366000E+00 0.10000000000000E+01
 f    1 1.00
 0.14280000000000E+01 0.10000000000000E+01
 
   14 0
 s    6 1.00
 0.19730800647000E+05 0.58626402628763E-03
 0.29578958745000E+04 0.45428820586397E-02
 0.67322133595000E+03 0.23558413450084E-01
 0.19068249494000E+03 0.94709193292923E-01
 0.62295441898000E+02 0.29719784913376E+00
 0.22654161182000E+02 0.66916246895232E+00
 s    2 1.00
 0.89791477428000E+01 0.64596683630063E+00
 0.36863002370000E+01 0.38700574393705E+00
 s    1 1.00
 0.84660076805000E+00 0.10000000000000E+01
 s    1 1.00
 0.33647133771000E+00 0.10000000000000E+01
 s    1 1.00
 0.13647653675000E+00 0.10000000000000E+01
 s    1 1.00
 0.68441605847000E-01 0.10000000000000E+01
 p    4 1.00
 0.49200380510000E+02 0.11448825101764E-01
 0.11346790537000E+02 0.78422337970864E-01
 0.34273972411000E+01 0.30818094738830E+00
 0.11785525134000E+01 0.72027196368413E+00
 p    1 1.00
 0.41642204972000E+00 0.10000000000000E+01
 p    1 1.00
 0.14260826011000E+00 0.10000000000000E+01
 d    1 1.00
 0.16540000000000E+01 0.10000000000000E+01
 d    1 1.00
 0.46900000000000E+00 0.10000000000000E+01
 d    1 1.00
 0.12829642058000E+00 0.10000000000000E+01
 f    1 1.00
 0.10930000000000E+01 0.10000000000000E+01
 
   15 0
 s    3 1.00
 0.34061341000000E+02 0.25439307208879E-01
 0.51235746000000E+01 0.19008594890375E+00
 0.11646626000000E+01 0.85244113011042E+00
 s    1 1.00
 0.32723041000000E+00 0.10000000000000E+01
 s    1 1.00
 0.10307241000000E+00 0.10000000000000E+01
 p    1 1.00
 0.80000000000000E+00 0.10000000000000E+01
 p    1 1.00
 0.95774129632000E-01 0.10000000000000E+01
 
   16 0
 s    3 1.00
 0.34061341000000E+02 0.25439307208879E-01
 0.51235746000000E+01 0.19008594890375E+00
 0.11646626000000E+01 0.85244113011042E+00
 s    1 1.00
 0.32723041000000E+00 0.10000000000000E+01
 s    1 1.00
 0.10307241000000E+00 0.10000000000000E+01
 p    1 1.00
 0.80000000000000E+00 0.10000000000000E+01
 p    1 1.00
 0.95774129632000E-01 0.10000000000000E+01
 
[MO]
 Sym= X
 Ene= -0.058450
 Spin= Alpha
 Occup= -0.058450
         1   -9.847320E-04
         2   -2.221806E-03
         3    4.131947E-03
         4   -1.421739E-04
         5   -2.472902E-03
         6   -1.694161E-02
         7    7.536441E-03
         8   -9.116461E-04
         9   -7.233298E-03
        10    4.011696E-04
        11   -1.764129E-04
        12   -8.819903E-03
        13   -4.662369E-02
        14    9.067081E-03
        15   -1.276610E-02
        16    2.084815E-04
        17   -1.701846E-04
        18   -3.829694E-05
        19   -7.775807E-06
        20   -3.277314E-03
        21    1.548963E-03
        22   -6.594800E-04
        23    4.095530E-04
        24    2.499270E-04
        25   -1.164560E-03
        26   -7.622358E-03
        27    3.128898E-03
        28   -5.639479E-03
        29    5.000418E-03
        30    6.390615E-04
        31    3.004843E-03
        32    4.766940E-03
        33   -1.482267E-02
        34   -4.232577E-06
        35    9.552183E-06
        36    9.156007E-05
        37   -5.583644E-06
        38   -1.219747E-05
        39   -4.686698E-04
        40    1.126224E-05
        41   -6.181252E-07
        42    3.458291E-04
        43   -2.723561E-04
        44    2.559381E-04
        45    5.881257E-04
        46   -4.475838E-04
        47   -6.815310E-03
        48   -4.796470E-02
        49    1.134022E-02
        50   -2.414211E-03
        51   -1.324971E-05
        52    8.298046E-02
        53   -3.119683E-03
        54   -6.439305E-06
        55    8.635289E-02
        56   -1.920230E-02
        57   -4.587514E-04
        58    1.379289E-01
        59    2.756111E-04
        60   -2.658378E-04
        61   -9.773347E-06
        62   -4.761247E-07
        63   -8.505804E-04
        64   -9.963254E-07
        65    8.670770E-04
        66   -1.290041E-03
        67    4.229639E-04
        68    1.093178E-08
        69   -2.758284E-03
        70   -2.311172E-06
        71    1.664736E-02
        72   -1.787339E-02
        73    1.226034E-03
        74   -6.198399E-05
        75    1.376469E-03
        76   -2.917382E-05
        77   -4.351194E-06
        78   -5.703959E-08
        79   -3.925338E-04
        80   -9.908019E-06
        81    3.657246E-08
        82    2.522650E-04
        83    1.574576E-05
        84    3.995418E-08
        85    2.743743E-04
        86   -1.246258E-07
        87   -9.828514E-04
        88   -2.217615E-03
        89    4.130575E-03
        90   -1.973631E-04
        91   -1.287881E-03
        92   -1.694448E-02
        93    7.541837E-03
        94    9.306658E-04
        95   -7.285471E-03
        96    3.910033E-04
        97    1.882118E-04
        98   -8.875107E-03
        99   -4.667689E-02
       100   -9.505332E-03
       101   -1.279900E-02
       102    2.081471E-04
       103   -1.701607E-04
       104   -3.798642E-05
       105    6.899063E-06
       106   -3.278687E-03
       107   -1.548846E-03
       108   -6.613465E-04
       109    4.088087E-04
       110    2.525378E-04
       111    1.161964E-03
       112   -7.626076E-03
       113   -3.128710E-03
       114   -5.685003E-03
       115    5.052710E-03
       116    6.322930E-04
       117   -2.932680E-03
       118    4.725434E-03
       119    1.480169E-02
       120   -4.450093E-06
       121   -9.484208E-06
       122    9.197823E-05
       123   -5.329090E-06
       124    1.214258E-05
       125   -4.692035E-04
       126    1.129952E-05
       127    5.818206E-07
       128    3.458018E-04
       129    2.723248E-04
       130    8.097019E-04
       131    1.789176E-03
       132   -1.059428E-03
       133   -1.947862E-02
       134    1.770656E-02
       135    1.757994E-02
       136   -9.054251E-03
       137    1.711182E-03
       138   -7.783264E-02
       139   -1.915145E-02
       140    9.909592E-03
       141   -8.142084E-02
       142   -3.420458E-02
       143   -1.149033E-02
       144   -4.536269E-02
       145    5.159232E-04
       146   -6.214590E-04
       147    1.055359E-04
       148   -4.162053E-05
       149    1.093282E-03
       150    3.493121E-04
       151    1.073783E-03
       152   -1.459101E-03
       153    3.853185E-04
       154    2.647077E-03
       155   -7.266467E-05
       156    1.715338E-04
       157    1.142583E-02
       158   -9.036288E-03
       159   -2.389545E-03
       160   -1.305590E-02
       161    5.786133E-03
       162   -2.013185E-02
       163   -2.291982E-05
       164    2.909969E-05
       165    2.734160E-04
       166   -5.779145E-05
       167    1.171542E-05
       168   -4.370807E-05
       169    8.854161E-05
       170   -5.075675E-05
       171   -3.231179E-04
       172   -8.410282E-05
       173   -1.711455E-03
       174   -3.897398E-03
       175    4.083545E-03
       176    3.002966E-02
       177   -3.584632E-02
       178    1.330654E-02
       179    2.378209E-02
       180    1.655302E-05
       181    3.959337E-02
       182    7.210387E-03
       183   -7.688510E-06
       184    3.292951E-02
       185   -4.728806E-02
       186    2.542353E-04
       187   -1.128843E-01
       188    1.254636E-03
       189   -8.996083E-04
       190   -3.550278E-04
       191   -3.414957E-07
       192    1.135696E-02
       193   -8.667336E-07
       194   -2.421532E-03
       195    5.737429E-03
       196   -3.315897E-03
       197    3.570542E-06
       198    2.517909E-02
       199   -2.142218E-06
       200   -1.241996E-02
       201    1.422773E-02
       202   -1.807771E-03
       203   -6.538812E-05
       204    1.554907E-02
       205    3.374544E-05
       206    2.315135E-04
       207   -3.384285E-08
       208   -1.012769E-03
       209   -1.391018E-04
       210   -4.215699E-08
       211    2.184860E-03
       212   -1.715062E-04
       213    8.756193E-08
       214   -8.260871E-04
       215    1.380595E-07
       216    8.132707E-04
       217    1.796889E-03
       218   -1.060478E-03
       219   -1.956341E-02
       220    1.851921E-02
       221    1.755444E-02
       222   -9.062338E-03
       223   -1.723180E-03
       224   -7.777785E-02
       225   -1.915179E-02
       226   -9.942986E-03
       227   -8.136638E-02
       228   -3.426305E-02
       229    1.185421E-02
       230   -4.529779E-02
       231    5.160280E-04
       232   -6.220955E-04
       233    1.060675E-04
       234    4.074272E-05
       235    1.091699E-03
       236   -3.492282E-04
       237    1.068859E-03
       238   -1.459438E-03
       239    3.905789E-04
       240   -2.655199E-03
       241   -7.214781E-05
       242   -1.705219E-04
       243    1.135819E-02
       244   -8.976609E-03
       245   -2.381579E-03
       246    1.308728E-02
       247    5.841372E-03
       248    2.015297E-02
       249   -2.261241E-05
       250   -2.922308E-05
       251    2.730908E-04
       252   -5.825259E-05
       253   -1.171563E-05
       254   -4.341707E-05
       255    8.859032E-05
       256    5.092250E-05
       257   -3.229727E-04
       258    8.414835E-05
       259   -7.529043E-04
       260   -8.547665E-04
       261   -2.941041E-02
       262    9.766859E-05
       263   -7.174404E-05
       264   -3.413018E-04
       265   -6.986387E-03
       266   -1.812451E-03
       267   -8.846259E-03
       268   -7.469671E-04
       269   -8.385323E-04
       270   -2.929539E-02
       271    9.894586E-05
       272    7.047545E-05
       273   -3.435507E-04
       274   -7.039245E-03
       275    1.781662E-03
       276   -8.851292E-03
       277   -3.214898E-03
       278   -7.316384E-03
       279    5.063158E-02
       280    5.543532E-06
       281    5.443666E-04
       282   -3.083807E-03
       283   -4.538510E-03
       284   -3.757446E-03
       285    1.001338E-02
       286   -3.213712E-03
       287   -7.311602E-03
       288    5.079714E-02
       289    6.393914E-06
       290   -5.440579E-04
       291   -3.082003E-03
       292   -4.514975E-03
       293    3.805244E-03
       294    1.000478E-02
       295   -2.854931E-04
       296   -6.689770E-04
       297    8.358050E-04
       298    2.352934E-03
       299   -1.187901E-02
       300   -4.525974E-03
       301    4.094643E-03
       302    4.208809E-06
       303    1.102029E-02
       304    3.328309E-03
       305    2.452323E-06
       306    1.305617E-02
       307   -3.858083E-03
       308    2.692650E-05
       309   -7.501792E-04
       310    9.983937E-05
       311   -1.148966E-04
       312    1.505727E-05
       313   -1.425794E-07
       314    2.005896E-03
       315    1.634386E-07
       316    2.294104E-04
       317   -1.896776E-04
       318   -3.973277E-05
       319   -6.138120E-07
       320    6.076597E-03
       321    3.323140E-07
       322   -1.129222E-03
       323    3.971981E-03
       324   -2.842759E-03
       325    1.920262E-05
       326   -1.362482E-04
       327    4.919451E-06
       328    1.172790E-05
       329    6.164724E-08
       330    2.152444E-05
       331   -6.447729E-07
       332   -6.042305E-08
       333    3.040040E-04
       334   -1.508986E-05
       335   -2.228540E-08
       336   -3.328820E-04
       337   -5.187024E-08
       338   -1.080728E-04
       339   -2.579284E-04
       340    3.337606E-04
       341    1.392877E-03
       342   -8.250795E-03
       343   -5.562467E-04
       344   -1.991486E-03
       345    9.320184E-04
       346   -3.820905E-02
       347   -1.915719E-03
       348    9.687636E-04
       349   -3.553026E-02
       350   -3.126099E-03
       351    1.016377E-03
       352   -2.892448E-02
       353   -4.273822E-04
       354    9.208705E-05
       355   -3.898690E-03
       356    1.865777E-05
       357   -3.464926E-05
       358    1.599149E-05
       359    1.647762E-05
       360    1.592137E-05
       361    2.081147E-04
       362    7.528197E-06
       363   -8.322370E-05
       364    7.569551E-05
       365    4.041239E-05
       366   -2.363154E-04
       367    6.736698E-04
       368   -1.155778E-04
       369    4.884117E-05
       370    6.673659E-05
       371    1.029133E-04
       372    4.595549E-04
       373    1.549174E-04
       374    4.691512E-06
       375    8.642608E-06
       376    2.971862E-05
       377   -9.010788E-06
       378   -3.625285E-06
       379    3.913548E-05
       380    2.716465E-06
       381   -7.969991E-06
       382   -7.900720E-05
       383    6.176695E-05
       384   -1.089805E-04
       385   -2.601689E-04
       386    3.375320E-04
       387    1.396060E-03
       388   -8.246911E-03
       389   -5.442546E-04
       390   -1.999542E-03
       391   -9.365836E-04
       392   -3.821929E-02
       393   -1.922616E-03
       394   -9.728858E-04
       395   -3.554050E-02
       396   -3.112168E-03
       397   -1.012794E-03
       398   -2.892424E-02
       399   -4.217549E-04
       400   -9.335398E-05
       401   -3.898545E-03
       402    1.864690E-05
       403   -3.473013E-05
       404    1.608324E-05
       405   -1.666643E-05
       406    1.588452E-05
       407   -2.082074E-04
       408    7.636562E-06
       409   -8.345080E-05
       410    7.581424E-05
       411   -4.068447E-05
       412   -2.364062E-04
       413   -6.739206E-04
       414   -1.161690E-04
       415    5.108790E-05
       416    6.508114E-05
       417   -1.017887E-04
       418    4.604065E-04
       419   -1.545025E-04
       420    4.721914E-06
       421   -8.641669E-06
       422    2.973092E-05
       423   -9.063241E-06
       424    3.600844E-06
       425    3.914358E-05
       426    2.728129E-06
       427    7.993172E-06
       428   -7.903180E-05
       429   -6.179510E-05
       430    7.351036E-03
       431    1.740684E-02
       432   -2.693184E-02
       433   -4.241143E-02
       434   -2.337933E-02
       435   -7.977409E-02
       436   -3.480393E-02
       437    1.289075E-05
       438    3.927103E-01
       439   -3.781972E-02
       440    3.111012E-06
       441    3.838591E-01
       442   -3.842057E-02
       443   -1.080540E-04
       444    2.861907E-01
       445   -5.381939E-05
       446   -2.583409E-04
       447    3.121603E-04
       448    2.466123E-07
       449   -1.522877E-03
       450    3.600800E-07
       451   -2.577949E-05
       452   -3.035965E-03
       453    3.061744E-03
       454   -5.832647E-06
       455   -2.045467E-03
       456    1.959572E-06
       457   -7.444686E-04
       458   -6.861172E-03
       459    7.605641E-03
       460   -1.314367E-05
       461    2.675446E-04
       462    1.092329E-05
       463   -1.856406E-04
       464    5.459137E-08
       465   -1.897754E-03
       466   -1.666381E-04
       467    3.765495E-08
       468    1.436976E-03
       469    4.157011E-04
       470   -1.108970E-07
       471    1.109128E-03
       472    3.540409E-08
       473    1.056438E-02
       474    2.293249E-02
       475    4.274942E-02
       476   -3.722335E-03
       477   -2.677303E-03
       478    1.878654E-02
       479   -9.811551E-04
       480   -4.985854E-03
       481    1.451981E-02
       482    1.055604E-02
       483    2.284237E-02
       484    4.254211E-02
       485   -3.717465E-03
       486    2.668298E-03
       487    1.879093E-02
       488   -9.730833E-04
       489    4.935382E-03
       490    1.453979E-02
 Sym= X
 Ene= -0.827046
 Spin= Alpha
 Occup= -0.827046
         1    3.741125E-05
         2    8.621568E-05
         3   -1.478872E-04
         4   -1.256966E-04
         5   -1.309836E-02
         6   -9.339353E-04
         7    8.752068E-04
         8   -2.401693E-04
         9   -1.880540E-01
        10    3.950516E-04
        11   -7.578440E-05
        12   -1.885488E-01
        13    5.152481E-03
        14   -7.945888E-03
        15   -1.096623E-01
        16    2.172540E-05
        17   -3.054340E-05
        18    8.817993E-06
        19    1.836302E-05
        20   -4.961260E-03
        21   -5.424757E-04
        22    1.833832E-05
        23   -2.976581E-05
        24    1.142750E-05
        25    2.745700E-05
        26   -9.547619E-03
        27    4.194024E-04
        28    8.834107E-04
        29   -1.078949E-03
        30    1.955378E-04
        31    7.683040E-04
        32   -2.931371E-03
        33   -3.023276E-04
        34   -2.965761E-06
        35   -3.265954E-06
        36    1.160778E-03
        37    2.449050E-06
        38    3.214060E-06
        39   -1.403995E-03
        40    1.529937E-06
        41    1.167677E-06
        42   -1.533516E-04
        43   -3.790295E-06
        44    2.252332E-07
        45    5.510820E-07
        46   -3.499367E-06
        47   -6.809456E-06
        48    2.376632E-03
        49    1.701487E-04
        50   -5.091319E-06
        51    9.542459E-04
        52    5.763821E-07
        53    3.258286E-06
        54    1.056055E-03
        55    4.694282E-06
        56    1.074793E-03
        57   -1.308211E-02
        58   -4.398350E-07
        59    2.630474E-07
        60   -2.944161E-07
        61    3.136868E-08
        62    4.071709E-05