[Molden Format]
[Title]
ADC(2) - opt by CAM-B3LYP gaussian                                              
[Atoms] AU
 c     1    6 -.12589065566052E+01 -.22830902054421E+01 -.26005390588660E-01
 c     2    6 -.25569912224779E+01 0.86573078000000E-06 -.24733756079320E-01
 c     3    6 -.12589060841737E+01 0.22830907841707E+01 -.26008073999770E-01
 c     4    6 0.13324295737882E+01 0.22846183820847E+01 -.28114684000920E-01
 c     5    6 0.26867573459717E+01 0.39329925000000E-06 -.27723246129760E-01
 c     6    6 0.13324281942881E+01 -.22846180679178E+01 -.28111244699360E-01
 h     7    1 -.22982509786098E+01 -.40377481062879E+01 -.23319125993500E-01
 h     8    1 -.22982490510892E+01 0.40377494409070E+01 -.23324322740370E-01
 h     9    1 0.23514918675648E+01 0.40568894753521E+01 -.30529017005560E-01
 h    10    1 0.23514910360853E+01 -.40568888210345E+01 -.30521911635300E-01
 n    11    7 -.52742123095903E+01 0.14763485000000E-06 -.18925267070140E-01
 o    12    8 -.63809534361791E+01 0.20269762391752E+01 -.16457057973460E-01
 o    13    8 -.63809510362269E+01 -.20269772478165E+01 -.16464881439650E-01
 n    14    7 0.52454603626942E+01 -.57046108000000E-06 -.73989411041200E-01
 h    15    1 0.62036818842731E+01 0.16164996606794E+01 0.19711589672944E+00
 h    16    1 0.62036804102867E+01 -.16165023700742E+01 0.19711149366755E+00
[GTO]
    1 0
 s    6 1.00
 0.13575349682000E+05 0.60645503603591E-03
 0.20352333680000E+04 0.46979088884982E-02
 0.46322562359000E+03 0.24332477647552E-01
 0.13120019598000E+03 0.97399968307759E-01
 0.42853015891000E+02 0.30195584253780E+00
 0.15584185766000E+02 0.66233609137875E+00
 s    2 1.00
 0.62067138508000E+01 0.65595308539952E+00
 0.25764896527000E+01 0.37585633285142E+00
 s    1 1.00
 0.57696339419000E+00 0.10000000000000E+01
 s    1 1.00
 0.22972831358000E+00 0.10000000000000E+01
 s    1 1.00
 0.95164440028000E-01 0.10000000000000E+01
 s    1 1.00
 0.48475401370000E-01 0.10000000000000E+01
 p    4 1.00
 0.34697232244000E+02 0.11327220003114E-01
 0.79582622826000E+01 0.76169659202087E-01
 0.23780826883000E+01 0.30192252202676E+00
 0.81433208183000E+00 0.72785027349547E+00
 p    1 1.00
 0.28887547253000E+00 0.10000000000000E+01
 p    1 1.00
 0.10056823671000E+00 0.10000000000000E+01
 d    1 1.00
 0.10970000000000E+01 0.10000000000000E+01
 d    1 1.00
 0.31800000000000E+00 0.10000000000000E+01
 d    1 1.00
 0.90985336424000E-01 0.10000000000000E+01
 f    1 1.00
 0.76100000000000E+00 0.10000000000000E+01
 
    2 0
 s    6 1.00
 0.13575349682000E+05 0.60645503603591E-03
 0.20352333680000E+04 0.46979088884982E-02
 0.46322562359000E+03 0.24332477647552E-01
 0.13120019598000E+03 0.97399968307759E-01
 0.42853015891000E+02 0.30195584253780E+00
 0.15584185766000E+02 0.66233609137875E+00
 s    2 1.00
 0.62067138508000E+01 0.65595308539952E+00
 0.25764896527000E+01 0.37585633285142E+00
 s    1 1.00
 0.57696339419000E+00 0.10000000000000E+01
 s    1 1.00
 0.22972831358000E+00 0.10000000000000E+01
 s    1 1.00
 0.95164440028000E-01 0.10000000000000E+01
 s    1 1.00
 0.48475401370000E-01 0.10000000000000E+01
 p    4 1.00
 0.34697232244000E+02 0.11327220003114E-01
 0.79582622826000E+01 0.76169659202087E-01
 0.23780826883000E+01 0.30192252202676E+00
 0.81433208183000E+00 0.72785027349547E+00
 p    1 1.00
 0.28887547253000E+00 0.10000000000000E+01
 p    1 1.00
 0.10056823671000E+00 0.10000000000000E+01
 d    1 1.00
 0.10970000000000E+01 0.10000000000000E+01
 d    1 1.00
 0.31800000000000E+00 0.10000000000000E+01
 d    1 1.00
 0.90985336424000E-01 0.10000000000000E+01
 f    1 1.00
 0.76100000000000E+00 0.10000000000000E+01
 
    3 0
 s    6 1.00
 0.13575349682000E+05 0.60645503603591E-03
 0.20352333680000E+04 0.46979088884982E-02
 0.46322562359000E+03 0.24332477647552E-01
 0.13120019598000E+03 0.97399968307759E-01
 0.42853015891000E+02 0.30195584253780E+00
 0.15584185766000E+02 0.66233609137875E+00
 s    2 1.00
 0.62067138508000E+01 0.65595308539952E+00
 0.25764896527000E+01 0.37585633285142E+00
 s    1 1.00
 0.57696339419000E+00 0.10000000000000E+01
 s    1 1.00
 0.22972831358000E+00 0.10000000000000E+01
 s    1 1.00
 0.95164440028000E-01 0.10000000000000E+01
 s    1 1.00
 0.48475401370000E-01 0.10000000000000E+01
 p    4 1.00
 0.34697232244000E+02 0.11327220003114E-01
 0.79582622826000E+01 0.76169659202087E-01
 0.23780826883000E+01 0.30192252202676E+00
 0.81433208183000E+00 0.72785027349547E+00
 p    1 1.00
 0.28887547253000E+00 0.10000000000000E+01
 p    1 1.00
 0.10056823671000E+00 0.10000000000000E+01
 d    1 1.00
 0.10970000000000E+01 0.10000000000000E+01
 d    1 1.00
 0.31800000000000E+00 0.10000000000000E+01
 d    1 1.00
 0.90985336424000E-01 0.10000000000000E+01
 f    1 1.00
 0.76100000000000E+00 0.10000000000000E+01
 
    4 0
 s    6 1.00
 0.13575349682000E+05 0.60645503603591E-03
 0.20352333680000E+04 0.46979088884982E-02
 0.46322562359000E+03 0.24332477647552E-01
 0.13120019598000E+03 0.97399968307759E-01
 0.42853015891000E+02 0.30195584253780E+00
 0.15584185766000E+02 0.66233609137875E+00
 s    2 1.00
 0.62067138508000E+01 0.65595308539952E+00
 0.25764896527000E+01 0.37585633285142E+00
 s    1 1.00
 0.57696339419000E+00 0.10000000000000E+01
 s    1 1.00
 0.22972831358000E+00 0.10000000000000E+01
 s    1 1.00
 0.95164440028000E-01 0.10000000000000E+01
 s    1 1.00
 0.48475401370000E-01 0.10000000000000E+01
 p    4 1.00
 0.34697232244000E+02 0.11327220003114E-01
 0.79582622826000E+01 0.76169659202087E-01
 0.23780826883000E+01 0.30192252202676E+00
 0.81433208183000E+00 0.72785027349547E+00
 p    1 1.00
 0.28887547253000E+00 0.10000000000000E+01
 p    1 1.00
 0.10056823671000E+00 0.10000000000000E+01
 d    1 1.00
 0.10970000000000E+01 0.10000000000000E+01
 d    1 1.00
 0.31800000000000E+00 0.10000000000000E+01
 d    1 1.00
 0.90985336424000E-01 0.10000000000000E+01
 f    1 1.00
 0.76100000000000E+00 0.10000000000000E+01
 
    5 0
 s    6 1.00
 0.13575349682000E+05 0.60645503603591E-03
 0.20352333680000E+04 0.46979088884982E-02
 0.46322562359000E+03 0.24332477647552E-01
 0.13120019598000E+03 0.97399968307759E-01
 0.42853015891000E+02 0.30195584253780E+00
 0.15584185766000E+02 0.66233609137875E+00
 s    2 1.00
 0.62067138508000E+01 0.65595308539952E+00
 0.25764896527000E+01 0.37585633285142E+00
 s    1 1.00
 0.57696339419000E+00 0.10000000000000E+01
 s    1 1.00
 0.22972831358000E+00 0.10000000000000E+01
 s    1 1.00
 0.95164440028000E-01 0.10000000000000E+01
 s    1 1.00
 0.48475401370000E-01 0.10000000000000E+01
 p    4 1.00
 0.34697232244000E+02 0.11327220003114E-01
 0.79582622826000E+01 0.76169659202087E-01
 0.23780826883000E+01 0.30192252202676E+00
 0.81433208183000E+00 0.72785027349547E+00
 p    1 1.00
 0.28887547253000E+00 0.10000000000000E+01
 p    1 1.00
 0.10056823671000E+00 0.10000000000000E+01
 d    1 1.00
 0.10970000000000E+01 0.10000000000000E+01
 d    1 1.00
 0.31800000000000E+00 0.10000000000000E+01
 d    1 1.00
 0.90985336424000E-01 0.10000000000000E+01
 f    1 1.00
 0.76100000000000E+00 0.10000000000000E+01
 
    6 0
 s    6 1.00
 0.13575349682000E+05 0.60645503603591E-03
 0.20352333680000E+04 0.46979088884982E-02
 0.46322562359000E+03 0.24332477647552E-01
 0.13120019598000E+03 0.97399968307759E-01
 0.42853015891000E+02 0.30195584253780E+00
 0.15584185766000E+02 0.66233609137875E+00
 s    2 1.00
 0.62067138508000E+01 0.65595308539952E+00
 0.25764896527000E+01 0.37585633285142E+00
 s    1 1.00
 0.57696339419000E+00 0.10000000000000E+01
 s    1 1.00
 0.22972831358000E+00 0.10000000000000E+01
 s    1 1.00
 0.95164440028000E-01 0.10000000000000E+01
 s    1 1.00
 0.48475401370000E-01 0.10000000000000E+01
 p    4 1.00
 0.34697232244000E+02 0.11327220003114E-01
 0.79582622826000E+01 0.76169659202087E-01
 0.23780826883000E+01 0.30192252202676E+00
 0.81433208183000E+00 0.72785027349547E+00
 p    1 1.00
 0.28887547253000E+00 0.10000000000000E+01
 p    1 1.00
 0.10056823671000E+00 0.10000000000000E+01
 d    1 1.00
 0.10970000000000E+01 0.10000000000000E+01
 d    1 1.00
 0.31800000000000E+00 0.10000000000000E+01
 d    1 1.00
 0.90985336424000E-01 0.10000000000000E+01
 f    1 1.00
 0.76100000000000E+00 0.10000000000000E+01
 
    7 0
 s    3 1.00
 0.34061341000000E+02 0.25439307208879E-01
 0.51235746000000E+01 0.19008594890375E+00
 0.11646626000000E+01 0.85244113011042E+00
 s    1 1.00
 0.32723041000000E+00 0.10000000000000E+01
 s    1 1.00
 0.10307241000000E+00 0.10000000000000E+01
 p    1 1.00
 0.80000000000000E+00 0.10000000000000E+01
 p    1 1.00
 0.95774129632000E-01 0.10000000000000E+01
 
    8 0
 s    3 1.00
 0.34061341000000E+02 0.25439307208879E-01
 0.51235746000000E+01 0.19008594890375E+00
 0.11646626000000E+01 0.85244113011042E+00
 s    1 1.00
 0.32723041000000E+00 0.10000000000000E+01
 s    1 1.00
 0.10307241000000E+00 0.10000000000000E+01
 p    1 1.00
 0.80000000000000E+00 0.10000000000000E+01
 p    1 1.00
 0.95774129632000E-01 0.10000000000000E+01
 
    9 0
 s    3 1.00
 0.34061341000000E+02 0.25439307208879E-01
 0.51235746000000E+01 0.19008594890375E+00
 0.11646626000000E+01 0.85244113011042E+00
 s    1 1.00
 0.32723041000000E+00 0.10000000000000E+01
 s    1 1.00
 0.10307241000000E+00 0.10000000000000E+01
 p    1 1.00
 0.80000000000000E+00 0.10000000000000E+01
 p    1 1.00
 0.95774129632000E-01 0.10000000000000E+01
 
   10 0
 s    3 1.00
 0.34061341000000E+02 0.25439307208879E-01
 0.51235746000000E+01 0.19008594890375E+00
 0.11646626000000E+01 0.85244113011042E+00
 s    1 1.00
 0.32723041000000E+00 0.10000000000000E+01
 s    1 1.00
 0.10307241000000E+00 0.10000000000000E+01
 p    1 1.00
 0.80000000000000E+00 0.10000000000000E+01
 p    1 1.00
 0.95774129632000E-01 0.10000000000000E+01
 
   11 0
 s    6 1.00
 0.19730800647000E+05 0.58626402628763E-03
 0.29578958745000E+04 0.45428820586397E-02
 0.67322133595000E+03 0.23558413450084E-01
 0.19068249494000E+03 0.94709193292923E-01
 0.62295441898000E+02 0.29719784913376E+00
 0.22654161182000E+02 0.66916246895232E+00
 s    2 1.00
 0.89791477428000E+01 0.64596683630063E+00
 0.36863002370000E+01 0.38700574393705E+00
 s    1 1.00
 0.84660076805000E+00 0.10000000000000E+01
 s    1 1.00
 0.33647133771000E+00 0.10000000000000E+01
 s    1 1.00
 0.13647653675000E+00 0.10000000000000E+01
 s    1 1.00
 0.68441605847000E-01 0.10000000000000E+01
 p    4 1.00
 0.49200380510000E+02 0.11448825101764E-01
 0.11346790537000E+02 0.78422337970864E-01
 0.34273972411000E+01 0.30818094738830E+00
 0.11785525134000E+01 0.72027196368413E+00
 p    1 1.00
 0.41642204972000E+00 0.10000000000000E+01
 p    1 1.00
 0.14260826011000E+00 0.10000000000000E+01
 d    1 1.00
 0.16540000000000E+01 0.10000000000000E+01
 d    1 1.00
 0.46900000000000E+00 0.10000000000000E+01
 d    1 1.00
 0.12829642058000E+00 0.10000000000000E+01
 f    1 1.00
 0.10930000000000E+01 0.10000000000000E+01
 
   12 0
 s    6 1.00
 0.27032382631000E+05 0.57227335211155E-03
 0.40523871392000E+04 0.44353233492995E-02
 0.92232722710000E+03 0.23020107706038E-01
 0.26124070989000E+03 0.92822490667928E-01
 0.85354641351000E+02 0.29378500009671E+00
 0.31035035245000E+02 0.67401604501641E+00
 s    2 1.00
 0.12260860728000E+02 0.63839937025506E+00
 0.49987076005000E+01 0.39534587125718E+00
 s    1 1.00
 0.11703108158000E+01 0.10000000000000E+01
 s    1 1.00
 0.46474740994000E+00 0.10000000000000E+01
 s    1 1.00
 0.18504536357000E+00 0.10000000000000E+01
 s    1 1.00
 0.70288026270000E-01 0.10000000000000E+01
 p    4 1.00
 0.63274954801000E+02 0.12018332222616E-01
 0.14627049379000E+02 0.83005421790056E-01
 0.44501223456000E+01 0.31991743925964E+00
 0.15275799647000E+01 0.70715542916104E+00
 p    1 1.00
 0.52935117943000E+00 0.10000000000000E+01
 p    1 1.00
 0.17478421270000E+00 0.10000000000000E+01
 p    1 1.00
 0.51112745706000E-01 0.10000000000000E+01
 d    1 1.00
 0.23140000000000E+01 0.10000000000000E+01
 d    1 1.00
 0.64500000000000E+00 0.10000000000000E+01
 d    1 1.00
 0.14696477366000E+00 0.10000000000000E+01
 f    1 1.00
 0.14280000000000E+01 0.10000000000000E+01
 
   13 0
 s    6 1.00
 0.27032382631000E+05 0.57227335211155E-03
 0.40523871392000E+04 0.44353233492995E-02
 0.92232722710000E+03 0.23020107706038E-01
 0.26124070989000E+03 0.92822490667928E-01
 0.85354641351000E+02 0.29378500009671E+00
 0.31035035245000E+02 0.67401604501641E+00
 s    2 1.00
 0.12260860728000E+02 0.63839937025506E+00
 0.49987076005000E+01 0.39534587125718E+00
 s    1 1.00
 0.11703108158000E+01 0.10000000000000E+01
 s    1 1.00
 0.46474740994000E+00 0.10000000000000E+01
 s    1 1.00
 0.18504536357000E+00 0.10000000000000E+01
 s    1 1.00
 0.70288026270000E-01 0.10000000000000E+01
 p    4 1.00
 0.63274954801000E+02 0.12018332222616E-01
 0.14627049379000E+02 0.83005421790056E-01
 0.44501223456000E+01 0.31991743925964E+00
 0.15275799647000E+01 0.70715542916104E+00
 p    1 1.00
 0.52935117943000E+00 0.10000000000000E+01
 p    1 1.00
 0.17478421270000E+00 0.10000000000000E+01
 p    1 1.00
 0.51112745706000E-01 0.10000000000000E+01
 d    1 1.00
 0.23140000000000E+01 0.10000000000000E+01
 d    1 1.00
 0.64500000000000E+00 0.10000000000000E+01
 d    1 1.00
 0.14696477366000E+00 0.10000000000000E+01
 f    1 1.00
 0.14280000000000E+01 0.10000000000000E+01
 
   14 0
 s    6 1.00
 0.19730800647000E+05 0.58626402628763E-03
 0.29578958745000E+04 0.45428820586397E-02
 0.67322133595000E+03 0.23558413450084E-01
 0.19068249494000E+03 0.94709193292923E-01
 0.62295441898000E+02 0.29719784913376E+00
 0.22654161182000E+02 0.66916246895232E+00
 s    2 1.00
 0.89791477428000E+01 0.64596683630063E+00
 0.36863002370000E+01 0.38700574393705E+00
 s    1 1.00
 0.84660076805000E+00 0.10000000000000E+01
 s    1 1.00
 0.33647133771000E+00 0.10000000000000E+01
 s    1 1.00
 0.13647653675000E+00 0.10000000000000E+01
 s    1 1.00
 0.68441605847000E-01 0.10000000000000E+01
 p    4 1.00
 0.49200380510000E+02 0.11448825101764E-01
 0.11346790537000E+02 0.78422337970864E-01
 0.34273972411000E+01 0.30818094738830E+00
 0.11785525134000E+01 0.72027196368413E+00
 p    1 1.00
 0.41642204972000E+00 0.10000000000000E+01
 p    1 1.00
 0.14260826011000E+00 0.10000000000000E+01
 d    1 1.00
 0.16540000000000E+01 0.10000000000000E+01
 d    1 1.00
 0.46900000000000E+00 0.10000000000000E+01
 d    1 1.00
 0.12829642058000E+00 0.10000000000000E+01
 f    1 1.00
 0.10930000000000E+01 0.10000000000000E+01
 
   15 0
 s    3 1.00
 0.34061341000000E+02 0.25439307208879E-01
 0.51235746000000E+01 0.19008594890375E+00
 0.11646626000000E+01 0.85244113011042E+00
 s    1 1.00
 0.32723041000000E+00 0.10000000000000E+01
 s    1 1.00
 0.10307241000000E+00 0.10000000000000E+01
 p    1 1.00
 0.80000000000000E+00 0.10000000000000E+01
 p    1 1.00
 0.95774129632000E-01 0.10000000000000E+01
 
   16 0
 s    3 1.00
 0.34061341000000E+02 0.25439307208879E-01
 0.51235746000000E+01 0.19008594890375E+00
 0.11646626000000E+01 0.85244113011042E+00
 s    1 1.00
 0.32723041000000E+00 0.10000000000000E+01
 s    1 1.00
 0.10307241000000E+00 0.10000000000000E+01
 p    1 1.00
 0.80000000000000E+00 0.10000000000000E+01
 p    1 1.00
 0.95774129632000E-01 0.10000000000000E+01
 
[MO]
 Sym= X
 Ene= -0.852958
 Spin= Alpha
 Occup= -0.852958
         1   -1.573741E-04
         2   -3.660001E-04
         3    1.047259E-03
         4   -2.411203E-03
         5   -1.009482E-02
         6   -9.976310E-03
         7    1.524004E-03
         8    2.184645E-04
         9    3.926714E-02
        10   -2.141866E-03
        11    3.929206E-04
        12    3.720166E-02
        13   -3.337086E-02
        14    1.026887E-02
        15    9.183362E-03
        16    2.322783E-06
        17   -1.356008E-05
        18    1.123730E-05
        19   -1.128655E-05
        20   -6.290208E-03
        21    4.257013E-03
        22   -6.021771E-04
        23    3.616193E-04
        24    2.405578E-04
        25   -6.329573E-04
        26   -1.425253E-02
        27    7.930179E-03
        28   -4.896766E-03
        29    4.583202E-03
        30    3.135635E-04
        31    9.082265E-04
        32    9.614217E-04
        33   -1.023614E-02
        34   -1.758847E-05
        35    6.524076E-06
        36   -2.272183E-04
        37    7.672736E-06
        38   -6.657303E-06
        39   -6.308144E-04
        40    1.592468E-05
        41   -2.095664E-06
        42    9.356598E-04
        43   -7.386976E-04
        44    2.518904E-05
        45    5.524054E-05
        46    1.118140E-04
        47   -2.410161E-03
        48   -4.915411E-02
        49    4.446650E-03
        50    4.331359E-04
        51    4.196801E-06
        52    2.222016E-01
        53   -2.856243E-04
        54    2.379885E-05
        55    2.300650E-01
        56   -1.557133E-02
        57   -5.820587E-04
        58    2.093357E-01
        59    3.619053E-05
        60   -3.265224E-05
        61   -3.538291E-06
        62    2.494507E-07
        63   -3.324354E-04
        64    1.179618E-08
        65    3.322100E-04
        66   -5.573816E-04
        67    2.251717E-04
        68    4.227961E-06
        69   -2.767304E-03
        70    8.408770E-08
        71    7.966444E-03
        72   -9.036168E-03
        73    1.069724E-03
        74   -1.007304E-04
        75    5.767601E-03
        76   -1.568728E-05
        77    7.526993E-06
        78    9.162693E-08
        79   -1.278637E-03
        80   -5.929311E-06
        81   -1.142259E-08
        82    7.379038E-04
        83   -4.169210E-06
        84   -1.115078E-07
        85    9.775676E-04
        86    3.760905E-08
        87   -1.584582E-04
        88   -3.684743E-04
        89    1.054522E-03
        90   -2.434921E-03
        91   -8.837362E-03
        92   -9.938329E-03
        93    1.518749E-03
        94   -2.206280E-04
        95    3.926930E-02
        96   -2.118626E-03
        97   -3.837859E-04
        98    3.720002E-02
        99   -3.368460E-02
       100   -1.077601E-02
       101    9.176197E-03
       102    2.225545E-06
       103   -1.334443E-05
       104    1.111889E-05
       105    1.166556E-05
       106   -6.290206E-03
       107   -4.257138E-03
       108   -5.977794E-04
       109    3.559435E-04
       110    2.418359E-04
       111    6.287444E-04
       112   -1.425300E-02
       113   -7.928912E-03
       114   -5.005561E-03
       115    4.699131E-03
       116    3.064301E-04
       117   -8.053516E-04
       118    9.440869E-04
       119    1.023496E-02
       120   -1.763964E-05
       121   -6.499788E-06
       122   -2.271296E-04
       123    7.861316E-06
       124    6.641012E-06
       125   -6.309345E-04
       126    1.580475E-05
       127    2.079369E-06
       128    9.356608E-04
       129    7.386130E-04
       130    9.283231E-05
       131    1.982480E-04
       132    5.770432E-04
       133   -9.330583E-03
       134    2.970554E-02
       135    1.104763E-02
       136   -1.170411E-03
       137    6.217432E-04
       138   -1.462687E-01
       139   -8.146279E-03
       140    5.568142E-03
       141   -1.491904E-01
       142   -2.370307E-02
       143   -6.568861E-03
       144   -9.081917E-02
       145    1.288235E-04
       146   -1.546514E-04
       147    2.582790E-05
       148    1.830254E-07
       149   -1.253407E-03
       150    2.956002E-03
       151    5.694555E-04
       152   -6.836670E-04
       153    1.142114E-04
       154    1.518100E-03
       155   -4.795336E-03
       156    5.040495E-03
       157    7.466299E-03
       158   -5.803305E-03
       159   -1.662994E-03
       160   -7.755279E-03
       161    3.189191E-03
       162   -1.136893E-02
       163   -1.360860E-05
       164    8.614199E-06
       165    8.020075E-04
       166   -1.685106E-05
       167    1.546492E-05
       168   -1.425616E-04
       169    3.510891E-05
       170   -2.702208E-05
       171   -9.334444E-04
       172    3.663684E-04
       173   -9.581942E-04
       174   -2.182780E-03
       175    2.145470E-03
       176    1.992615E-02
       177   -1.066097E-02
       178    9.594583E-03
       179    7.892534E-03
       180   -1.624000E-06
       181   -1.169518E-01
       182    4.850514E-04
       183   -9.892838E-06
       184   -1.194928E-01
       185   -2.145442E-02
       186    8.429886E-04
       187   -1.309615E-01
       188    4.229742E-04
       189   -2.349361E-04
       190   -1.880381E-04
       191    3.492073E-07
       192    9.176100E-03
       193    2.772341E-07
       194   -1.623390E-03
       195    3.648650E-03
       196   -2.025260E-03
       197    3.281531E-07
       198    2.287633E-02
       199   -2.163881E-06
       200   -5.100180E-03
       201    6.339874E-03
       202   -1.239693E-03
       203   -1.165704E-04
       204    1.829488E-02
       205    2.817057E-06
       206    1.035122E-04
       207    1.652748E-08
       208    3.686778E-04
       209   -7.305146E-05
       210   -3.928304E-08
       211    9.329004E-04
       212   -6.582472E-05
       213    1.710909E-08
       214   -1.427534E-03
       215    6.298139E-08
       216    9.267742E-05
       217    1.976778E-04
       218    5.796504E-04
       219   -9.342875E-03
       220    3.128516E-02
       221    1.107002E-02
       222   -1.173417E-03
       223   -6.129865E-04
       224   -1.462710E-01
       225   -8.158336E-03
       226   -5.567483E-03
       227   -1.491965E-01
       228   -2.325168E-02
       229    7.354284E-03
       230   -9.083781E-02
       231    1.288600E-04
       232   -1.550291E-04
       233    2.616907E-05
       234    2.332070E-07
       235   -1.253636E-03
       236   -2.955996E-03
       237    5.723721E-04
       238   -6.850835E-04
       239    1.127114E-04
       240   -1.521690E-03
       241   -4.792680E-03
       242   -5.040772E-03
       243    7.386892E-03
       244   -5.722691E-03
       245   -1.664202E-03
       246    7.882503E-03
       247    3.213508E-03
       248    1.136955E-02
       249   -1.375554E-05
       250   -8.651874E-06
       251    8.021729E-04
       252   -1.680837E-05
       253   -1.542918E-05
       254   -1.427692E-04
       255    3.526335E-05
       256    2.703688E-05
       257   -9.334587E-04
       258   -3.664044E-04
       259   -3.420854E-04
       260   -2.163402E-04
       261   -1.539017E-02
       262   -1.185440E-05
       263   -1.548923E-06
       264    1.473745E-03
       265   -4.799166E-03
       266   -1.380093E-04
       267   -6.601481E-03
       268   -3.420393E-04
       269   -2.090625E-04
       270   -1.537824E-02
       271   -1.082388E-05
       272    4.067276E-07
       273    1.473711E-03
       274   -4.895788E-03
       275    1.052350E-04
       276   -6.607799E-03
       277   -3.432690E-04
       278   -2.053741E-03
       279    3.031190E-02
       280   -1.222200E-05
       281    8.478271E-05
       282   -6.013838E-03
       283   -1.198509E-03
       284   -2.492546E-03
       285    9.915333E-04
       286   -3.478330E-04
       287   -2.066113E-03
       288    3.058312E-02
       289   -1.156398E-05
       290   -8.556317E-05
       291   -6.014660E-03
       292   -1.176518E-03
       293    2.543339E-03
       294    9.793957E-04
       295   -3.751276E-05
       296   -8.634616E-05
       297    6.666811E-05
       298    3.571974E-04
       299   -5.800878E-03
       300    1.430570E-03
       301    3.889905E-04
       302    2.236775E-06
       303    8.378967E-03
       304    1.232660E-04
       305    3.357059E-06
       306    1.138230E-02
       307   -2.567193E-03
       308    2.490547E-05
       309    7.695415E-03
       310    2.010184E-05
       311   -3.177457E-06
       312   -1.692438E-05
       313   -6.820608E-07
       314    4.976311E-03
       315    4.589985E-08
       316    9.438431E-06
       317    6.046207E-05
       318   -6.990050E-05
       319   -2.628509E-06
       320    1.474201E-02
       321   -5.042836E-08
       322   -9.838606E-04
       323    2.591571E-03
       324   -1.607710E-03
       325    1.987619E-05
       326    3.465407E-03
       327    5.541190E-06
       328    6.696304E-06
       329   -1.667562E-07
       330    8.600329E-05
       331   -4.747179E-06
       332    2.602903E-07
       333    7.400798E-04
       334   -4.236855E-06
       335   -3.656333E-08
       336   -8.554653E-04
       337   -5.814752E-09
       338   -1.511009E-05
       339   -3.372093E-05
       340    1.034393E-05
       341    4.744005E-04
       342   -5.215102E-03
       343   -8.193686E-04
       344   -2.051020E-04
       345    1.193133E-04
       346   -9.353380E-02
       347   -2.779565E-04
       348    2.347115E-04
       349   -8.653240E-02
       350   -1.363379E-03
       351    4.071448E-04
       352   -6.801258E-02
       353   -1.358375E-04
       354    2.052106E-04
       355   -7.966628E-03
       356    3.214883E-06
       357   -4.296414E-06
       358    1.081531E-06
       359    7.172517E-07
       360   -8.715111E-05
       361    6.939334E-04
       362   -1.213178E-05
       363   -9.834628E-06
       364    2.196641E-05
       365    1.126307E-05
       366   -8.611024E-04
       367    2.227679E-03
       368   -8.127791E-05
       369    6.243236E-05
       370    1.884555E-05
       371    9.043201E-05
       372   -4.539963E-04
       373    4.502108E-04
       374    7.687752E-07
       375    1.589784E-06
       376    1.043748E-04
       377   -1.394563E-06
       378   -2.504256E-07
       379    9.345700E-05
       380    3.631427E-07
       381   -1.882494E-06
       382   -2.334904E-04
       383    1.925910E-04
       384   -1.480931E-05
       385   -3.301063E-05
       386    9.827815E-06
       387    4.696342E-04
       388   -5.204262E-03
       389   -7.884588E-04
       390   -1.622433E-04
       391   -1.540510E-04
       392   -9.353519E-02
       393   -2.383875E-04
       394   -2.643429E-04
       395   -8.653470E-02
       396   -1.311740E-03
       397   -4.217263E-04
       398   -6.800357E-02
       399   -1.166196E-04
       400   -2.129549E-04
       401   -7.966512E-03
       402    3.548419E-06
       403   -4.726313E-06
       404    1.177893E-06
       405   -7.597866E-07
       406   -8.718333E-05
       407   -6.939466E-04
       408   -1.103738E-05
       409   -1.067307E-05
       410    2.171046E-05
       411   -1.056915E-05
       412   -8.610282E-04
       413   -2.227734E-03
       414   -7.931527E-05
       415    6.258234E-05
       416    1.673293E-05
       417   -9.026647E-05
       418   -4.537737E-04
       419   -4.487628E-04
       420    8.063406E-07
       421   -1.700594E-06
       422    1.043795E-04
       423   -1.435769E-06
       424    3.842237E-07
       425    9.345585E-05
       426    3.539496E-07
       427    1.897362E-06
       428   -2.334957E-04
       429   -1.925990E-04
       430    4.447792E-03
       431    1.055168E-02
       432   -1.640634E-02
       433   -2.540367E-02
       434   -2.151736E-02
       435   -6.552113E-02
       436   -1.546369E-02
       437    7.141111E-06
       438    2.295273E-01
       439   -1.761987E-02
       440    7.348561E-07
       441    2.270936E-01
       442   -1.532257E-02
       443   -9.614904E-05
       444    1.890160E-01
       445   -8.941151E-05
       446   -1.719643E-06
       447    9.113115E-05
       448    2.296062E-07
       449    9.195321E-04
       450    2.012284E-07
       451   -2.388451E-04
       452   -1.328883E-03
       453    1.567728E-03
       454   -3.508488E-06
       455    3.894950E-03
       456    1.348743E-06
       457   -1.960616E-03
       458   -2.457089E-03
       459    4.417706E-03
       460   -3.716731E-06
       461    2.150859E-03
       462    7.148002E-06
       463   -1.301229E-04
       464    2.708477E-08
       465   -8.812606E-04
       466   -7.607798E-05
       467   -1.273591E-09
       468    4.374771E-04
       469    2.506562E-04
       470   -3.506444E-08
       471    7.448581E-04
       472    3.971414E-09
       473    8.723356E-03
       474    1.633604E-02
       475    2.745122E-02
       476   -2.017487E-03
       477   -1.705642E-03
       478    1.173228E-02
       479    1.647894E-03
       480   -3.304956E-03
       481    1.430443E-02
       482    8.718299E-03
       483    1.627540E-02
       484    2.728028E-02
       485   -2.014521E-03
       486    1.699766E-03
       487    1.173529E-02
       488    1.662924E-03
       489    3.271444E-03
       490    1.431138E-02
 Sym= X
 Ene= 0.852958
 Spin= Alpha
 Occup= 0.852958
         1    3.630602E-05
         2    8.846748E-05
         3   -3.964292E-04
         4    9.714697E-04
         5    9.900861E-02
         6   -5.251964E-03
         7   -2.719233E-04
         8   -6.825744E-05
         9   -1.369997E-01
        10    6.031130E-05
        11    1.249499E-04
        12   -1.399954E-01
        13    4.983064E-02
        14   -3.476633E-02
        15   -9.134333E-02
        16   -1.962706E-05
        17    3.137490E-06
        18    1.648957E-05
        19   -2.174702E-06
        20   -1.361430E-03
        21    1.207775E-03
        22    3.169904E-04
        23   -1.395678E-04
        24   -1.774226E-04
        25   -2.683178E-06
        26    1.519939E-03
        27    4.994554E-03
        28    1.882663E-02
        29   -1.958738E-02
        30    7.607434E-04
        31    3.856841E-03
        32    3.125639E-03
        33    1.833280E-02
        34    9.698920E-06
        35   -7.417049E-07
        36    1.311233E-04
        37   -9.499514E-06
        38   -1.411946E-06
        39    7.623388E-06
        40   -3.512952E-06
        41    2.407047E-06
        42   -1.835437E-04
        43   -1.877164E-04
        44    2.180097E-05
        45    4.095479E-05
        46    2.521762E-04
        47   -4.864736E-03
        48    1.528407E-01
        49    2.176434E-02
        50    7.145268E-05
        51   -3.088956E-08
        52    7.038907E-02
        53   -3.539108E-04
        54   -7.459208E-06
        55    7.696533E-02
        56    5.675470E-02
        57   -2.708825E-04
        58    5.005627E-02
        59   -3.852980E-05
        60   -1.548186E-05
        61    5.401166E-05
        62    1.412571E-07