[Molden Format]
[Title]
ADC(2) - opt by CAM-B3LYP gaussian                                              
[Atoms] AU
 c     1    6 -.12589065566052E+01 -.22830902054421E+01 -.26005390588660E-01
 c     2    6 -.25569912224779E+01 0.86573078000000E-06 -.24733756079320E-01
 c     3    6 -.12589060841737E+01 0.22830907841707E+01 -.26008073999770E-01
 c     4    6 0.13324295737882E+01 0.22846183820847E+01 -.28114684000920E-01
 c     5    6 0.26867573459717E+01 0.39329925000000E-06 -.27723246129760E-01
 c     6    6 0.13324281942881E+01 -.22846180679178E+01 -.28111244699360E-01
 h     7    1 -.22982509786098E+01 -.40377481062879E+01 -.23319125993500E-01
 h     8    1 -.22982490510892E+01 0.40377494409070E+01 -.23324322740370E-01
 h     9    1 0.23514918675648E+01 0.40568894753521E+01 -.30529017005560E-01
 h    10    1 0.23514910360853E+01 -.40568888210345E+01 -.30521911635300E-01
 n    11    7 -.52742123095903E+01 0.14763485000000E-06 -.18925267070140E-01
 o    12    8 -.63809534361791E+01 0.20269762391752E+01 -.16457057973460E-01
 o    13    8 -.63809510362269E+01 -.20269772478165E+01 -.16464881439650E-01
 n    14    7 0.52454603626942E+01 -.57046108000000E-06 -.73989411041200E-01
 h    15    1 0.62036818842731E+01 0.16164996606794E+01 0.19711589672944E+00
 h    16    1 0.62036804102867E+01 -.16165023700742E+01 0.19711149366755E+00
[GTO]
    1 0
 s    6 1.00
 0.13575349682000E+05 0.60645503603591E-03
 0.20352333680000E+04 0.46979088884982E-02
 0.46322562359000E+03 0.24332477647552E-01
 0.13120019598000E+03 0.97399968307759E-01
 0.42853015891000E+02 0.30195584253780E+00
 0.15584185766000E+02 0.66233609137875E+00
 s    2 1.00
 0.62067138508000E+01 0.65595308539952E+00
 0.25764896527000E+01 0.37585633285142E+00
 s    1 1.00
 0.57696339419000E+00 0.10000000000000E+01
 s    1 1.00
 0.22972831358000E+00 0.10000000000000E+01
 s    1 1.00
 0.95164440028000E-01 0.10000000000000E+01
 s    1 1.00
 0.48475401370000E-01 0.10000000000000E+01
 p    4 1.00
 0.34697232244000E+02 0.11327220003114E-01
 0.79582622826000E+01 0.76169659202087E-01
 0.23780826883000E+01 0.30192252202676E+00
 0.81433208183000E+00 0.72785027349547E+00
 p    1 1.00
 0.28887547253000E+00 0.10000000000000E+01
 p    1 1.00
 0.10056823671000E+00 0.10000000000000E+01
 d    1 1.00
 0.10970000000000E+01 0.10000000000000E+01
 d    1 1.00
 0.31800000000000E+00 0.10000000000000E+01
 d    1 1.00
 0.90985336424000E-01 0.10000000000000E+01
 f    1 1.00
 0.76100000000000E+00 0.10000000000000E+01
 
    2 0
 s    6 1.00
 0.13575349682000E+05 0.60645503603591E-03
 0.20352333680000E+04 0.46979088884982E-02
 0.46322562359000E+03 0.24332477647552E-01
 0.13120019598000E+03 0.97399968307759E-01
 0.42853015891000E+02 0.30195584253780E+00
 0.15584185766000E+02 0.66233609137875E+00
 s    2 1.00
 0.62067138508000E+01 0.65595308539952E+00
 0.25764896527000E+01 0.37585633285142E+00
 s    1 1.00
 0.57696339419000E+00 0.10000000000000E+01
 s    1 1.00
 0.22972831358000E+00 0.10000000000000E+01
 s    1 1.00
 0.95164440028000E-01 0.10000000000000E+01
 s    1 1.00
 0.48475401370000E-01 0.10000000000000E+01
 p    4 1.00
 0.34697232244000E+02 0.11327220003114E-01
 0.79582622826000E+01 0.76169659202087E-01
 0.23780826883000E+01 0.30192252202676E+00
 0.81433208183000E+00 0.72785027349547E+00
 p    1 1.00
 0.28887547253000E+00 0.10000000000000E+01
 p    1 1.00
 0.10056823671000E+00 0.10000000000000E+01
 d    1 1.00
 0.10970000000000E+01 0.10000000000000E+01
 d    1 1.00
 0.31800000000000E+00 0.10000000000000E+01
 d    1 1.00
 0.90985336424000E-01 0.10000000000000E+01
 f    1 1.00
 0.76100000000000E+00 0.10000000000000E+01
 
    3 0
 s    6 1.00
 0.13575349682000E+05 0.60645503603591E-03
 0.20352333680000E+04 0.46979088884982E-02
 0.46322562359000E+03 0.24332477647552E-01
 0.13120019598000E+03 0.97399968307759E-01
 0.42853015891000E+02 0.30195584253780E+00
 0.15584185766000E+02 0.66233609137875E+00
 s    2 1.00
 0.62067138508000E+01 0.65595308539952E+00
 0.25764896527000E+01 0.37585633285142E+00
 s    1 1.00
 0.57696339419000E+00 0.10000000000000E+01
 s    1 1.00
 0.22972831358000E+00 0.10000000000000E+01
 s    1 1.00
 0.95164440028000E-01 0.10000000000000E+01
 s    1 1.00
 0.48475401370000E-01 0.10000000000000E+01
 p    4 1.00
 0.34697232244000E+02 0.11327220003114E-01
 0.79582622826000E+01 0.76169659202087E-01
 0.23780826883000E+01 0.30192252202676E+00
 0.81433208183000E+00 0.72785027349547E+00
 p    1 1.00
 0.28887547253000E+00 0.10000000000000E+01
 p    1 1.00
 0.10056823671000E+00 0.10000000000000E+01
 d    1 1.00
 0.10970000000000E+01 0.10000000000000E+01
 d    1 1.00
 0.31800000000000E+00 0.10000000000000E+01
 d    1 1.00
 0.90985336424000E-01 0.10000000000000E+01
 f    1 1.00
 0.76100000000000E+00 0.10000000000000E+01
 
    4 0
 s    6 1.00
 0.13575349682000E+05 0.60645503603591E-03
 0.20352333680000E+04 0.46979088884982E-02
 0.46322562359000E+03 0.24332477647552E-01
 0.13120019598000E+03 0.97399968307759E-01
 0.42853015891000E+02 0.30195584253780E+00
 0.15584185766000E+02 0.66233609137875E+00
 s    2 1.00
 0.62067138508000E+01 0.65595308539952E+00
 0.25764896527000E+01 0.37585633285142E+00
 s    1 1.00
 0.57696339419000E+00 0.10000000000000E+01
 s    1 1.00
 0.22972831358000E+00 0.10000000000000E+01
 s    1 1.00
 0.95164440028000E-01 0.10000000000000E+01
 s    1 1.00
 0.48475401370000E-01 0.10000000000000E+01
 p    4 1.00
 0.34697232244000E+02 0.11327220003114E-01
 0.79582622826000E+01 0.76169659202087E-01
 0.23780826883000E+01 0.30192252202676E+00
 0.81433208183000E+00 0.72785027349547E+00
 p    1 1.00
 0.28887547253000E+00 0.10000000000000E+01
 p    1 1.00
 0.10056823671000E+00 0.10000000000000E+01
 d    1 1.00
 0.10970000000000E+01 0.10000000000000E+01
 d    1 1.00
 0.31800000000000E+00 0.10000000000000E+01
 d    1 1.00
 0.90985336424000E-01 0.10000000000000E+01
 f    1 1.00
 0.76100000000000E+00 0.10000000000000E+01
 
    5 0
 s    6 1.00
 0.13575349682000E+05 0.60645503603591E-03
 0.20352333680000E+04 0.46979088884982E-02
 0.46322562359000E+03 0.24332477647552E-01
 0.13120019598000E+03 0.97399968307759E-01
 0.42853015891000E+02 0.30195584253780E+00
 0.15584185766000E+02 0.66233609137875E+00
 s    2 1.00
 0.62067138508000E+01 0.65595308539952E+00
 0.25764896527000E+01 0.37585633285142E+00
 s    1 1.00
 0.57696339419000E+00 0.10000000000000E+01
 s    1 1.00
 0.22972831358000E+00 0.10000000000000E+01
 s    1 1.00
 0.95164440028000E-01 0.10000000000000E+01
 s    1 1.00
 0.48475401370000E-01 0.10000000000000E+01
 p    4 1.00
 0.34697232244000E+02 0.11327220003114E-01
 0.79582622826000E+01 0.76169659202087E-01
 0.23780826883000E+01 0.30192252202676E+00
 0.81433208183000E+00 0.72785027349547E+00
 p    1 1.00
 0.28887547253000E+00 0.10000000000000E+01
 p    1 1.00
 0.10056823671000E+00 0.10000000000000E+01
 d    1 1.00
 0.10970000000000E+01 0.10000000000000E+01
 d    1 1.00
 0.31800000000000E+00 0.10000000000000E+01
 d    1 1.00
 0.90985336424000E-01 0.10000000000000E+01
 f    1 1.00
 0.76100000000000E+00 0.10000000000000E+01
 
    6 0
 s    6 1.00
 0.13575349682000E+05 0.60645503603591E-03
 0.20352333680000E+04 0.46979088884982E-02
 0.46322562359000E+03 0.24332477647552E-01
 0.13120019598000E+03 0.97399968307759E-01
 0.42853015891000E+02 0.30195584253780E+00
 0.15584185766000E+02 0.66233609137875E+00
 s    2 1.00
 0.62067138508000E+01 0.65595308539952E+00
 0.25764896527000E+01 0.37585633285142E+00
 s    1 1.00
 0.57696339419000E+00 0.10000000000000E+01
 s    1 1.00
 0.22972831358000E+00 0.10000000000000E+01
 s    1 1.00
 0.95164440028000E-01 0.10000000000000E+01
 s    1 1.00
 0.48475401370000E-01 0.10000000000000E+01
 p    4 1.00
 0.34697232244000E+02 0.11327220003114E-01
 0.79582622826000E+01 0.76169659202087E-01
 0.23780826883000E+01 0.30192252202676E+00
 0.81433208183000E+00 0.72785027349547E+00
 p    1 1.00
 0.28887547253000E+00 0.10000000000000E+01
 p    1 1.00
 0.10056823671000E+00 0.10000000000000E+01
 d    1 1.00
 0.10970000000000E+01 0.10000000000000E+01
 d    1 1.00
 0.31800000000000E+00 0.10000000000000E+01
 d    1 1.00
 0.90985336424000E-01 0.10000000000000E+01
 f    1 1.00
 0.76100000000000E+00 0.10000000000000E+01
 
    7 0
 s    3 1.00
 0.34061341000000E+02 0.25439307208879E-01
 0.51235746000000E+01 0.19008594890375E+00
 0.11646626000000E+01 0.85244113011042E+00
 s    1 1.00
 0.32723041000000E+00 0.10000000000000E+01
 s    1 1.00
 0.10307241000000E+00 0.10000000000000E+01
 p    1 1.00
 0.80000000000000E+00 0.10000000000000E+01
 p    1 1.00
 0.95774129632000E-01 0.10000000000000E+01
 
    8 0
 s    3 1.00
 0.34061341000000E+02 0.25439307208879E-01
 0.51235746000000E+01 0.19008594890375E+00
 0.11646626000000E+01 0.85244113011042E+00
 s    1 1.00
 0.32723041000000E+00 0.10000000000000E+01
 s    1 1.00
 0.10307241000000E+00 0.10000000000000E+01
 p    1 1.00
 0.80000000000000E+00 0.10000000000000E+01
 p    1 1.00
 0.95774129632000E-01 0.10000000000000E+01
 
    9 0
 s    3 1.00
 0.34061341000000E+02 0.25439307208879E-01
 0.51235746000000E+01 0.19008594890375E+00
 0.11646626000000E+01 0.85244113011042E+00
 s    1 1.00
 0.32723041000000E+00 0.10000000000000E+01
 s    1 1.00
 0.10307241000000E+00 0.10000000000000E+01
 p    1 1.00
 0.80000000000000E+00 0.10000000000000E+01
 p    1 1.00
 0.95774129632000E-01 0.10000000000000E+01
 
   10 0
 s    3 1.00
 0.34061341000000E+02 0.25439307208879E-01
 0.51235746000000E+01 0.19008594890375E+00
 0.11646626000000E+01 0.85244113011042E+00
 s    1 1.00
 0.32723041000000E+00 0.10000000000000E+01
 s    1 1.00
 0.10307241000000E+00 0.10000000000000E+01
 p    1 1.00
 0.80000000000000E+00 0.10000000000000E+01
 p    1 1.00
 0.95774129632000E-01 0.10000000000000E+01
 
   11 0
 s    6 1.00
 0.19730800647000E+05 0.58626402628763E-03
 0.29578958745000E+04 0.45428820586397E-02
 0.67322133595000E+03 0.23558413450084E-01
 0.19068249494000E+03 0.94709193292923E-01
 0.62295441898000E+02 0.29719784913376E+00
 0.22654161182000E+02 0.66916246895232E+00
 s    2 1.00
 0.89791477428000E+01 0.64596683630063E+00
 0.36863002370000E+01 0.38700574393705E+00
 s    1 1.00
 0.84660076805000E+00 0.10000000000000E+01
 s    1 1.00
 0.33647133771000E+00 0.10000000000000E+01
 s    1 1.00
 0.13647653675000E+00 0.10000000000000E+01
 s    1 1.00
 0.68441605847000E-01 0.10000000000000E+01
 p    4 1.00
 0.49200380510000E+02 0.11448825101764E-01
 0.11346790537000E+02 0.78422337970864E-01
 0.34273972411000E+01 0.30818094738830E+00
 0.11785525134000E+01 0.72027196368413E+00
 p    1 1.00
 0.41642204972000E+00 0.10000000000000E+01
 p    1 1.00
 0.14260826011000E+00 0.10000000000000E+01
 d    1 1.00
 0.16540000000000E+01 0.10000000000000E+01
 d    1 1.00
 0.46900000000000E+00 0.10000000000000E+01
 d    1 1.00
 0.12829642058000E+00 0.10000000000000E+01
 f    1 1.00
 0.10930000000000E+01 0.10000000000000E+01
 
   12 0
 s    6 1.00
 0.27032382631000E+05 0.57227335211155E-03
 0.40523871392000E+04 0.44353233492995E-02
 0.92232722710000E+03 0.23020107706038E-01
 0.26124070989000E+03 0.92822490667928E-01
 0.85354641351000E+02 0.29378500009671E+00
 0.31035035245000E+02 0.67401604501641E+00
 s    2 1.00
 0.12260860728000E+02 0.63839937025506E+00
 0.49987076005000E+01 0.39534587125718E+00
 s    1 1.00
 0.11703108158000E+01 0.10000000000000E+01
 s    1 1.00
 0.46474740994000E+00 0.10000000000000E+01
 s    1 1.00
 0.18504536357000E+00 0.10000000000000E+01
 s    1 1.00
 0.70288026270000E-01 0.10000000000000E+01
 p    4 1.00
 0.63274954801000E+02 0.12018332222616E-01
 0.14627049379000E+02 0.83005421790056E-01
 0.44501223456000E+01 0.31991743925964E+00
 0.15275799647000E+01 0.70715542916104E+00
 p    1 1.00
 0.52935117943000E+00 0.10000000000000E+01
 p    1 1.00
 0.17478421270000E+00 0.10000000000000E+01
 p    1 1.00
 0.51112745706000E-01 0.10000000000000E+01
 d    1 1.00
 0.23140000000000E+01 0.10000000000000E+01
 d    1 1.00
 0.64500000000000E+00 0.10000000000000E+01
 d    1 1.00
 0.14696477366000E+00 0.10000000000000E+01
 f    1 1.00
 0.14280000000000E+01 0.10000000000000E+01
 
   13 0
 s    6 1.00
 0.27032382631000E+05 0.57227335211155E-03
 0.40523871392000E+04 0.44353233492995E-02
 0.92232722710000E+03 0.23020107706038E-01
 0.26124070989000E+03 0.92822490667928E-01
 0.85354641351000E+02 0.29378500009671E+00
 0.31035035245000E+02 0.67401604501641E+00
 s    2 1.00
 0.12260860728000E+02 0.63839937025506E+00
 0.49987076005000E+01 0.39534587125718E+00
 s    1 1.00
 0.11703108158000E+01 0.10000000000000E+01
 s    1 1.00
 0.46474740994000E+00 0.10000000000000E+01
 s    1 1.00
 0.18504536357000E+00 0.10000000000000E+01
 s    1 1.00
 0.70288026270000E-01 0.10000000000000E+01
 p    4 1.00
 0.63274954801000E+02 0.12018332222616E-01
 0.14627049379000E+02 0.83005421790056E-01
 0.44501223456000E+01 0.31991743925964E+00
 0.15275799647000E+01 0.70715542916104E+00
 p    1 1.00
 0.52935117943000E+00 0.10000000000000E+01
 p    1 1.00
 0.17478421270000E+00 0.10000000000000E+01
 p    1 1.00
 0.51112745706000E-01 0.10000000000000E+01
 d    1 1.00
 0.23140000000000E+01 0.10000000000000E+01
 d    1 1.00
 0.64500000000000E+00 0.10000000000000E+01
 d    1 1.00
 0.14696477366000E+00 0.10000000000000E+01
 f    1 1.00
 0.14280000000000E+01 0.10000000000000E+01
 
   14 0
 s    6 1.00
 0.19730800647000E+05 0.58626402628763E-03
 0.29578958745000E+04 0.45428820586397E-02
 0.67322133595000E+03 0.23558413450084E-01
 0.19068249494000E+03 0.94709193292923E-01
 0.62295441898000E+02 0.29719784913376E+00
 0.22654161182000E+02 0.66916246895232E+00
 s    2 1.00
 0.89791477428000E+01 0.64596683630063E+00
 0.36863002370000E+01 0.38700574393705E+00
 s    1 1.00
 0.84660076805000E+00 0.10000000000000E+01
 s    1 1.00
 0.33647133771000E+00 0.10000000000000E+01
 s    1 1.00
 0.13647653675000E+00 0.10000000000000E+01
 s    1 1.00
 0.68441605847000E-01 0.10000000000000E+01
 p    4 1.00
 0.49200380510000E+02 0.11448825101764E-01
 0.11346790537000E+02 0.78422337970864E-01
 0.34273972411000E+01 0.30818094738830E+00
 0.11785525134000E+01 0.72027196368413E+00
 p    1 1.00
 0.41642204972000E+00 0.10000000000000E+01
 p    1 1.00
 0.14260826011000E+00 0.10000000000000E+01
 d    1 1.00
 0.16540000000000E+01 0.10000000000000E+01
 d    1 1.00
 0.46900000000000E+00 0.10000000000000E+01
 d    1 1.00
 0.12829642058000E+00 0.10000000000000E+01
 f    1 1.00
 0.10930000000000E+01 0.10000000000000E+01
 
   15 0
 s    3 1.00
 0.34061341000000E+02 0.25439307208879E-01
 0.51235746000000E+01 0.19008594890375E+00
 0.11646626000000E+01 0.85244113011042E+00
 s    1 1.00
 0.32723041000000E+00 0.10000000000000E+01
 s    1 1.00
 0.10307241000000E+00 0.10000000000000E+01
 p    1 1.00
 0.80000000000000E+00 0.10000000000000E+01
 p    1 1.00
 0.95774129632000E-01 0.10000000000000E+01
 
   16 0
 s    3 1.00
 0.34061341000000E+02 0.25439307208879E-01
 0.51235746000000E+01 0.19008594890375E+00
 0.11646626000000E+01 0.85244113011042E+00
 s    1 1.00
 0.32723041000000E+00 0.10000000000000E+01
 s    1 1.00
 0.10307241000000E+00 0.10000000000000E+01
 p    1 1.00
 0.80000000000000E+00 0.10000000000000E+01
 p    1 1.00
 0.95774129632000E-01 0.10000000000000E+01
 
[MO]
 Sym= X
 Ene= -0.895902
 Spin= Alpha
 Occup= -0.895902
         1    5.514876E-03
         2    1.264998E-02
         3   -2.605925E-02
         4    7.995731E-03
         5   -1.985530E-01
         6   -3.337396E-02
         7    3.571993E-02
         8    2.273913E-03
         9   -1.058838E-04
        10    4.579715E-02
        11    3.651311E-03
        12   -1.086555E-04
        13    8.425596E-02
        14   -9.649364E-02
        15   -1.270720E-04
        16    1.208413E-03
        17   -1.427447E-03
        18    2.190339E-04
        19    2.436962E-04
        20   -1.586261E-06
        21    6.392569E-07
        22    9.497442E-03
        23   -6.470087E-03
        24   -3.027355E-03
        25   -1.130225E-03
        26   -1.907382E-05
        27    1.083491E-06
        28    8.594218E-04
        29   -4.509447E-03
        30    3.650025E-03
        31    1.643595E-02
        32    7.587103E-06
        33   -4.281026E-06
        34    2.785255E-05
        35   -1.358829E-04
        36    4.456696E-07
        37    6.143569E-05
        38    2.032010E-04
        39   -3.091324E-07
        40   -9.880380E-05
        41   -2.089498E-05
        42   -2.887961E-07
        43   -5.294327E-07
        44   -4.529616E-08
        45   -1.047622E-07
        46    2.238655E-07
        47    7.697877E-07
        48    3.886302E-05
        49   -4.131325E-06
        50    1.735062E-07
        51    2.721530E-02
        52   -1.567017E-05
        53    7.737227E-07
        54    3.697773E-02
        55   -1.641419E-05
        56    1.690132E-05
        57   -2.255634E-01
        58   -3.618904E-05
        59    9.199281E-10
        60    3.839709E-09
        61   -4.759637E-09
        62    1.981432E-03
        63    7.253405E-08
        64   -5.314596E-07
        65   -3.207409E-07
        66    2.701919E-07
        67    5.054904E-08
        68   -2.669741E-03
        69    5.598318E-07
        70    1.121973E-05
        71    3.289066E-06
        72   -2.584740E-06
        73   -7.043255E-07
        74   -3.977644E-02
        75   -1.109880E-06
        76    5.528834E-05
        77    3.930137E-09
        78    5.246136E-04
        79    1.129487E-07
        80   -2.027646E-09
        81   -5.160053E-04
        82   -8.529414E-08
        83   -3.245186E-09
        84   -1.878377E-04
        85   -6.624244E-08
        86    8.635578E-07
        87   -5.514791E-03
        88   -1.264978E-02
        89    2.605860E-02
        90   -7.993584E-03
        91    1.985326E-01
        92    3.338230E-02
        93   -3.572041E-02
        94    2.273567E-03
        95    1.014307E-04
        96   -4.579636E-02
        97    3.651437E-03
        98    1.048600E-04
        99   -8.425509E-02
       100   -9.645354E-02
       101    1.209225E-04
       102   -1.208415E-03
       103    1.427459E-03
       104   -2.190432E-04
       105    2.437133E-04
       106    2.542063E-06
       107    1.245650E-06
       108   -9.497271E-03
       109    6.470206E-03
       110    3.027065E-03
       111   -1.130658E-03
       112    2.117025E-05
       113    1.914011E-06
       114   -8.558391E-04
       115    4.504519E-03
       116   -3.648680E-03
       117    1.643877E-02
       118   -1.546061E-05
       119   -1.313028E-05
       120   -2.784595E-05
       121   -1.358809E-04
       122   -4.349516E-07
       123   -6.144930E-05
       124    2.032026E-04
       125    4.291585E-07
       126    9.880856E-05
       127   -2.089928E-05
       128    1.543902E-07
       129   -6.346562E-07
       130    2.729978E-03
       131    6.200619E-03
       132   -1.217114E-02
       133    1.255622E-02
       134   -7.934971E-02
       135   -1.120155E-02
       136    2.187339E-02
       137   -2.026231E-04
       138    5.764310E-05
       139   -6.755944E-03
       140    6.300724E-03
       141    4.764232E-05
       142   -5.351881E-02
       143    3.426307E-02
       144    8.063312E-05
       145   -5.506674E-04
       146    4.559203E-04
       147    9.474712E-05
       148   -1.352634E-04
       149   -9.595412E-07
       150   -7.346750E-07
       151    4.961536E-03
       152   -3.348975E-03
       153   -1.612561E-03
       154    2.210549E-04
       155   -1.739686E-05
       156    1.120050E-05
       157    1.210054E-02
       158   -1.305144E-02
       159    9.508981E-04
       160    4.430458E-03
       161    5.929914E-06
       162    2.107027E-05
       163   -1.542253E-05
       164    3.339521E-05
       165    1.496656E-07
       166    1.806099E-05
       167   -3.157446E-05
       168    1.062804E-07
       169    2.630512E-06
       170   -1.322992E-05
       171   -3.070778E-07
       172    8.448453E-07
       173    9.116660E-08
       174    2.119029E-07
       175   -4.575148E-07
       176   -1.583076E-07
       177   -4.707488E-05
       178    1.994082E-06
       179   -6.077381E-07
       180    9.871814E-03
       181    8.587720E-06
       182   -1.246897E-06
       183    1.678146E-02
       184    8.704416E-06
       185    2.750588E-05
       186    9.100761E-02
       187    1.096094E-05
       188   -3.851827E-08
       189    1.969458E-08
       190    1.882370E-08
       191    1.248093E-04
       192   -6.836795E-07
       193   -2.779887E-06
       194   -1.044302E-07
       195    5.771112E-08
       196    4.671906E-08
       197   -3.187867E-03
       198   -1.784075E-06
       199    3.300852E-05
       200   -4.100547E-06
       201    2.866710E-06
       202    1.233837E-06
       203   -1.339825E-02
       204   -3.832888E-07
       205    7.914162E-06
       206   -9.146965E-09
       207    1.251031E-04
       208   -3.256613E-08
       209    5.624090E-10
       210   -1.127351E-04
       211   -6.702537E-08
       212    1.170953E-08
       213   -5.510828E-05
       214    1.107174E-07
       215   -1.357691E-07
       216   -2.729996E-03
       217   -6.200665E-03
       218    1.217163E-02
       219   -1.255935E-02
       220    7.939157E-02
       221    1.119412E-02
       222   -2.187303E-02
       223   -2.026829E-04
       224   -3.533634E-05
       225    6.756985E-03
       226    6.300374E-03
       227   -2.592721E-05
       228    5.351808E-02
       229    3.429831E-02
       230   -4.990892E-05
       231    5.506311E-04
       232   -4.558968E-04
       233   -9.473433E-05
       234   -1.352598E-04
       235    1.140038E-06
       236   -2.879657E-07
       237   -4.961799E-03
       238    3.348976E-03
       239    1.612823E-03
       240    2.211474E-04
       241    1.786744E-05
       242    1.182788E-05
       243   -1.210732E-02
       244    1.306005E-02
       245   -9.527306E-04
       246    4.423875E-03
       247   -1.122120E-05
       248    1.742503E-05
       249    1.543974E-05
       250    3.339975E-05
       251   -2.811873E-07
       252   -1.807988E-05
       253   -3.157927E-05
       254   -6.524574E-08
       255   -2.634704E-06
       256   -1.323120E-05
       257    4.424981E-07
       258    9.021302E-07
       259   -1.243528E-02
       260   -1.692902E-02
       261   -3.514714E-02
       262   -1.649193E-03
       263   -2.207462E-03
       264    9.935149E-07
       265   -4.810929E-03
       266   -9.058418E-04
       267    3.216963E-05
       268    1.243523E-02
       269    1.692802E-02
       270    3.514361E-02
       271    1.649111E-03
       272   -2.207368E-03
       273   -1.339706E-06
       274    4.810079E-03
       275   -9.041367E-04
       276   -2.497969E-05
       277    2.437718E-03
       278    4.587999E-03
       279    1.815572E-02
       280    2.472007E-04
       281   -3.373251E-04
       282    3.260687E-06
       283   -2.464923E-03
       284    8.262626E-05
       285   -2.658621E-05
       286   -2.437621E-03
       287   -4.586905E-03
       288   -1.816989E-02
       289   -2.472643E-04
       290   -3.372124E-04
       291   -2.289133E-06
       292    2.465743E-03
       293    8.443423E-05
       294    2.717167E-05
       295    3.289700E-08
       296    7.495941E-08
       297   -6.854482E-08
       298   -8.284990E-07
       299    1.774845E-07
       300    9.225646E-07
       301   -1.949398E-07
       302    3.408687E-02
       303   -3.132248E-06
       304    1.200011E-07
       305    2.578376E-02
       306   -4.340869E-06
       307    8.458001E-07
       308   -4.187479E-03
       309   -7.038127E-06
       310   -5.221116E-10
       311   -1.471795E-08
       312    1.524006E-08
       313   -9.487165E-03
       314   -4.463669E-07
       315    2.084536E-05
       316    8.157989E-08
       317   -5.804970E-09
       318   -7.577492E-08
       319   -2.640689E-02
       320   -6.376735E-07
       321    5.843646E-05
       322    4.033132E-08
       323    1.222228E-07
       324   -1.625541E-07
       325    8.565221E-03
       326    4.810276E-06
       327   -1.989696E-05
       328   -2.504927E-09
       329   -2.224806E-03
       330    1.553852E-08
       331    3.821116E-09
       332    3.125177E-03
       333   -5.148134E-08
       334   -4.604034E-10
       335   -1.402869E-04
       336    3.063423E-08
       337   -8.282097E-06
       338   -1.438080E-03
       339   -3.659351E-03
       340    5.389406E-03
       341   -1.126169E-03
       342    1.193621E-02
       343   -1.567379E-02
       344   -2.630056E-01
       345   -2.279013E-01
       346    5.812119E-04
       347   -2.388280E-01
       348   -1.997569E-01
       349    5.271373E-04
       350   -1.804579E-01
       351   -1.464073E-01
       352    4.068959E-04
       353   -2.947837E-02
       354   -1.531089E-02
       355    6.722307E-05
       356   -2.113394E-03
       357    2.718458E-03
       358   -6.050642E-04
       359   -1.414802E-05
       360    3.762041E-06
       361    5.265756E-08
       362   -6.409131E-03
       363    7.083147E-03
       364   -6.740159E-04
       365    1.238276E-03
       366    1.407095E-05
       367   -3.097944E-06
       368   -7.220768E-03
       369    6.519267E-03
       370    7.015011E-04
       371    1.518874E-03
       372    1.543921E-05
       373   -8.042537E-06
       374   -2.468996E-04
       375   -7.882941E-04
       376    5.687908E-07
       377    4.499461E-04
       378    8.857969E-04
       379    2.518482E-07
       380   -1.186955E-04
       381    1.718107E-04
       382   -1.014961E-06
       383   -1.791076E-06
       384    1.438113E-03
       385    3.659433E-03
       386   -5.389552E-03
       387    1.125864E-03
       388   -1.193710E-02
       389    1.567228E-02
       390    2.630063E-01
       391   -2.279011E-01
       392   -5.683711E-04
       393    2.388285E-01
       394   -1.997567E-01
       395   -5.158736E-04
       396    1.804580E-01
       397   -1.464065E-01
       398   -3.832944E-04
       399    2.947806E-02
       400   -1.531061E-02
       401   -6.591991E-05
       402    2.113400E-03
       403   -2.718468E-03
       404    6.050683E-04
       405   -1.414618E-05
       406   -3.871955E-06
       407    7.649673E-08
       408    6.409122E-03
       409   -7.083159E-03
       410    6.740377E-04
       411    1.238298E-03
       412   -1.462260E-05
       413   -2.282597E-06
       414    7.220798E-03
       415   -6.519295E-03
       416   -7.015021E-04
       417    1.519139E-03
       418   -2.159177E-05
       419   -2.735062E-06
       420    2.468972E-04
       421   -7.882956E-04
       422   -6.536691E-07
       423   -4.499441E-04
       424    8.857979E-04
       425   -1.902161E-07
       426    1.186968E-04
       427    1.718116E-04
       428    1.067205E-06
       429   -1.845572E-06
       430   -3.352435E-07
       431   -7.967677E-07
       432    1.248082E-06
       433    2.152555E-06
       434    4.081339E-07
       435    4.971721E-06
       436    1.302050E-06
       437   -3.652689E-03
       438   -1.707259E-05
       439    1.234391E-06
       440   -2.264302E-03
       441   -1.681160E-05
       442   -2.613791E-07
       443   -3.999692E-03
       444   -1.475666E-05
       445   -3.391665E-10
       446    6.913159E-09
       447   -6.573993E-09
       448   -2.283810E-04
       449   -6.480185E-08
       450   -3.756636E-05
       451    1.039831E-07
       452    1.447725E-08
       453   -1.184604E-07
       454   -9.945218E-04
       455   -2.911012E-07
       456   -5.216923E-05
       457    6.819008E-07
       458   -4.497180E-07
       459   -2.321828E-07
       460    1.125183E-03
       461   -2.743937E-07
       462   -5.832810E-05
       463    9.791159E-09
       464   -4.468918E-05
       465    6.700012E-08
       466    4.821625E-09
       467    5.549479E-05
       468   -3.294723E-08
       469   -1.795784E-08
       470    4.462036E-06
       471   -5.694286E-08
       472   -1.025737E-05
       473   -2.076473E-03
       474   -2.960471E-03
       475   -3.830682E-03
       476    1.234759E-04
       477    1.721828E-04
       478    3.672388E-05
       479    6.735153E-04
       480    3.187413E-04
       481    1.898501E-04
       482    2.075229E-03
       483    2.958886E-03
       484    3.832652E-03
       485   -1.232300E-04
       486    1.719764E-04
       487   -3.835368E-05
       488   -6.755658E-04
       489    3.183982E-04
       490   -1.916109E-04
 Sym= X
 Ene= 0.895902
 Spin= Alpha
 Occup= 0.895902
         1    1.906709E-05
         2    4.537919E-05
         3   -1.418380E-04
         4    1.385805E-04
         5    3.111586E-02
         6   -1.993374E-04
         7   -2.182729E-04
         8   -6.958168E-05
         9   -9.689819E-02
        10   -2.619738E-04
        11   -2.666190E-05
        12   -9.633879E-02
        13    2.137601E-02
        14   -1.580993E-02
        15   -5.458350E-02
        16   -6.338953E-06
        17    2.095280E-06
        18    4.243673E-06
        19   -2.899992E-06
        20    3.744810E-04
        21   -6.027180E-04
        22    1.043066E-04
        23   -3.743703E-05
        24   -6.686959E-05
        25    2.089467E-05
        26    5.217518E-03
        27    1.618061E-04
        28    6.742605E-03
        29   -7.153712E-03
        30    4.111078E-04
        31    2.377843E-04
        32    6.392732E-03
        33    1.458891E-02
        34    3.159821E-06
        35   -1.452319E-06
        36    1.828918E-04
        37   -3.754547E-06
        38    2.192045E-07
        39    1.398351E-04
        40   -4.847982E-07
        41    1.729286E-06
        42   -3.852102E-04
        43   -4.262736E-05
        44    5.691770E-06
        45    9.477509E-06
        46    8.460703E-05
        47   -1.664896E-03
        48    6.216632E-02
        49    6.064044E-03
        50   -1.889701E-05
        51    1.411290E-08
        52    8.113240E-04
        53   -2.246550E-04
        54   -4.076883E-06
        55   -2.262000E-03
        56    2.075717E-02
        57   -2.415423E-04
        58   -5.974621E-02
        59   -3.442552E-05
        60   -3.638327E-06
        61    3.806385E-05
        62    5.305326E-08