[Molden Format]
[Title]
ADC(2) - opt by CAM-B3LYP gaussian                                              
[Atoms] AU
 c     1    6 -.12589065566052E+01 -.22830902054421E+01 -.26005390588660E-01
 c     2    6 -.25569912224779E+01 0.86573078000000E-06 -.24733756079320E-01
 c     3    6 -.12589060841737E+01 0.22830907841707E+01 -.26008073999770E-01
 c     4    6 0.13324295737882E+01 0.22846183820847E+01 -.28114684000920E-01
 c     5    6 0.26867573459717E+01 0.39329925000000E-06 -.27723246129760E-01
 c     6    6 0.13324281942881E+01 -.22846180679178E+01 -.28111244699360E-01
 h     7    1 -.22982509786098E+01 -.40377481062879E+01 -.23319125993500E-01
 h     8    1 -.22982490510892E+01 0.40377494409070E+01 -.23324322740370E-01
 h     9    1 0.23514918675648E+01 0.40568894753521E+01 -.30529017005560E-01
 h    10    1 0.23514910360853E+01 -.40568888210345E+01 -.30521911635300E-01
 n    11    7 -.52742123095903E+01 0.14763485000000E-06 -.18925267070140E-01
 o    12    8 -.63809534361791E+01 0.20269762391752E+01 -.16457057973460E-01
 o    13    8 -.63809510362269E+01 -.20269772478165E+01 -.16464881439650E-01
 n    14    7 0.52454603626942E+01 -.57046108000000E-06 -.73989411041200E-01
 h    15    1 0.62036818842731E+01 0.16164996606794E+01 0.19711589672944E+00
 h    16    1 0.62036804102867E+01 -.16165023700742E+01 0.19711149366755E+00
[GTO]
    1 0
 s    6 1.00
 0.13575349682000E+05 0.60645503603591E-03
 0.20352333680000E+04 0.46979088884982E-02
 0.46322562359000E+03 0.24332477647552E-01
 0.13120019598000E+03 0.97399968307759E-01
 0.42853015891000E+02 0.30195584253780E+00
 0.15584185766000E+02 0.66233609137875E+00
 s    2 1.00
 0.62067138508000E+01 0.65595308539952E+00
 0.25764896527000E+01 0.37585633285142E+00
 s    1 1.00
 0.57696339419000E+00 0.10000000000000E+01
 s    1 1.00
 0.22972831358000E+00 0.10000000000000E+01
 s    1 1.00
 0.95164440028000E-01 0.10000000000000E+01
 s    1 1.00
 0.48475401370000E-01 0.10000000000000E+01
 p    4 1.00
 0.34697232244000E+02 0.11327220003114E-01
 0.79582622826000E+01 0.76169659202087E-01
 0.23780826883000E+01 0.30192252202676E+00
 0.81433208183000E+00 0.72785027349547E+00
 p    1 1.00
 0.28887547253000E+00 0.10000000000000E+01
 p    1 1.00
 0.10056823671000E+00 0.10000000000000E+01
 d    1 1.00
 0.10970000000000E+01 0.10000000000000E+01
 d    1 1.00
 0.31800000000000E+00 0.10000000000000E+01
 d    1 1.00
 0.90985336424000E-01 0.10000000000000E+01
 f    1 1.00
 0.76100000000000E+00 0.10000000000000E+01
 
    2 0
 s    6 1.00
 0.13575349682000E+05 0.60645503603591E-03
 0.20352333680000E+04 0.46979088884982E-02
 0.46322562359000E+03 0.24332477647552E-01
 0.13120019598000E+03 0.97399968307759E-01
 0.42853015891000E+02 0.30195584253780E+00
 0.15584185766000E+02 0.66233609137875E+00
 s    2 1.00
 0.62067138508000E+01 0.65595308539952E+00
 0.25764896527000E+01 0.37585633285142E+00
 s    1 1.00
 0.57696339419000E+00 0.10000000000000E+01
 s    1 1.00
 0.22972831358000E+00 0.10000000000000E+01
 s    1 1.00
 0.95164440028000E-01 0.10000000000000E+01
 s    1 1.00
 0.48475401370000E-01 0.10000000000000E+01
 p    4 1.00
 0.34697232244000E+02 0.11327220003114E-01
 0.79582622826000E+01 0.76169659202087E-01
 0.23780826883000E+01 0.30192252202676E+00
 0.81433208183000E+00 0.72785027349547E+00
 p    1 1.00
 0.28887547253000E+00 0.10000000000000E+01
 p    1 1.00
 0.10056823671000E+00 0.10000000000000E+01
 d    1 1.00
 0.10970000000000E+01 0.10000000000000E+01
 d    1 1.00
 0.31800000000000E+00 0.10000000000000E+01
 d    1 1.00
 0.90985336424000E-01 0.10000000000000E+01
 f    1 1.00
 0.76100000000000E+00 0.10000000000000E+01
 
    3 0
 s    6 1.00
 0.13575349682000E+05 0.60645503603591E-03
 0.20352333680000E+04 0.46979088884982E-02
 0.46322562359000E+03 0.24332477647552E-01
 0.13120019598000E+03 0.97399968307759E-01
 0.42853015891000E+02 0.30195584253780E+00
 0.15584185766000E+02 0.66233609137875E+00
 s    2 1.00
 0.62067138508000E+01 0.65595308539952E+00
 0.25764896527000E+01 0.37585633285142E+00
 s    1 1.00
 0.57696339419000E+00 0.10000000000000E+01
 s    1 1.00
 0.22972831358000E+00 0.10000000000000E+01
 s    1 1.00
 0.95164440028000E-01 0.10000000000000E+01
 s    1 1.00
 0.48475401370000E-01 0.10000000000000E+01
 p    4 1.00
 0.34697232244000E+02 0.11327220003114E-01
 0.79582622826000E+01 0.76169659202087E-01
 0.23780826883000E+01 0.30192252202676E+00
 0.81433208183000E+00 0.72785027349547E+00
 p    1 1.00
 0.28887547253000E+00 0.10000000000000E+01
 p    1 1.00
 0.10056823671000E+00 0.10000000000000E+01
 d    1 1.00
 0.10970000000000E+01 0.10000000000000E+01
 d    1 1.00
 0.31800000000000E+00 0.10000000000000E+01
 d    1 1.00
 0.90985336424000E-01 0.10000000000000E+01
 f    1 1.00
 0.76100000000000E+00 0.10000000000000E+01
 
    4 0
 s    6 1.00
 0.13575349682000E+05 0.60645503603591E-03
 0.20352333680000E+04 0.46979088884982E-02
 0.46322562359000E+03 0.24332477647552E-01
 0.13120019598000E+03 0.97399968307759E-01
 0.42853015891000E+02 0.30195584253780E+00
 0.15584185766000E+02 0.66233609137875E+00
 s    2 1.00
 0.62067138508000E+01 0.65595308539952E+00
 0.25764896527000E+01 0.37585633285142E+00
 s    1 1.00
 0.57696339419000E+00 0.10000000000000E+01
 s    1 1.00
 0.22972831358000E+00 0.10000000000000E+01
 s    1 1.00
 0.95164440028000E-01 0.10000000000000E+01
 s    1 1.00
 0.48475401370000E-01 0.10000000000000E+01
 p    4 1.00
 0.34697232244000E+02 0.11327220003114E-01
 0.79582622826000E+01 0.76169659202087E-01
 0.23780826883000E+01 0.30192252202676E+00
 0.81433208183000E+00 0.72785027349547E+00
 p    1 1.00
 0.28887547253000E+00 0.10000000000000E+01
 p    1 1.00
 0.10056823671000E+00 0.10000000000000E+01
 d    1 1.00
 0.10970000000000E+01 0.10000000000000E+01
 d    1 1.00
 0.31800000000000E+00 0.10000000000000E+01
 d    1 1.00
 0.90985336424000E-01 0.10000000000000E+01
 f    1 1.00
 0.76100000000000E+00 0.10000000000000E+01
 
    5 0
 s    6 1.00
 0.13575349682000E+05 0.60645503603591E-03
 0.20352333680000E+04 0.46979088884982E-02
 0.46322562359000E+03 0.24332477647552E-01
 0.13120019598000E+03 0.97399968307759E-01
 0.42853015891000E+02 0.30195584253780E+00
 0.15584185766000E+02 0.66233609137875E+00
 s    2 1.00
 0.62067138508000E+01 0.65595308539952E+00
 0.25764896527000E+01 0.37585633285142E+00
 s    1 1.00
 0.57696339419000E+00 0.10000000000000E+01
 s    1 1.00
 0.22972831358000E+00 0.10000000000000E+01
 s    1 1.00
 0.95164440028000E-01 0.10000000000000E+01
 s    1 1.00
 0.48475401370000E-01 0.10000000000000E+01
 p    4 1.00
 0.34697232244000E+02 0.11327220003114E-01
 0.79582622826000E+01 0.76169659202087E-01
 0.23780826883000E+01 0.30192252202676E+00
 0.81433208183000E+00 0.72785027349547E+00
 p    1 1.00
 0.28887547253000E+00 0.10000000000000E+01
 p    1 1.00
 0.10056823671000E+00 0.10000000000000E+01
 d    1 1.00
 0.10970000000000E+01 0.10000000000000E+01
 d    1 1.00
 0.31800000000000E+00 0.10000000000000E+01
 d    1 1.00
 0.90985336424000E-01 0.10000000000000E+01
 f    1 1.00
 0.76100000000000E+00 0.10000000000000E+01
 
    6 0
 s    6 1.00
 0.13575349682000E+05 0.60645503603591E-03
 0.20352333680000E+04 0.46979088884982E-02
 0.46322562359000E+03 0.24332477647552E-01
 0.13120019598000E+03 0.97399968307759E-01
 0.42853015891000E+02 0.30195584253780E+00
 0.15584185766000E+02 0.66233609137875E+00
 s    2 1.00
 0.62067138508000E+01 0.65595308539952E+00
 0.25764896527000E+01 0.37585633285142E+00
 s    1 1.00
 0.57696339419000E+00 0.10000000000000E+01
 s    1 1.00
 0.22972831358000E+00 0.10000000000000E+01
 s    1 1.00
 0.95164440028000E-01 0.10000000000000E+01
 s    1 1.00
 0.48475401370000E-01 0.10000000000000E+01
 p    4 1.00
 0.34697232244000E+02 0.11327220003114E-01
 0.79582622826000E+01 0.76169659202087E-01
 0.23780826883000E+01 0.30192252202676E+00
 0.81433208183000E+00 0.72785027349547E+00
 p    1 1.00
 0.28887547253000E+00 0.10000000000000E+01
 p    1 1.00
 0.10056823671000E+00 0.10000000000000E+01
 d    1 1.00
 0.10970000000000E+01 0.10000000000000E+01
 d    1 1.00
 0.31800000000000E+00 0.10000000000000E+01
 d    1 1.00
 0.90985336424000E-01 0.10000000000000E+01
 f    1 1.00
 0.76100000000000E+00 0.10000000000000E+01
 
    7 0
 s    3 1.00
 0.34061341000000E+02 0.25439307208879E-01
 0.51235746000000E+01 0.19008594890375E+00
 0.11646626000000E+01 0.85244113011042E+00
 s    1 1.00
 0.32723041000000E+00 0.10000000000000E+01
 s    1 1.00
 0.10307241000000E+00 0.10000000000000E+01
 p    1 1.00
 0.80000000000000E+00 0.10000000000000E+01
 p    1 1.00
 0.95774129632000E-01 0.10000000000000E+01
 
    8 0
 s    3 1.00
 0.34061341000000E+02 0.25439307208879E-01
 0.51235746000000E+01 0.19008594890375E+00
 0.11646626000000E+01 0.85244113011042E+00
 s    1 1.00
 0.32723041000000E+00 0.10000000000000E+01
 s    1 1.00
 0.10307241000000E+00 0.10000000000000E+01
 p    1 1.00
 0.80000000000000E+00 0.10000000000000E+01
 p    1 1.00
 0.95774129632000E-01 0.10000000000000E+01
 
    9 0
 s    3 1.00
 0.34061341000000E+02 0.25439307208879E-01
 0.51235746000000E+01 0.19008594890375E+00
 0.11646626000000E+01 0.85244113011042E+00
 s    1 1.00
 0.32723041000000E+00 0.10000000000000E+01
 s    1 1.00
 0.10307241000000E+00 0.10000000000000E+01
 p    1 1.00
 0.80000000000000E+00 0.10000000000000E+01
 p    1 1.00
 0.95774129632000E-01 0.10000000000000E+01
 
   10 0
 s    3 1.00
 0.34061341000000E+02 0.25439307208879E-01
 0.51235746000000E+01 0.19008594890375E+00
 0.11646626000000E+01 0.85244113011042E+00
 s    1 1.00
 0.32723041000000E+00 0.10000000000000E+01
 s    1 1.00
 0.10307241000000E+00 0.10000000000000E+01
 p    1 1.00
 0.80000000000000E+00 0.10000000000000E+01
 p    1 1.00
 0.95774129632000E-01 0.10000000000000E+01
 
   11 0
 s    6 1.00
 0.19730800647000E+05 0.58626402628763E-03
 0.29578958745000E+04 0.45428820586397E-02
 0.67322133595000E+03 0.23558413450084E-01
 0.19068249494000E+03 0.94709193292923E-01
 0.62295441898000E+02 0.29719784913376E+00
 0.22654161182000E+02 0.66916246895232E+00
 s    2 1.00
 0.89791477428000E+01 0.64596683630063E+00
 0.36863002370000E+01 0.38700574393705E+00
 s    1 1.00
 0.84660076805000E+00 0.10000000000000E+01
 s    1 1.00
 0.33647133771000E+00 0.10000000000000E+01
 s    1 1.00
 0.13647653675000E+00 0.10000000000000E+01
 s    1 1.00
 0.68441605847000E-01 0.10000000000000E+01
 p    4 1.00
 0.49200380510000E+02 0.11448825101764E-01
 0.11346790537000E+02 0.78422337970864E-01
 0.34273972411000E+01 0.30818094738830E+00
 0.11785525134000E+01 0.72027196368413E+00
 p    1 1.00
 0.41642204972000E+00 0.10000000000000E+01
 p    1 1.00
 0.14260826011000E+00 0.10000000000000E+01
 d    1 1.00
 0.16540000000000E+01 0.10000000000000E+01
 d    1 1.00
 0.46900000000000E+00 0.10000000000000E+01
 d    1 1.00
 0.12829642058000E+00 0.10000000000000E+01
 f    1 1.00
 0.10930000000000E+01 0.10000000000000E+01
 
   12 0
 s    6 1.00
 0.27032382631000E+05 0.57227335211155E-03
 0.40523871392000E+04 0.44353233492995E-02
 0.92232722710000E+03 0.23020107706038E-01
 0.26124070989000E+03 0.92822490667928E-01
 0.85354641351000E+02 0.29378500009671E+00
 0.31035035245000E+02 0.67401604501641E+00
 s    2 1.00
 0.12260860728000E+02 0.63839937025506E+00
 0.49987076005000E+01 0.39534587125718E+00
 s    1 1.00
 0.11703108158000E+01 0.10000000000000E+01
 s    1 1.00
 0.46474740994000E+00 0.10000000000000E+01
 s    1 1.00
 0.18504536357000E+00 0.10000000000000E+01
 s    1 1.00
 0.70288026270000E-01 0.10000000000000E+01
 p    4 1.00
 0.63274954801000E+02 0.12018332222616E-01
 0.14627049379000E+02 0.83005421790056E-01
 0.44501223456000E+01 0.31991743925964E+00
 0.15275799647000E+01 0.70715542916104E+00
 p    1 1.00
 0.52935117943000E+00 0.10000000000000E+01
 p    1 1.00
 0.17478421270000E+00 0.10000000000000E+01
 p    1 1.00
 0.51112745706000E-01 0.10000000000000E+01
 d    1 1.00
 0.23140000000000E+01 0.10000000000000E+01
 d    1 1.00
 0.64500000000000E+00 0.10000000000000E+01
 d    1 1.00
 0.14696477366000E+00 0.10000000000000E+01
 f    1 1.00
 0.14280000000000E+01 0.10000000000000E+01
 
   13 0
 s    6 1.00
 0.27032382631000E+05 0.57227335211155E-03
 0.40523871392000E+04 0.44353233492995E-02
 0.92232722710000E+03 0.23020107706038E-01
 0.26124070989000E+03 0.92822490667928E-01
 0.85354641351000E+02 0.29378500009671E+00
 0.31035035245000E+02 0.67401604501641E+00
 s    2 1.00
 0.12260860728000E+02 0.63839937025506E+00
 0.49987076005000E+01 0.39534587125718E+00
 s    1 1.00
 0.11703108158000E+01 0.10000000000000E+01
 s    1 1.00
 0.46474740994000E+00 0.10000000000000E+01
 s    1 1.00
 0.18504536357000E+00 0.10000000000000E+01
 s    1 1.00
 0.70288026270000E-01 0.10000000000000E+01
 p    4 1.00
 0.63274954801000E+02 0.12018332222616E-01
 0.14627049379000E+02 0.83005421790056E-01
 0.44501223456000E+01 0.31991743925964E+00
 0.15275799647000E+01 0.70715542916104E+00
 p    1 1.00
 0.52935117943000E+00 0.10000000000000E+01
 p    1 1.00
 0.17478421270000E+00 0.10000000000000E+01
 p    1 1.00
 0.51112745706000E-01 0.10000000000000E+01
 d    1 1.00
 0.23140000000000E+01 0.10000000000000E+01
 d    1 1.00
 0.64500000000000E+00 0.10000000000000E+01
 d    1 1.00
 0.14696477366000E+00 0.10000000000000E+01
 f    1 1.00
 0.14280000000000E+01 0.10000000000000E+01
 
   14 0
 s    6 1.00
 0.19730800647000E+05 0.58626402628763E-03
 0.29578958745000E+04 0.45428820586397E-02
 0.67322133595000E+03 0.23558413450084E-01
 0.19068249494000E+03 0.94709193292923E-01
 0.62295441898000E+02 0.29719784913376E+00
 0.22654161182000E+02 0.66916246895232E+00
 s    2 1.00
 0.89791477428000E+01 0.64596683630063E+00
 0.36863002370000E+01 0.38700574393705E+00
 s    1 1.00
 0.84660076805000E+00 0.10000000000000E+01
 s    1 1.00
 0.33647133771000E+00 0.10000000000000E+01
 s    1 1.00
 0.13647653675000E+00 0.10000000000000E+01
 s    1 1.00
 0.68441605847000E-01 0.10000000000000E+01
 p    4 1.00
 0.49200380510000E+02 0.11448825101764E-01
 0.11346790537000E+02 0.78422337970864E-01
 0.34273972411000E+01 0.30818094738830E+00
 0.11785525134000E+01 0.72027196368413E+00
 p    1 1.00
 0.41642204972000E+00 0.10000000000000E+01
 p    1 1.00
 0.14260826011000E+00 0.10000000000000E+01
 d    1 1.00
 0.16540000000000E+01 0.10000000000000E+01
 d    1 1.00
 0.46900000000000E+00 0.10000000000000E+01
 d    1 1.00
 0.12829642058000E+00 0.10000000000000E+01
 f    1 1.00
 0.10930000000000E+01 0.10000000000000E+01
 
   15 0
 s    3 1.00
 0.34061341000000E+02 0.25439307208879E-01
 0.51235746000000E+01 0.19008594890375E+00
 0.11646626000000E+01 0.85244113011042E+00
 s    1 1.00
 0.32723041000000E+00 0.10000000000000E+01
 s    1 1.00
 0.10307241000000E+00 0.10000000000000E+01
 p    1 1.00
 0.80000000000000E+00 0.10000000000000E+01
 p    1 1.00
 0.95774129632000E-01 0.10000000000000E+01
 
   16 0
 s    3 1.00
 0.34061341000000E+02 0.25439307208879E-01
 0.51235746000000E+01 0.19008594890375E+00
 0.11646626000000E+01 0.85244113011042E+00
 s    1 1.00
 0.32723041000000E+00 0.10000000000000E+01
 s    1 1.00
 0.10307241000000E+00 0.10000000000000E+01
 p    1 1.00
 0.80000000000000E+00 0.10000000000000E+01
 p    1 1.00
 0.95774129632000E-01 0.10000000000000E+01
 
[MO]
 Sym= X
 Ene= -0.281349
 Spin= Alpha
 Occup= -0.281349
         1    2.205583E-05
         2    4.999815E-05
         3   -1.387577E-04
         4    2.755997E-04
         5    9.738237E-03
         6    5.401267E-04
         7    1.102060E-04
         8    1.621548E-04
         9    1.894580E-01
        10    6.028642E-04
        11    3.916204E-05
        12    1.899546E-01
        13   -3.655198E-03
        14    6.280100E-03
        15    1.111997E-01
        16    8.039220E-06
        17   -2.095459E-06
        18   -5.943760E-06
        19   -1.427782E-06
        20    4.980292E-03
        21    5.492392E-04
        22    1.126613E-04
        23   -6.611355E-05
        24   -4.654779E-05
        25   -1.867864E-05
        26    9.490786E-03
        27   -3.964635E-04
        28   -8.313494E-04
        29    9.694765E-04
        30   -1.381271E-04
        31   -4.698607E-04
        32    2.695714E-03
        33    5.408862E-04
        34    4.753718E-06
        35    6.958001E-07
        36   -1.174694E-03
        37   -1.373145E-06
        38    1.374045E-07
        39    1.419390E-03
        40   -5.004637E-06
        41   -1.070918E-06
        42    1.566275E-04
        43   -6.244344E-07
        44   -1.727213E-06
        45   -3.964502E-06
        46    8.779597E-06
        47    1.556483E-05
        48   -2.376508E-03
        49   -1.793609E-04
        50   -1.395998E-05
        51   -1.329586E-04
        52   -3.827301E-05
        53   -1.744431E-05
        54   -2.266674E-04
        55   -4.281107E-05
        56   -1.067427E-03
        57    9.375725E-03
        58   -1.303746E-05
        59    6.214719E-07
        60   -5.026474E-07
        61   -1.188245E-07
        62   -9.970306E-06
        63    4.210121E-08
        64   -7.121153E-03
        65    1.847702E-06
        66   -5.381182E-06
        67    3.533479E-06
        68   -7.779920E-05
        69   -2.405724E-07
        70   -1.604085E-02
        71   -4.484810E-05
        72   -2.667199E-06
        73    4.751529E-05
        74    1.359618E-03
        75   -3.567648E-06
        76   -1.489742E-03
        77   -1.362737E-07
        78   -2.980095E-07
        79    2.878308E-07
        80    6.985493E-08
        81   -1.675148E-06
        82   -1.631327E-07
        83    1.129754E-07
        84    2.074969E-06
        85   -2.230329E-07
        86   -1.014126E-03
        87   -2.075069E-05
        88   -4.703031E-05
        89    1.229654E-04
        90   -2.422665E-04
        91   -5.118294E-03
        92   -2.846326E-04
        93   -1.052059E-04
        94    1.663795E-04
        95   -1.894772E-01
        96   -5.275559E-04
        97    2.148873E-05
        98   -1.899779E-01
        99    5.028606E-03
       100    4.210667E-03
       101   -1.111822E-01
       102   -7.771983E-06
       103    1.449125E-06
       104    6.322859E-06
       105   -1.031225E-06
       106   -4.978630E-03
       107    5.508468E-04
       108   -9.193337E-05
       109    5.539572E-05
       110    3.653764E-05
       111   -1.219390E-05
       112   -9.490160E-03
       113   -3.949794E-04
       114    8.224968E-04
       115   -8.848725E-04
       116    6.237565E-05
       117   -5.786593E-04
       118   -2.691547E-03
       119    5.507101E-04
       120   -4.241880E-06
       121    6.995884E-07
       122    1.175063E-03
       123    1.162188E-06
       124   -1.597662E-07
       125   -1.419579E-03
       126    4.528892E-06
       127   -7.788301E-07
       128   -1.569340E-04
       129   -7.597117E-07
       130    1.615787E-05
       131    3.846630E-05
       132   -1.423100E-04
       133    5.895107E-04
       134    9.431518E-03
       135    3.841634E-04
       136   -1.854243E-04
       137   -5.613909E-05
       138   -2.003280E-01
       139   -3.979774E-04
       140   -1.413385E-04
       141   -2.030388E-01
       142    5.873275E-03
       143   -6.714409E-03
       144   -1.297412E-01
       145    1.349984E-05
       146    5.308123E-07
       147   -1.403065E-05
       148   -6.656740E-06
       149    4.691263E-03
       150    4.892543E-04
       151    1.447261E-04
       152   -5.026808E-05
       153   -9.445801E-05
       154   -7.063463E-05
       155    8.375672E-03
       156    7.343583E-04
       157   -2.141685E-04
       158    4.160379E-04
       159   -2.018694E-04
       160   -9.702906E-04
       161    1.827224E-04
       162    2.648716E-03
       163   -5.290440E-06
       164   -1.183500E-06
       165    1.314153E-03
       166    2.990975E-06
       167   -4.668447E-07
       168   -1.467840E-03
       169    4.106895E-06
       170    2.054676E-06
       171   -2.952813E-04
       172    4.655956E-05
       173    4.351752E-08
       174    2.597795E-07
       175   -8.452491E-06
       176    9.542805E-06
       177    3.027128E-03
       178    2.170201E-04
       179   -7.371685E-07
       180    8.380458E-05
       181    1.252504E-05
       182   -1.877257E-05
       183    9.259684E-05
       184    1.691813E-05
       185   -1.120014E-03
       186   -1.507963E-02
       187   -4.412751E-05
       188   -4.314613E-07
       189    1.348955E-07
       190    2.965658E-07
       191    2.368793E-05
       192   -6.273848E-07
       193   -7.499149E-03
       194    7.643832E-07
       195    7.676138E-06
       196   -8.440521E-06
       197    9.058173E-05
       198   -1.135584E-06
       199   -1.561856E-02
       200    3.454736E-05
       201    3.942107E-05
       202   -7.396843E-05
       203    2.575336E-03
       204    9.377480E-06
       205    3.304942E-03
       206    7.619503E-08
       207   -4.881773E-06
       208   -6.752051E-08
       209   -2.848108E-07
       210    3.987113E-06
       211   -1.233937E-08
       212    1.825845E-07
       213    2.562472E-06
       214    1.029276E-07
       215    1.182832E-03
       216   -1.719886E-05
       217   -4.086777E-05
       218    1.639295E-04
       219   -6.798529E-04
       220   -1.481253E-02
       221   -6.473388E-04
       222    1.848339E-04
       223   -5.883303E-05
       224    2.003538E-01
       225    4.605438E-04
       226   -1.821625E-04
       227    2.030670E-01
       228   -4.855801E-03
       229   -8.847830E-03
       230    1.297827E-01
       231   -1.359851E-05
       232   -2.672884E-07
       233    1.386580E-05
       234   -6.810746E-06
       235   -4.690807E-03
       236    4.897489E-04
       237   -1.632526E-04
       238    5.386224E-05
       239    1.093903E-04
       240   -7.845630E-05
       241   -8.377117E-03
       242    7.341968E-04
       243    2.401990E-04
       244   -5.334555E-04
       245    2.932565E-04
       246   -8.453155E-04
       247   -1.870066E-04
       248    2.669683E-03
       249    5.867423E-06
       250   -1.369818E-06
       251   -1.314380E-03
       252   -3.492545E-06
       253   -6.379446E-07
       254    1.468036E-03
       255   -4.379429E-06
       256    2.475748E-06
       257    2.953893E-04
       258    4.665262E-05
       259   -1.865575E-05
       260   -1.261423E-05
       261    8.262284E-04
       262    9.323429E-06
       263    3.154767E-06
       264    7.762854E-03
       265   -8.487201E-05
       266    3.326339E-04
       267    7.484482E-03
       268    1.522558E-05
       269    3.194237E-05
       270   -9.191708E-05
       271   -8.049413E-06
       272    1.395758E-06
       273   -7.764047E-03
       274    1.461134E-04
       275    1.592300E-04
       276   -7.502958E-03
       277   -9.862258E-06
       278    4.893594E-06
       279    1.828498E-03
       280   -1.745229E-05
       281   -4.454724E-06
       282   -8.608983E-03
       283   -4.725700E-04
       284   -1.105210E-04
       285   -9.539846E-03
       286    1.196899E-05
       287   -1.204848E-05
       288   -2.348440E-03
       289    1.791523E-05
       290   -5.770064E-06
       291    8.610642E-03
       292    5.431678E-04
       293   -2.795197E-04
       294    9.560631E-03
       295   -3.046013E-07
       296   -7.492277E-07
       297    1.555911E-06
       298   -2.030579E-06
       299   -7.911669E-05
       300    9.405462E-05
       301    1.279250E-05
       302    3.900916E-05
       303   -6.012132E-06
       304    9.632314E-06
       305    1.295077E-05
       306   -4.941522E-06
       307   -1.302315E-05
       308   -2.351925E-04
       309   -7.787303E-06
       310    1.272851E-06
       311   -1.417674E-06
       312    1.448228E-07
       313   -4.934205E-06
       314   -7.604377E-07
       315    5.911021E-04
       316    3.464723E-06
       317   -3.699907E-06
       318    2.351838E-07
       319   -2.521155E-05
       320   -2.314528E-06
       321    1.316811E-03
       322    6.199494E-06
       323    5.755293E-06
       324   -1.195479E-05
       325   -1.350324E-04
       326   -3.243323E-06
       327    2.057042E-03
       328   -2.523064E-08
       329   -2.341048E-07
       330    2.110109E-08
       331    6.510249E-08
       332   -6.507814E-07
       333   -1.312953E-07
       334   -3.125203E-08
       335    9.648659E-07
       336    1.029853E-07
       337   -2.727269E-04
       338   -1.331567E-06
       339   -3.385244E-06
       340    5.779290E-06
       341   -6.710838E-06
       342    1.864551E-05
       343    1.570706E-05
       344   -6.984067E-05
       345   -1.236457E-04
       346    2.289212E-02
       347   -6.518708E-05
       348   -1.110176E-04
       349    2.157272E-02
       350    3.942761E-05
       351   -3.701665E-05
       352    1.500305E-02
       353    6.750418E-06
       354    4.035097E-06
       355   -2.533923E-04
       356   -1.317689E-06
       357    1.727192E-06
       358   -4.095029E-07
       359   -4.827473E-07
       360    3.895699E-05
       361   -1.695745E-04
       362   -1.085047E-06
       363    3.452406E-06
       364   -2.367359E-06
       365   -2.874012E-06
       366    1.739810E-04
       367   -7.403348E-04
       368    3.029538E-06
       369   -1.327115E-05
       370    1.024161E-05
       371   -5.754827E-06
       372   -4.034148E-04
       373    3.383253E-04
       374   -3.104927E-07
       375   -3.943852E-07
       376   -1.855445E-05
       377    4.890734E-07
       378    1.271836E-07
       379   -2.662655E-05
       380   -7.250374E-08
       381    4.019396E-07
       382    5.151996E-05
       383   -5.908379E-05
       384    1.447541E-06
       385    3.712796E-06
       386   -6.483936E-06
       387    1.124740E-05
       388   -5.821537E-05
       389   -6.348825E-05
       390    2.353490E-06
       391   -1.104215E-04
       392   -2.286804E-02
       393    4.593279E-06
       394   -9.793930E-05
       395   -2.154988E-02
       396   -8.168639E-05
       397   -3.750157E-05
       398   -1.498583E-02
       399   -1.621790E-05
       400    9.177806E-07
       401    2.552746E-04
       402    1.079921E-06
       403   -1.687965E-06
       404    6.080440E-07
       405   -1.021800E-06
       406   -3.899976E-05
       407   -1.694734E-04
       408    4.374900E-07
       409   -3.108018E-06
       410    2.670528E-06
       411   -4.260530E-06
       412   -1.738654E-04
       413   -7.399578E-04
       414   -3.147559E-06
       415    1.184844E-05
       416   -8.700885E-06
       417   -4.794677E-06
       418    4.038210E-04
       419    3.373944E-04
       420    3.785992E-07
       421   -2.877582E-07
       422    1.854973E-05
       423   -6.097892E-07
       424   -7.853581E-08
       425    2.659947E-05
       426    1.018451E-07
       427    4.646040E-07
       428   -5.148654E-05
       429   -5.905812E-05
       430    8.382236E-08
       431    2.601355E-07
       432   -1.073287E-06
       433    9.111631E-06
       434    1.622412E-05
       435   -6.576036E-05
       436    2.689932E-06
       437    9.007201E-04
       438   -1.037553E-05
       439   -2.305535E-07
       440    1.167151E-03
       441   -1.084694E-05
       442    5.222344E-05
       443    1.492173E-03
       444   -7.725668E-06
       445   -2.975526E-08
       446    5.953493E-08
       447   -2.977967E-08
       448   -1.901933E-05
       449   -1.403266E-07
       450   -2.988965E-04
       451   -1.777619E-07
       452   -5.321617E-07
       453    7.099237E-07
       454    5.027381E-05
       455   -3.002591E-07
       456   -6.496499E-04
       457   -1.447685E-05
       458    4.052300E-06
       459    1.042455E-05
       460    6.171679E-04
       461   -1.242089E-06
       462    1.015863E-03
       463    1.280076E-08
       464    4.180976E-06
       465    5.109401E-08
       466    1.015947E-08
       467    1.456795E-05
       468   -1.220709E-08
       469   -2.733348E-08
       470   -2.017732E-05
       471   -5.634272E-08
       472    1.337253E-04
       473   -6.262101E-05
       474   -5.992323E-04
       475   -3.939794E-03
       476    6.749365E-05
       477    8.194429E-05
       478   -3.736634E-04
       479    2.941676E-04
       480    8.440793E-04
       481   -1.895018E-03
       482    6.226402E-05
       483    6.030595E-04
       484    3.920295E-03
       485   -6.809042E-05
       486    8.232130E-05
       487    3.722910E-04
       488   -2.768474E-04
       489    8.508543E-04
       490    1.889724E-03
 Sym= X
 Ene= -0.612733
 Spin= Alpha
 Occup= -0.612733
         1    1.612112E-04
         2    3.744283E-04
         3   -1.065137E-03
         4    2.432333E-03
         5    9.938557E-03
         6    1.010083E-02
         7   -1.490693E-03
         8   -1.939273E-04
         9   -3.680232E-02
        10    2.206357E-03
        11   -3.745478E-04
        12   -3.473513E-02
        13    3.352923E-02
        14   -1.027901E-02
        15   -8.796359E-03
        16   -1.306803E-06
        17    1.250934E-05
        18   -1.120254E-05
        19    1.021094E-05
        20    6.357613E-03
        21   -4.218480E-03
        22    6.090509E-04
        23   -3.658518E-04
        24   -2.431991E-04
        25    6.381041E-04
        26    1.438004E-02
        27   -7.879805E-03
        28    4.911529E-03
        29   -4.599701E-03
        30   -3.118273E-04
        31   -9.173894E-04
        32   -1.164339E-03
        33    1.000058E-02
        34    1.782782E-05
        35   -6.407562E-06
        36    2.085795E-04
        37   -7.661547E-06
        38    6.602440E-06
        39    6.452839E-04
        40   -1.625698E-05
        41    1.994207E-06
        42   -9.251226E-04
        43    7.405161E-04
        44   -2.877321E-05
        45   -6.321021E-05
        46   -1.011548E-04
        47    2.447836E-03
        48    4.929212E-02
        49   -4.569181E-03
        50   -4.368107E-04
        51   -1.385263E-06
        52   -2.215616E-01
        53    2.932012E-04
        54   -2.052499E-05
        55   -2.292650E-01
        56    1.565081E-02
        57    5.756697E-04
        58   -2.073894E-01
        59   -3.377678E-05
        60    3.144749E-05
        61    2.329295E-06
        62   -9.401873E-08