[Molden Format]
[Title]
ADC(2) - opt by CAM-B3LYP gaussian                                              
[Atoms] AU
 c     1    6 -.12589065566052E+01 -.22830902054421E+01 -.26005390588660E-01
 c     2    6 -.25569912224779E+01 0.86573078000000E-06 -.24733756079320E-01
 c     3    6 -.12589060841737E+01 0.22830907841707E+01 -.26008073999770E-01
 c     4    6 0.13324295737882E+01 0.22846183820847E+01 -.28114684000920E-01
 c     5    6 0.26867573459717E+01 0.39329925000000E-06 -.27723246129760E-01
 c     6    6 0.13324281942881E+01 -.22846180679178E+01 -.28111244699360E-01
 h     7    1 -.22982509786098E+01 -.40377481062879E+01 -.23319125993500E-01
 h     8    1 -.22982490510892E+01 0.40377494409070E+01 -.23324322740370E-01
 h     9    1 0.23514918675648E+01 0.40568894753521E+01 -.30529017005560E-01
 h    10    1 0.23514910360853E+01 -.40568888210345E+01 -.30521911635300E-01
 n    11    7 -.52742123095903E+01 0.14763485000000E-06 -.18925267070140E-01
 o    12    8 -.63809534361791E+01 0.20269762391752E+01 -.16457057973460E-01
 o    13    8 -.63809510362269E+01 -.20269772478165E+01 -.16464881439650E-01
 n    14    7 0.52454603626942E+01 -.57046108000000E-06 -.73989411041200E-01
 h    15    1 0.62036818842731E+01 0.16164996606794E+01 0.19711589672944E+00
 h    16    1 0.62036804102867E+01 -.16165023700742E+01 0.19711149366755E+00
[GTO]
    1 0
 s    6 1.00
 0.13575349682000E+05 0.60645503603591E-03
 0.20352333680000E+04 0.46979088884982E-02
 0.46322562359000E+03 0.24332477647552E-01
 0.13120019598000E+03 0.97399968307759E-01
 0.42853015891000E+02 0.30195584253780E+00
 0.15584185766000E+02 0.66233609137875E+00
 s    2 1.00
 0.62067138508000E+01 0.65595308539952E+00
 0.25764896527000E+01 0.37585633285142E+00
 s    1 1.00
 0.57696339419000E+00 0.10000000000000E+01
 s    1 1.00
 0.22972831358000E+00 0.10000000000000E+01
 s    1 1.00
 0.95164440028000E-01 0.10000000000000E+01
 s    1 1.00
 0.48475401370000E-01 0.10000000000000E+01
 p    4 1.00
 0.34697232244000E+02 0.11327220003114E-01
 0.79582622826000E+01 0.76169659202087E-01
 0.23780826883000E+01 0.30192252202676E+00
 0.81433208183000E+00 0.72785027349547E+00
 p    1 1.00
 0.28887547253000E+00 0.10000000000000E+01
 p    1 1.00
 0.10056823671000E+00 0.10000000000000E+01
 d    1 1.00
 0.10970000000000E+01 0.10000000000000E+01
 d    1 1.00
 0.31800000000000E+00 0.10000000000000E+01
 d    1 1.00
 0.90985336424000E-01 0.10000000000000E+01
 f    1 1.00
 0.76100000000000E+00 0.10000000000000E+01
 
    2 0
 s    6 1.00
 0.13575349682000E+05 0.60645503603591E-03
 0.20352333680000E+04 0.46979088884982E-02
 0.46322562359000E+03 0.24332477647552E-01
 0.13120019598000E+03 0.97399968307759E-01
 0.42853015891000E+02 0.30195584253780E+00
 0.15584185766000E+02 0.66233609137875E+00
 s    2 1.00
 0.62067138508000E+01 0.65595308539952E+00
 0.25764896527000E+01 0.37585633285142E+00
 s    1 1.00
 0.57696339419000E+00 0.10000000000000E+01
 s    1 1.00
 0.22972831358000E+00 0.10000000000000E+01
 s    1 1.00
 0.95164440028000E-01 0.10000000000000E+01
 s    1 1.00
 0.48475401370000E-01 0.10000000000000E+01
 p    4 1.00
 0.34697232244000E+02 0.11327220003114E-01
 0.79582622826000E+01 0.76169659202087E-01
 0.23780826883000E+01 0.30192252202676E+00
 0.81433208183000E+00 0.72785027349547E+00
 p    1 1.00
 0.28887547253000E+00 0.10000000000000E+01
 p    1 1.00
 0.10056823671000E+00 0.10000000000000E+01
 d    1 1.00
 0.10970000000000E+01 0.10000000000000E+01
 d    1 1.00
 0.31800000000000E+00 0.10000000000000E+01
 d    1 1.00
 0.90985336424000E-01 0.10000000000000E+01
 f    1 1.00
 0.76100000000000E+00 0.10000000000000E+01
 
    3 0
 s    6 1.00
 0.13575349682000E+05 0.60645503603591E-03
 0.20352333680000E+04 0.46979088884982E-02
 0.46322562359000E+03 0.24332477647552E-01
 0.13120019598000E+03 0.97399968307759E-01
 0.42853015891000E+02 0.30195584253780E+00
 0.15584185766000E+02 0.66233609137875E+00
 s    2 1.00
 0.62067138508000E+01 0.65595308539952E+00
 0.25764896527000E+01 0.37585633285142E+00
 s    1 1.00
 0.57696339419000E+00 0.10000000000000E+01
 s    1 1.00
 0.22972831358000E+00 0.10000000000000E+01
 s    1 1.00
 0.95164440028000E-01 0.10000000000000E+01
 s    1 1.00
 0.48475401370000E-01 0.10000000000000E+01
 p    4 1.00
 0.34697232244000E+02 0.11327220003114E-01
 0.79582622826000E+01 0.76169659202087E-01
 0.23780826883000E+01 0.30192252202676E+00
 0.81433208183000E+00 0.72785027349547E+00
 p    1 1.00
 0.28887547253000E+00 0.10000000000000E+01
 p    1 1.00
 0.10056823671000E+00 0.10000000000000E+01
 d    1 1.00
 0.10970000000000E+01 0.10000000000000E+01
 d    1 1.00
 0.31800000000000E+00 0.10000000000000E+01
 d    1 1.00
 0.90985336424000E-01 0.10000000000000E+01
 f    1 1.00
 0.76100000000000E+00 0.10000000000000E+01
 
    4 0
 s    6 1.00
 0.13575349682000E+05 0.60645503603591E-03
 0.20352333680000E+04 0.46979088884982E-02
 0.46322562359000E+03 0.24332477647552E-01
 0.13120019598000E+03 0.97399968307759E-01
 0.42853015891000E+02 0.30195584253780E+00
 0.15584185766000E+02 0.66233609137875E+00
 s    2 1.00
 0.62067138508000E+01 0.65595308539952E+00
 0.25764896527000E+01 0.37585633285142E+00
 s    1 1.00
 0.57696339419000E+00 0.10000000000000E+01
 s    1 1.00
 0.22972831358000E+00 0.10000000000000E+01
 s    1 1.00
 0.95164440028000E-01 0.10000000000000E+01
 s    1 1.00
 0.48475401370000E-01 0.10000000000000E+01
 p    4 1.00
 0.34697232244000E+02 0.11327220003114E-01
 0.79582622826000E+01 0.76169659202087E-01
 0.23780826883000E+01 0.30192252202676E+00
 0.81433208183000E+00 0.72785027349547E+00
 p    1 1.00
 0.28887547253000E+00 0.10000000000000E+01
 p    1 1.00
 0.10056823671000E+00 0.10000000000000E+01
 d    1 1.00
 0.10970000000000E+01 0.10000000000000E+01
 d    1 1.00
 0.31800000000000E+00 0.10000000000000E+01
 d    1 1.00
 0.90985336424000E-01 0.10000000000000E+01
 f    1 1.00
 0.76100000000000E+00 0.10000000000000E+01
 
    5 0
 s    6 1.00
 0.13575349682000E+05 0.60645503603591E-03
 0.20352333680000E+04 0.46979088884982E-02
 0.46322562359000E+03 0.24332477647552E-01
 0.13120019598000E+03 0.97399968307759E-01
 0.42853015891000E+02 0.30195584253780E+00
 0.15584185766000E+02 0.66233609137875E+00
 s    2 1.00
 0.62067138508000E+01 0.65595308539952E+00
 0.25764896527000E+01 0.37585633285142E+00
 s    1 1.00
 0.57696339419000E+00 0.10000000000000E+01
 s    1 1.00
 0.22972831358000E+00 0.10000000000000E+01
 s    1 1.00
 0.95164440028000E-01 0.10000000000000E+01
 s    1 1.00
 0.48475401370000E-01 0.10000000000000E+01
 p    4 1.00
 0.34697232244000E+02 0.11327220003114E-01
 0.79582622826000E+01 0.76169659202087E-01
 0.23780826883000E+01 0.30192252202676E+00
 0.81433208183000E+00 0.72785027349547E+00
 p    1 1.00
 0.28887547253000E+00 0.10000000000000E+01
 p    1 1.00
 0.10056823671000E+00 0.10000000000000E+01
 d    1 1.00
 0.10970000000000E+01 0.10000000000000E+01
 d    1 1.00
 0.31800000000000E+00 0.10000000000000E+01
 d    1 1.00
 0.90985336424000E-01 0.10000000000000E+01
 f    1 1.00
 0.76100000000000E+00 0.10000000000000E+01
 
    6 0
 s    6 1.00
 0.13575349682000E+05 0.60645503603591E-03
 0.20352333680000E+04 0.46979088884982E-02
 0.46322562359000E+03 0.24332477647552E-01
 0.13120019598000E+03 0.97399968307759E-01
 0.42853015891000E+02 0.30195584253780E+00
 0.15584185766000E+02 0.66233609137875E+00
 s    2 1.00
 0.62067138508000E+01 0.65595308539952E+00
 0.25764896527000E+01 0.37585633285142E+00
 s    1 1.00
 0.57696339419000E+00 0.10000000000000E+01
 s    1 1.00
 0.22972831358000E+00 0.10000000000000E+01
 s    1 1.00
 0.95164440028000E-01 0.10000000000000E+01
 s    1 1.00
 0.48475401370000E-01 0.10000000000000E+01
 p    4 1.00
 0.34697232244000E+02 0.11327220003114E-01
 0.79582622826000E+01 0.76169659202087E-01
 0.23780826883000E+01 0.30192252202676E+00
 0.81433208183000E+00 0.72785027349547E+00
 p    1 1.00
 0.28887547253000E+00 0.10000000000000E+01
 p    1 1.00
 0.10056823671000E+00 0.10000000000000E+01
 d    1 1.00
 0.10970000000000E+01 0.10000000000000E+01
 d    1 1.00
 0.31800000000000E+00 0.10000000000000E+01
 d    1 1.00
 0.90985336424000E-01 0.10000000000000E+01
 f    1 1.00
 0.76100000000000E+00 0.10000000000000E+01
 
    7 0
 s    3 1.00
 0.34061341000000E+02 0.25439307208879E-01
 0.51235746000000E+01 0.19008594890375E+00
 0.11646626000000E+01 0.85244113011042E+00
 s    1 1.00
 0.32723041000000E+00 0.10000000000000E+01
 s    1 1.00
 0.10307241000000E+00 0.10000000000000E+01
 p    1 1.00
 0.80000000000000E+00 0.10000000000000E+01
 p    1 1.00
 0.95774129632000E-01 0.10000000000000E+01
 
    8 0
 s    3 1.00
 0.34061341000000E+02 0.25439307208879E-01
 0.51235746000000E+01 0.19008594890375E+00
 0.11646626000000E+01 0.85244113011042E+00
 s    1 1.00
 0.32723041000000E+00 0.10000000000000E+01
 s    1 1.00
 0.10307241000000E+00 0.10000000000000E+01
 p    1 1.00
 0.80000000000000E+00 0.10000000000000E+01
 p    1 1.00
 0.95774129632000E-01 0.10000000000000E+01
 
    9 0
 s    3 1.00
 0.34061341000000E+02 0.25439307208879E-01
 0.51235746000000E+01 0.19008594890375E+00
 0.11646626000000E+01 0.85244113011042E+00
 s    1 1.00
 0.32723041000000E+00 0.10000000000000E+01
 s    1 1.00
 0.10307241000000E+00 0.10000000000000E+01
 p    1 1.00
 0.80000000000000E+00 0.10000000000000E+01
 p    1 1.00
 0.95774129632000E-01 0.10000000000000E+01
 
   10 0
 s    3 1.00
 0.34061341000000E+02 0.25439307208879E-01
 0.51235746000000E+01 0.19008594890375E+00
 0.11646626000000E+01 0.85244113011042E+00
 s    1 1.00
 0.32723041000000E+00 0.10000000000000E+01
 s    1 1.00
 0.10307241000000E+00 0.10000000000000E+01
 p    1 1.00
 0.80000000000000E+00 0.10000000000000E+01
 p    1 1.00
 0.95774129632000E-01 0.10000000000000E+01
 
   11 0
 s    6 1.00
 0.19730800647000E+05 0.58626402628763E-03
 0.29578958745000E+04 0.45428820586397E-02
 0.67322133595000E+03 0.23558413450084E-01
 0.19068249494000E+03 0.94709193292923E-01
 0.62295441898000E+02 0.29719784913376E+00
 0.22654161182000E+02 0.66916246895232E+00
 s    2 1.00
 0.89791477428000E+01 0.64596683630063E+00
 0.36863002370000E+01 0.38700574393705E+00
 s    1 1.00
 0.84660076805000E+00 0.10000000000000E+01
 s    1 1.00
 0.33647133771000E+00 0.10000000000000E+01
 s    1 1.00
 0.13647653675000E+00 0.10000000000000E+01
 s    1 1.00
 0.68441605847000E-01 0.10000000000000E+01
 p    4 1.00
 0.49200380510000E+02 0.11448825101764E-01
 0.11346790537000E+02 0.78422337970864E-01
 0.34273972411000E+01 0.30818094738830E+00
 0.11785525134000E+01 0.72027196368413E+00
 p    1 1.00
 0.41642204972000E+00 0.10000000000000E+01
 p    1 1.00
 0.14260826011000E+00 0.10000000000000E+01
 d    1 1.00
 0.16540000000000E+01 0.10000000000000E+01
 d    1 1.00
 0.46900000000000E+00 0.10000000000000E+01
 d    1 1.00
 0.12829642058000E+00 0.10000000000000E+01
 f    1 1.00
 0.10930000000000E+01 0.10000000000000E+01
 
   12 0
 s    6 1.00
 0.27032382631000E+05 0.57227335211155E-03
 0.40523871392000E+04 0.44353233492995E-02
 0.92232722710000E+03 0.23020107706038E-01
 0.26124070989000E+03 0.92822490667928E-01
 0.85354641351000E+02 0.29378500009671E+00
 0.31035035245000E+02 0.67401604501641E+00
 s    2 1.00
 0.12260860728000E+02 0.63839937025506E+00
 0.49987076005000E+01 0.39534587125718E+00
 s    1 1.00
 0.11703108158000E+01 0.10000000000000E+01
 s    1 1.00
 0.46474740994000E+00 0.10000000000000E+01
 s    1 1.00
 0.18504536357000E+00 0.10000000000000E+01
 s    1 1.00
 0.70288026270000E-01 0.10000000000000E+01
 p    4 1.00
 0.63274954801000E+02 0.12018332222616E-01
 0.14627049379000E+02 0.83005421790056E-01
 0.44501223456000E+01 0.31991743925964E+00
 0.15275799647000E+01 0.70715542916104E+00
 p    1 1.00
 0.52935117943000E+00 0.10000000000000E+01
 p    1 1.00
 0.17478421270000E+00 0.10000000000000E+01
 p    1 1.00
 0.51112745706000E-01 0.10000000000000E+01
 d    1 1.00
 0.23140000000000E+01 0.10000000000000E+01
 d    1 1.00
 0.64500000000000E+00 0.10000000000000E+01
 d    1 1.00
 0.14696477366000E+00 0.10000000000000E+01
 f    1 1.00
 0.14280000000000E+01 0.10000000000000E+01
 
   13 0
 s    6 1.00
 0.27032382631000E+05 0.57227335211155E-03
 0.40523871392000E+04 0.44353233492995E-02
 0.92232722710000E+03 0.23020107706038E-01
 0.26124070989000E+03 0.92822490667928E-01
 0.85354641351000E+02 0.29378500009671E+00
 0.31035035245000E+02 0.67401604501641E+00
 s    2 1.00
 0.12260860728000E+02 0.63839937025506E+00
 0.49987076005000E+01 0.39534587125718E+00
 s    1 1.00
 0.11703108158000E+01 0.10000000000000E+01
 s    1 1.00
 0.46474740994000E+00 0.10000000000000E+01
 s    1 1.00
 0.18504536357000E+00 0.10000000000000E+01
 s    1 1.00
 0.70288026270000E-01 0.10000000000000E+01
 p    4 1.00
 0.63274954801000E+02 0.12018332222616E-01
 0.14627049379000E+02 0.83005421790056E-01
 0.44501223456000E+01 0.31991743925964E+00
 0.15275799647000E+01 0.70715542916104E+00
 p    1 1.00
 0.52935117943000E+00 0.10000000000000E+01
 p    1 1.00
 0.17478421270000E+00 0.10000000000000E+01
 p    1 1.00
 0.51112745706000E-01 0.10000000000000E+01
 d    1 1.00
 0.23140000000000E+01 0.10000000000000E+01
 d    1 1.00
 0.64500000000000E+00 0.10000000000000E+01
 d    1 1.00
 0.14696477366000E+00 0.10000000000000E+01
 f    1 1.00
 0.14280000000000E+01 0.10000000000000E+01
 
   14 0
 s    6 1.00
 0.19730800647000E+05 0.58626402628763E-03
 0.29578958745000E+04 0.45428820586397E-02
 0.67322133595000E+03 0.23558413450084E-01
 0.19068249494000E+03 0.94709193292923E-01
 0.62295441898000E+02 0.29719784913376E+00
 0.22654161182000E+02 0.66916246895232E+00
 s    2 1.00
 0.89791477428000E+01 0.64596683630063E+00
 0.36863002370000E+01 0.38700574393705E+00
 s    1 1.00
 0.84660076805000E+00 0.10000000000000E+01
 s    1 1.00
 0.33647133771000E+00 0.10000000000000E+01
 s    1 1.00
 0.13647653675000E+00 0.10000000000000E+01
 s    1 1.00
 0.68441605847000E-01 0.10000000000000E+01
 p    4 1.00
 0.49200380510000E+02 0.11448825101764E-01
 0.11346790537000E+02 0.78422337970864E-01
 0.34273972411000E+01 0.30818094738830E+00
 0.11785525134000E+01 0.72027196368413E+00
 p    1 1.00
 0.41642204972000E+00 0.10000000000000E+01
 p    1 1.00
 0.14260826011000E+00 0.10000000000000E+01
 d    1 1.00
 0.16540000000000E+01 0.10000000000000E+01
 d    1 1.00
 0.46900000000000E+00 0.10000000000000E+01
 d    1 1.00
 0.12829642058000E+00 0.10000000000000E+01
 f    1 1.00
 0.10930000000000E+01 0.10000000000000E+01
 
   15 0
 s    3 1.00
 0.34061341000000E+02 0.25439307208879E-01
 0.51235746000000E+01 0.19008594890375E+00
 0.11646626000000E+01 0.85244113011042E+00
 s    1 1.00
 0.32723041000000E+00 0.10000000000000E+01
 s    1 1.00
 0.10307241000000E+00 0.10000000000000E+01
 p    1 1.00
 0.80000000000000E+00 0.10000000000000E+01
 p    1 1.00
 0.95774129632000E-01 0.10000000000000E+01
 
   16 0
 s    3 1.00
 0.34061341000000E+02 0.25439307208879E-01
 0.51235746000000E+01 0.19008594890375E+00
 0.11646626000000E+01 0.85244113011042E+00
 s    1 1.00
 0.32723041000000E+00 0.10000000000000E+01
 s    1 1.00
 0.10307241000000E+00 0.10000000000000E+01
 p    1 1.00
 0.80000000000000E+00 0.10000000000000E+01
 p    1 1.00
 0.95774129632000E-01 0.10000000000000E+01
 
[MO]
 Sym= X
 Ene= -0.073113
 Spin= Alpha
 Occup= -0.073113
         1    3.541852E-04
         2    8.107769E-04
         3   -1.665457E-03
         4    8.898481E-04
         5   -9.799568E-03
         6    1.076753E-02
         7   -4.827976E-03
         8   -6.633487E-04
         9    1.292920E-01
        10   -3.654567E-04
        11   -9.596310E-04
        12    1.274462E-01
        13    2.077167E-02
        14   -1.393038E-03
        15    4.925178E-02
        16   -1.201476E-04
        17    1.087213E-04
        18    1.142628E-05
        19    6.668249E-05
        20   -1.250270E-03
        21    4.409790E-03
        22    3.635007E-04
        23   -2.371952E-04
        24   -1.263055E-04
        25    8.210414E-04
        26   -3.223351E-03
        27    7.427656E-03
        28    1.817250E-03
        29   -1.606672E-03
        30   -2.105779E-04
        31   -1.935446E-03
        32   -6.877785E-03
        33    5.081499E-03
        34    3.997008E-06
        35   -1.294954E-05
        36   -1.060348E-03
        37    1.461084E-06
        38    1.235216E-05
        39    4.780541E-04
        40   -6.823633E-06
        41    5.021466E-06
        42    9.445518E-04
        43   -5.469498E-04
        44   -1.471797E-04
        45   -3.275659E-04
        46    1.135378E-04
        47    4.770722E-03
        48    1.304131E-02
        49   -9.938021E-03
        50    6.825851E-04
        51   -4.459994E-06
        52    2.123816E-01
        53    1.610156E-03
        54    1.234881E-05
        55    2.153975E-01
        56    8.669129E-03
        57    5.417526E-04
        58    7.935422E-02
        59   -1.377726E-04
        60    1.435487E-04
        61   -5.776077E-06
        62   -2.099459E-07
        63    2.678486E-03
        64   -3.402958E-07
        65   -5.941081E-04
        66    8.552451E-04
        67   -2.611370E-04
        68    2.878986E-06
        69    3.883846E-03
        70    1.934291E-08
        71   -1.181001E-02
        72    1.222273E-02
        73   -4.127270E-04
        74    3.391430E-05
        75    7.760709E-03
        76    1.137144E-05
        77   -2.117641E-07
        78    9.527343E-08
        79   -1.594295E-03
        80    1.169674E-05
        81   -3.910520E-08
        82    7.969735E-04
        83   -1.141263E-05
        84   -8.871752E-08
        85    1.341998E-03
        86    9.124078E-09
        87    3.543845E-04
        88    8.112103E-04
        89   -1.664504E-03
        90    8.962812E-04
        91   -1.161152E-02
        92    1.081549E-02
        93   -4.828549E-03
        94    6.712364E-04
        95    1.292803E-01
        96   -3.552744E-04
        97    9.849576E-04
        98    1.274365E-01
        99    2.062489E-02
       100    2.018427E-03
       101    4.921131E-02
       102   -1.198261E-04
       103    1.085770E-04
       104    1.124911E-05
       105   -6.728306E-05
       106   -1.250555E-03
       107   -4.409889E-03
       108    3.624979E-04
       109   -2.372965E-04
       110   -1.252014E-04
       111   -8.268573E-04
       112   -3.221814E-03
       113   -7.426004E-03
       114    1.777842E-03
       115   -1.580131E-03
       116   -1.977102E-04
       117    1.915011E-03
       118   -6.863796E-03
       119   -5.047334E-03
       120    3.926524E-06
       121    1.304097E-05
       122   -1.060329E-03
       123    1.548515E-06
       124   -1.230193E-05
       125    4.780780E-04
       126   -6.816500E-06
       127   -5.194365E-06
       128    9.445032E-04
       129    5.468391E-04
       130   -2.824643E-04
       131   -6.263290E-04
       132   -3.193208E-05
       133    1.099274E-02
       134    3.909508E-03
       135   -1.249717E-02
       136    4.870865E-03
       137   -2.045098E-03
       138    2.492346E-02
       139    1.127061E-02
       140   -6.901761E-03
       141    2.480194E-02
       142    9.606806E-03
       143    9.963795E-03
       144    1.751531E-03
       145   -3.165422E-04
       146    3.676352E-04
       147   -5.109295E-05
       148   -2.599764E-05
       149   -3.995852E-03
       150    9.867187E-04
       151   -5.905524E-04
       152    8.353941E-04
       153   -2.448417E-04
       154   -1.715679E-03
       155   -7.088778E-03
       156    2.313081E-03
       157   -6.920551E-03
       158    5.753783E-03
       159    1.166768E-03
       160    8.302759E-03
       161   -3.439078E-03
       162    1.192701E-02
       163    1.507475E-05
       164   -2.456824E-05
       165   -2.178235E-04
       166    3.125553E-05
       167   -1.313808E-06
       168    4.825118E-04
       169   -5.148042E-05
       170    3.427555E-05
       171   -1.902709E-04
       172    3.991607E-04
       173    1.071295E-03
       174    2.421181E-03
       175   -2.725296E-03
       176   -1.518116E-02
       177    5.296379E-02
       178   -1.283185E-04
       179   -1.515656E-02
       180    8.980051E-06
       181   -9.876865E-02
       182   -3.469539E-03
       183    1.903754E-05
       184   -9.545055E-02
       185    3.819097E-02
       186   -4.569675E-05
       187    1.297807E-02
       188   -7.338229E-04
       189    5.259462E-04
       190    2.078767E-04
       191   -4.760727E-07
       192   -6.333227E-03
       193   -1.433148E-07
       194    1.825708E-03
       195   -3.718852E-03
       196    1.893144E-03
       197   -4.362197E-06
       198   -1.276330E-02
       199   -2.070134E-06
       200    7.593547E-03
       201   -7.813421E-03
       202    2.198737E-04
       203    2.925710E-05
       204   -3.881266E-03
       205   -2.843366E-05
       206   -1.334806E-04
       207    7.413524E-08
       208    9.428622E-04
       209    7.656399E-05
       210    4.431793E-08
       211   -1.375671E-03
       212    1.025191E-04
       213   -1.437808E-07
       214    1.106889E-04
       215    1.064668E-07
       216   -2.814718E-04
       217   -6.239643E-04
       218   -4.048229E-05
       219    1.103465E-02
       220    2.871072E-03
       221   -1.244320E-02
       222    4.868420E-03
       223    2.029545E-03
       224    2.493272E-02
       225    1.128111E-02
       226    6.909200E-03
       227    2.481127E-02
       228    1.000427E-02
       229   -1.027733E-02
       230    1.684807E-03
       231   -3.168377E-04
       232    3.678514E-04
       233   -5.101366E-05
       234    2.520255E-05
       235   -3.996139E-03
       236   -9.865732E-04
       237   -5.908449E-04
       238    8.375163E-04
       239   -2.466714E-04
       240    1.717758E-03
       241   -7.090567E-03
       242   -2.314866E-03
       243   -6.907407E-03
       244    5.737832E-03
       245    1.169575E-03
       246   -8.249688E-03
       247   -3.465764E-03
       248   -1.195733E-02
       249    1.495964E-05
       250    2.456743E-05
       251   -2.178316E-04
       252    3.140557E-05
       253    1.283648E-06
       254    4.826122E-04
       255   -5.147604E-05
       256   -3.424431E-05
       257   -1.903605E-04
       258   -3.992153E-04
       259    1.358087E-03
       260    1.831567E-03
       261    1.838766E-02
       262    3.255328E-05
       263    1.641573E-04
       264    4.646072E-03
       265    4.290736E-03
       266    1.493026E-03
       267    2.133982E-03
       268    1.362507E-03
       269    1.829714E-03
       270    1.818809E-02
       271    3.230010E-05
       272   -1.637009E-04
       273    4.645586E-03
       274    4.254222E-03
       275   -1.490553E-03
       276    2.116903E-03
       277    1.123997E-03
       278    3.318159E-03
       279   -3.390813E-02
       280    4.665178E-05
       281   -2.204116E-04
       282    4.181758E-04
       283    4.899942E-03
       284    2.173555E-03
       285   -9.977530E-03
       286    1.130587E-03
       287    3.320860E-03
       288   -3.398045E-02
       289    4.535732E-05
       290    2.201272E-04
       291    4.185724E-04
       292    4.913346E-03
       293   -2.195355E-03
       294   -9.987959E-03
       295    1.364400E-04
       296    3.221540E-04
       297   -4.240342E-04
       298   -1.076241E-03
       299    1.012156E-02
       300    5.627678E-03
       301   -1.550707E-03
       302   -5.107317E-07
       303   -3.328976E-02
       304   -1.120155E-03
       305    3.434633E-06
       306   -3.154479E-02
       307    4.029132E-03
       308   -4.290167E-05
       309    4.254998E-03
       310    2.500206E-05
       311   -1.799356E-06
       312   -2.320271E-05
       313    6.895488E-08
       314    4.480519E-03
       315   -1.352504E-06
       316    1.256608E-04
       317   -8.407392E-05
       318   -4.158683E-05
       319   -4.333923E-07
       320    1.258741E-02
       321   -4.062920E-06
       322    1.492070E-04
       323   -2.110126E-03
       324    1.960919E-03
       325   -2.014805E-05
       326    5.443083E-03
       327    3.434687E-06
       328   -3.136834E-06
       329    3.041709E-08
       330    2.317742E-04
       331    7.808012E-07
       332   -1.227228E-08
       333    5.806806E-04
       334    3.427703E-06
       335   -2.853652E-08
       336   -8.916383E-04
       337    2.304915E-07
       338    6.778592E-05
       339    1.626236E-04
       340   -2.075782E-04
       341   -8.026269E-04
       342    5.195157E-03
       343    6.222653E-04
       344   -6.108191E-04
       345   -7.136014E-04
       346   -9.043725E-02
       347   -4.193743E-04
       348   -7.395493E-04
       349   -8.308685E-02
       350    3.266153E-04
       351   -1.068611E-03
       352   -5.783053E-02
       353    2.499757E-04
       354   -3.156774E-05
       355   -4.900718E-03
       356   -1.332548E-05
       357    1.675896E-05
       358   -3.433480E-06
       359    7.200601E-06
       360   -3.523111E-04
       361    1.057409E-03
       362   -2.032961E-05
       363    4.681595E-05
       364   -2.648635E-05
       365    1.841339E-05
       366   -1.503707E-03
       367    3.215446E-03
       368   -2.818332E-06
       369    6.779071E-05
       370   -6.497238E-05
       371    6.755424E-05
       372   -1.784127E-03
       373    6.834742E-04
       374   -2.572740E-07
       375   -6.619597E-06
       376    1.734910E-04
       377    7.364008E-07
       378    7.302768E-06
       379    7.931310E-05
       380   -3.912314E-07
       381    1.578353E-06
       382   -3.120757E-04
       383    2.758742E-04
       384    6.772383E-05
       385    1.624335E-04
       386   -2.070503E-04
       387   -8.045790E-04
       388    5.208580E-03
       389    6.395806E-04
       390   -6.163076E-04
       391    7.185736E-04
       392   -9.036271E-02
       393   -4.233814E-04
       394    7.460248E-04
       395   -8.301937E-02
       396    3.084369E-04
       397    1.073442E-03
       398   -5.777138E-02
       399    2.546629E-04
       400    2.937257E-05
       401   -4.891527E-03
       402   -1.331615E-05
       403    1.676012E-05
       404   -3.443976E-06
       405   -7.212696E-06
       406   -3.519394E-04
       407   -1.056793E-03
       408   -2.077379E-05
       409    4.759003E-05
       410   -2.681624E-05
       411   -1.811921E-05
       412   -1.502287E-03
       413   -3.213442E-03
       414   -8.547092E-07
       415    6.588111E-05
       416   -6.502640E-05
       417   -7.202220E-05
       418   -1.782827E-03
       419   -6.801498E-04
       420   -2.581266E-07
       421    6.650725E-06
       422    1.733791E-04
       423    7.858937E-07
       424   -7.327997E-06
       425    7.929552E-05
       426   -4.395805E-07
       427   -1.594887E-06
       428   -3.119080E-04
       429   -2.756740E-04
       430   -4.443492E-03
       431   -1.050897E-02
       432    1.619550E-02
       433    2.590222E-02
       434    4.336213E-03
       435    2.912843E-02
       436    2.047636E-02
       437   -9.866410E-06
       438   -2.396418E-01
       439    2.294984E-02
       440   -4.301225E-06
       441   -2.326819E-01
       442    3.030667E-02
       443    6.514364E-05
       444   -1.582443E-01
       445    7.735930E-05
       446    1.718714E-04
       447   -2.492307E-04
       448   -3.917648E-07
       449    2.003038E-03
       450   -3.007149E-07
       451   -1.328130E-04
       452    2.103636E-03
       453   -1.970823E-03
       454    2.729767E-06
       455    4.252686E-03
       456   -1.158303E-06
       457   -1.520500E-03
       458    5.857387E-03
       459   -4.336887E-03
       460    5.113701E-06
       461    5.193474E-04
       462   -5.728476E-06
       463    9.194584E-05
       464   -7.277709E-08
       465    1.294193E-03
       466    1.124386E-04
       467    1.871843E-08
       468   -1.120170E-03
       469   -2.357969E-04
       470    7.892228E-08
       471   -6.161728E-04
       472   -1.657906E-08
       473   -5.750740E-03
       474   -1.365977E-02
       475   -2.445372E-02
       476    2.400868E-03
       477    1.711519E-03
       478   -1.097523E-02
       479    3.126840E-03
       480    2.166084E-03
       481   -4.468346E-03
       482   -5.742374E-03
       483   -1.360141E-02
       484   -2.434167E-02
       485    2.397499E-03
       486   -1.706218E-03
       487   -1.097762E-02
       488    3.121064E-03
       489   -2.139946E-03
       490   -4.484263E-03
 Sym= X
 Ene= -0.777653
 Spin= Alpha
 Occup= -0.777653
         1   -2.152270E-04
         2   -4.988298E-04
         3    1.318373E-03
         4   -2.523817E-03
         5   -8.452789E-03
         6   -1.159777E-02
         7    1.980310E-03
         8    2.272306E-04
         9    2.370462E-02
        10   -2.296840E-03
        11    4.582013E-04
        12    2.182076E-02
        13   -3.661909E-02
        14    1.052100E-02
        15    3.143561E-03
        16    1.263918E-05
        17   -2.185718E-05
        18    9.217996E-06
        19   -1.519934E-05
        20   -6.163155E-03
        21    3.743378E-03
        22   -6.669952E-04
        23    4.052007E-04
        24    2.617945E-04
        25   -7.480428E-04
        26   -1.392363E-02
        27    7.072073E-03
        28   -5.192801E-03
        29    4.852453E-03
        30    3.403477E-04
        31    1.216446E-03
        32    1.902932E-03
        33   -1.104822E-02
        34   -1.876629E-05
        35    7.669312E-06
        36   -1.008132E-04
        37    7.272330E-06
        38   -7.714130E-06
        39   -6.898226E-04
        40    1.790529E-05
        41   -2.575332E-06
        42    8.250777E-04
        43   -6.752202E-04
        44    4.024729E-05
        45    8.866500E-05
        46    1.119572E-04
        47   -3.057070E-03
        48   -5.141512E-02
        49    5.887342E-03
        50    3.701858E-04
        51    1.895790E-06
        52    1.977262E-01
        53   -4.991263E-04
        54    1.893369E-05
        55    2.051861E-01
        56   -1.697536E-02
        57   -6.318507E-04
        58    2.010394E-01
        59    4.721878E-05
        60   -4.482874E-05
        61   -2.390047E-06
        62    1.045537E-07