[Molden Format]
[Title]
ADC(2) - opt by CAM-B3LYP gaussian                                              
[Atoms] AU
 c     1    6 -.12589065566052E+01 -.22830902054421E+01 -.26005390588660E-01
 c     2    6 -.25569912224779E+01 0.86573078000000E-06 -.24733756079320E-01
 c     3    6 -.12589060841737E+01 0.22830907841707E+01 -.26008073999770E-01
 c     4    6 0.13324295737882E+01 0.22846183820847E+01 -.28114684000920E-01
 c     5    6 0.26867573459717E+01 0.39329925000000E-06 -.27723246129760E-01
 c     6    6 0.13324281942881E+01 -.22846180679178E+01 -.28111244699360E-01
 h     7    1 -.22982509786098E+01 -.40377481062879E+01 -.23319125993500E-01
 h     8    1 -.22982490510892E+01 0.40377494409070E+01 -.23324322740370E-01
 h     9    1 0.23514918675648E+01 0.40568894753521E+01 -.30529017005560E-01
 h    10    1 0.23514910360853E+01 -.40568888210345E+01 -.30521911635300E-01
 n    11    7 -.52742123095903E+01 0.14763485000000E-06 -.18925267070140E-01
 o    12    8 -.63809534361791E+01 0.20269762391752E+01 -.16457057973460E-01
 o    13    8 -.63809510362269E+01 -.20269772478165E+01 -.16464881439650E-01
 n    14    7 0.52454603626942E+01 -.57046108000000E-06 -.73989411041200E-01
 h    15    1 0.62036818842731E+01 0.16164996606794E+01 0.19711589672944E+00
 h    16    1 0.62036804102867E+01 -.16165023700742E+01 0.19711149366755E+00
[GTO]
    1 0
 s    6 1.00
 0.13575349682000E+05 0.60645503603591E-03
 0.20352333680000E+04 0.46979088884982E-02
 0.46322562359000E+03 0.24332477647552E-01
 0.13120019598000E+03 0.97399968307759E-01
 0.42853015891000E+02 0.30195584253780E+00
 0.15584185766000E+02 0.66233609137875E+00
 s    2 1.00
 0.62067138508000E+01 0.65595308539952E+00
 0.25764896527000E+01 0.37585633285142E+00
 s    1 1.00
 0.57696339419000E+00 0.10000000000000E+01
 s    1 1.00
 0.22972831358000E+00 0.10000000000000E+01
 s    1 1.00
 0.95164440028000E-01 0.10000000000000E+01
 s    1 1.00
 0.48475401370000E-01 0.10000000000000E+01
 p    4 1.00
 0.34697232244000E+02 0.11327220003114E-01
 0.79582622826000E+01 0.76169659202087E-01
 0.23780826883000E+01 0.30192252202676E+00
 0.81433208183000E+00 0.72785027349547E+00
 p    1 1.00
 0.28887547253000E+00 0.10000000000000E+01
 p    1 1.00
 0.10056823671000E+00 0.10000000000000E+01
 d    1 1.00
 0.10970000000000E+01 0.10000000000000E+01
 d    1 1.00
 0.31800000000000E+00 0.10000000000000E+01
 d    1 1.00
 0.90985336424000E-01 0.10000000000000E+01
 f    1 1.00
 0.76100000000000E+00 0.10000000000000E+01
 
    2 0
 s    6 1.00
 0.13575349682000E+05 0.60645503603591E-03
 0.20352333680000E+04 0.46979088884982E-02
 0.46322562359000E+03 0.24332477647552E-01
 0.13120019598000E+03 0.97399968307759E-01
 0.42853015891000E+02 0.30195584253780E+00
 0.15584185766000E+02 0.66233609137875E+00
 s    2 1.00
 0.62067138508000E+01 0.65595308539952E+00
 0.25764896527000E+01 0.37585633285142E+00
 s    1 1.00
 0.57696339419000E+00 0.10000000000000E+01
 s    1 1.00
 0.22972831358000E+00 0.10000000000000E+01
 s    1 1.00
 0.95164440028000E-01 0.10000000000000E+01
 s    1 1.00
 0.48475401370000E-01 0.10000000000000E+01
 p    4 1.00
 0.34697232244000E+02 0.11327220003114E-01
 0.79582622826000E+01 0.76169659202087E-01
 0.23780826883000E+01 0.30192252202676E+00
 0.81433208183000E+00 0.72785027349547E+00
 p    1 1.00
 0.28887547253000E+00 0.10000000000000E+01
 p    1 1.00
 0.10056823671000E+00 0.10000000000000E+01
 d    1 1.00
 0.10970000000000E+01 0.10000000000000E+01
 d    1 1.00
 0.31800000000000E+00 0.10000000000000E+01
 d    1 1.00
 0.90985336424000E-01 0.10000000000000E+01
 f    1 1.00
 0.76100000000000E+00 0.10000000000000E+01
 
    3 0
 s    6 1.00
 0.13575349682000E+05 0.60645503603591E-03
 0.20352333680000E+04 0.46979088884982E-02
 0.46322562359000E+03 0.24332477647552E-01
 0.13120019598000E+03 0.97399968307759E-01
 0.42853015891000E+02 0.30195584253780E+00
 0.15584185766000E+02 0.66233609137875E+00
 s    2 1.00
 0.62067138508000E+01 0.65595308539952E+00
 0.25764896527000E+01 0.37585633285142E+00
 s    1 1.00
 0.57696339419000E+00 0.10000000000000E+01
 s    1 1.00
 0.22972831358000E+00 0.10000000000000E+01
 s    1 1.00
 0.95164440028000E-01 0.10000000000000E+01
 s    1 1.00
 0.48475401370000E-01 0.10000000000000E+01
 p    4 1.00
 0.34697232244000E+02 0.11327220003114E-01
 0.79582622826000E+01 0.76169659202087E-01
 0.23780826883000E+01 0.30192252202676E+00
 0.81433208183000E+00 0.72785027349547E+00
 p    1 1.00
 0.28887547253000E+00 0.10000000000000E+01
 p    1 1.00
 0.10056823671000E+00 0.10000000000000E+01
 d    1 1.00
 0.10970000000000E+01 0.10000000000000E+01
 d    1 1.00
 0.31800000000000E+00 0.10000000000000E+01
 d    1 1.00
 0.90985336424000E-01 0.10000000000000E+01
 f    1 1.00
 0.76100000000000E+00 0.10000000000000E+01
 
    4 0
 s    6 1.00
 0.13575349682000E+05 0.60645503603591E-03
 0.20352333680000E+04 0.46979088884982E-02
 0.46322562359000E+03 0.24332477647552E-01
 0.13120019598000E+03 0.97399968307759E-01
 0.42853015891000E+02 0.30195584253780E+00
 0.15584185766000E+02 0.66233609137875E+00
 s    2 1.00
 0.62067138508000E+01 0.65595308539952E+00
 0.25764896527000E+01 0.37585633285142E+00
 s    1 1.00
 0.57696339419000E+00 0.10000000000000E+01
 s    1 1.00
 0.22972831358000E+00 0.10000000000000E+01
 s    1 1.00
 0.95164440028000E-01 0.10000000000000E+01
 s    1 1.00
 0.48475401370000E-01 0.10000000000000E+01
 p    4 1.00
 0.34697232244000E+02 0.11327220003114E-01
 0.79582622826000E+01 0.76169659202087E-01
 0.23780826883000E+01 0.30192252202676E+00
 0.81433208183000E+00 0.72785027349547E+00
 p    1 1.00
 0.28887547253000E+00 0.10000000000000E+01
 p    1 1.00
 0.10056823671000E+00 0.10000000000000E+01
 d    1 1.00
 0.10970000000000E+01 0.10000000000000E+01
 d    1 1.00
 0.31800000000000E+00 0.10000000000000E+01
 d    1 1.00
 0.90985336424000E-01 0.10000000000000E+01
 f    1 1.00
 0.76100000000000E+00 0.10000000000000E+01
 
    5 0
 s    6 1.00
 0.13575349682000E+05 0.60645503603591E-03
 0.20352333680000E+04 0.46979088884982E-02
 0.46322562359000E+03 0.24332477647552E-01
 0.13120019598000E+03 0.97399968307759E-01
 0.42853015891000E+02 0.30195584253780E+00
 0.15584185766000E+02 0.66233609137875E+00
 s    2 1.00
 0.62067138508000E+01 0.65595308539952E+00
 0.25764896527000E+01 0.37585633285142E+00
 s    1 1.00
 0.57696339419000E+00 0.10000000000000E+01
 s    1 1.00
 0.22972831358000E+00 0.10000000000000E+01
 s    1 1.00
 0.95164440028000E-01 0.10000000000000E+01
 s    1 1.00
 0.48475401370000E-01 0.10000000000000E+01
 p    4 1.00
 0.34697232244000E+02 0.11327220003114E-01
 0.79582622826000E+01 0.76169659202087E-01
 0.23780826883000E+01 0.30192252202676E+00
 0.81433208183000E+00 0.72785027349547E+00
 p    1 1.00
 0.28887547253000E+00 0.10000000000000E+01
 p    1 1.00
 0.10056823671000E+00 0.10000000000000E+01
 d    1 1.00
 0.10970000000000E+01 0.10000000000000E+01
 d    1 1.00
 0.31800000000000E+00 0.10000000000000E+01
 d    1 1.00
 0.90985336424000E-01 0.10000000000000E+01
 f    1 1.00
 0.76100000000000E+00 0.10000000000000E+01
 
    6 0
 s    6 1.00
 0.13575349682000E+05 0.60645503603591E-03
 0.20352333680000E+04 0.46979088884982E-02
 0.46322562359000E+03 0.24332477647552E-01
 0.13120019598000E+03 0.97399968307759E-01
 0.42853015891000E+02 0.30195584253780E+00
 0.15584185766000E+02 0.66233609137875E+00
 s    2 1.00
 0.62067138508000E+01 0.65595308539952E+00
 0.25764896527000E+01 0.37585633285142E+00
 s    1 1.00
 0.57696339419000E+00 0.10000000000000E+01
 s    1 1.00
 0.22972831358000E+00 0.10000000000000E+01
 s    1 1.00
 0.95164440028000E-01 0.10000000000000E+01
 s    1 1.00
 0.48475401370000E-01 0.10000000000000E+01
 p    4 1.00
 0.34697232244000E+02 0.11327220003114E-01
 0.79582622826000E+01 0.76169659202087E-01
 0.23780826883000E+01 0.30192252202676E+00
 0.81433208183000E+00 0.72785027349547E+00
 p    1 1.00
 0.28887547253000E+00 0.10000000000000E+01
 p    1 1.00
 0.10056823671000E+00 0.10000000000000E+01
 d    1 1.00
 0.10970000000000E+01 0.10000000000000E+01
 d    1 1.00
 0.31800000000000E+00 0.10000000000000E+01
 d    1 1.00
 0.90985336424000E-01 0.10000000000000E+01
 f    1 1.00
 0.76100000000000E+00 0.10000000000000E+01
 
    7 0
 s    3 1.00
 0.34061341000000E+02 0.25439307208879E-01
 0.51235746000000E+01 0.19008594890375E+00
 0.11646626000000E+01 0.85244113011042E+00
 s    1 1.00
 0.32723041000000E+00 0.10000000000000E+01
 s    1 1.00
 0.10307241000000E+00 0.10000000000000E+01
 p    1 1.00
 0.80000000000000E+00 0.10000000000000E+01
 p    1 1.00
 0.95774129632000E-01 0.10000000000000E+01
 
    8 0
 s    3 1.00
 0.34061341000000E+02 0.25439307208879E-01
 0.51235746000000E+01 0.19008594890375E+00
 0.11646626000000E+01 0.85244113011042E+00
 s    1 1.00
 0.32723041000000E+00 0.10000000000000E+01
 s    1 1.00
 0.10307241000000E+00 0.10000000000000E+01
 p    1 1.00
 0.80000000000000E+00 0.10000000000000E+01
 p    1 1.00
 0.95774129632000E-01 0.10000000000000E+01
 
    9 0
 s    3 1.00
 0.34061341000000E+02 0.25439307208879E-01
 0.51235746000000E+01 0.19008594890375E+00
 0.11646626000000E+01 0.85244113011042E+00
 s    1 1.00
 0.32723041000000E+00 0.10000000000000E+01
 s    1 1.00
 0.10307241000000E+00 0.10000000000000E+01
 p    1 1.00
 0.80000000000000E+00 0.10000000000000E+01
 p    1 1.00
 0.95774129632000E-01 0.10000000000000E+01
 
   10 0
 s    3 1.00
 0.34061341000000E+02 0.25439307208879E-01
 0.51235746000000E+01 0.19008594890375E+00
 0.11646626000000E+01 0.85244113011042E+00
 s    1 1.00
 0.32723041000000E+00 0.10000000000000E+01
 s    1 1.00
 0.10307241000000E+00 0.10000000000000E+01
 p    1 1.00
 0.80000000000000E+00 0.10000000000000E+01
 p    1 1.00
 0.95774129632000E-01 0.10000000000000E+01
 
   11 0
 s    6 1.00
 0.19730800647000E+05 0.58626402628763E-03
 0.29578958745000E+04 0.45428820586397E-02
 0.67322133595000E+03 0.23558413450084E-01
 0.19068249494000E+03 0.94709193292923E-01
 0.62295441898000E+02 0.29719784913376E+00
 0.22654161182000E+02 0.66916246895232E+00
 s    2 1.00
 0.89791477428000E+01 0.64596683630063E+00
 0.36863002370000E+01 0.38700574393705E+00
 s    1 1.00
 0.84660076805000E+00 0.10000000000000E+01
 s    1 1.00
 0.33647133771000E+00 0.10000000000000E+01
 s    1 1.00
 0.13647653675000E+00 0.10000000000000E+01
 s    1 1.00
 0.68441605847000E-01 0.10000000000000E+01
 p    4 1.00
 0.49200380510000E+02 0.11448825101764E-01
 0.11346790537000E+02 0.78422337970864E-01
 0.34273972411000E+01 0.30818094738830E+00
 0.11785525134000E+01 0.72027196368413E+00
 p    1 1.00
 0.41642204972000E+00 0.10000000000000E+01
 p    1 1.00
 0.14260826011000E+00 0.10000000000000E+01
 d    1 1.00
 0.16540000000000E+01 0.10000000000000E+01
 d    1 1.00
 0.46900000000000E+00 0.10000000000000E+01
 d    1 1.00
 0.12829642058000E+00 0.10000000000000E+01
 f    1 1.00
 0.10930000000000E+01 0.10000000000000E+01
 
   12 0
 s    6 1.00
 0.27032382631000E+05 0.57227335211155E-03
 0.40523871392000E+04 0.44353233492995E-02
 0.92232722710000E+03 0.23020107706038E-01
 0.26124070989000E+03 0.92822490667928E-01
 0.85354641351000E+02 0.29378500009671E+00
 0.31035035245000E+02 0.67401604501641E+00
 s    2 1.00
 0.12260860728000E+02 0.63839937025506E+00
 0.49987076005000E+01 0.39534587125718E+00
 s    1 1.00
 0.11703108158000E+01 0.10000000000000E+01
 s    1 1.00
 0.46474740994000E+00 0.10000000000000E+01
 s    1 1.00
 0.18504536357000E+00 0.10000000000000E+01
 s    1 1.00
 0.70288026270000E-01 0.10000000000000E+01
 p    4 1.00
 0.63274954801000E+02 0.12018332222616E-01
 0.14627049379000E+02 0.83005421790056E-01
 0.44501223456000E+01 0.31991743925964E+00
 0.15275799647000E+01 0.70715542916104E+00
 p    1 1.00
 0.52935117943000E+00 0.10000000000000E+01
 p    1 1.00
 0.17478421270000E+00 0.10000000000000E+01
 p    1 1.00
 0.51112745706000E-01 0.10000000000000E+01
 d    1 1.00
 0.23140000000000E+01 0.10000000000000E+01
 d    1 1.00
 0.64500000000000E+00 0.10000000000000E+01
 d    1 1.00
 0.14696477366000E+00 0.10000000000000E+01
 f    1 1.00
 0.14280000000000E+01 0.10000000000000E+01
 
   13 0
 s    6 1.00
 0.27032382631000E+05 0.57227335211155E-03
 0.40523871392000E+04 0.44353233492995E-02
 0.92232722710000E+03 0.23020107706038E-01
 0.26124070989000E+03 0.92822490667928E-01
 0.85354641351000E+02 0.29378500009671E+00
 0.31035035245000E+02 0.67401604501641E+00
 s    2 1.00
 0.12260860728000E+02 0.63839937025506E+00
 0.49987076005000E+01 0.39534587125718E+00
 s    1 1.00
 0.11703108158000E+01 0.10000000000000E+01
 s    1 1.00
 0.46474740994000E+00 0.10000000000000E+01
 s    1 1.00
 0.18504536357000E+00 0.10000000000000E+01
 s    1 1.00
 0.70288026270000E-01 0.10000000000000E+01
 p    4 1.00
 0.63274954801000E+02 0.12018332222616E-01
 0.14627049379000E+02 0.83005421790056E-01
 0.44501223456000E+01 0.31991743925964E+00
 0.15275799647000E+01 0.70715542916104E+00
 p    1 1.00
 0.52935117943000E+00 0.10000000000000E+01
 p    1 1.00
 0.17478421270000E+00 0.10000000000000E+01
 p    1 1.00
 0.51112745706000E-01 0.10000000000000E+01
 d    1 1.00
 0.23140000000000E+01 0.10000000000000E+01
 d    1 1.00
 0.64500000000000E+00 0.10000000000000E+01
 d    1 1.00
 0.14696477366000E+00 0.10000000000000E+01
 f    1 1.00
 0.14280000000000E+01 0.10000000000000E+01
 
   14 0
 s    6 1.00
 0.19730800647000E+05 0.58626402628763E-03
 0.29578958745000E+04 0.45428820586397E-02
 0.67322133595000E+03 0.23558413450084E-01
 0.19068249494000E+03 0.94709193292923E-01
 0.62295441898000E+02 0.29719784913376E+00
 0.22654161182000E+02 0.66916246895232E+00
 s    2 1.00
 0.89791477428000E+01 0.64596683630063E+00
 0.36863002370000E+01 0.38700574393705E+00
 s    1 1.00
 0.84660076805000E+00 0.10000000000000E+01
 s    1 1.00
 0.33647133771000E+00 0.10000000000000E+01
 s    1 1.00
 0.13647653675000E+00 0.10000000000000E+01
 s    1 1.00
 0.68441605847000E-01 0.10000000000000E+01
 p    4 1.00
 0.49200380510000E+02 0.11448825101764E-01
 0.11346790537000E+02 0.78422337970864E-01
 0.34273972411000E+01 0.30818094738830E+00
 0.11785525134000E+01 0.72027196368413E+00
 p    1 1.00
 0.41642204972000E+00 0.10000000000000E+01
 p    1 1.00
 0.14260826011000E+00 0.10000000000000E+01
 d    1 1.00
 0.16540000000000E+01 0.10000000000000E+01
 d    1 1.00
 0.46900000000000E+00 0.10000000000000E+01
 d    1 1.00
 0.12829642058000E+00 0.10000000000000E+01
 f    1 1.00
 0.10930000000000E+01 0.10000000000000E+01
 
   15 0
 s    3 1.00
 0.34061341000000E+02 0.25439307208879E-01
 0.51235746000000E+01 0.19008594890375E+00
 0.11646626000000E+01 0.85244113011042E+00
 s    1 1.00
 0.32723041000000E+00 0.10000000000000E+01
 s    1 1.00
 0.10307241000000E+00 0.10000000000000E+01
 p    1 1.00
 0.80000000000000E+00 0.10000000000000E+01
 p    1 1.00
 0.95774129632000E-01 0.10000000000000E+01
 
   16 0
 s    3 1.00
 0.34061341000000E+02 0.25439307208879E-01
 0.51235746000000E+01 0.19008594890375E+00
 0.11646626000000E+01 0.85244113011042E+00
 s    1 1.00
 0.32723041000000E+00 0.10000000000000E+01
 s    1 1.00
 0.10307241000000E+00 0.10000000000000E+01
 p    1 1.00
 0.80000000000000E+00 0.10000000000000E+01
 p    1 1.00
 0.95774129632000E-01 0.10000000000000E+01
 
[MO]
 Sym= X
 Ene= -0.082844
 Spin= Alpha
 Occup= -0.082844
         1   -1.502162E-04
         2   -3.445928E-04
         3    1.003983E-03
         4   -2.384727E-03
         5   -9.213812E-03
         6   -1.002856E-02
         7    5.262456E-04
         8   -7.769849E-04
         9    3.038100E-02
        10   -2.862206E-03
        11   -4.351496E-04
        12    2.840940E-02
        13   -3.148856E-02
        14    9.494620E-03
        15    7.674804E-03
        16   -1.471875E-05
        17    1.056081E-06
        18    1.366267E-05
        19    2.556437E-05
        20   -6.512149E-03
        21    4.094133E-03
        22   -5.909760E-04
        23    3.452360E-04
        24    2.457400E-04
        25   -5.704233E-04
        26   -1.465665E-02
        27    7.693795E-03
        28   -4.833305E-03
        29    4.589314E-03
        30    2.439907E-04
        31    8.938109E-04
        32    1.395255E-03
        33   -9.199245E-03
        34   -2.078107E-05
        35    8.866766E-09
        36   -1.548558E-04
        37    8.373163E-06
        38   -2.077903E-06
        39   -6.877882E-04
        40    1.950757E-05
        41    2.066007E-06
        42    8.955490E-04
        43   -7.412082E-04
        44    1.223054E-04
        45    2.773449E-04
        46   -2.698987E-04
        47   -2.560310E-03
        48   -4.676720E-02
        49    4.679334E-03
        50   -2.609797E-04
        51    3.860004E-06
        52    2.176866E-01
        53   -7.473870E-04
        54    2.327173E-05
        55    2.252332E-01
        56   -1.565453E-02
        57   -6.239842E-04
        58    2.019710E-01
        59    2.105934E-05
        60   -2.530405E-05
        61    4.244709E-06
        62    2.075330E-07
        63   -9.935719E-04
        64    1.216732E-07
        65    2.957720E-04
        66   -5.128774E-04
        67    2.171054E-04
        68    4.405571E-06
        69   -3.944724E-03
        70    3.086275E-07
        71    7.357301E-03
        72   -8.380628E-03
        73    1.023327E-03
        74   -1.037903E-04
        75    5.343594E-03
        76   -1.459372E-05
        77    6.154940E-06
        78    8.819805E-08
        79   -1.289642E-03
        80   -8.141416E-06
        81   -9.909023E-09
        82    8.285987E-04
        83   -1.163026E-07
        84   -1.084211E-07
        85    9.016370E-04
        86    5.127611E-08
        87   -1.510027E-04
        88   -3.463940E-04
        89    1.009252E-03
        90   -2.403724E-03
        91   -7.817346E-03
        92   -9.993238E-03
        93    5.207645E-04
        94    7.750273E-04
        95    3.038896E-02
        96   -2.832352E-03
        97    4.441851E-04
        98    2.841317E-02
        99   -3.180172E-02
       100   -1.004371E-02
       101    7.674054E-03
       102   -1.479511E-05
       103    1.249056E-06
       104    1.354605E-05
       105   -2.523492E-05
       106   -6.511997E-03
       107   -4.094271E-03
       108   -5.849798E-04
       109    3.385090E-04
       110    2.464709E-04
       111    5.663068E-04
       112   -1.465697E-02
       113   -7.692576E-03
       114   -4.942944E-03
       115    4.706800E-03
       116    2.361441E-04
       117   -7.903317E-04
       118    1.379982E-03
       119    9.197094E-03
       120   -2.080481E-05
       121    1.961999E-08
       122   -1.547947E-04
       123    8.551723E-06
       124    2.047235E-06
       125   -6.878768E-04
       126    1.936085E-05
       127   -2.073558E-06
       128    8.955557E-04
       129    7.411270E-04
       130    9.747753E-06
       131    1.313305E-05
       132    8.178967E-04
       133   -8.776622E-03
       134    2.932692E-02
       135    1.131841E-02
       136   -1.974063E-04
       137    2.302083E-04
       138   -1.567407E-01
       139   -7.249632E-03
       140    5.166726E-03
       141   -1.593862E-01
       142   -2.137163E-02
       143   -7.436184E-03
       144   -9.731565E-02
       145    8.253482E-05
       146   -1.003540E-04
       147    1.781922E-05
       148   -2.749914E-05
       149   -1.117982E-03
       150    3.191433E-03
       151    5.011836E-04
       152   -5.961448E-04
       153    9.496120E-05
       154    1.443420E-03
       155   -4.568594E-03
       156    5.441613E-03
       157    7.327438E-03
       158   -5.735999E-03
       159   -1.591438E-03
       160   -7.679739E-03
       161    3.241276E-03
       162   -1.056200E-02
       163   -1.423744E-05
       164    1.652346E-06
       165    8.957299E-04
       166   -1.188038E-05
       167    2.322713E-05
       168   -2.161865E-04
       169    3.098191E-05
       170   -2.544399E-05
       171   -9.855613E-04
       172    3.851840E-04
       173   -9.965648E-04
       174   -2.271464E-03
       175    2.328502E-03
       176    1.980398E-02
       177   -1.418067E-02
       178    8.452038E-03
       179    5.859347E-03
       180   -1.024636E-06
       181   -1.280246E-01
       182   -9.021645E-04
       183   -8.366736E-06
       184   -1.301788E-01
       185   -2.091720E-02
       186    9.099053E-04
       187   -1.301421E-01
       188    3.181509E-04
       189   -1.429697E-04
       190   -1.751812E-04
       191    3.135759E-07
       192    9.307308E-03
       193    3.861651E-07
       194   -1.705368E-03
       195    3.682555E-03
       196   -1.977187E-03
       197   -2.271463E-08
       198    2.337007E-02
       199   -2.049592E-06
       200   -4.471458E-03
       201    5.612328E-03
       202   -1.140870E-03
       203   -1.231464E-04
       204    1.854131E-02
       205    1.379199E-06
       206    9.241232E-05
       207    2.351817E-08
       208    4.788935E-04
       209   -6.973805E-05
       210   -3.424996E-08
       211    8.574596E-04
       212   -5.424609E-05
       213    2.697024E-09
       214   -1.499963E-03
       215    5.036934E-08
       216    9.315912E-06
       217    1.195744E-05
       218    8.201491E-04
       219   -8.779921E-03
       220    3.109130E-02
       221    1.134075E-02
       222   -2.005036E-04
       223   -2.232699E-04
       224   -1.567487E-01
       225   -7.267118E-03
       226   -5.166521E-03
       227   -1.593984E-01
       228   -2.090817E-02
       229    8.291223E-03
       230   -9.733680E-02
       231    8.258795E-05
       232   -1.007268E-04
       233    1.813883E-05
       234    2.785229E-05
       235   -1.118060E-03
       236   -3.191446E-03
       237    5.056940E-04
       238   -5.981563E-04
       239    9.246235E-05
       240   -1.446821E-03
       241   -4.565619E-03
       242   -5.441873E-03
       243    7.248929E-03
       244   -5.654710E-03
       245   -1.594219E-03
       246    7.811563E-03
       247    3.263530E-03
       248    1.056318E-02
       249   -1.444892E-05
       250   -1.687771E-06
       251    8.959431E-04
       252   -1.178272E-05
       253   -2.319250E-05
       254   -2.164505E-04
       255    3.116799E-05
       256    2.545688E-05
       257   -9.855833E-04
       258   -3.852253E-04
       259    3.282653E-04
       260    7.610347E-04
       261   -1.498294E-02
       262    2.901089E-05
       263    8.723210E-05
       264    1.192880E-03
       265   -4.812534E-03
       266   -7.414637E-05
       267   -5.752795E-03
       268    3.283911E-04
       269    7.693825E-04
       270   -1.497094E-02
       271    3.006128E-05
       272   -8.846035E-05
       273    1.193058E-03
       274   -4.908136E-03
       275    4.299877E-05
       276   -5.757560E-03
       277   -1.718126E-04
       278   -1.808978E-03
       279    3.039226E-02
       280   -3.418713E-06
       281    5.223176E-05
       282   -6.389895E-03
       283   -1.251894E-03
       284   -2.539874E-03
       285    3.177670E-04
       286   -1.752465E-04
       287   -1.819737E-03
       288    3.068319E-02
       289   -2.910478E-06
       290   -5.290939E-05
       291   -6.390966E-03
       292   -1.232616E-03
       293    2.592038E-03
       294    3.068348E-04
       295   -2.316439E-05
       296   -5.503782E-05
       297    1.140398E-05
       298    3.804094E-04
       299   -5.297307E-03
       300    1.936013E-03
       301    7.761653E-04
       302    1.288347E-06
       303    4.404244E-02
       304    4.367974E-04
       305    2.218315E-06
       306    4.508229E-02
       307   -2.700765E-03
       308    2.605018E-05
       309    1.563306E-02
       310    3.127808E-05
       311   -2.064387E-05
       312   -1.063421E-05
       313   -4.396559E-07
       314    4.318464E-03
       315    5.935120E-08
       316    4.473703E-05
       317    2.568886E-05
       318   -7.042589E-05
       319   -1.779625E-06
       320    1.339273E-02
       321   -4.335833E-08
       322   -9.759860E-04
       323    2.557753E-03
       324   -1.581767E-03
       325    2.304076E-05
       326    4.119565E-03
       327    4.759801E-06
       328    6.501435E-06
       329   -1.131207E-07
       330   -1.580816E-04
       331   -2.282355E-06
       332    1.793797E-07
       333    7.781053E-04
       334   -6.440235E-06
       335   -2.761238E-08
       336   -5.660166E-04
       337   -4.036061E-09
       338    6.003523E-05
       339    1.485078E-04
       340   -2.495913E-04
       341    1.011800E-04
       342   -5.397394E-03
       343   -9.762422E-04
       344   -3.351048E-04
       345    1.018158E-04
       346   -6.528457E-02
       347   -3.960467E-04
       348    2.287219E-04
       349   -6.093474E-02
       350   -1.441759E-03
       351    3.893804E-04
       352   -5.366111E-02
       353   -1.588764E-04
       354    2.115252E-04
       355   -7.125410E-03
       356    5.406256E-06
       357   -6.823073E-06
       358    1.416816E-06
       359    2.945816E-06
       360    1.842563E-04
       361    1.705632E-04
       362   -3.297072E-06
       363   -1.910154E-05
       364    2.239861E-05
       365    1.954465E-05
       366    1.501110E-05
       367    7.181051E-04
       368   -6.967333E-05
       369    5.421911E-05
       370    1.545421E-05
       371    8.301463E-05
       372   -5.658921E-05
       373   -1.271673E-04
       374    1.582888E-06
       375    1.936329E-06
       376    2.666702E-06
       377   -2.431560E-06
       378   -3.483617E-07
       379    8.352096E-05
       380    3.078938E-07
       381   -2.249496E-06
       382   -8.709872E-05
       383    5.618543E-05
       384    6.023125E-05
       385    1.489600E-04
       386   -2.497553E-04
       387    9.693566E-05
       388   -5.393630E-03
       389   -9.510609E-04
       390   -3.054246E-04
       391   -1.252050E-04
       392   -6.528650E-02
       393   -3.689403E-04
       394   -2.487754E-04
       395   -6.093740E-02
       396   -1.395932E-03
       397   -3.988058E-04
       398   -5.365404E-02
       399   -1.408653E-04
       400   -2.195320E-04
       401   -7.125807E-03
       402    5.615997E-06
       403   -7.107814E-06
       404    1.491817E-06
       405   -2.987326E-06
       406    1.842232E-04
       407   -1.705768E-04
       408   -2.459901E-06
       409   -1.967935E-05
       410    2.213926E-05
       411   -1.892491E-05
       412    1.505454E-05
       413   -7.181970E-04
       414   -6.795046E-05
       415    5.454361E-05
       416    1.340686E-05
       417   -8.186383E-05
       418   -5.652596E-05
       419    1.284217E-04
       420    1.604316E-06
       421   -2.011091E-06
       422    2.673850E-06
       423   -2.455705E-06
       424    4.422610E-07
       425    8.351922E-05
       426    3.032890E-07
       427    2.255901E-06
       428   -8.710657E-05
       429   -5.619574E-05
       430    4.443343E-03
       431    1.055194E-02
       432   -1.640396E-02
       433   -2.535877E-02
       434   -2.129213E-02
       435   -6.444127E-02
       436   -1.349621E-02
       437    6.186384E-06
       438    2.239919E-01
       439   -1.581200E-02
       440    2.520667E-08
       441    2.218668E-01
       442   -1.438609E-02
       443   -9.898200E-05
       444    1.858874E-01
       445   -1.177103E-04
       446    3.220534E-05
       447    8.550499E-05
       448    2.006375E-07
       449    1.063989E-03
       450    1.909149E-07
       451   -2.804444E-04
       452   -1.241107E-03
       453    1.521551E-03
       454   -3.466852E-06
       455    4.272543E-03
       456    1.328200E-06
       457   -1.881319E-03
       458   -2.377076E-03
       459    4.258396E-03
       460   -2.697149E-06
       461    2.366980E-03
       462    7.005783E-06
       463   -1.241646E-04
       464    2.254007E-08
       465   -8.393968E-04
       466   -7.347583E-05
       467   -1.957771E-09
       468    3.911339E-04
       469    2.400601E-04
       470   -2.828290E-08
       471    7.350351E-04
       472    1.410876E-10
       473    8.930207E-03
       474    1.654393E-02
       475    2.696501E-02
       476   -1.947812E-03
       477   -1.716932E-03
       478    1.150799E-02
       479    1.641825E-03
       480   -3.137695E-03
       481    1.435309E-02
       482    8.925997E-03
       483    1.648493E-02
       484    2.679417E-02
       485   -1.944974E-03
       486    1.711225E-03
       487    1.151095E-02
       488    1.657924E-03
       489    3.105045E-03
       490    1.435958E-02
 Sym= X
 Ene= -0.757280
 Spin= Alpha
 Occup= -0.757280
         1   -3.591778E-04
         2   -8.211154E-04
         3    1.682555E-03
         4   -9.897497E-04
         5    5.455352E-03
         6   -1.072925E-02
         7    6.331786E-03
         8    9.734852E-04
         9   -1.395172E-01
        10    1.547443E-03
        11    1.205423E-03
        12   -1.374582E-01
        13   -2.099362E-02
        14    1.921303E-03
        15   -5.183538E-02
        16    1.663693E-04
        17   -1.555148E-04
        18   -1.085454E-05
        19   -8.131984E-05
        20    3.729371E-04
        21   -4.330154E-03
        22   -3.201488E-04
        23    1.924401E-04
        24    1.277087E-04
        25   -8.157502E-04
        26    1.385400E-03
        27   -7.202105E-03
        28   -2.053136E-03
        29    1.825147E-03
        30    2.279888E-04
        31    1.702335E-03
        32    6.941497E-03
        33   -4.724934E-03
        34   -1.003256E-06
        35    1.471400E-05
        36    1.168980E-03
        37    4.291720E-08
        38   -1.365425E-05
        39   -6.455757E-04
        40    1.303093E-06
        41   -6.086642E-06
        42   -9.227755E-04
        43    4.889500E-04
        44    2.023063E-04
        45    4.509143E-04
        46   -2.951819E-04
        47   -4.954931E-03
        48   -1.449190E-02
        49    9.693076E-03
        50   -1.140446E-03
        51    5.673681E-06
        52   -2.055624E-01
        53   -1.861177E-03
        54   -9.720354E-06
        55   -2.074479E-01
        56   -8.584333E-03
        57   -6.949245E-04
        58   -6.762327E-02
        59    2.034445E-04
        60   -2.063686E-04
        61    2.924087E-06
        62    2.494806E-07