[Molden Format]
[Title]
ADC(2) - opt by CAM-B3LYP gaussian                                              
[Atoms] AU
 c     1    6 -.12589065566052E+01 -.22830902054421E+01 -.26005390588660E-01
 c     2    6 -.25569912224779E+01 0.86573078000000E-06 -.24733756079320E-01
 c     3    6 -.12589060841737E+01 0.22830907841707E+01 -.26008073999770E-01
 c     4    6 0.13324295737882E+01 0.22846183820847E+01 -.28114684000920E-01
 c     5    6 0.26867573459717E+01 0.39329925000000E-06 -.27723246129760E-01
 c     6    6 0.13324281942881E+01 -.22846180679178E+01 -.28111244699360E-01
 h     7    1 -.22982509786098E+01 -.40377481062879E+01 -.23319125993500E-01
 h     8    1 -.22982490510892E+01 0.40377494409070E+01 -.23324322740370E-01
 h     9    1 0.23514918675648E+01 0.40568894753521E+01 -.30529017005560E-01
 h    10    1 0.23514910360853E+01 -.40568888210345E+01 -.30521911635300E-01
 n    11    7 -.52742123095903E+01 0.14763485000000E-06 -.18925267070140E-01
 o    12    8 -.63809534361791E+01 0.20269762391752E+01 -.16457057973460E-01
 o    13    8 -.63809510362269E+01 -.20269772478165E+01 -.16464881439650E-01
 n    14    7 0.52454603626942E+01 -.57046108000000E-06 -.73989411041200E-01
 h    15    1 0.62036818842731E+01 0.16164996606794E+01 0.19711589672944E+00
 h    16    1 0.62036804102867E+01 -.16165023700742E+01 0.19711149366755E+00
[GTO]
    1 0
 s    6 1.00
 0.13575349682000E+05 0.60645503603591E-03
 0.20352333680000E+04 0.46979088884982E-02
 0.46322562359000E+03 0.24332477647552E-01
 0.13120019598000E+03 0.97399968307759E-01
 0.42853015891000E+02 0.30195584253780E+00
 0.15584185766000E+02 0.66233609137875E+00
 s    2 1.00
 0.62067138508000E+01 0.65595308539952E+00
 0.25764896527000E+01 0.37585633285142E+00
 s    1 1.00
 0.57696339419000E+00 0.10000000000000E+01
 s    1 1.00
 0.22972831358000E+00 0.10000000000000E+01
 s    1 1.00
 0.95164440028000E-01 0.10000000000000E+01
 s    1 1.00
 0.48475401370000E-01 0.10000000000000E+01
 p    4 1.00
 0.34697232244000E+02 0.11327220003114E-01
 0.79582622826000E+01 0.76169659202087E-01
 0.23780826883000E+01 0.30192252202676E+00
 0.81433208183000E+00 0.72785027349547E+00
 p    1 1.00
 0.28887547253000E+00 0.10000000000000E+01
 p    1 1.00
 0.10056823671000E+00 0.10000000000000E+01
 d    1 1.00
 0.10970000000000E+01 0.10000000000000E+01
 d    1 1.00
 0.31800000000000E+00 0.10000000000000E+01
 d    1 1.00
 0.90985336424000E-01 0.10000000000000E+01
 f    1 1.00
 0.76100000000000E+00 0.10000000000000E+01
 
    2 0
 s    6 1.00
 0.13575349682000E+05 0.60645503603591E-03
 0.20352333680000E+04 0.46979088884982E-02
 0.46322562359000E+03 0.24332477647552E-01
 0.13120019598000E+03 0.97399968307759E-01
 0.42853015891000E+02 0.30195584253780E+00
 0.15584185766000E+02 0.66233609137875E+00
 s    2 1.00
 0.62067138508000E+01 0.65595308539952E+00
 0.25764896527000E+01 0.37585633285142E+00
 s    1 1.00
 0.57696339419000E+00 0.10000000000000E+01
 s    1 1.00
 0.22972831358000E+00 0.10000000000000E+01
 s    1 1.00
 0.95164440028000E-01 0.10000000000000E+01
 s    1 1.00
 0.48475401370000E-01 0.10000000000000E+01
 p    4 1.00
 0.34697232244000E+02 0.11327220003114E-01
 0.79582622826000E+01 0.76169659202087E-01
 0.23780826883000E+01 0.30192252202676E+00
 0.81433208183000E+00 0.72785027349547E+00
 p    1 1.00
 0.28887547253000E+00 0.10000000000000E+01
 p    1 1.00
 0.10056823671000E+00 0.10000000000000E+01
 d    1 1.00
 0.10970000000000E+01 0.10000000000000E+01
 d    1 1.00
 0.31800000000000E+00 0.10000000000000E+01
 d    1 1.00
 0.90985336424000E-01 0.10000000000000E+01
 f    1 1.00
 0.76100000000000E+00 0.10000000000000E+01
 
    3 0
 s    6 1.00
 0.13575349682000E+05 0.60645503603591E-03
 0.20352333680000E+04 0.46979088884982E-02
 0.46322562359000E+03 0.24332477647552E-01
 0.13120019598000E+03 0.97399968307759E-01
 0.42853015891000E+02 0.30195584253780E+00
 0.15584185766000E+02 0.66233609137875E+00
 s    2 1.00
 0.62067138508000E+01 0.65595308539952E+00
 0.25764896527000E+01 0.37585633285142E+00
 s    1 1.00
 0.57696339419000E+00 0.10000000000000E+01
 s    1 1.00
 0.22972831358000E+00 0.10000000000000E+01
 s    1 1.00
 0.95164440028000E-01 0.10000000000000E+01
 s    1 1.00
 0.48475401370000E-01 0.10000000000000E+01
 p    4 1.00
 0.34697232244000E+02 0.11327220003114E-01
 0.79582622826000E+01 0.76169659202087E-01
 0.23780826883000E+01 0.30192252202676E+00
 0.81433208183000E+00 0.72785027349547E+00
 p    1 1.00
 0.28887547253000E+00 0.10000000000000E+01
 p    1 1.00
 0.10056823671000E+00 0.10000000000000E+01
 d    1 1.00
 0.10970000000000E+01 0.10000000000000E+01
 d    1 1.00
 0.31800000000000E+00 0.10000000000000E+01
 d    1 1.00
 0.90985336424000E-01 0.10000000000000E+01
 f    1 1.00
 0.76100000000000E+00 0.10000000000000E+01
 
    4 0
 s    6 1.00
 0.13575349682000E+05 0.60645503603591E-03
 0.20352333680000E+04 0.46979088884982E-02
 0.46322562359000E+03 0.24332477647552E-01
 0.13120019598000E+03 0.97399968307759E-01
 0.42853015891000E+02 0.30195584253780E+00
 0.15584185766000E+02 0.66233609137875E+00
 s    2 1.00
 0.62067138508000E+01 0.65595308539952E+00
 0.25764896527000E+01 0.37585633285142E+00
 s    1 1.00
 0.57696339419000E+00 0.10000000000000E+01
 s    1 1.00
 0.22972831358000E+00 0.10000000000000E+01
 s    1 1.00
 0.95164440028000E-01 0.10000000000000E+01
 s    1 1.00
 0.48475401370000E-01 0.10000000000000E+01
 p    4 1.00
 0.34697232244000E+02 0.11327220003114E-01
 0.79582622826000E+01 0.76169659202087E-01
 0.23780826883000E+01 0.30192252202676E+00
 0.81433208183000E+00 0.72785027349547E+00
 p    1 1.00
 0.28887547253000E+00 0.10000000000000E+01
 p    1 1.00
 0.10056823671000E+00 0.10000000000000E+01
 d    1 1.00
 0.10970000000000E+01 0.10000000000000E+01
 d    1 1.00
 0.31800000000000E+00 0.10000000000000E+01
 d    1 1.00
 0.90985336424000E-01 0.10000000000000E+01
 f    1 1.00
 0.76100000000000E+00 0.10000000000000E+01
 
    5 0
 s    6 1.00
 0.13575349682000E+05 0.60645503603591E-03
 0.20352333680000E+04 0.46979088884982E-02
 0.46322562359000E+03 0.24332477647552E-01
 0.13120019598000E+03 0.97399968307759E-01
 0.42853015891000E+02 0.30195584253780E+00
 0.15584185766000E+02 0.66233609137875E+00
 s    2 1.00
 0.62067138508000E+01 0.65595308539952E+00
 0.25764896527000E+01 0.37585633285142E+00
 s    1 1.00
 0.57696339419000E+00 0.10000000000000E+01
 s    1 1.00
 0.22972831358000E+00 0.10000000000000E+01
 s    1 1.00
 0.95164440028000E-01 0.10000000000000E+01
 s    1 1.00
 0.48475401370000E-01 0.10000000000000E+01
 p    4 1.00
 0.34697232244000E+02 0.11327220003114E-01
 0.79582622826000E+01 0.76169659202087E-01
 0.23780826883000E+01 0.30192252202676E+00
 0.81433208183000E+00 0.72785027349547E+00
 p    1 1.00
 0.28887547253000E+00 0.10000000000000E+01
 p    1 1.00
 0.10056823671000E+00 0.10000000000000E+01
 d    1 1.00
 0.10970000000000E+01 0.10000000000000E+01
 d    1 1.00
 0.31800000000000E+00 0.10000000000000E+01
 d    1 1.00
 0.90985336424000E-01 0.10000000000000E+01
 f    1 1.00
 0.76100000000000E+00 0.10000000000000E+01
 
    6 0
 s    6 1.00
 0.13575349682000E+05 0.60645503603591E-03
 0.20352333680000E+04 0.46979088884982E-02
 0.46322562359000E+03 0.24332477647552E-01
 0.13120019598000E+03 0.97399968307759E-01
 0.42853015891000E+02 0.30195584253780E+00
 0.15584185766000E+02 0.66233609137875E+00
 s    2 1.00
 0.62067138508000E+01 0.65595308539952E+00
 0.25764896527000E+01 0.37585633285142E+00
 s    1 1.00
 0.57696339419000E+00 0.10000000000000E+01
 s    1 1.00
 0.22972831358000E+00 0.10000000000000E+01
 s    1 1.00
 0.95164440028000E-01 0.10000000000000E+01
 s    1 1.00
 0.48475401370000E-01 0.10000000000000E+01
 p    4 1.00
 0.34697232244000E+02 0.11327220003114E-01
 0.79582622826000E+01 0.76169659202087E-01
 0.23780826883000E+01 0.30192252202676E+00
 0.81433208183000E+00 0.72785027349547E+00
 p    1 1.00
 0.28887547253000E+00 0.10000000000000E+01
 p    1 1.00
 0.10056823671000E+00 0.10000000000000E+01
 d    1 1.00
 0.10970000000000E+01 0.10000000000000E+01
 d    1 1.00
 0.31800000000000E+00 0.10000000000000E+01
 d    1 1.00
 0.90985336424000E-01 0.10000000000000E+01
 f    1 1.00
 0.76100000000000E+00 0.10000000000000E+01
 
    7 0
 s    3 1.00
 0.34061341000000E+02 0.25439307208879E-01
 0.51235746000000E+01 0.19008594890375E+00
 0.11646626000000E+01 0.85244113011042E+00
 s    1 1.00
 0.32723041000000E+00 0.10000000000000E+01
 s    1 1.00
 0.10307241000000E+00 0.10000000000000E+01
 p    1 1.00
 0.80000000000000E+00 0.10000000000000E+01
 p    1 1.00
 0.95774129632000E-01 0.10000000000000E+01
 
    8 0
 s    3 1.00
 0.34061341000000E+02 0.25439307208879E-01
 0.51235746000000E+01 0.19008594890375E+00
 0.11646626000000E+01 0.85244113011042E+00
 s    1 1.00
 0.32723041000000E+00 0.10000000000000E+01
 s    1 1.00
 0.10307241000000E+00 0.10000000000000E+01
 p    1 1.00
 0.80000000000000E+00 0.10000000000000E+01
 p    1 1.00
 0.95774129632000E-01 0.10000000000000E+01
 
    9 0
 s    3 1.00
 0.34061341000000E+02 0.25439307208879E-01
 0.51235746000000E+01 0.19008594890375E+00
 0.11646626000000E+01 0.85244113011042E+00
 s    1 1.00
 0.32723041000000E+00 0.10000000000000E+01
 s    1 1.00
 0.10307241000000E+00 0.10000000000000E+01
 p    1 1.00
 0.80000000000000E+00 0.10000000000000E+01
 p    1 1.00
 0.95774129632000E-01 0.10000000000000E+01
 
   10 0
 s    3 1.00
 0.34061341000000E+02 0.25439307208879E-01
 0.51235746000000E+01 0.19008594890375E+00
 0.11646626000000E+01 0.85244113011042E+00
 s    1 1.00
 0.32723041000000E+00 0.10000000000000E+01
 s    1 1.00
 0.10307241000000E+00 0.10000000000000E+01
 p    1 1.00
 0.80000000000000E+00 0.10000000000000E+01
 p    1 1.00
 0.95774129632000E-01 0.10000000000000E+01
 
   11 0
 s    6 1.00
 0.19730800647000E+05 0.58626402628763E-03
 0.29578958745000E+04 0.45428820586397E-02
 0.67322133595000E+03 0.23558413450084E-01
 0.19068249494000E+03 0.94709193292923E-01
 0.62295441898000E+02 0.29719784913376E+00
 0.22654161182000E+02 0.66916246895232E+00
 s    2 1.00
 0.89791477428000E+01 0.64596683630063E+00
 0.36863002370000E+01 0.38700574393705E+00
 s    1 1.00
 0.84660076805000E+00 0.10000000000000E+01
 s    1 1.00
 0.33647133771000E+00 0.10000000000000E+01
 s    1 1.00
 0.13647653675000E+00 0.10000000000000E+01
 s    1 1.00
 0.68441605847000E-01 0.10000000000000E+01
 p    4 1.00
 0.49200380510000E+02 0.11448825101764E-01
 0.11346790537000E+02 0.78422337970864E-01
 0.34273972411000E+01 0.30818094738830E+00
 0.11785525134000E+01 0.72027196368413E+00
 p    1 1.00
 0.41642204972000E+00 0.10000000000000E+01
 p    1 1.00
 0.14260826011000E+00 0.10000000000000E+01
 d    1 1.00
 0.16540000000000E+01 0.10000000000000E+01
 d    1 1.00
 0.46900000000000E+00 0.10000000000000E+01
 d    1 1.00
 0.12829642058000E+00 0.10000000000000E+01
 f    1 1.00
 0.10930000000000E+01 0.10000000000000E+01
 
   12 0
 s    6 1.00
 0.27032382631000E+05 0.57227335211155E-03
 0.40523871392000E+04 0.44353233492995E-02
 0.92232722710000E+03 0.23020107706038E-01
 0.26124070989000E+03 0.92822490667928E-01
 0.85354641351000E+02 0.29378500009671E+00
 0.31035035245000E+02 0.67401604501641E+00
 s    2 1.00
 0.12260860728000E+02 0.63839937025506E+00
 0.49987076005000E+01 0.39534587125718E+00
 s    1 1.00
 0.11703108158000E+01 0.10000000000000E+01
 s    1 1.00
 0.46474740994000E+00 0.10000000000000E+01
 s    1 1.00
 0.18504536357000E+00 0.10000000000000E+01
 s    1 1.00
 0.70288026270000E-01 0.10000000000000E+01
 p    4 1.00
 0.63274954801000E+02 0.12018332222616E-01
 0.14627049379000E+02 0.83005421790056E-01
 0.44501223456000E+01 0.31991743925964E+00
 0.15275799647000E+01 0.70715542916104E+00
 p    1 1.00
 0.52935117943000E+00 0.10000000000000E+01
 p    1 1.00
 0.17478421270000E+00 0.10000000000000E+01
 p    1 1.00
 0.51112745706000E-01 0.10000000000000E+01
 d    1 1.00
 0.23140000000000E+01 0.10000000000000E+01
 d    1 1.00
 0.64500000000000E+00 0.10000000000000E+01
 d    1 1.00
 0.14696477366000E+00 0.10000000000000E+01
 f    1 1.00
 0.14280000000000E+01 0.10000000000000E+01
 
   13 0
 s    6 1.00
 0.27032382631000E+05 0.57227335211155E-03
 0.40523871392000E+04 0.44353233492995E-02
 0.92232722710000E+03 0.23020107706038E-01
 0.26124070989000E+03 0.92822490667928E-01
 0.85354641351000E+02 0.29378500009671E+00
 0.31035035245000E+02 0.67401604501641E+00
 s    2 1.00
 0.12260860728000E+02 0.63839937025506E+00
 0.49987076005000E+01 0.39534587125718E+00
 s    1 1.00
 0.11703108158000E+01 0.10000000000000E+01
 s    1 1.00
 0.46474740994000E+00 0.10000000000000E+01
 s    1 1.00
 0.18504536357000E+00 0.10000000000000E+01
 s    1 1.00
 0.70288026270000E-01 0.10000000000000E+01
 p    4 1.00
 0.63274954801000E+02 0.12018332222616E-01
 0.14627049379000E+02 0.83005421790056E-01
 0.44501223456000E+01 0.31991743925964E+00
 0.15275799647000E+01 0.70715542916104E+00
 p    1 1.00
 0.52935117943000E+00 0.10000000000000E+01
 p    1 1.00
 0.17478421270000E+00 0.10000000000000E+01
 p    1 1.00
 0.51112745706000E-01 0.10000000000000E+01
 d    1 1.00
 0.23140000000000E+01 0.10000000000000E+01
 d    1 1.00
 0.64500000000000E+00 0.10000000000000E+01
 d    1 1.00
 0.14696477366000E+00 0.10000000000000E+01
 f    1 1.00
 0.14280000000000E+01 0.10000000000000E+01
 
   14 0
 s    6 1.00
 0.19730800647000E+05 0.58626402628763E-03
 0.29578958745000E+04 0.45428820586397E-02
 0.67322133595000E+03 0.23558413450084E-01
 0.19068249494000E+03 0.94709193292923E-01
 0.62295441898000E+02 0.29719784913376E+00
 0.22654161182000E+02 0.66916246895232E+00
 s    2 1.00
 0.89791477428000E+01 0.64596683630063E+00
 0.36863002370000E+01 0.38700574393705E+00
 s    1 1.00
 0.84660076805000E+00 0.10000000000000E+01
 s    1 1.00
 0.33647133771000E+00 0.10000000000000E+01
 s    1 1.00
 0.13647653675000E+00 0.10000000000000E+01
 s    1 1.00
 0.68441605847000E-01 0.10000000000000E+01
 p    4 1.00
 0.49200380510000E+02 0.11448825101764E-01
 0.11346790537000E+02 0.78422337970864E-01
 0.34273972411000E+01 0.30818094738830E+00
 0.11785525134000E+01 0.72027196368413E+00
 p    1 1.00
 0.41642204972000E+00 0.10000000000000E+01
 p    1 1.00
 0.14260826011000E+00 0.10000000000000E+01
 d    1 1.00
 0.16540000000000E+01 0.10000000000000E+01
 d    1 1.00
 0.46900000000000E+00 0.10000000000000E+01
 d    1 1.00
 0.12829642058000E+00 0.10000000000000E+01
 f    1 1.00
 0.10930000000000E+01 0.10000000000000E+01
 
   15 0
 s    3 1.00
 0.34061341000000E+02 0.25439307208879E-01
 0.51235746000000E+01 0.19008594890375E+00
 0.11646626000000E+01 0.85244113011042E+00
 s    1 1.00
 0.32723041000000E+00 0.10000000000000E+01
 s    1 1.00
 0.10307241000000E+00 0.10000000000000E+01
 p    1 1.00
 0.80000000000000E+00 0.10000000000000E+01
 p    1 1.00
 0.95774129632000E-01 0.10000000000000E+01
 
   16 0
 s    3 1.00
 0.34061341000000E+02 0.25439307208879E-01
 0.51235746000000E+01 0.19008594890375E+00
 0.11646626000000E+01 0.85244113011042E+00
 s    1 1.00
 0.32723041000000E+00 0.10000000000000E+01
 s    1 1.00
 0.10307241000000E+00 0.10000000000000E+01
 p    1 1.00
 0.80000000000000E+00 0.10000000000000E+01
 p    1 1.00
 0.95774129632000E-01 0.10000000000000E+01
 
[MO]
 Sym= X
 Ene= -0.216746
 Spin= Alpha
 Occup= -0.216746
         1   -2.223851E-04
         2   -5.147305E-04
         3    1.363643E-03
         4   -2.639537E-03
         5   -7.912279E-03
         6   -1.218379E-02
         7    2.192235E-03
         8    2.846363E-04
         9    1.297817E-02
        10   -2.319339E-03
        11    5.237899E-04
        12    1.127474E-02
        13   -3.766018E-02
        14    1.059303E-02
        15   -7.332935E-04
        16    1.740623E-05
        17   -2.694501E-05
        18    9.538775E-06
        19   -2.091319E-05
        20   -6.096359E-03
        21    3.389457E-03
        22   -6.888398E-04
        23    4.186837E-04
        24    2.701561E-04
        25   -7.961227E-04
        26   -1.372833E-02
        27    6.476723E-03
        28   -5.286919E-03
        29    4.938611E-03
        30    3.483080E-04
        31    1.297793E-03
        32    2.380085E-03
        33   -1.125110E-02
        34   -1.933203E-05
        35    8.531686E-06
        36   -1.109976E-05
        37    7.458120E-06
        38   -8.611956E-06
        39   -7.347044E-04
        40    1.847852E-05
        41   -2.834502E-06
        42    7.495963E-04
        43   -6.340780E-04
        44    4.090074E-05
        45    8.982595E-05
        46    1.317439E-04
        47   -3.276817E-03
        48   -5.211937E-02
        49    6.452224E-03
        50    3.351069E-04
        51    2.194505E-06
        52    1.807753E-01
        53   -5.856153E-04
        54    1.805350E-05
        55    1.880602E-01
        56   -1.746342E-02
        57   -6.799417E-04
        58    1.942807E-01
        59    5.331090E-05
        60   -5.110733E-05
        61   -2.203565E-06
        62    1.307032E-07
        63   -9.203020E-04
        64   -9.632414E-08
        65    4.389995E-04
        66   -7.152113E-04
        67    2.762118E-04
        68    3.858387E-06
        69   -3.650972E-03
        70   -5.116164E-08
        71    1.034544E-02
        72   -1.150950E-02
        73    1.164060E-03
        74   -1.051485E-04
        75    4.219064E-03
        76   -1.701563E-05
        77    7.822069E-06
        78    2.102302E-08
        79   -9.685747E-04
        80   -8.274104E-06
        81    4.497945E-08
        82    5.899421E-04
        83   -2.220303E-06
        84   -7.318479E-08
        85    7.095372E-04
        86    5.140813E-08
        87   -2.213174E-04
        88   -5.123478E-04
        89    1.362160E-03
        90   -2.668604E-03
        91   -6.311490E-03
        92   -1.215916E-02
        93    2.193626E-03
        94   -2.913718E-04
        95    1.297948E-02
        96   -2.289802E-03
        97   -5.224442E-04
        98    1.127178E-02
        99   -3.793356E-02
       100   -1.121758E-02
       101   -7.370301E-04
       102    1.739575E-05
       103   -2.699894E-05
       104    9.603187E-06
       105    2.138866E-05
       106   -6.096306E-03
       107   -3.389540E-03
       108   -6.827864E-04
       109    4.118934E-04
       110    2.708930E-04
       111    7.931536E-04
       112   -1.372876E-02
       113   -6.475677E-03
       114   -5.388261E-03
       115    5.049247E-03
       116    3.390146E-04
       117   -1.192219E-03
       118    2.360972E-03
       119    1.124397E-02
       120   -1.938558E-05
       121   -8.500615E-06
       122   -1.097168E-05
       123    7.672412E-06
       124    8.538406E-06
       125   -7.348749E-04
       126    1.833607E-05
       127    2.866367E-06
       128    7.495950E-04
       129    6.339967E-04
       130    1.328554E-04
       131    2.871001E-04
       132    6.397069E-04
       133   -1.152919E-02
       134    2.921330E-02
       135    1.366485E-02
       136   -1.827065E-03
       137    8.994761E-04
       138   -1.529500E-01
       139   -1.021338E-02
       140    6.886309E-03
       141   -1.558480E-01
       142   -2.548624E-02
       143   -8.762770E-03
       144   -9.222378E-02
       145    1.805517E-04
       146   -2.149476E-04
       147    3.439585E-05
       148   -1.121440E-06
       149   -4.501712E-04
       150    2.793208E-03
       151    6.755217E-04
       152   -8.374521E-04
       153    1.619304E-04
       154    1.860511E-03
       155   -3.388336E-03
       156    4.636290E-03
       157    8.876792E-03
       158   -6.973385E-03
       159   -1.903407E-03
       160   -9.468182E-03
       161    3.907273E-03
       162   -1.378272E-02
       163   -1.637330E-05
       164    1.257747E-05
       165    8.573510E-04
       166   -2.229505E-05
       167    1.645907E-05
       168   -2.453338E-04
       169    4.426214E-05
       170   -3.333352E-05
       171   -9.049233E-04
       172    2.899121E-04
       173   -1.258558E-03
       174   -2.863415E-03
       175    2.990998E-03
       176    2.343718E-02
       177   -2.191113E-02
       178    9.527384E-03
       179    1.065253E-02
       180   -1.282594E-06
       181   -9.863044E-02
       182    9.445934E-04
       183   -1.253512E-05
       184   -1.018294E-01
       185   -2.908747E-02
       186    8.555821E-04
       187   -1.343745E-01
       188    5.563630E-04
       189   -3.207435E-04
       190   -2.356195E-04
       191    3.327472E-07
       192    1.051829E-02
       193    2.691360E-07
       194   -2.020377E-03
       195    4.444806E-03
       196   -2.424429E-03
       197    1.183232E-06
       198    2.562589E-02
       199   -1.898746E-06
       200   -6.602133E-03
       201    7.877881E-03
       202   -1.275748E-03
       203   -1.226074E-04
       204    1.920954E-02
       205    8.387224E-06
       206    1.312336E-04
       207   -5.340826E-09
       208    1.890901E-04
       209   -9.085484E-05
       210   -2.978863E-08
       211    1.210432E-03
       212   -8.521356E-05
       213    3.695410E-08
       214   -1.464123E-03
       215    4.997663E-08
       216    1.330320E-04
       217    2.872767E-04
       218    6.416499E-04
       219   -1.154808E-02
       220    3.101023E-02
       221    1.367563E-02
       222   -1.828278E-03
       223   -8.917847E-04
       224   -1.529518E-01
       225   -1.023014E-02
       226   -6.891020E-03
       227   -1.558535E-01
       228   -2.511793E-02
       229    9.614758E-03
       230   -9.222736E-02
       231    1.806022E-04
       232   -2.153475E-04
       233    3.474531E-05
       234    1.589874E-06
       235   -4.504042E-04
       236   -2.793225E-03
       237    6.793203E-04
       238   -8.398259E-04
       239    1.605056E-04
       240   -1.864690E-03
       241   -3.385572E-03
       242   -4.636227E-03
       243    8.795575E-03
       244   -6.890428E-03
       245   -1.905147E-03
       246    9.585532E-03
       247    3.937003E-03
       248    1.378875E-02
       249   -1.650706E-05
       250   -1.261510E-05
       251    8.575025E-04
       252   -2.228658E-05
       253   -1.643881E-05
       254   -2.455396E-04
       255    4.443312E-05
       256    3.336375E-05
       257   -9.049207E-04
       258   -2.899402E-04
       259   -5.116923E-04
       260   -4.265524E-04
       261   -1.910157E-02
       262   -1.606814E-05
       263   -1.839792E-05
       264    5.322093E-04
       265   -5.691677E-03
       266   -4.246706E-04
       267   -7.013414E-03
       268   -5.170409E-04
       269   -4.248471E-04
       270   -1.905281E-02
       271   -1.547436E-05
       272    1.784449E-05
       273    5.320365E-04
       274   -5.782008E-03
       275    3.910325E-04
       276   -7.016476E-03
       277   -5.269386E-04
       278   -2.664387E-03
       279    3.732566E-02
       280   -1.716421E-05
       281    1.191051E-04
       282   -6.163086E-03
       283   -2.185134E-03
       284   -2.957249E-03
       285    2.953488E-03
       286   -5.311752E-04
       287   -2.674667E-03
       288    3.761807E-02
       289   -1.639373E-05
       290   -1.196833E-04
       291   -6.163906E-03
       292   -2.165844E-03
       293    3.013230E-03
       294    2.942848E-03
       295   -5.867812E-05
       296   -1.365309E-04
       297    1.312111E-04
       298    5.270080E-04
       299   -7.867393E-03
       300    3.682982E-04
       301    5.625127E-04
       302    3.241117E-09
       303    1.777729E-02
       304    2.199501E-04
       305    7.921951E-07
       306    2.030361E-02
       307   -3.415909E-03
       308    3.415549E-05
       309    7.483901E-03
       310    1.776052E-05
       311   -4.954934E-06
       312   -1.280559E-05
       313   -1.198738E-08
       314    4.061933E-03
       315   -1.572540E-06
       316   -1.123213E-05
       317    7.301829E-05
       318   -6.178616E-05
       319   -6.140326E-07
       320    1.221559E-02
       321   -4.741815E-06
       322   -1.016336E-03
       323    3.029071E-03
       324   -2.012736E-03
       325    2.373620E-05
       326    2.445985E-03
       327    4.555146E-06
       328    7.136153E-06
       329   -3.839997E-09
       330    2.182012E-05
       331   -5.143538E-06
       332    2.694190E-08
       333    6.314506E-04
       334   -4.430615E-06
       335   -2.179000E-08
       336   -6.607253E-04
       337    2.783773E-07
       338   -1.913779E-05
       339   -4.285011E-05
       340    1.579243E-05
       341    5.830181E-04
       342   -6.335415E-03
       343   -9.725844E-04
       344   -1.519037E-04
       345    1.737462E-04
       346   -7.396039E-02
       347   -2.569023E-04
       348    3.086705E-04
       349   -6.858049E-02
       350   -1.472410E-03
       351    5.889780E-04
       352   -5.582937E-02
       353   -1.899688E-04
       354    2.137028E-04
       355   -6.978465E-03
       356    4.539053E-06
       357   -5.649990E-06
       358    1.110937E-06
       359   -3.128770E-07
       360    2.940293E-06
       361    4.478185E-04
       362   -1.132222E-05
       363   -1.419139E-05
       364    2.551361E-05
       365    9.675949E-06
       366   -5.006859E-04
       367    1.486289E-03
       368   -8.148933E-05
       369    4.920644E-05
       370    3.228289E-05
       371    7.696346E-05
       372   -7.021565E-05
       373    2.740063E-04
       374    7.586490E-07
       375    2.176128E-06
       376    6.275155E-05
       377   -1.456392E-06
       378   -9.427301E-07
       379    7.744661E-05
       380    4.385572E-07
       381   -1.976851E-06
       382   -1.616366E-04
       383    1.284937E-04
       384   -1.879131E-05
       385   -4.204413E-05
       386    1.510137E-05
       387    5.772605E-04
       388   -6.326683E-03
       389   -9.478751E-04
       390   -1.470530E-04
       391   -1.754346E-04
       392   -7.387334E-02
       393   -2.520929E-04
       394   -3.098204E-04
       395   -6.850143E-02
       396   -1.443536E-03
       397   -5.826613E-04
       398   -5.576221E-02
       399   -1.759860E-04
       400   -2.188638E-04
       401   -6.970549E-03
       402    4.559281E-06
       403   -5.679019E-06
       404    1.119738E-06
       405    2.698564E-07
       406    3.384757E-06
       407   -4.471078E-04
       408   -1.107249E-05
       409   -1.415177E-05
       410    2.522426E-05
       411   -9.251269E-06
       412   -4.991202E-04
       413   -1.483882E-03
       414   -8.097225E-05
       415    5.071798E-05
       416    3.025427E-05
       417   -7.602344E-05
       418   -6.871557E-05
       419   -2.710245E-04
       420    7.614279E-07
       421   -2.176491E-06
       422    6.262309E-05
       423   -1.443747E-06
       424    9.496357E-07
       425    7.742551E-05
       426    4.221848E-07
       427    1.970433E-06
       428   -1.614432E-04
       429   -1.282612E-04
       430    5.420197E-03
       431    1.285347E-02
       432   -1.994839E-02
       433   -3.103060E-02
       434   -2.266346E-02
       435   -7.167082E-02
       436   -1.955451E-02
       437    9.587233E-06
       438    2.788187E-01
       439   -2.222472E-02
       440    1.946887E-06
       441    2.749912E-01
       442   -2.141368E-02
       443   -1.096518E-04
       444    2.218575E-01
       445   -1.075835E-04
       446   -3.543839E-05
       447    1.430219E-04
       448    3.019326E-07
       449    5.325592E-04
       450    2.633291E-07
       451   -2.172535E-04
       452   -1.757379E-03
       453    1.974633E-03
       454   -4.076799E-06
       455    3.091354E-03
       456    1.600074E-06
       457   -1.657670E-03
       458   -3.641422E-03
       459    5.299092E-03
       460   -4.758953E-06
       461    2.076202E-03
       462    8.364776E-06
       463   -1.483880E-04
       464    4.191080E-08
       465   -1.144091E-03
       466   -1.000772E-04
       467   -2.896458E-09
       468    6.622563E-04
       469    2.991606E-04
       470   -5.333278E-08
       471    8.727034E-04
       472    7.938038E-09
       473    9.904277E-03
       474    1.915961E-02
       475    3.248708E-02
       476   -2.503782E-03
       477   -2.053263E-03
       478    1.400122E-02
       479    1.029841E-03
       480   -3.743337E-03
       481    1.530257E-02
       482    9.897266E-03
       483    1.908668E-02
       484    3.229286E-02
       485   -2.500101E-03
       486    2.046258E-03
       487    1.400474E-02
       488    1.046172E-03
       489    3.704511E-03
       490    1.531273E-02
 Sym= X
 Ene= -0.649979
 Spin= Alpha
 Occup= -0.649979
         1    2.471005E-05
         2    5.629149E-05
         3   -1.405438E-04
         4    2.192949E-04
         5    9.140012E-03
         6    4.234616E-04
         7    9.370974E-05
         8    1.808855E-04
         9    1.632592E-01
        10    5.602708E-04
        11    5.202475E-05
        12    1.637015E-01
        13   -3.697424E-03
        14    5.956798E-03
        15    9.154192E-02
        16    6.873217E-06
        17   -2.055088E-06
        18   -4.818129E-06
        19   -2.648463E-06
        20    4.402060E-03
        21    4.538940E-04
        22    1.054307E-04
        23   -6.304703E-05
        24   -4.238369E-05
        25   -1.617309E-05
        26    8.944681E-03
        27   -5.034491E-04
        28   -9.117153E-04
        29    1.054266E-03
        30   -1.425508E-04
        31   -4.832201E-04
        32    3.839343E-03
        33   -9.295252E-04
        34    3.995435E-06
        35    6.939700E-07
        36   -9.807725E-04
        37   -1.068634E-06
        38    1.356887E-07
        39    1.194231E-03
        40   -4.291805E-06
        41   -1.066747E-06
        42    1.216130E-04
        43    2.622134E-05
        44   -4.954249E-07
        45   -1.167578E-06
        46    3.742912E-06
        47    7.894913E-06
        48   -2.061980E-03
        49   -1.309042E-04
        50   -2.339755E-06
        51   -1.365242E-04
        52    1.154237E-05
        53   -8.367624E-06
        54   -2.450662E-04
        55    9.153501E-06
        56   -9.516880E-04
        57    9.082618E-03
        58    3.128745E-05
        59    1.608401E-07
        60   -1.214474E-07
        61   -3.939272E-08
        62   -9.300101E-06