[Molden Format]
[Title]
ADC(2) - opt by CAM-B3LYP gaussian                                              
[Atoms] AU
 c     1    6 -.12589065566052E+01 -.22830902054421E+01 -.26005390588660E-01
 c     2    6 -.25569912224779E+01 0.86573078000000E-06 -.24733756079320E-01
 c     3    6 -.12589060841737E+01 0.22830907841707E+01 -.26008073999770E-01
 c     4    6 0.13324295737882E+01 0.22846183820847E+01 -.28114684000920E-01
 c     5    6 0.26867573459717E+01 0.39329925000000E-06 -.27723246129760E-01
 c     6    6 0.13324281942881E+01 -.22846180679178E+01 -.28111244699360E-01
 h     7    1 -.22982509786098E+01 -.40377481062879E+01 -.23319125993500E-01
 h     8    1 -.22982490510892E+01 0.40377494409070E+01 -.23324322740370E-01
 h     9    1 0.23514918675648E+01 0.40568894753521E+01 -.30529017005560E-01
 h    10    1 0.23514910360853E+01 -.40568888210345E+01 -.30521911635300E-01
 n    11    7 -.52742123095903E+01 0.14763485000000E-06 -.18925267070140E-01
 o    12    8 -.63809534361791E+01 0.20269762391752E+01 -.16457057973460E-01
 o    13    8 -.63809510362269E+01 -.20269772478165E+01 -.16464881439650E-01
 n    14    7 0.52454603626942E+01 -.57046108000000E-06 -.73989411041200E-01
 h    15    1 0.62036818842731E+01 0.16164996606794E+01 0.19711589672944E+00
 h    16    1 0.62036804102867E+01 -.16165023700742E+01 0.19711149366755E+00
[GTO]
    1 0
 s    6 1.00
 0.13575349682000E+05 0.60645503603591E-03
 0.20352333680000E+04 0.46979088884982E-02
 0.46322562359000E+03 0.24332477647552E-01
 0.13120019598000E+03 0.97399968307759E-01
 0.42853015891000E+02 0.30195584253780E+00
 0.15584185766000E+02 0.66233609137875E+00
 s    2 1.00
 0.62067138508000E+01 0.65595308539952E+00
 0.25764896527000E+01 0.37585633285142E+00
 s    1 1.00
 0.57696339419000E+00 0.10000000000000E+01
 s    1 1.00
 0.22972831358000E+00 0.10000000000000E+01
 s    1 1.00
 0.95164440028000E-01 0.10000000000000E+01
 s    1 1.00
 0.48475401370000E-01 0.10000000000000E+01
 p    4 1.00
 0.34697232244000E+02 0.11327220003114E-01
 0.79582622826000E+01 0.76169659202087E-01
 0.23780826883000E+01 0.30192252202676E+00
 0.81433208183000E+00 0.72785027349547E+00
 p    1 1.00
 0.28887547253000E+00 0.10000000000000E+01
 p    1 1.00
 0.10056823671000E+00 0.10000000000000E+01
 d    1 1.00
 0.10970000000000E+01 0.10000000000000E+01
 d    1 1.00
 0.31800000000000E+00 0.10000000000000E+01
 d    1 1.00
 0.90985336424000E-01 0.10000000000000E+01
 f    1 1.00
 0.76100000000000E+00 0.10000000000000E+01
 
    2 0
 s    6 1.00
 0.13575349682000E+05 0.60645503603591E-03
 0.20352333680000E+04 0.46979088884982E-02
 0.46322562359000E+03 0.24332477647552E-01
 0.13120019598000E+03 0.97399968307759E-01
 0.42853015891000E+02 0.30195584253780E+00
 0.15584185766000E+02 0.66233609137875E+00
 s    2 1.00
 0.62067138508000E+01 0.65595308539952E+00
 0.25764896527000E+01 0.37585633285142E+00
 s    1 1.00
 0.57696339419000E+00 0.10000000000000E+01
 s    1 1.00
 0.22972831358000E+00 0.10000000000000E+01
 s    1 1.00
 0.95164440028000E-01 0.10000000000000E+01
 s    1 1.00
 0.48475401370000E-01 0.10000000000000E+01
 p    4 1.00
 0.34697232244000E+02 0.11327220003114E-01
 0.79582622826000E+01 0.76169659202087E-01
 0.23780826883000E+01 0.30192252202676E+00
 0.81433208183000E+00 0.72785027349547E+00
 p    1 1.00
 0.28887547253000E+00 0.10000000000000E+01
 p    1 1.00
 0.10056823671000E+00 0.10000000000000E+01
 d    1 1.00
 0.10970000000000E+01 0.10000000000000E+01
 d    1 1.00
 0.31800000000000E+00 0.10000000000000E+01
 d    1 1.00
 0.90985336424000E-01 0.10000000000000E+01
 f    1 1.00
 0.76100000000000E+00 0.10000000000000E+01
 
    3 0
 s    6 1.00
 0.13575349682000E+05 0.60645503603591E-03
 0.20352333680000E+04 0.46979088884982E-02
 0.46322562359000E+03 0.24332477647552E-01
 0.13120019598000E+03 0.97399968307759E-01
 0.42853015891000E+02 0.30195584253780E+00
 0.15584185766000E+02 0.66233609137875E+00
 s    2 1.00
 0.62067138508000E+01 0.65595308539952E+00
 0.25764896527000E+01 0.37585633285142E+00
 s    1 1.00
 0.57696339419000E+00 0.10000000000000E+01
 s    1 1.00
 0.22972831358000E+00 0.10000000000000E+01
 s    1 1.00
 0.95164440028000E-01 0.10000000000000E+01
 s    1 1.00
 0.48475401370000E-01 0.10000000000000E+01
 p    4 1.00
 0.34697232244000E+02 0.11327220003114E-01
 0.79582622826000E+01 0.76169659202087E-01
 0.23780826883000E+01 0.30192252202676E+00
 0.81433208183000E+00 0.72785027349547E+00
 p    1 1.00
 0.28887547253000E+00 0.10000000000000E+01
 p    1 1.00
 0.10056823671000E+00 0.10000000000000E+01
 d    1 1.00
 0.10970000000000E+01 0.10000000000000E+01
 d    1 1.00
 0.31800000000000E+00 0.10000000000000E+01
 d    1 1.00
 0.90985336424000E-01 0.10000000000000E+01
 f    1 1.00
 0.76100000000000E+00 0.10000000000000E+01
 
    4 0
 s    6 1.00
 0.13575349682000E+05 0.60645503603591E-03
 0.20352333680000E+04 0.46979088884982E-02
 0.46322562359000E+03 0.24332477647552E-01
 0.13120019598000E+03 0.97399968307759E-01
 0.42853015891000E+02 0.30195584253780E+00
 0.15584185766000E+02 0.66233609137875E+00
 s    2 1.00
 0.62067138508000E+01 0.65595308539952E+00
 0.25764896527000E+01 0.37585633285142E+00
 s    1 1.00
 0.57696339419000E+00 0.10000000000000E+01
 s    1 1.00
 0.22972831358000E+00 0.10000000000000E+01
 s    1 1.00
 0.95164440028000E-01 0.10000000000000E+01
 s    1 1.00
 0.48475401370000E-01 0.10000000000000E+01
 p    4 1.00
 0.34697232244000E+02 0.11327220003114E-01
 0.79582622826000E+01 0.76169659202087E-01
 0.23780826883000E+01 0.30192252202676E+00
 0.81433208183000E+00 0.72785027349547E+00
 p    1 1.00
 0.28887547253000E+00 0.10000000000000E+01
 p    1 1.00
 0.10056823671000E+00 0.10000000000000E+01
 d    1 1.00
 0.10970000000000E+01 0.10000000000000E+01
 d    1 1.00
 0.31800000000000E+00 0.10000000000000E+01
 d    1 1.00
 0.90985336424000E-01 0.10000000000000E+01
 f    1 1.00
 0.76100000000000E+00 0.10000000000000E+01
 
    5 0
 s    6 1.00
 0.13575349682000E+05 0.60645503603591E-03
 0.20352333680000E+04 0.46979088884982E-02
 0.46322562359000E+03 0.24332477647552E-01
 0.13120019598000E+03 0.97399968307759E-01
 0.42853015891000E+02 0.30195584253780E+00
 0.15584185766000E+02 0.66233609137875E+00
 s    2 1.00
 0.62067138508000E+01 0.65595308539952E+00
 0.25764896527000E+01 0.37585633285142E+00
 s    1 1.00
 0.57696339419000E+00 0.10000000000000E+01
 s    1 1.00
 0.22972831358000E+00 0.10000000000000E+01
 s    1 1.00
 0.95164440028000E-01 0.10000000000000E+01
 s    1 1.00
 0.48475401370000E-01 0.10000000000000E+01
 p    4 1.00
 0.34697232244000E+02 0.11327220003114E-01
 0.79582622826000E+01 0.76169659202087E-01
 0.23780826883000E+01 0.30192252202676E+00
 0.81433208183000E+00 0.72785027349547E+00
 p    1 1.00
 0.28887547253000E+00 0.10000000000000E+01
 p    1 1.00
 0.10056823671000E+00 0.10000000000000E+01
 d    1 1.00
 0.10970000000000E+01 0.10000000000000E+01
 d    1 1.00
 0.31800000000000E+00 0.10000000000000E+01
 d    1 1.00
 0.90985336424000E-01 0.10000000000000E+01
 f    1 1.00
 0.76100000000000E+00 0.10000000000000E+01
 
    6 0
 s    6 1.00
 0.13575349682000E+05 0.60645503603591E-03
 0.20352333680000E+04 0.46979088884982E-02
 0.46322562359000E+03 0.24332477647552E-01
 0.13120019598000E+03 0.97399968307759E-01
 0.42853015891000E+02 0.30195584253780E+00
 0.15584185766000E+02 0.66233609137875E+00
 s    2 1.00
 0.62067138508000E+01 0.65595308539952E+00
 0.25764896527000E+01 0.37585633285142E+00
 s    1 1.00
 0.57696339419000E+00 0.10000000000000E+01
 s    1 1.00
 0.22972831358000E+00 0.10000000000000E+01
 s    1 1.00
 0.95164440028000E-01 0.10000000000000E+01
 s    1 1.00
 0.48475401370000E-01 0.10000000000000E+01
 p    4 1.00
 0.34697232244000E+02 0.11327220003114E-01
 0.79582622826000E+01 0.76169659202087E-01
 0.23780826883000E+01 0.30192252202676E+00
 0.81433208183000E+00 0.72785027349547E+00
 p    1 1.00
 0.28887547253000E+00 0.10000000000000E+01
 p    1 1.00
 0.10056823671000E+00 0.10000000000000E+01
 d    1 1.00
 0.10970000000000E+01 0.10000000000000E+01
 d    1 1.00
 0.31800000000000E+00 0.10000000000000E+01
 d    1 1.00
 0.90985336424000E-01 0.10000000000000E+01
 f    1 1.00
 0.76100000000000E+00 0.10000000000000E+01
 
    7 0
 s    3 1.00
 0.34061341000000E+02 0.25439307208879E-01
 0.51235746000000E+01 0.19008594890375E+00
 0.11646626000000E+01 0.85244113011042E+00
 s    1 1.00
 0.32723041000000E+00 0.10000000000000E+01
 s    1 1.00
 0.10307241000000E+00 0.10000000000000E+01
 p    1 1.00
 0.80000000000000E+00 0.10000000000000E+01
 p    1 1.00
 0.95774129632000E-01 0.10000000000000E+01
 
    8 0
 s    3 1.00
 0.34061341000000E+02 0.25439307208879E-01
 0.51235746000000E+01 0.19008594890375E+00
 0.11646626000000E+01 0.85244113011042E+00
 s    1 1.00
 0.32723041000000E+00 0.10000000000000E+01
 s    1 1.00
 0.10307241000000E+00 0.10000000000000E+01
 p    1 1.00
 0.80000000000000E+00 0.10000000000000E+01
 p    1 1.00
 0.95774129632000E-01 0.10000000000000E+01
 
    9 0
 s    3 1.00
 0.34061341000000E+02 0.25439307208879E-01
 0.51235746000000E+01 0.19008594890375E+00
 0.11646626000000E+01 0.85244113011042E+00
 s    1 1.00
 0.32723041000000E+00 0.10000000000000E+01
 s    1 1.00
 0.10307241000000E+00 0.10000000000000E+01
 p    1 1.00
 0.80000000000000E+00 0.10000000000000E+01
 p    1 1.00
 0.95774129632000E-01 0.10000000000000E+01
 
   10 0
 s    3 1.00
 0.34061341000000E+02 0.25439307208879E-01
 0.51235746000000E+01 0.19008594890375E+00
 0.11646626000000E+01 0.85244113011042E+00
 s    1 1.00
 0.32723041000000E+00 0.10000000000000E+01
 s    1 1.00
 0.10307241000000E+00 0.10000000000000E+01
 p    1 1.00
 0.80000000000000E+00 0.10000000000000E+01
 p    1 1.00
 0.95774129632000E-01 0.10000000000000E+01
 
   11 0
 s    6 1.00
 0.19730800647000E+05 0.58626402628763E-03
 0.29578958745000E+04 0.45428820586397E-02
 0.67322133595000E+03 0.23558413450084E-01
 0.19068249494000E+03 0.94709193292923E-01
 0.62295441898000E+02 0.29719784913376E+00
 0.22654161182000E+02 0.66916246895232E+00
 s    2 1.00
 0.89791477428000E+01 0.64596683630063E+00
 0.36863002370000E+01 0.38700574393705E+00
 s    1 1.00
 0.84660076805000E+00 0.10000000000000E+01
 s    1 1.00
 0.33647133771000E+00 0.10000000000000E+01
 s    1 1.00
 0.13647653675000E+00 0.10000000000000E+01
 s    1 1.00
 0.68441605847000E-01 0.10000000000000E+01
 p    4 1.00
 0.49200380510000E+02 0.11448825101764E-01
 0.11346790537000E+02 0.78422337970864E-01
 0.34273972411000E+01 0.30818094738830E+00
 0.11785525134000E+01 0.72027196368413E+00
 p    1 1.00
 0.41642204972000E+00 0.10000000000000E+01
 p    1 1.00
 0.14260826011000E+00 0.10000000000000E+01
 d    1 1.00
 0.16540000000000E+01 0.10000000000000E+01
 d    1 1.00
 0.46900000000000E+00 0.10000000000000E+01
 d    1 1.00
 0.12829642058000E+00 0.10000000000000E+01
 f    1 1.00
 0.10930000000000E+01 0.10000000000000E+01
 
   12 0
 s    6 1.00
 0.27032382631000E+05 0.57227335211155E-03
 0.40523871392000E+04 0.44353233492995E-02
 0.92232722710000E+03 0.23020107706038E-01
 0.26124070989000E+03 0.92822490667928E-01
 0.85354641351000E+02 0.29378500009671E+00
 0.31035035245000E+02 0.67401604501641E+00
 s    2 1.00
 0.12260860728000E+02 0.63839937025506E+00
 0.49987076005000E+01 0.39534587125718E+00
 s    1 1.00
 0.11703108158000E+01 0.10000000000000E+01
 s    1 1.00
 0.46474740994000E+00 0.10000000000000E+01
 s    1 1.00
 0.18504536357000E+00 0.10000000000000E+01
 s    1 1.00
 0.70288026270000E-01 0.10000000000000E+01
 p    4 1.00
 0.63274954801000E+02 0.12018332222616E-01
 0.14627049379000E+02 0.83005421790056E-01
 0.44501223456000E+01 0.31991743925964E+00
 0.15275799647000E+01 0.70715542916104E+00
 p    1 1.00
 0.52935117943000E+00 0.10000000000000E+01
 p    1 1.00
 0.17478421270000E+00 0.10000000000000E+01
 p    1 1.00
 0.51112745706000E-01 0.10000000000000E+01
 d    1 1.00
 0.23140000000000E+01 0.10000000000000E+01
 d    1 1.00
 0.64500000000000E+00 0.10000000000000E+01
 d    1 1.00
 0.14696477366000E+00 0.10000000000000E+01
 f    1 1.00
 0.14280000000000E+01 0.10000000000000E+01
 
   13 0
 s    6 1.00
 0.27032382631000E+05 0.57227335211155E-03
 0.40523871392000E+04 0.44353233492995E-02
 0.92232722710000E+03 0.23020107706038E-01
 0.26124070989000E+03 0.92822490667928E-01
 0.85354641351000E+02 0.29378500009671E+00
 0.31035035245000E+02 0.67401604501641E+00
 s    2 1.00
 0.12260860728000E+02 0.63839937025506E+00
 0.49987076005000E+01 0.39534587125718E+00
 s    1 1.00
 0.11703108158000E+01 0.10000000000000E+01
 s    1 1.00
 0.46474740994000E+00 0.10000000000000E+01
 s    1 1.00
 0.18504536357000E+00 0.10000000000000E+01
 s    1 1.00
 0.70288026270000E-01 0.10000000000000E+01
 p    4 1.00
 0.63274954801000E+02 0.12018332222616E-01
 0.14627049379000E+02 0.83005421790056E-01
 0.44501223456000E+01 0.31991743925964E+00
 0.15275799647000E+01 0.70715542916104E+00
 p    1 1.00
 0.52935117943000E+00 0.10000000000000E+01
 p    1 1.00
 0.17478421270000E+00 0.10000000000000E+01
 p    1 1.00
 0.51112745706000E-01 0.10000000000000E+01
 d    1 1.00
 0.23140000000000E+01 0.10000000000000E+01
 d    1 1.00
 0.64500000000000E+00 0.10000000000000E+01
 d    1 1.00
 0.14696477366000E+00 0.10000000000000E+01
 f    1 1.00
 0.14280000000000E+01 0.10000000000000E+01
 
   14 0
 s    6 1.00
 0.19730800647000E+05 0.58626402628763E-03
 0.29578958745000E+04 0.45428820586397E-02
 0.67322133595000E+03 0.23558413450084E-01
 0.19068249494000E+03 0.94709193292923E-01
 0.62295441898000E+02 0.29719784913376E+00
 0.22654161182000E+02 0.66916246895232E+00
 s    2 1.00
 0.89791477428000E+01 0.64596683630063E+00
 0.36863002370000E+01 0.38700574393705E+00
 s    1 1.00
 0.84660076805000E+00 0.10000000000000E+01
 s    1 1.00
 0.33647133771000E+00 0.10000000000000E+01
 s    1 1.00
 0.13647653675000E+00 0.10000000000000E+01
 s    1 1.00
 0.68441605847000E-01 0.10000000000000E+01
 p    4 1.00
 0.49200380510000E+02 0.11448825101764E-01
 0.11346790537000E+02 0.78422337970864E-01
 0.34273972411000E+01 0.30818094738830E+00
 0.11785525134000E+01 0.72027196368413E+00
 p    1 1.00
 0.41642204972000E+00 0.10000000000000E+01
 p    1 1.00
 0.14260826011000E+00 0.10000000000000E+01
 d    1 1.00
 0.16540000000000E+01 0.10000000000000E+01
 d    1 1.00
 0.46900000000000E+00 0.10000000000000E+01
 d    1 1.00
 0.12829642058000E+00 0.10000000000000E+01
 f    1 1.00
 0.10930000000000E+01 0.10000000000000E+01
 
   15 0
 s    3 1.00
 0.34061341000000E+02 0.25439307208879E-01
 0.51235746000000E+01 0.19008594890375E+00
 0.11646626000000E+01 0.85244113011042E+00
 s    1 1.00
 0.32723041000000E+00 0.10000000000000E+01
 s    1 1.00
 0.10307241000000E+00 0.10000000000000E+01
 p    1 1.00
 0.80000000000000E+00 0.10000000000000E+01
 p    1 1.00
 0.95774129632000E-01 0.10000000000000E+01
 
   16 0
 s    3 1.00
 0.34061341000000E+02 0.25439307208879E-01
 0.51235746000000E+01 0.19008594890375E+00
 0.11646626000000E+01 0.85244113011042E+00
 s    1 1.00
 0.32723041000000E+00 0.10000000000000E+01
 s    1 1.00
 0.10307241000000E+00 0.10000000000000E+01
 p    1 1.00
 0.80000000000000E+00 0.10000000000000E+01
 p    1 1.00
 0.95774129632000E-01 0.10000000000000E+01
 
[MO]
 Sym= X
 Ene= -0.891086
 Spin= Alpha
 Occup= -0.891086
         1   -1.830249E-04
         2   -4.265214E-04
         3    1.204088E-03
         4   -2.636939E-03
         5   -8.117476E-03
         6   -1.158720E-02
         7    1.701838E-03
         8    2.891616E-04
         9    2.476355E-02
        10   -2.507358E-03
        11    5.050519E-04
        12    2.284374E-02
        13   -3.676420E-02
        14    1.069774E-02
        15    3.492844E-03
        16    1.617115E-06
        17   -1.327894E-05
        18    1.166182E-05
        19   -1.826323E-05
        20   -6.146393E-03
        21    3.770551E-03
        22   -6.773509E-04
        23    4.139341E-04
        24    2.634167E-04
        25   -7.558505E-04
        26   -1.389488E-02
        27    7.117618E-03
        28   -5.198469E-03
        29    4.857726E-03
        30    3.407425E-04
        31    1.213994E-03
        32    1.919062E-03
        33   -1.109889E-02
        34   -1.980240E-05
        35    8.136502E-06
        36   -1.111374E-04
        37    7.688701E-06
        38   -8.281272E-06
        39   -6.812079E-04
        40    1.887900E-05
        41   -2.634990E-06
        42    8.303144E-04
        43   -6.770656E-04
        44    2.038382E-05
        45    4.360810E-05
        46    1.830422E-04
        47   -2.976731E-03
        48   -5.193837E-02
        49    5.844108E-03
        50    5.279249E-04
        51    2.095808E-06
        52    1.990905E-01
        53   -3.876994E-04
        54    1.922085E-05
        55    2.064925E-01
        56   -1.714970E-02
        57   -6.245783E-04
        58    2.013810E-01
        59    3.496392E-05
        60   -3.233227E-05
        61   -2.631651E-06
        62    1.204191E-07
        63   -7.123015E-04
        64    8.103661E-08
        65    3.968779E-04
        66   -6.591293E-04
        67    2.622514E-04
        68    3.988276E-06
        69   -3.354397E-03
        70    1.750011E-07
        71    9.797222E-03
        72   -1.094869E-02
        73    1.151470E-03
        74   -1.010971E-04
        75    4.872738E-03
        76   -1.780406E-05
        77    8.658590E-06
        78    4.657597E-08
        79   -1.116404E-03
        80   -7.923350E-06
        81    2.391119E-08
        82    6.712914E-04
        83   -3.693368E-06
        84   -8.639941E-08
        85    8.265212E-04
        86    4.332059E-08
        87   -1.834355E-04
        88   -4.274480E-04
        89    1.208180E-03
        90   -2.662107E-03
        91   -6.688251E-03
        92   -1.155969E-02
        93    1.701291E-03
        94   -2.910330E-04
        95    2.476908E-02
        96   -2.480840E-03
        97   -4.982402E-04
        98    2.284522E-02
        99   -3.704391E-02
       100   -1.125816E-02
       101    3.491153E-03
       102    1.619959E-06
       103   -1.322013E-05
       104    1.160017E-05
       105    1.857961E-05
       106   -6.146299E-03
       107   -3.770671E-03
       108   -6.719473E-04
       109    4.076286E-04
       110    2.643187E-04
       111    7.522711E-04
       112   -1.389541E-02
       113   -7.116527E-03
       114   -5.301658E-03
       115    4.968902E-03
       116    3.327555E-04
       117   -1.111147E-03
       118    1.898776E-03
       119    1.109327E-02
       120   -1.985204E-05
       121   -8.100297E-06
       122   -1.110613E-04
       123    7.881691E-06
       124    8.231260E-06
       125   -6.813179E-04
       126    1.875262E-05
       127    2.636428E-06
       128    8.303223E-04
       129    6.769920E-04
       130    1.327071E-04
       131    2.874726E-04
       132    5.937732E-04
       133   -1.105209E-02
       134    2.947502E-02
       135    1.295386E-02
       136   -1.323628E-03
       137    7.932085E-04
       138   -1.482014E-01
       139   -9.435165E-03
       140    6.542842E-03
       141   -1.511968E-01
       142   -2.508291E-02
       143   -8.158971E-03
       144   -9.071166E-02
       145    1.547169E-04
       146   -1.881996E-04
       147    3.348278E-05
       148   -2.093822E-06
       149   -7.549624E-04
       150    2.780893E-03
       151    6.317177E-04
       152   -7.866378E-04
       153    1.549202E-04
       154    1.771811E-03
       155   -3.934288E-03
       156    4.657381E-03
       157    8.477551E-03
       158   -6.626964E-03
       159   -1.850588E-03
       160   -9.042491E-03
       161    3.771383E-03
       162   -1.318233E-02
       163   -1.449744E-05
       164    1.146355E-05
       165    8.125519E-04
       166   -2.100781E-05
       167    1.627541E-05
       168   -1.887052E-04
       169    4.045816E-05
       170   -3.165538E-05
       171   -9.014475E-04
       172    3.106076E-04
       173   -1.217308E-03
       174   -2.772247E-03
       175    2.890657E-03
       176    2.283307E-02
       177   -1.867418E-02
       178    9.726380E-03
       179    9.760619E-03
       180   -1.479124E-06
       181   -1.012172E-01
       182    7.309914E-04
       183   -1.225248E-05
       184   -1.043608E-01
       185   -2.680040E-02
       186    8.264569E-04
       187   -1.337534E-01
       188    5.074277E-04
       189   -2.823043E-04
       190   -2.251234E-04
       191    3.441208E-07
       192    1.011737E-02
       193    3.376088E-07
       194   -1.927535E-03
       195    4.264135E-03
       196   -2.336599E-03
       197    1.084713E-06
       198    2.475436E-02
       199   -1.798429E-06
       200   -6.255606E-03
       201    7.546766E-03
       202   -1.291160E-03
       203   -1.179433E-04
       204    1.888583E-02
       205    7.280798E-06
       206    1.248918E-04
       207   -3.600055E-09
       208    2.089901E-04
       209   -8.768422E-05
       210   -3.074717E-08
       211    1.156024E-03
       212   -7.987571E-05
       213    3.557715E-08
       214   -1.436413E-03
       215    4.191007E-08
       216    1.329309E-04
       217    2.877374E-04
       218    5.957683E-04
       219   -1.107054E-02
       220    3.113686E-02
       221    1.296724E-02
       222   -1.323959E-03
       223   -7.852016E-04
       224   -1.482070E-01
       225   -9.448592E-03
       226   -6.546481E-03
       227   -1.512061E-01
       228   -2.469650E-02
       229    8.962704E-03
       230   -9.072315E-02
       231    1.547080E-04
       232   -1.885497E-04
       233    3.384175E-05
       234    2.483570E-06
       235   -7.551143E-04
       236   -2.780911E-03
       237    6.348804E-04
       238   -7.886066E-04
       239    1.537262E-04
       240   -1.776009E-03
       241   -3.931299E-03
       242   -4.657439E-03
       243    8.397722E-03
       244   -6.546294E-03
       245   -1.851429E-03
       246    9.161214E-03
       247    3.800449E-03
       248    1.318700E-02
       249   -1.461505E-05
       250   -1.151024E-05
       251    8.127308E-04
       252   -2.100302E-05
       253   -1.623991E-05
       254   -1.889399E-04
       255    4.061117E-05
       256    3.168252E-05
       257   -9.014528E-04
       258   -3.106361E-04
       259   -4.088684E-04
       260   -2.790487E-04
       261   -1.809322E-02
       262   -1.806196E-05
       263   -3.640565E-06
       264    9.490578E-04
       265   -5.455400E-03
       266   -3.380888E-04
       267   -6.977227E-03
       268   -4.101212E-04
       269   -2.725397E-04
       270   -1.806090E-02
       271   -1.715007E-05
       272    2.649740E-06
       273    9.491529E-04
       274   -5.548247E-03
       275    3.049947E-04
       276   -6.981776E-03
       277   -4.168722E-04
       278   -2.405859E-03
       279    3.548455E-02
       280   -1.271706E-05
       281    9.859305E-05
       282   -6.026518E-03
       283   -1.876648E-03
       284   -2.852827E-03
       285    2.423714E-03
       286   -4.208092E-04
       287   -2.416115E-03
       288    3.576542E-02
       289   -1.194404E-05
       290   -9.918049E-05
       291   -6.027496E-03
       292   -1.855955E-03
       293    2.906493E-03
       294    2.412313E-03
       295   -3.293311E-05
       296   -7.519025E-05
       297    4.035026E-05
       298    3.415668E-04
       299   -7.571283E-03
       300    7.149608E-04
       301    3.521154E-04
       302    1.356609E-07
       303    1.788437E-02
       304    3.906888E-05
       305    1.216521E-06
       306    2.039361E-02
       307   -3.270131E-03
       308    2.949436E-05
       309    8.301223E-03
       310    1.170269E-05
       311    3.645799E-06
       312   -1.534849E-05
       313   -9.335801E-08
       314    4.391346E-03
       315    9.041158E-08
       316   -2.636848E-05
       317    9.218255E-05
       318   -6.581407E-05
       319   -9.002025E-07
       320    1.318252E-02
       321    8.800631E-08
       322   -9.940564E-04
       323    2.917560E-03
       324   -1.923504E-03
       325    2.203316E-05
       326    2.950723E-03
       327    5.179448E-06
       328    6.842165E-06
       329   -2.626419E-08
       330    2.052460E-05
       331   -5.116578E-06
       332    5.874426E-08
       333    6.848971E-04
       334   -4.063150E-06
       335   -2.350715E-08
       336   -7.124337E-04
       337   -1.155982E-08
       338   -2.588459E-05
       339   -5.954818E-05
       340    4.165431E-05
       341    5.858968E-04
       342   -6.026898E-03
       343   -9.584206E-04
       344   -6.583529E-06
       345    1.811463E-04
       346   -7.921453E-02
       347   -1.214910E-04
       348    3.105934E-04
       349   -7.344278E-02
       350   -1.324978E-03
       351    5.557163E-04
       352   -5.943569E-02
       353   -1.665114E-04
       354    2.191537E-04
       355   -7.302548E-03
       356    4.245663E-06
       357   -4.784056E-06
       358    5.383923E-07
       359   -9.179417E-07
       360   -4.173692E-06
       361    4.943955E-04
       362   -1.016450E-05
       363   -1.233616E-05
       364    2.250066E-05
       365    8.554834E-06
       366   -5.556302E-04
       367    1.632452E-03
       368   -8.017042E-05
       369    5.229548E-05
       370    2.787494E-05
       371    7.580658E-05
       372   -1.786549E-04
       373    2.795047E-04
       374    6.363374E-07
       375    1.996884E-06
       376    6.893288E-05
       377   -1.117776E-06
       378   -9.711508E-07
       379    8.340900E-05
       380    2.640401E-07
       381   -1.707950E-06
       382   -1.758922E-04
       383    1.405213E-04
       384   -2.568375E-05
       385   -5.909586E-05
       386    4.149166E-05
       387    5.809164E-04
       388   -6.017983E-03
       389   -9.324722E-04
       390    3.190463E-06
       391   -1.873048E-04
       392   -7.921832E-02
       393   -1.121651E-04
       394   -3.154930E-04
       395   -7.344718E-02
       396   -1.294104E-03
       397   -5.525063E-04
       398   -5.942925E-02
       399   -1.517040E-04
       400   -2.247657E-04
       401   -7.302920E-03
       402    4.306395E-06
       403   -4.866849E-06
       404    5.604535E-07
       405    8.784692E-07
       406   -4.216110E-06
       407   -4.944297E-04
       408   -9.830283E-06
       409   -1.237494E-05
       410    2.220523E-05
       411   -8.062479E-06
       412   -5.556172E-04
       413   -1.632567E-03
       414   -7.934164E-05
       415    5.350975E-05
       416    2.583189E-05
       417   -7.518326E-05
       418   -1.784734E-04
       419   -2.783273E-04
       420    6.425602E-07
       421   -2.011385E-06
       422    6.894169E-05
       423   -1.109077E-06
       424    9.952850E-07
       425    8.340835E-05
       426    2.469923E-07
       427    1.703271E-06
       428   -1.759033E-04
       429   -1.405357E-04
       430    5.276472E-03
       431    1.251104E-02
       432   -1.939694E-02
       433   -3.012358E-02
       434   -2.278401E-02
       435   -7.026266E-02
       436   -1.849409E-02
       437    9.511367E-06
       438    2.668920E-01
       439   -2.100928E-02
       440    2.049879E-06
       441    2.633677E-01
       442   -1.972210E-02
       443   -1.047865E-04
       444    2.139009E-01
       445   -1.064220E-04
       446   -2.830208E-05
       447    1.347241E-04
       448    2.970415E-07
       449    6.094339E-04
       450    2.553494E-07
       451   -2.375768E-04
       452   -1.649865E-03
       453    1.887442E-03
       454   -3.923785E-06
       455    3.238154E-03
       456    1.549603E-06
       457   -1.756348E-03
       458   -3.320089E-03
       459    5.076437E-03
       460   -4.908023E-06
       461    2.050893E-03
       462    8.062895E-06
       463   -1.418594E-04
       464    4.004711E-08
       465   -1.082531E-03
       466   -9.632951E-05
       467   -2.515899E-09
       468    6.115848E-04
       469    2.866539E-04
       470   -5.121294E-08
       471    8.407827E-04
       472    6.544609E-09
       473    9.548374E-03
       474    1.839232E-02
       475    3.117653E-02
       476   -2.376475E-03
       477   -1.957822E-03
       478    1.344712E-02
       479    1.221504E-03
       480   -3.647043E-03
       481    1.506399E-02
       482    9.541389E-03
       483    1.832190E-02
       484    3.098856E-02
       485   -2.372926E-03
       486    1.951031E-03
       487    1.345052E-02
       488    1.237021E-03
       489    3.609231E-03
       490    1.507334E-02
 Sym= X
 Ene= 0.891086
 Spin= Alpha
 Occup= 0.891086
         1   -1.354345E-02
         2   -3.006978E-02
         3    1.015482E-02
         4    5.055557E-01
         5    5.316556E+00
         6   -3.901009E+00
         7   -6.570943E-03
         8   -2.075382E-02
         9   -3.111647E-03
        10    5.928427E-02
        11    3.009391E-03
        12   -5.129484E-03
        13   -2.439624E-01
        14    1.729288E-01
        15   -3.415995E-02
        16    1.731614E-03
        17   -2.100841E-06
        18   -1.729513E-03
        19   -5.722467E-04
        20   -7.688881E-05
        21    1.614092E-04
        22    3.052014E-02
        23   -1.100069E-02
        24   -1.951945E-02
        25   -7.661459E-03
        26   -1.046240E-03
        27    5.061518E-04
        28    2.889960E-02
        29   -2.370464E-01
        30    2.081468E-01
        31    9.902328E-01
        32    1.171447E-02
        33   -2.515693E-02
        34    8.868052E-04
        35   -3.277700E-05
        36   -2.042738E-05
        37   -9.274808E-04
        38    1.227011E-04
        39   -1.730704E-05
        40   -2.622933E-04
        41   -7.872609E-05
        42    4.471324E-05
        43   -2.170992E-05
        44   -4.558912E-03
        45   -9.281416E-03
        46   -4.973460E-03
        47    3.232567E-01
        48    4.743647E+00
        49    2.911145E-01
        50   -1.886806E-02
        51   -5.076807E-06
        52    6.150934E-03
        53   -7.717162E-02
        54   -2.113770E-05
        55    3.634188E-03
        56   -1.739105E+00
        57    3.684141E-03
        58    1.110226E-01
        59    6.233003E-04
        60    2.740561E-03
        61   -3.363862E-03
        62    4.462319E-07