[Molden Format]
[Title]
ADC(2) - opt by CAM-B3LYP gaussian                                              
[Atoms] AU
 c     1    6 -.12589065566052E+01 -.22830902054421E+01 -.26005390588660E-01
 c     2    6 -.25569912224779E+01 0.86573078000000E-06 -.24733756079320E-01
 c     3    6 -.12589060841737E+01 0.22830907841707E+01 -.26008073999770E-01
 c     4    6 0.13324295737882E+01 0.22846183820847E+01 -.28114684000920E-01
 c     5    6 0.26867573459717E+01 0.39329925000000E-06 -.27723246129760E-01
 c     6    6 0.13324281942881E+01 -.22846180679178E+01 -.28111244699360E-01
 h     7    1 -.22982509786098E+01 -.40377481062879E+01 -.23319125993500E-01
 h     8    1 -.22982490510892E+01 0.40377494409070E+01 -.23324322740370E-01
 h     9    1 0.23514918675648E+01 0.40568894753521E+01 -.30529017005560E-01
 h    10    1 0.23514910360853E+01 -.40568888210345E+01 -.30521911635300E-01
 n    11    7 -.52742123095903E+01 0.14763485000000E-06 -.18925267070140E-01
 o    12    8 -.63809534361791E+01 0.20269762391752E+01 -.16457057973460E-01
 o    13    8 -.63809510362269E+01 -.20269772478165E+01 -.16464881439650E-01
 n    14    7 0.52454603626942E+01 -.57046108000000E-06 -.73989411041200E-01
 h    15    1 0.62036818842731E+01 0.16164996606794E+01 0.19711589672944E+00
 h    16    1 0.62036804102867E+01 -.16165023700742E+01 0.19711149366755E+00
[GTO]
    1 0
 s    6 1.00
 0.13575349682000E+05 0.60645503603591E-03
 0.20352333680000E+04 0.46979088884982E-02
 0.46322562359000E+03 0.24332477647552E-01
 0.13120019598000E+03 0.97399968307759E-01
 0.42853015891000E+02 0.30195584253780E+00
 0.15584185766000E+02 0.66233609137875E+00
 s    2 1.00
 0.62067138508000E+01 0.65595308539952E+00
 0.25764896527000E+01 0.37585633285142E+00
 s    1 1.00
 0.57696339419000E+00 0.10000000000000E+01
 s    1 1.00
 0.22972831358000E+00 0.10000000000000E+01
 s    1 1.00
 0.95164440028000E-01 0.10000000000000E+01
 s    1 1.00
 0.48475401370000E-01 0.10000000000000E+01
 p    4 1.00
 0.34697232244000E+02 0.11327220003114E-01
 0.79582622826000E+01 0.76169659202087E-01
 0.23780826883000E+01 0.30192252202676E+00
 0.81433208183000E+00 0.72785027349547E+00
 p    1 1.00
 0.28887547253000E+00 0.10000000000000E+01
 p    1 1.00
 0.10056823671000E+00 0.10000000000000E+01
 d    1 1.00
 0.10970000000000E+01 0.10000000000000E+01
 d    1 1.00
 0.31800000000000E+00 0.10000000000000E+01
 d    1 1.00
 0.90985336424000E-01 0.10000000000000E+01
 f    1 1.00
 0.76100000000000E+00 0.10000000000000E+01
 
    2 0
 s    6 1.00
 0.13575349682000E+05 0.60645503603591E-03
 0.20352333680000E+04 0.46979088884982E-02
 0.46322562359000E+03 0.24332477647552E-01
 0.13120019598000E+03 0.97399968307759E-01
 0.42853015891000E+02 0.30195584253780E+00
 0.15584185766000E+02 0.66233609137875E+00
 s    2 1.00
 0.62067138508000E+01 0.65595308539952E+00
 0.25764896527000E+01 0.37585633285142E+00
 s    1 1.00
 0.57696339419000E+00 0.10000000000000E+01
 s    1 1.00
 0.22972831358000E+00 0.10000000000000E+01
 s    1 1.00
 0.95164440028000E-01 0.10000000000000E+01
 s    1 1.00
 0.48475401370000E-01 0.10000000000000E+01
 p    4 1.00
 0.34697232244000E+02 0.11327220003114E-01
 0.79582622826000E+01 0.76169659202087E-01
 0.23780826883000E+01 0.30192252202676E+00
 0.81433208183000E+00 0.72785027349547E+00
 p    1 1.00
 0.28887547253000E+00 0.10000000000000E+01
 p    1 1.00
 0.10056823671000E+00 0.10000000000000E+01
 d    1 1.00
 0.10970000000000E+01 0.10000000000000E+01
 d    1 1.00
 0.31800000000000E+00 0.10000000000000E+01
 d    1 1.00
 0.90985336424000E-01 0.10000000000000E+01
 f    1 1.00
 0.76100000000000E+00 0.10000000000000E+01
 
    3 0
 s    6 1.00
 0.13575349682000E+05 0.60645503603591E-03
 0.20352333680000E+04 0.46979088884982E-02
 0.46322562359000E+03 0.24332477647552E-01
 0.13120019598000E+03 0.97399968307759E-01
 0.42853015891000E+02 0.30195584253780E+00
 0.15584185766000E+02 0.66233609137875E+00
 s    2 1.00
 0.62067138508000E+01 0.65595308539952E+00
 0.25764896527000E+01 0.37585633285142E+00
 s    1 1.00
 0.57696339419000E+00 0.10000000000000E+01
 s    1 1.00
 0.22972831358000E+00 0.10000000000000E+01
 s    1 1.00
 0.95164440028000E-01 0.10000000000000E+01
 s    1 1.00
 0.48475401370000E-01 0.10000000000000E+01
 p    4 1.00
 0.34697232244000E+02 0.11327220003114E-01
 0.79582622826000E+01 0.76169659202087E-01
 0.23780826883000E+01 0.30192252202676E+00
 0.81433208183000E+00 0.72785027349547E+00
 p    1 1.00
 0.28887547253000E+00 0.10000000000000E+01
 p    1 1.00
 0.10056823671000E+00 0.10000000000000E+01
 d    1 1.00
 0.10970000000000E+01 0.10000000000000E+01
 d    1 1.00
 0.31800000000000E+00 0.10000000000000E+01
 d    1 1.00
 0.90985336424000E-01 0.10000000000000E+01
 f    1 1.00
 0.76100000000000E+00 0.10000000000000E+01
 
    4 0
 s    6 1.00
 0.13575349682000E+05 0.60645503603591E-03
 0.20352333680000E+04 0.46979088884982E-02
 0.46322562359000E+03 0.24332477647552E-01
 0.13120019598000E+03 0.97399968307759E-01
 0.42853015891000E+02 0.30195584253780E+00
 0.15584185766000E+02 0.66233609137875E+00
 s    2 1.00
 0.62067138508000E+01 0.65595308539952E+00
 0.25764896527000E+01 0.37585633285142E+00
 s    1 1.00
 0.57696339419000E+00 0.10000000000000E+01
 s    1 1.00
 0.22972831358000E+00 0.10000000000000E+01
 s    1 1.00
 0.95164440028000E-01 0.10000000000000E+01
 s    1 1.00
 0.48475401370000E-01 0.10000000000000E+01
 p    4 1.00
 0.34697232244000E+02 0.11327220003114E-01
 0.79582622826000E+01 0.76169659202087E-01
 0.23780826883000E+01 0.30192252202676E+00
 0.81433208183000E+00 0.72785027349547E+00
 p    1 1.00
 0.28887547253000E+00 0.10000000000000E+01
 p    1 1.00
 0.10056823671000E+00 0.10000000000000E+01
 d    1 1.00
 0.10970000000000E+01 0.10000000000000E+01
 d    1 1.00
 0.31800000000000E+00 0.10000000000000E+01
 d    1 1.00
 0.90985336424000E-01 0.10000000000000E+01
 f    1 1.00
 0.76100000000000E+00 0.10000000000000E+01
 
    5 0
 s    6 1.00
 0.13575349682000E+05 0.60645503603591E-03
 0.20352333680000E+04 0.46979088884982E-02
 0.46322562359000E+03 0.24332477647552E-01
 0.13120019598000E+03 0.97399968307759E-01
 0.42853015891000E+02 0.30195584253780E+00
 0.15584185766000E+02 0.66233609137875E+00
 s    2 1.00
 0.62067138508000E+01 0.65595308539952E+00
 0.25764896527000E+01 0.37585633285142E+00
 s    1 1.00
 0.57696339419000E+00 0.10000000000000E+01
 s    1 1.00
 0.22972831358000E+00 0.10000000000000E+01
 s    1 1.00
 0.95164440028000E-01 0.10000000000000E+01
 s    1 1.00
 0.48475401370000E-01 0.10000000000000E+01
 p    4 1.00
 0.34697232244000E+02 0.11327220003114E-01
 0.79582622826000E+01 0.76169659202087E-01
 0.23780826883000E+01 0.30192252202676E+00
 0.81433208183000E+00 0.72785027349547E+00
 p    1 1.00
 0.28887547253000E+00 0.10000000000000E+01
 p    1 1.00
 0.10056823671000E+00 0.10000000000000E+01
 d    1 1.00
 0.10970000000000E+01 0.10000000000000E+01
 d    1 1.00
 0.31800000000000E+00 0.10000000000000E+01
 d    1 1.00
 0.90985336424000E-01 0.10000000000000E+01
 f    1 1.00
 0.76100000000000E+00 0.10000000000000E+01
 
    6 0
 s    6 1.00
 0.13575349682000E+05 0.60645503603591E-03
 0.20352333680000E+04 0.46979088884982E-02
 0.46322562359000E+03 0.24332477647552E-01
 0.13120019598000E+03 0.97399968307759E-01
 0.42853015891000E+02 0.30195584253780E+00
 0.15584185766000E+02 0.66233609137875E+00
 s    2 1.00
 0.62067138508000E+01 0.65595308539952E+00
 0.25764896527000E+01 0.37585633285142E+00
 s    1 1.00
 0.57696339419000E+00 0.10000000000000E+01
 s    1 1.00
 0.22972831358000E+00 0.10000000000000E+01
 s    1 1.00
 0.95164440028000E-01 0.10000000000000E+01
 s    1 1.00
 0.48475401370000E-01 0.10000000000000E+01
 p    4 1.00
 0.34697232244000E+02 0.11327220003114E-01
 0.79582622826000E+01 0.76169659202087E-01
 0.23780826883000E+01 0.30192252202676E+00
 0.81433208183000E+00 0.72785027349547E+00
 p    1 1.00
 0.28887547253000E+00 0.10000000000000E+01
 p    1 1.00
 0.10056823671000E+00 0.10000000000000E+01
 d    1 1.00
 0.10970000000000E+01 0.10000000000000E+01
 d    1 1.00
 0.31800000000000E+00 0.10000000000000E+01
 d    1 1.00
 0.90985336424000E-01 0.10000000000000E+01
 f    1 1.00
 0.76100000000000E+00 0.10000000000000E+01
 
    7 0
 s    3 1.00
 0.34061341000000E+02 0.25439307208879E-01
 0.51235746000000E+01 0.19008594890375E+00
 0.11646626000000E+01 0.85244113011042E+00
 s    1 1.00
 0.32723041000000E+00 0.10000000000000E+01
 s    1 1.00
 0.10307241000000E+00 0.10000000000000E+01
 p    1 1.00
 0.80000000000000E+00 0.10000000000000E+01
 p    1 1.00
 0.95774129632000E-01 0.10000000000000E+01
 
    8 0
 s    3 1.00
 0.34061341000000E+02 0.25439307208879E-01
 0.51235746000000E+01 0.19008594890375E+00
 0.11646626000000E+01 0.85244113011042E+00
 s    1 1.00
 0.32723041000000E+00 0.10000000000000E+01
 s    1 1.00
 0.10307241000000E+00 0.10000000000000E+01
 p    1 1.00
 0.80000000000000E+00 0.10000000000000E+01
 p    1 1.00
 0.95774129632000E-01 0.10000000000000E+01
 
    9 0
 s    3 1.00
 0.34061341000000E+02 0.25439307208879E-01
 0.51235746000000E+01 0.19008594890375E+00
 0.11646626000000E+01 0.85244113011042E+00
 s    1 1.00
 0.32723041000000E+00 0.10000000000000E+01
 s    1 1.00
 0.10307241000000E+00 0.10000000000000E+01
 p    1 1.00
 0.80000000000000E+00 0.10000000000000E+01
 p    1 1.00
 0.95774129632000E-01 0.10000000000000E+01
 
   10 0
 s    3 1.00
 0.34061341000000E+02 0.25439307208879E-01
 0.51235746000000E+01 0.19008594890375E+00
 0.11646626000000E+01 0.85244113011042E+00
 s    1 1.00
 0.32723041000000E+00 0.10000000000000E+01
 s    1 1.00
 0.10307241000000E+00 0.10000000000000E+01
 p    1 1.00
 0.80000000000000E+00 0.10000000000000E+01
 p    1 1.00
 0.95774129632000E-01 0.10000000000000E+01
 
   11 0
 s    6 1.00
 0.19730800647000E+05 0.58626402628763E-03
 0.29578958745000E+04 0.45428820586397E-02
 0.67322133595000E+03 0.23558413450084E-01
 0.19068249494000E+03 0.94709193292923E-01
 0.62295441898000E+02 0.29719784913376E+00
 0.22654161182000E+02 0.66916246895232E+00
 s    2 1.00
 0.89791477428000E+01 0.64596683630063E+00
 0.36863002370000E+01 0.38700574393705E+00
 s    1 1.00
 0.84660076805000E+00 0.10000000000000E+01
 s    1 1.00
 0.33647133771000E+00 0.10000000000000E+01
 s    1 1.00
 0.13647653675000E+00 0.10000000000000E+01
 s    1 1.00
 0.68441605847000E-01 0.10000000000000E+01
 p    4 1.00
 0.49200380510000E+02 0.11448825101764E-01
 0.11346790537000E+02 0.78422337970864E-01
 0.34273972411000E+01 0.30818094738830E+00
 0.11785525134000E+01 0.72027196368413E+00
 p    1 1.00
 0.41642204972000E+00 0.10000000000000E+01
 p    1 1.00
 0.14260826011000E+00 0.10000000000000E+01
 d    1 1.00
 0.16540000000000E+01 0.10000000000000E+01
 d    1 1.00
 0.46900000000000E+00 0.10000000000000E+01
 d    1 1.00
 0.12829642058000E+00 0.10000000000000E+01
 f    1 1.00
 0.10930000000000E+01 0.10000000000000E+01
 
   12 0
 s    6 1.00
 0.27032382631000E+05 0.57227335211155E-03
 0.40523871392000E+04 0.44353233492995E-02
 0.92232722710000E+03 0.23020107706038E-01
 0.26124070989000E+03 0.92822490667928E-01
 0.85354641351000E+02 0.29378500009671E+00
 0.31035035245000E+02 0.67401604501641E+00
 s    2 1.00
 0.12260860728000E+02 0.63839937025506E+00
 0.49987076005000E+01 0.39534587125718E+00
 s    1 1.00
 0.11703108158000E+01 0.10000000000000E+01
 s    1 1.00
 0.46474740994000E+00 0.10000000000000E+01
 s    1 1.00
 0.18504536357000E+00 0.10000000000000E+01
 s    1 1.00
 0.70288026270000E-01 0.10000000000000E+01
 p    4 1.00
 0.63274954801000E+02 0.12018332222616E-01
 0.14627049379000E+02 0.83005421790056E-01
 0.44501223456000E+01 0.31991743925964E+00
 0.15275799647000E+01 0.70715542916104E+00
 p    1 1.00
 0.52935117943000E+00 0.10000000000000E+01
 p    1 1.00
 0.17478421270000E+00 0.10000000000000E+01
 p    1 1.00
 0.51112745706000E-01 0.10000000000000E+01
 d    1 1.00
 0.23140000000000E+01 0.10000000000000E+01
 d    1 1.00
 0.64500000000000E+00 0.10000000000000E+01
 d    1 1.00
 0.14696477366000E+00 0.10000000000000E+01
 f    1 1.00
 0.14280000000000E+01 0.10000000000000E+01
 
   13 0
 s    6 1.00
 0.27032382631000E+05 0.57227335211155E-03
 0.40523871392000E+04 0.44353233492995E-02
 0.92232722710000E+03 0.23020107706038E-01
 0.26124070989000E+03 0.92822490667928E-01
 0.85354641351000E+02 0.29378500009671E+00
 0.31035035245000E+02 0.67401604501641E+00
 s    2 1.00
 0.12260860728000E+02 0.63839937025506E+00
 0.49987076005000E+01 0.39534587125718E+00
 s    1 1.00
 0.11703108158000E+01 0.10000000000000E+01
 s    1 1.00
 0.46474740994000E+00 0.10000000000000E+01
 s    1 1.00
 0.18504536357000E+00 0.10000000000000E+01
 s    1 1.00
 0.70288026270000E-01 0.10000000000000E+01
 p    4 1.00
 0.63274954801000E+02 0.12018332222616E-01
 0.14627049379000E+02 0.83005421790056E-01
 0.44501223456000E+01 0.31991743925964E+00
 0.15275799647000E+01 0.70715542916104E+00
 p    1 1.00
 0.52935117943000E+00 0.10000000000000E+01
 p    1 1.00
 0.17478421270000E+00 0.10000000000000E+01
 p    1 1.00
 0.51112745706000E-01 0.10000000000000E+01
 d    1 1.00
 0.23140000000000E+01 0.10000000000000E+01
 d    1 1.00
 0.64500000000000E+00 0.10000000000000E+01
 d    1 1.00
 0.14696477366000E+00 0.10000000000000E+01
 f    1 1.00
 0.14280000000000E+01 0.10000000000000E+01
 
   14 0
 s    6 1.00
 0.19730800647000E+05 0.58626402628763E-03
 0.29578958745000E+04 0.45428820586397E-02
 0.67322133595000E+03 0.23558413450084E-01
 0.19068249494000E+03 0.94709193292923E-01
 0.62295441898000E+02 0.29719784913376E+00
 0.22654161182000E+02 0.66916246895232E+00
 s    2 1.00
 0.89791477428000E+01 0.64596683630063E+00
 0.36863002370000E+01 0.38700574393705E+00
 s    1 1.00
 0.84660076805000E+00 0.10000000000000E+01
 s    1 1.00
 0.33647133771000E+00 0.10000000000000E+01
 s    1 1.00
 0.13647653675000E+00 0.10000000000000E+01
 s    1 1.00
 0.68441605847000E-01 0.10000000000000E+01
 p    4 1.00
 0.49200380510000E+02 0.11448825101764E-01
 0.11346790537000E+02 0.78422337970864E-01
 0.34273972411000E+01 0.30818094738830E+00
 0.11785525134000E+01 0.72027196368413E+00
 p    1 1.00
 0.41642204972000E+00 0.10000000000000E+01
 p    1 1.00
 0.14260826011000E+00 0.10000000000000E+01
 d    1 1.00
 0.16540000000000E+01 0.10000000000000E+01
 d    1 1.00
 0.46900000000000E+00 0.10000000000000E+01
 d    1 1.00
 0.12829642058000E+00 0.10000000000000E+01
 f    1 1.00
 0.10930000000000E+01 0.10000000000000E+01
 
   15 0
 s    3 1.00
 0.34061341000000E+02 0.25439307208879E-01
 0.51235746000000E+01 0.19008594890375E+00
 0.11646626000000E+01 0.85244113011042E+00
 s    1 1.00
 0.32723041000000E+00 0.10000000000000E+01
 s    1 1.00
 0.10307241000000E+00 0.10000000000000E+01
 p    1 1.00
 0.80000000000000E+00 0.10000000000000E+01
 p    1 1.00
 0.95774129632000E-01 0.10000000000000E+01
 
   16 0
 s    3 1.00
 0.34061341000000E+02 0.25439307208879E-01
 0.51235746000000E+01 0.19008594890375E+00
 0.11646626000000E+01 0.85244113011042E+00
 s    1 1.00
 0.32723041000000E+00 0.10000000000000E+01
 s    1 1.00
 0.10307241000000E+00 0.10000000000000E+01
 p    1 1.00
 0.80000000000000E+00 0.10000000000000E+01
 p    1 1.00
 0.95774129632000E-01 0.10000000000000E+01
 
[MO]
 Sym= X
 Ene= -0.886415
 Spin= Alpha
 Occup= -0.886415
         1   -1.754680E-04
         2   -4.083405E-04
         3    1.155851E-03
         4   -2.575684E-03
         5   -9.313200E-03
         6   -1.088417E-02
         7    1.602258E-03
         8    1.901981E-04
         9    3.041876E-02
        10   -2.393614E-03
        11    3.949331E-04
        12    2.844520E-02
        13   -3.534952E-02
        14    1.043184E-02
        15    5.748398E-03
        16    2.995843E-06
        17   -1.449337E-05
        18    1.149753E-05
        19   -1.494558E-05
        20   -6.228972E-03
        21    3.971762E-03
        22   -6.517300E-04
        23    3.936927E-04
        24    2.580374E-04
        25   -7.041889E-04
        26   -1.409079E-02
        27    7.456208E-03
        28   -5.083103E-03
        29    4.752672E-03
        30    3.304304E-04
        31    1.068866E-03
        32    1.528445E-03
        33   -1.073630E-02
        34   -1.915531E-05
        35    6.912303E-06
        36   -1.556822E-04
        37    7.783298E-06
        38   -7.113892E-06
        39   -6.651432E-04
        40    1.791624E-05
        41   -2.159935E-06
        42    8.740128E-04
        43   -7.038443E-04
        44   -1.845519E-07
        45   -2.137078E-06
        46    2.253936E-04
        47   -2.613091E-03
        48   -5.056749E-02
        49    5.229434E-03
        50    3.210537E-04
        51    2.359383E-06
        52    2.087310E-01
        53   -4.695437E-04
        54    2.040257E-05
        55    2.163525E-01
        56   -1.641131E-02
        57   -6.081077E-04
        58    2.049524E-01
        59    4.040629E-05
        60   -3.602598E-05
        61   -4.380310E-06
        62    1.370496E-07
        63   -5.649331E-04
        64    4.070490E-07
        65    3.696412E-04
        66   -6.146418E-04
        67    2.450006E-04
        68    4.133305E-06
        69   -3.133023E-03
        70    8.438527E-07
        71    8.967143E-03
        72   -1.008332E-02
        73    1.116181E-03
        74   -1.009249E-04
        75    5.239503E-03
        76   -1.715245E-05
        77    6.706094E-06
        78    5.662924E-08
        79   -1.182224E-03
        80   -5.915747E-06
        81    1.682395E-08
        82    6.983070E-04
        83   -3.081422E-06
        84   -9.280005E-08
        85    8.878124E-04
        86    7.776388E-08
        87   -1.759275E-04
        88   -4.093842E-04
        89    1.160191E-03
        90   -2.599844E-03
        91   -7.949070E-03
        92   -1.085322E-02
        93    1.600848E-03
        94   -1.920588E-04
        95    3.043968E-02
        96   -2.366642E-03
        97   -3.871417E-04
        98    2.846219E-02
        99   -3.564219E-02
       100   -1.097178E-02
       101    5.755370E-03
       102    2.991517E-06
       103   -1.441405E-05
       104    1.142253E-05
       105    1.526135E-05
       106   -6.228502E-03
       107   -3.971938E-03
       108   -6.463576E-04
       109    3.873844E-04
       110    2.589732E-04
       111    7.003649E-04
       112   -1.409064E-02
       113   -7.455047E-03
       114   -5.189045E-03
       115    4.866229E-03
       116    3.228162E-04
       117   -9.661380E-04
       118    1.509366E-03
       119    1.073211E-02
       120   -1.920364E-05
       121   -6.875817E-06
       122   -1.557117E-04
       123    7.977128E-06
       124    7.070228E-06
       125   -6.651257E-04
       126    1.778726E-05
       127    2.154647E-06
       128    8.740349E-04
       129    7.037726E-04
       130    1.115208E-04
       131    2.401165E-04
       132    5.992765E-04
       133   -1.029798E-02
       134    2.979010E-02
       135    1.214230E-02
       136   -1.239973E-03
       137    7.223341E-04
       138   -1.482454E-01
       139   -8.912741E-03
       140    6.143997E-03
       141   -1.512043E-01
       142   -2.455896E-02
       143   -7.567936E-03
       144   -9.121857E-02
       145    1.438235E-04
       146   -1.737216E-04
       147    2.989810E-05
       148   -3.444714E-06
       149   -9.597380E-04
       150    2.873113E-03
       151    6.104545E-04
       152   -7.457449E-04
       153    1.352904E-04
       154    1.663975E-03
       155   -4.294179E-03
       156    4.849830E-03
       157    8.068780E-03
       158   -6.294827E-03
       159   -1.773953E-03
       160   -8.487491E-03
       161    3.528089E-03
       162   -1.242807E-02
       163   -1.433291E-05
       164    1.006497E-05
       165    8.147751E-04
       166   -1.902453E-05
       167    1.628488E-05
       168   -1.734978E-04
       169    3.825415E-05
       170   -2.978845E-05
       171   -9.196378E-04
       172    3.356444E-04
       173   -1.128693E-03
       174   -2.571081E-03
       175    2.650628E-03
       176    2.173616E-02
       177   -1.529566E-02
       178    9.697983E-03
       179    9.009152E-03
       180   -1.400188E-06
       181   -1.086558E-01
       182    6.486382E-04
       183   -1.123182E-05
       184   -1.115317E-01
       185   -2.452082E-02
       186    8.385839E-04
       187   -1.329055E-01
       188    4.733131E-04
       189   -2.620461E-04
       190   -2.112670E-04
       191    3.298662E-07
       192    9.748483E-03
       193    6.364695E-07
       194   -1.803808E-03
       195    4.014077E-03
       196   -2.210269E-03
       197    7.702287E-07
       198    2.404010E-02
       199   -1.274349E-06
       200   -5.749278E-03
       201    7.016099E-03
       202   -1.266822E-03
       203   -1.179447E-04
       204    1.869683E-02
       205    5.208224E-06
       206    1.167239E-04
       207    4.130355E-09
       208    2.826357E-04
       209   -8.233792E-05
       210   -3.242180E-08
       211    1.060397E-03
       212   -7.426368E-05
       213    2.688034E-08
       214   -1.439593E-03
       215   -5.379566E-10
       216    1.116532E-04
       217    2.401861E-04
       218    6.011337E-04
       219   -1.031293E-02
       220    3.143058E-02
       221    1.215933E-02
       222   -1.240873E-03
       223   -7.145459E-04
       224   -1.482670E-01
       225   -8.926205E-03
       226   -6.146379E-03
       227   -1.512300E-01
       228   -2.414473E-02
       229    8.369511E-03
       230   -9.124438E-02
       231    1.438194E-04
       232   -1.740701E-04
       233    3.025077E-05
       234    3.825899E-06
       235   -9.595129E-04
       236   -2.873165E-03
       237    6.137708E-04
       238   -7.476213E-04
       239    1.338505E-04
       240   -1.667938E-03
       241   -4.290536E-03
       242   -4.850034E-03
       243    7.989304E-03
       244   -6.214246E-03
       245   -1.775058E-03
       246    8.610258E-03
       247    3.555102E-03
       248    1.243109E-02
       249   -1.446753E-05
       250   -1.010959E-05
       251    8.150639E-04
       252   -1.900054E-05
       253   -1.624907E-05
       254   -1.738520E-04
       255    3.841078E-05
       256    2.981251E-05
       257   -9.196710E-04
       258   -3.356794E-04
       259   -3.505005E-04
       260   -2.098729E-04
       261   -1.693933E-02
       262   -1.162482E-05
       263    1.760465E-06
       264    1.154982E-03
       265   -5.179714E-03
       266   -2.499662E-04
       267   -6.818907E-03
       268   -3.515185E-04
       269   -2.033588E-04
       270   -1.691618E-02
       271   -1.070572E-05
       272   -2.758407E-06
       273    1.155744E-03
       274   -5.274492E-03
       275    2.169267E-04
       276   -6.823419E-03
       277   -3.816769E-04
       278   -2.256683E-03
       279    3.334182E-02
       280   -1.328027E-05
       281    9.196673E-05
       282   -6.053364E-03
       283   -1.600617E-03
       284   -2.704361E-03
       285    1.808847E-03
       286   -3.855389E-04
       287   -2.267296E-03
       288    3.362126E-02
       289   -1.257601E-05
       290   -9.259917E-05
       291   -6.055020E-03
       292   -1.579593E-03
       293    2.757082E-03
       294    1.796607E-03
       295   -4.271126E-05
       296   -9.835903E-05
       297    7.596051E-05
       298    4.123127E-04
       299   -6.626292E-03
       300    1.002659E-03
       301    4.977438E-04
       302    3.478952E-07
       303    1.399772E-02
       304    1.942401E-04
       305    1.592944E-06
       306    1.671861E-02
       307   -2.869587E-03
       308    2.792910E-05
       309    8.076178E-03
       310    2.945095E-05
       311   -1.466630E-05
       312   -1.478466E-05
       313   -1.805837E-07
       314    4.637734E-03
       315    6.834597E-07
       316    2.902993E-05
       317    3.728077E-05
       318   -6.631070E-05
       319   -1.185230E-06
       320    1.384133E-02
       321    1.827454E-06
       322   -1.010113E-03
       323    2.788238E-03
       324   -1.778125E-03
       325    2.113505E-05
       326    3.162243E-03
       327    5.324229E-06
       328    6.772009E-06
       329   -4.828526E-08
       330    4.777707E-05
       331   -4.649071E-06
       332    9.063431E-08
       333    7.083228E-04
       334   -4.436532E-06
       335   -2.585283E-08
       336   -7.724225E-04
       337   -1.087825E-07
       338   -1.401788E-05
       339   -3.057472E-05
       340    1.981093E-06
       341    5.150369E-04
       342   -5.707656E-03
       343   -8.769093E-04
       344   -4.440766E-04
       345    6.930508E-05
       346   -8.522449E-02
       347   -4.989978E-04
       348    1.984046E-04
       349   -7.893752E-02
       350   -1.581163E-03
       351    4.307630E-04
       352   -6.306235E-02
       353   -1.717618E-04
       354    2.030574E-04
       355   -7.589831E-03
       356    2.644332E-06
       357   -4.129852E-06
       358    1.485520E-06
       359    2.624554E-06
       360   -3.827828E-05
       361    5.770914E-04
       362   -1.546827E-05
       363   -8.952856E-06
       364    2.442112E-05
       365    1.630172E-05
       366   -6.819603E-04
       367    1.879573E-03
       368   -8.508145E-05
       369    6.033864E-05
       370    2.474281E-05
       371    8.948915E-05
       372   -2.915119E-04
       373    3.507408E-04
       374    9.965438E-07
       375    1.185655E-06
       376    8.362869E-05
       377   -1.897611E-06
       378    4.669383E-07
       379    8.765334E-05
       380    5.606077E-07
       381   -2.057662E-06
       382   -1.998530E-04
       383    1.621331E-04
       384   -1.377507E-05
       385   -3.001822E-05
       386    1.673194E-06
       387    5.098381E-04
       388   -5.697655E-03
       389   -8.493465E-04
       390   -4.291403E-04
       391   -7.969864E-05
       392   -8.526020E-02
       393   -4.849140E-04
       394   -2.068910E-04
       395   -7.897120E-02
       396   -1.547446E-03
       397   -4.300557E-04
       398   -6.307722E-02
       399   -1.560396E-04
       400   -2.090739E-04
       401   -7.593286E-03
       402    2.748358E-06
       403   -4.265562E-06
       404    1.517204E-06
       405   -2.661778E-06
       406   -3.849854E-05
       407   -5.773882E-04
       408   -1.503002E-05
       409   -9.087628E-06
       410    2.411765E-05
       411   -1.575817E-05
       412   -6.825045E-04
       413   -1.880568E-03
       414   -8.402125E-05
       415    6.132975E-05
       416    2.269150E-05
       417   -8.909027E-05
       418   -2.918637E-04
       419   -3.502293E-04
       420    1.007196E-06
       421   -1.214324E-06
       422    8.368693E-05
       423   -1.894082E-06
       424   -4.261853E-07
       425    8.765806E-05
       426    5.427862E-07
       427    2.055372E-06
       428   -1.999359E-04
       429   -1.622342E-04
       430    4.963743E-03
       431    1.177205E-02
       432   -1.826670E-02
       433   -2.831182E-02
       434   -2.237233E-02
       435   -6.841852E-02
       436   -1.736402E-02
       437    8.377203E-06
       438    2.514014E-01
       439   -1.971273E-02
       440    1.346161E-06
       441    2.483480E-01
       442   -1.790589E-02
       443   -1.016255E-04
       444    2.037079E-01
       445   -9.697953E-05
       446   -2.020665E-05
       447    1.171862E-04
       448    2.668686E-07
       449    7.481008E-04
       450    2.449107E-07
       451   -2.351554E-04
       452   -1.520600E-03
       453    1.755755E-03
       454   -3.753162E-06
       455    3.539842E-03
       456    1.491161E-06
       457   -1.848452E-03
       458   -2.953822E-03
       459    4.802274E-03
       460   -4.401255E-06
       461    2.106644E-03
       462    7.647292E-06
       463   -1.371448E-04
       464    3.426329E-08
       465   -9.974708E-04
       466   -8.855674E-05
       467   -3.091314E-09
       468    5.368524E-04
       469    2.725558E-04
       470   -4.287771E-08
       471    8.013951E-04
       472   -2.906412E-10
       473    9.155528E-03
       474    1.748370E-02
       475    2.963748E-02
       476   -2.224595E-03
       477   -1.842688E-03
       478    1.274302E-02
       479    1.410501E-03
       480   -3.505625E-03
       481    1.477965E-02
       482    9.149441E-03
       483    1.741736E-02
       484    2.945585E-02
       485   -2.221294E-03
       486    1.836276E-03
       487    1.274623E-02
       488    1.425961E-03
       489    3.469516E-03
       490    1.478785E-02
 Sym= X
 Ene= 0.886415
 Spin= Alpha
 Occup= 0.886415
         1   -4.085247E-03
         2   -9.909920E-03
         3    3.929065E-02
         4   -1.306161E-01
         5    5.285169E-01
         6   -2.450037E-01
         7    1.533574E-02
         8    7.022038E-03
         9   -3.216921E-03
        10   -5.368727E-02
        11    1.647733E-03
        12   -4.784833E-03
        13    1.407874E+00
        14   -1.605380E-01
        15   -2.878430E-02
        16    7.856669E-04
        17   -5.816406E-04
        18   -2.040263E-04
        19    1.738524E-04
        20   -5.453752E-05
        21    1.518393E-04
        22   -1.922163E-02
        23    1.042981E-02
        24    8.791818E-03
        25   -1.541056E-03
        26   -5.453817E-04
        27    4.926378E-04
        28   -9.592862E-01
        29    9.970686E-01
        30   -3.778238E-02
        31   -1.132999E-01
        32    1.155604E-02
        33   -1.826751E-02
        34   -3.873101E-04
        35    2.776605E-04
        36   -2.360517E-05
        37    4.044560E-04
        38    3.837370E-06
        39   -1.613465E-06
        40    1.151751E-04
        41   -3.763580E-04
        42    3.328312E-05
        43   -1.794314E-05
        44    6.405692E-03
        45    1.367402E-02
        46    6.135468E-03
        47   -3.446857E-01
        48   -2.628827E+00
        49    5.404704E+00
        50    3.090486E-02
        51   -1.869848E-05
        52    5.035394E-03
        53    6.418346E-02
        54   -6.667618E-05
        55    2.404380E-03
        56   -1.988205E+00
        57    5.705520E-03
        58    9.074217E-02
        59   -8.958615E-04
        60    4.291835E-04
        61    4.666780E-04
        62   -1.331876E-07