[Molden Format]
[Title]
ADC(2) - opt by CAM-B3LYP gaussian                                              
[Atoms] AU
 c     1    6 -.12589065566052E+01 -.22830902054421E+01 -.26005390588660E-01
 c     2    6 -.25569912224779E+01 0.86573078000000E-06 -.24733756079320E-01
 c     3    6 -.12589060841737E+01 0.22830907841707E+01 -.26008073999770E-01
 c     4    6 0.13324295737882E+01 0.22846183820847E+01 -.28114684000920E-01
 c     5    6 0.26867573459717E+01 0.39329925000000E-06 -.27723246129760E-01
 c     6    6 0.13324281942881E+01 -.22846180679178E+01 -.28111244699360E-01
 h     7    1 -.22982509786098E+01 -.40377481062879E+01 -.23319125993500E-01
 h     8    1 -.22982490510892E+01 0.40377494409070E+01 -.23324322740370E-01
 h     9    1 0.23514918675648E+01 0.40568894753521E+01 -.30529017005560E-01
 h    10    1 0.23514910360853E+01 -.40568888210345E+01 -.30521911635300E-01
 n    11    7 -.52742123095903E+01 0.14763485000000E-06 -.18925267070140E-01
 o    12    8 -.63809534361791E+01 0.20269762391752E+01 -.16457057973460E-01
 o    13    8 -.63809510362269E+01 -.20269772478165E+01 -.16464881439650E-01
 n    14    7 0.52454603626942E+01 -.57046108000000E-06 -.73989411041200E-01
 h    15    1 0.62036818842731E+01 0.16164996606794E+01 0.19711589672944E+00
 h    16    1 0.62036804102867E+01 -.16165023700742E+01 0.19711149366755E+00
[GTO]
    1 0
 s    6 1.00
 0.13575349682000E+05 0.60645503603591E-03
 0.20352333680000E+04 0.46979088884982E-02
 0.46322562359000E+03 0.24332477647552E-01
 0.13120019598000E+03 0.97399968307759E-01
 0.42853015891000E+02 0.30195584253780E+00
 0.15584185766000E+02 0.66233609137875E+00
 s    2 1.00
 0.62067138508000E+01 0.65595308539952E+00
 0.25764896527000E+01 0.37585633285142E+00
 s    1 1.00
 0.57696339419000E+00 0.10000000000000E+01
 s    1 1.00
 0.22972831358000E+00 0.10000000000000E+01
 s    1 1.00
 0.95164440028000E-01 0.10000000000000E+01
 s    1 1.00
 0.48475401370000E-01 0.10000000000000E+01
 p    4 1.00
 0.34697232244000E+02 0.11327220003114E-01
 0.79582622826000E+01 0.76169659202087E-01
 0.23780826883000E+01 0.30192252202676E+00
 0.81433208183000E+00 0.72785027349547E+00
 p    1 1.00
 0.28887547253000E+00 0.10000000000000E+01
 p    1 1.00
 0.10056823671000E+00 0.10000000000000E+01
 d    1 1.00
 0.10970000000000E+01 0.10000000000000E+01
 d    1 1.00
 0.31800000000000E+00 0.10000000000000E+01
 d    1 1.00
 0.90985336424000E-01 0.10000000000000E+01
 f    1 1.00
 0.76100000000000E+00 0.10000000000000E+01
 
    2 0
 s    6 1.00
 0.13575349682000E+05 0.60645503603591E-03
 0.20352333680000E+04 0.46979088884982E-02
 0.46322562359000E+03 0.24332477647552E-01
 0.13120019598000E+03 0.97399968307759E-01
 0.42853015891000E+02 0.30195584253780E+00
 0.15584185766000E+02 0.66233609137875E+00
 s    2 1.00
 0.62067138508000E+01 0.65595308539952E+00
 0.25764896527000E+01 0.37585633285142E+00
 s    1 1.00
 0.57696339419000E+00 0.10000000000000E+01
 s    1 1.00
 0.22972831358000E+00 0.10000000000000E+01
 s    1 1.00
 0.95164440028000E-01 0.10000000000000E+01
 s    1 1.00
 0.48475401370000E-01 0.10000000000000E+01
 p    4 1.00
 0.34697232244000E+02 0.11327220003114E-01
 0.79582622826000E+01 0.76169659202087E-01
 0.23780826883000E+01 0.30192252202676E+00
 0.81433208183000E+00 0.72785027349547E+00
 p    1 1.00
 0.28887547253000E+00 0.10000000000000E+01
 p    1 1.00
 0.10056823671000E+00 0.10000000000000E+01
 d    1 1.00
 0.10970000000000E+01 0.10000000000000E+01
 d    1 1.00
 0.31800000000000E+00 0.10000000000000E+01
 d    1 1.00
 0.90985336424000E-01 0.10000000000000E+01
 f    1 1.00
 0.76100000000000E+00 0.10000000000000E+01
 
    3 0
 s    6 1.00
 0.13575349682000E+05 0.60645503603591E-03
 0.20352333680000E+04 0.46979088884982E-02
 0.46322562359000E+03 0.24332477647552E-01
 0.13120019598000E+03 0.97399968307759E-01
 0.42853015891000E+02 0.30195584253780E+00
 0.15584185766000E+02 0.66233609137875E+00
 s    2 1.00
 0.62067138508000E+01 0.65595308539952E+00
 0.25764896527000E+01 0.37585633285142E+00
 s    1 1.00
 0.57696339419000E+00 0.10000000000000E+01
 s    1 1.00
 0.22972831358000E+00 0.10000000000000E+01
 s    1 1.00
 0.95164440028000E-01 0.10000000000000E+01
 s    1 1.00
 0.48475401370000E-01 0.10000000000000E+01
 p    4 1.00
 0.34697232244000E+02 0.11327220003114E-01
 0.79582622826000E+01 0.76169659202087E-01
 0.23780826883000E+01 0.30192252202676E+00
 0.81433208183000E+00 0.72785027349547E+00
 p    1 1.00
 0.28887547253000E+00 0.10000000000000E+01
 p    1 1.00
 0.10056823671000E+00 0.10000000000000E+01
 d    1 1.00
 0.10970000000000E+01 0.10000000000000E+01
 d    1 1.00
 0.31800000000000E+00 0.10000000000000E+01
 d    1 1.00
 0.90985336424000E-01 0.10000000000000E+01
 f    1 1.00
 0.76100000000000E+00 0.10000000000000E+01
 
    4 0
 s    6 1.00
 0.13575349682000E+05 0.60645503603591E-03
 0.20352333680000E+04 0.46979088884982E-02
 0.46322562359000E+03 0.24332477647552E-01
 0.13120019598000E+03 0.97399968307759E-01
 0.42853015891000E+02 0.30195584253780E+00
 0.15584185766000E+02 0.66233609137875E+00
 s    2 1.00
 0.62067138508000E+01 0.65595308539952E+00
 0.25764896527000E+01 0.37585633285142E+00
 s    1 1.00
 0.57696339419000E+00 0.10000000000000E+01
 s    1 1.00
 0.22972831358000E+00 0.10000000000000E+01
 s    1 1.00
 0.95164440028000E-01 0.10000000000000E+01
 s    1 1.00
 0.48475401370000E-01 0.10000000000000E+01
 p    4 1.00
 0.34697232244000E+02 0.11327220003114E-01
 0.79582622826000E+01 0.76169659202087E-01
 0.23780826883000E+01 0.30192252202676E+00
 0.81433208183000E+00 0.72785027349547E+00
 p    1 1.00
 0.28887547253000E+00 0.10000000000000E+01
 p    1 1.00
 0.10056823671000E+00 0.10000000000000E+01
 d    1 1.00
 0.10970000000000E+01 0.10000000000000E+01
 d    1 1.00
 0.31800000000000E+00 0.10000000000000E+01
 d    1 1.00
 0.90985336424000E-01 0.10000000000000E+01
 f    1 1.00
 0.76100000000000E+00 0.10000000000000E+01
 
    5 0
 s    6 1.00
 0.13575349682000E+05 0.60645503603591E-03
 0.20352333680000E+04 0.46979088884982E-02
 0.46322562359000E+03 0.24332477647552E-01
 0.13120019598000E+03 0.97399968307759E-01
 0.42853015891000E+02 0.30195584253780E+00
 0.15584185766000E+02 0.66233609137875E+00
 s    2 1.00
 0.62067138508000E+01 0.65595308539952E+00
 0.25764896527000E+01 0.37585633285142E+00
 s    1 1.00
 0.57696339419000E+00 0.10000000000000E+01
 s    1 1.00
 0.22972831358000E+00 0.10000000000000E+01
 s    1 1.00
 0.95164440028000E-01 0.10000000000000E+01
 s    1 1.00
 0.48475401370000E-01 0.10000000000000E+01
 p    4 1.00
 0.34697232244000E+02 0.11327220003114E-01
 0.79582622826000E+01 0.76169659202087E-01
 0.23780826883000E+01 0.30192252202676E+00
 0.81433208183000E+00 0.72785027349547E+00
 p    1 1.00
 0.28887547253000E+00 0.10000000000000E+01
 p    1 1.00
 0.10056823671000E+00 0.10000000000000E+01
 d    1 1.00
 0.10970000000000E+01 0.10000000000000E+01
 d    1 1.00
 0.31800000000000E+00 0.10000000000000E+01
 d    1 1.00
 0.90985336424000E-01 0.10000000000000E+01
 f    1 1.00
 0.76100000000000E+00 0.10000000000000E+01
 
    6 0
 s    6 1.00
 0.13575349682000E+05 0.60645503603591E-03
 0.20352333680000E+04 0.46979088884982E-02
 0.46322562359000E+03 0.24332477647552E-01
 0.13120019598000E+03 0.97399968307759E-01
 0.42853015891000E+02 0.30195584253780E+00
 0.15584185766000E+02 0.66233609137875E+00
 s    2 1.00
 0.62067138508000E+01 0.65595308539952E+00
 0.25764896527000E+01 0.37585633285142E+00
 s    1 1.00
 0.57696339419000E+00 0.10000000000000E+01
 s    1 1.00
 0.22972831358000E+00 0.10000000000000E+01
 s    1 1.00
 0.95164440028000E-01 0.10000000000000E+01
 s    1 1.00
 0.48475401370000E-01 0.10000000000000E+01
 p    4 1.00
 0.34697232244000E+02 0.11327220003114E-01
 0.79582622826000E+01 0.76169659202087E-01
 0.23780826883000E+01 0.30192252202676E+00
 0.81433208183000E+00 0.72785027349547E+00
 p    1 1.00
 0.28887547253000E+00 0.10000000000000E+01
 p    1 1.00
 0.10056823671000E+00 0.10000000000000E+01
 d    1 1.00
 0.10970000000000E+01 0.10000000000000E+01
 d    1 1.00
 0.31800000000000E+00 0.10000000000000E+01
 d    1 1.00
 0.90985336424000E-01 0.10000000000000E+01
 f    1 1.00
 0.76100000000000E+00 0.10000000000000E+01
 
    7 0
 s    3 1.00
 0.34061341000000E+02 0.25439307208879E-01
 0.51235746000000E+01 0.19008594890375E+00
 0.11646626000000E+01 0.85244113011042E+00
 s    1 1.00
 0.32723041000000E+00 0.10000000000000E+01
 s    1 1.00
 0.10307241000000E+00 0.10000000000000E+01
 p    1 1.00
 0.80000000000000E+00 0.10000000000000E+01
 p    1 1.00
 0.95774129632000E-01 0.10000000000000E+01
 
    8 0
 s    3 1.00
 0.34061341000000E+02 0.25439307208879E-01
 0.51235746000000E+01 0.19008594890375E+00
 0.11646626000000E+01 0.85244113011042E+00
 s    1 1.00
 0.32723041000000E+00 0.10000000000000E+01
 s    1 1.00
 0.10307241000000E+00 0.10000000000000E+01
 p    1 1.00
 0.80000000000000E+00 0.10000000000000E+01
 p    1 1.00
 0.95774129632000E-01 0.10000000000000E+01
 
    9 0
 s    3 1.00
 0.34061341000000E+02 0.25439307208879E-01
 0.51235746000000E+01 0.19008594890375E+00
 0.11646626000000E+01 0.85244113011042E+00
 s    1 1.00
 0.32723041000000E+00 0.10000000000000E+01
 s    1 1.00
 0.10307241000000E+00 0.10000000000000E+01
 p    1 1.00
 0.80000000000000E+00 0.10000000000000E+01
 p    1 1.00
 0.95774129632000E-01 0.10000000000000E+01
 
   10 0
 s    3 1.00
 0.34061341000000E+02 0.25439307208879E-01
 0.51235746000000E+01 0.19008594890375E+00
 0.11646626000000E+01 0.85244113011042E+00
 s    1 1.00
 0.32723041000000E+00 0.10000000000000E+01
 s    1 1.00
 0.10307241000000E+00 0.10000000000000E+01
 p    1 1.00
 0.80000000000000E+00 0.10000000000000E+01
 p    1 1.00
 0.95774129632000E-01 0.10000000000000E+01
 
   11 0
 s    6 1.00
 0.19730800647000E+05 0.58626402628763E-03
 0.29578958745000E+04 0.45428820586397E-02
 0.67322133595000E+03 0.23558413450084E-01
 0.19068249494000E+03 0.94709193292923E-01
 0.62295441898000E+02 0.29719784913376E+00
 0.22654161182000E+02 0.66916246895232E+00
 s    2 1.00
 0.89791477428000E+01 0.64596683630063E+00
 0.36863002370000E+01 0.38700574393705E+00
 s    1 1.00
 0.84660076805000E+00 0.10000000000000E+01
 s    1 1.00
 0.33647133771000E+00 0.10000000000000E+01
 s    1 1.00
 0.13647653675000E+00 0.10000000000000E+01
 s    1 1.00
 0.68441605847000E-01 0.10000000000000E+01
 p    4 1.00
 0.49200380510000E+02 0.11448825101764E-01
 0.11346790537000E+02 0.78422337970864E-01
 0.34273972411000E+01 0.30818094738830E+00
 0.11785525134000E+01 0.72027196368413E+00
 p    1 1.00
 0.41642204972000E+00 0.10000000000000E+01
 p    1 1.00
 0.14260826011000E+00 0.10000000000000E+01
 d    1 1.00
 0.16540000000000E+01 0.10000000000000E+01
 d    1 1.00
 0.46900000000000E+00 0.10000000000000E+01
 d    1 1.00
 0.12829642058000E+00 0.10000000000000E+01
 f    1 1.00
 0.10930000000000E+01 0.10000000000000E+01
 
   12 0
 s    6 1.00
 0.27032382631000E+05 0.57227335211155E-03
 0.40523871392000E+04 0.44353233492995E-02
 0.92232722710000E+03 0.23020107706038E-01
 0.26124070989000E+03 0.92822490667928E-01
 0.85354641351000E+02 0.29378500009671E+00
 0.31035035245000E+02 0.67401604501641E+00
 s    2 1.00
 0.12260860728000E+02 0.63839937025506E+00
 0.49987076005000E+01 0.39534587125718E+00
 s    1 1.00
 0.11703108158000E+01 0.10000000000000E+01
 s    1 1.00
 0.46474740994000E+00 0.10000000000000E+01
 s    1 1.00
 0.18504536357000E+00 0.10000000000000E+01
 s    1 1.00
 0.70288026270000E-01 0.10000000000000E+01
 p    4 1.00
 0.63274954801000E+02 0.12018332222616E-01
 0.14627049379000E+02 0.83005421790056E-01
 0.44501223456000E+01 0.31991743925964E+00
 0.15275799647000E+01 0.70715542916104E+00
 p    1 1.00
 0.52935117943000E+00 0.10000000000000E+01
 p    1 1.00
 0.17478421270000E+00 0.10000000000000E+01
 p    1 1.00
 0.51112745706000E-01 0.10000000000000E+01
 d    1 1.00
 0.23140000000000E+01 0.10000000000000E+01
 d    1 1.00
 0.64500000000000E+00 0.10000000000000E+01
 d    1 1.00
 0.14696477366000E+00 0.10000000000000E+01
 f    1 1.00
 0.14280000000000E+01 0.10000000000000E+01
 
   13 0
 s    6 1.00
 0.27032382631000E+05 0.57227335211155E-03
 0.40523871392000E+04 0.44353233492995E-02
 0.92232722710000E+03 0.23020107706038E-01
 0.26124070989000E+03 0.92822490667928E-01
 0.85354641351000E+02 0.29378500009671E+00
 0.31035035245000E+02 0.67401604501641E+00
 s    2 1.00
 0.12260860728000E+02 0.63839937025506E+00
 0.49987076005000E+01 0.39534587125718E+00
 s    1 1.00
 0.11703108158000E+01 0.10000000000000E+01
 s    1 1.00
 0.46474740994000E+00 0.10000000000000E+01
 s    1 1.00
 0.18504536357000E+00 0.10000000000000E+01
 s    1 1.00
 0.70288026270000E-01 0.10000000000000E+01
 p    4 1.00
 0.63274954801000E+02 0.12018332222616E-01
 0.14627049379000E+02 0.83005421790056E-01
 0.44501223456000E+01 0.31991743925964E+00
 0.15275799647000E+01 0.70715542916104E+00
 p    1 1.00
 0.52935117943000E+00 0.10000000000000E+01
 p    1 1.00
 0.17478421270000E+00 0.10000000000000E+01
 p    1 1.00
 0.51112745706000E-01 0.10000000000000E+01
 d    1 1.00
 0.23140000000000E+01 0.10000000000000E+01
 d    1 1.00
 0.64500000000000E+00 0.10000000000000E+01
 d    1 1.00
 0.14696477366000E+00 0.10000000000000E+01
 f    1 1.00
 0.14280000000000E+01 0.10000000000000E+01
 
   14 0
 s    6 1.00
 0.19730800647000E+05 0.58626402628763E-03
 0.29578958745000E+04 0.45428820586397E-02
 0.67322133595000E+03 0.23558413450084E-01
 0.19068249494000E+03 0.94709193292923E-01
 0.62295441898000E+02 0.29719784913376E+00
 0.22654161182000E+02 0.66916246895232E+00
 s    2 1.00
 0.89791477428000E+01 0.64596683630063E+00
 0.36863002370000E+01 0.38700574393705E+00
 s    1 1.00
 0.84660076805000E+00 0.10000000000000E+01
 s    1 1.00
 0.33647133771000E+00 0.10000000000000E+01
 s    1 1.00
 0.13647653675000E+00 0.10000000000000E+01
 s    1 1.00
 0.68441605847000E-01 0.10000000000000E+01
 p    4 1.00
 0.49200380510000E+02 0.11448825101764E-01
 0.11346790537000E+02 0.78422337970864E-01
 0.34273972411000E+01 0.30818094738830E+00
 0.11785525134000E+01 0.72027196368413E+00
 p    1 1.00
 0.41642204972000E+00 0.10000000000000E+01
 p    1 1.00
 0.14260826011000E+00 0.10000000000000E+01
 d    1 1.00
 0.16540000000000E+01 0.10000000000000E+01
 d    1 1.00
 0.46900000000000E+00 0.10000000000000E+01
 d    1 1.00
 0.12829642058000E+00 0.10000000000000E+01
 f    1 1.00
 0.10930000000000E+01 0.10000000000000E+01
 
   15 0
 s    3 1.00
 0.34061341000000E+02 0.25439307208879E-01
 0.51235746000000E+01 0.19008594890375E+00
 0.11646626000000E+01 0.85244113011042E+00
 s    1 1.00
 0.32723041000000E+00 0.10000000000000E+01
 s    1 1.00
 0.10307241000000E+00 0.10000000000000E+01
 p    1 1.00
 0.80000000000000E+00 0.10000000000000E+01
 p    1 1.00
 0.95774129632000E-01 0.10000000000000E+01
 
   16 0
 s    3 1.00
 0.34061341000000E+02 0.25439307208879E-01
 0.51235746000000E+01 0.19008594890375E+00
 0.11646626000000E+01 0.85244113011042E+00
 s    1 1.00
 0.32723041000000E+00 0.10000000000000E+01
 s    1 1.00
 0.10307241000000E+00 0.10000000000000E+01
 p    1 1.00
 0.80000000000000E+00 0.10000000000000E+01
 p    1 1.00
 0.95774129632000E-01 0.10000000000000E+01
 
[MO]
 Sym= X
 Ene= -0.149090
 Spin= Alpha
 Occup= -0.149090
         1    1.598391E-04
         2    3.723227E-04
         3   -1.066993E-03
         4    2.438454E-03
         5    9.751616E-03
         6    1.015810E-02
         7   -1.560144E-03
         8   -2.442817E-04
         9   -4.284016E-02
        10    2.189355E-03
        11   -4.245084E-04
        12   -4.065644E-02
        13    3.418446E-02
        14   -1.042484E-02
        15   -1.021316E-02
        16   -2.215337E-06
        17    1.367612E-05
        18   -1.146079E-05
        19    1.300550E-05
        20    6.214803E-03
        21   -4.340339E-03
        22    6.154282E-04
        23   -3.710801E-04
        24   -2.443481E-04
        25    6.546386E-04
        26    1.411828E-02
        27   -8.067260E-03
        28    4.948318E-03
        29   -4.615413E-03
        30   -3.329048E-04
        31   -9.689583E-04
        32   -1.005152E-03
        33    1.048739E-02
        34    1.785323E-05
        35   -6.848002E-06
        36    2.619647E-04
        37   -7.667034E-06
        38    6.938905E-06
        39    6.005028E-04
        40   -1.628559E-05
        41    2.248654E-06
        42   -9.519654E-04
        43    7.423906E-04
        44   -1.944413E-05
        45   -4.208805E-05
        46   -1.427275E-04
        47    2.487138E-03
        48    4.987073E-02
        49   -4.557062E-03
        50   -4.416939E-04
        51    6.040327E-06
        52   -2.261635E-01
        53    3.067176E-04
        54   -1.418312E-05
        55   -2.338476E-01
        56    1.582543E-02
        57    5.394543E-04
        58   -2.106294E-01
        59   -3.678248E-05
        60    3.322499E-05
        61    3.557486E-06
        62    1.888266E-07
        63    3.180260E-04
        64   -9.491196E-08
        65   -3.406025E-04
        66    5.742826E-04
        67   -2.336801E-04
        68   -3.408276E-06
        69    2.750177E-03
        70   -8.000922E-07
        71   -8.343295E-03
        72    9.432200E-03
        73   -1.088905E-03
        74    9.580555E-05
        75   -5.892009E-03
        76    1.473782E-05
        77   -7.768610E-06
        78   -9.975231E-08
        79    1.326128E-03
        80    6.057548E-06
        81    6.471392E-08
        82   -7.741715E-04
        83    4.365136E-06
        84    6.911786E-08
        85   -1.005016E-03
        86   -1.260215E-07
        87    1.622168E-04
        88    3.776105E-04
        89   -1.078286E-03
        90    2.454843E-03
        91    8.578240E-03
        92    1.012387E-02
        93   -1.553271E-03
        94    2.221988E-04
        95   -4.285837E-02
        96    2.170022E-03
        97    3.972829E-04
        98   -4.067101E-02
        99    3.447345E-02
       100    1.088249E-02
       101   -1.020869E-02
       102   -2.020684E-06
       103    1.326707E-05
       104   -1.124638E-05
       105   -1.230137E-05
       106    6.214233E-03
       107    4.340485E-03
       108    6.114863E-04
       109   -3.660063E-04
       110   -2.454800E-04
       111   -6.492661E-04
       112    1.411692E-02
       113    8.065718E-03
       114    5.054766E-03
       115   -4.728260E-03
       116   -3.265058E-04
       117    8.723628E-04
       118   -9.881932E-04
       119   -1.048791E-02
       120    1.790593E-05
       121    6.792039E-06
       122    2.619371E-04
       123   -7.840344E-06
       124   -6.966586E-06
       125    6.005364E-04
       126   -1.618298E-05
       127   -2.145891E-06
       128   -9.519619E-04
       129   -7.422687E-04
       130   -1.062351E-04
       131   -2.282116E-04
       132   -5.621566E-04
       133    9.678979E-03
       134   -2.968763E-02
       135   -1.119929E-02
       136    1.198859E-03
       137   -6.330222E-04
       138    1.415056E-01
       139    8.366407E-03
       140   -5.723012E-03
       141    1.445438E-01
       142    2.430332E-02
       143    6.709310E-03
       144    8.854984E-02
       145   -1.338668E-04
       146    1.618997E-04
       147   -2.803297E-05
       148    1.934525E-06
       149    1.278135E-03
       150   -2.827431E-03
       151   -5.792064E-04
       152    7.042260E-04
       153   -1.250196E-04
       154   -1.557746E-03
       155    4.837901E-03
       156   -4.817220E-03
       157   -7.582997E-03
       158    5.878012E-03
       159    1.704986E-03
       160    7.939742E-03
       161   -3.338642E-03
       162    1.168117E-02
       163    1.345316E-05
       164   -9.293172E-06
       165   -7.572271E-04
       166    1.787872E-05
       167   -1.529389E-05
       168    1.101007E-04
       169   -3.592803E-05
       170    2.776199E-05
       171    9.058260E-04
       172   -3.540760E-04
       173    1.027959E-03
       174    2.342298E-03
       175   -2.354152E-03
       176   -2.058697E-02
       177    1.100228E-02
       178   -9.983666E-03
       179   -8.315114E-03
       180   -3.914118E-06
       181    1.101670E-01
       182   -6.495369E-04
       183    5.835800E-06
       184    1.129586E-01
       185    2.203976E-02
       186   -7.942793E-04
       187    1.309279E-01
       188   -4.426640E-04
       189    2.453151E-04
       190    1.973489E-04
       191   -2.052178E-07
       192   -9.217704E-03
       193   -6.436488E-07
       194    1.657392E-03
       195   -3.744089E-03
       196    2.086696E-03
       197   -3.005231E-07
       198   -2.285475E-02
       199    1.409495E-06
       200    5.426615E-03
       201   -6.709988E-03
       202    1.283373E-03
       203    1.111927E-04
       204   -1.816545E-02
       205   -3.851937E-06
       206   -1.090976E-04
       207   -1.819484E-08
       208   -2.995530E-04
       209    7.702592E-05
       210    2.729644E-08
       211   -9.923506E-04
       212    6.934382E-05
       213   -2.885498E-09
       214    1.394243E-03
       215   -5.043973E-09
       216   -1.059148E-04
       217   -2.272356E-04
       218   -5.658748E-04
       219    9.691117E-03
       220   -3.116837E-02
       221   -1.121935E-02
       222    1.201646E-03
       223    6.327019E-04
       224    1.415272E-01
       225    8.377104E-03
       226    5.729690E-03
       227    1.445689E-01
       228    2.388339E-02
       229   -7.443758E-03
       230    8.858052E-02
       231   -1.338287E-04
       232    1.622038E-04
       233   -2.837507E-05
       234   -1.584488E-06
       235    1.277939E-03
       236    2.827468E-03
       237   -5.815670E-04
       238    7.054481E-04
       239   -1.238811E-04
       240    1.562503E-03
       241    4.834764E-03
       242    4.817618E-03
       243   -7.506626E-03
       244    5.801238E-03
       245    1.705387E-03
       246   -8.060585E-03
       247   -3.364916E-03
       248   -1.168039E-02
       249    1.357764E-05
       250    9.382081E-06
       251   -7.575096E-04
       252    1.785957E-05
       253    1.521867E-05
       254    1.104302E-04
       255   -3.607588E-05
       256   -2.780605E-05
       257    9.058756E-04
       258    3.541194E-04
       259    3.616075E-04
       260    2.386200E-04
       261    1.581799E-02
       262    1.277632E-05
       263    2.695993E-06
       264   -1.592932E-03
       265    4.874081E-03
       266    1.814067E-04
       267    6.732152E-03
       268    3.481342E-04
       269    2.119878E-04
       270    1.581061E-02
       271    1.060895E-05
       272   -1.432558E-07
       273   -1.593364E-03
       274    4.969931E-03
       275   -1.490841E-04
       276    6.738727E-03
       277    3.778473E-04
       278    2.135768E-03
       279   -3.094244E-02
       280    1.093724E-05
       281   -8.902740E-05
       282    5.840254E-03
       283    1.253569E-03
       284    2.544763E-03
       285   -1.243668E-03
       286    3.769723E-04
       287    2.139317E-03
       288   -3.120652E-02
       289    1.060030E-05
       290    8.923689E-05
       291    5.841925E-03
       292    1.231821E-03
       293   -2.594321E-03
       294   -1.228581E-03
       295    4.089997E-05
       296    9.456037E-05
       297   -7.787592E-05
       298   -3.881814E-04
       299    6.121290E-03
       300   -1.254011E-03
       301   -3.828325E-04
       302   -2.830769E-07
       303   -1.276682E-02
       304   -1.126250E-04
       305   -1.705791E-06
       306   -1.550873E-02
       307    2.620021E-03
       308   -2.179051E-05
       309   -8.600217E-03
       310   -2.279468E-05
       311    5.950707E-06
       312    1.684398E-05
       313    4.980469E-07
       314   -4.962207E-03
       315    3.507574E-06
       316   -1.508611E-05
       317   -5.481700E-05
       318    6.990311E-05
       319    2.215699E-06
       320   -1.477183E-02
       321    1.038164E-05
       322    9.892035E-04
       323   -2.651868E-03
       324    1.662665E-03
       325   -1.908486E-05
       326   -3.643754E-03
       327   -5.072428E-06
       328   -6.868930E-06
       329    9.939615E-08
       330   -5.420199E-05
       331    4.921516E-06
       332   -1.643530E-07
       333   -7.565009E-04
       334    4.294121E-06
       335    3.099903E-08
       336    8.292205E-04
       337   -6.245896E-07
       338    1.043343E-05
       339    2.217288E-05
       340    8.021326E-06
       341   -4.607267E-04
       342    5.368862E-03
       343    8.148274E-04
       344    2.690825E-04
       345   -7.804096E-05
       346    9.105317E-02
       347    3.380999E-04
       348   -2.026023E-04
       349    8.431097E-02
       350    1.426316E-03
       351   -3.976183E-04
       352    6.684761E-02
       353    1.440307E-04
       354   -2.022436E-04
       355    7.901351E-03
       356   -2.735622E-06
       357    3.584812E-06
       358   -8.491903E-07
       359   -9.502927E-07
       360    5.546599E-05
       361   -6.396282E-04
       362    1.394749E-05
       363    7.993305E-06
       364   -2.194079E-05
       365   -1.214758E-05
       366    7.656727E-04
       367   -2.071051E-03
       368    8.493498E-05
       369   -6.461295E-05
       370   -2.032203E-05
       371   -9.064201E-05
       372    4.196488E-04
       373   -3.760790E-04
       374   -7.658486E-07
       375   -1.312985E-06
       376   -9.301926E-05
       377    1.410932E-06
       378   -6.409023E-08
       379   -9.345986E-05
       380   -3.834378E-07
       381    1.825645E-06
       382    2.182583E-04
       383   -1.782943E-04
       384    9.923385E-06
       385    2.096001E-05
       386    9.277589E-06
       387   -4.545605E-04
       388    5.360698E-03
       389    7.854113E-04
       390    2.393569E-04
       391    1.000219E-04
       392    9.085934E-02
       393    3.106744E-04
       394    2.210352E-04
       395    8.413406E-02
       396    1.384715E-03
       397    4.050654E-04
       398    6.670608E-02
       399    1.266170E-04
       400    2.090511E-04
       401    7.883141E-03
       402   -2.967206E-06
       403    3.864733E-06
       404   -8.975271E-07
       405    9.499663E-07
       406    5.446749E-05
       407    6.380434E-04
       408    1.321553E-05
       409    8.410946E-06
       410   -2.162648E-05
       411    1.140089E-05
       412    7.622704E-04
       413    2.065680E-03
       414    8.333428E-05
       415   -6.510826E-05
       416   -1.822602E-05
       417    9.052927E-05
       418    4.165412E-04
       419    3.705524E-04
       420   -7.864156E-07
       421    1.385765E-06
       422   -9.273156E-05
       423    1.421703E-06
       424   -3.377763E-08
       425   -9.341194E-05
       426   -3.666156E-07
       427   -1.825422E-06
       428    2.178244E-04
       429    1.777729E-04
       430   -4.617088E-03
       431   -1.095132E-02
       432    1.700898E-02
       433    2.635628E-02
       434    2.196593E-02
       435    6.637512E-02
       436    1.615067E-02
       437   -9.361487E-06
       438   -2.361638E-01
       439    1.832371E-02
       440   -2.572233E-06
       441   -2.334627E-01
       442    1.601036E-02
       443    9.488581E-05
       444   -1.931468E-01
       445    9.049992E-05
       446    1.122827E-05
       447   -1.017282E-04
       448   -2.204426E-07
       449   -8.214622E-04
       450   -2.368030E-07
       451    2.426371E-04
       452    1.391155E-03
       453   -1.633792E-03
       454    3.689027E-06
       455   -3.656187E-03
       456   -1.453075E-06
       457    1.951755E-03
       458    2.592735E-03
       459   -4.544490E-03
       460    4.461114E-06
       461   -2.052800E-03
       462   -7.274032E-06
       463    1.312026E-04
       464   -2.583721E-08
       465    9.225054E-04
       466    8.080770E-05
       467   -1.352537E-08
       468   -4.779049E-04
       469   -2.568344E-04
       470    4.818963E-08
       471   -7.597660E-04
       472    1.722406E-09
       473   -8.784509E-03
       474   -1.658273E-02
       475   -2.803569E-02
       476    2.080130E-03
       477    1.741003E-03
       478   -1.202037E-02
       479   -1.599250E-03
       480    3.391293E-03
       481   -1.436690E-02
       482   -8.778007E-03
       483   -1.651951E-02
       484   -2.786414E-02
       485    2.076922E-03
       486   -1.734806E-03
       487   -1.202345E-02
       488   -1.613600E-03
       489   -3.356846E-03
       490   -1.437400E-02
 Sym= X
 Ene= -0.761428
 Spin= Alpha
 Occup= -0.761428
         1   -1.408046E-05
         2   -3.177852E-05
         3    9.469528E-05
         4   -2.327937E-04
         5   -1.037637E-02
         6   -6.206417E-04
         7   -8.085746E-06
         8   -1.751497E-04
         9   -1.882965E-01
        10   -4.836008E-04
        11   -4.371588E-05
        12   -1.887918E-01
        13    3.988420E-03
        14   -6.628171E-03
        15   -1.098927E-01
        16   -4.182984E-06
        17   -1.811338E-06
        18    5.994321E-06
        19    2.627122E-06
        20   -4.964605E-03
        21   -5.436937E-04
        22   -8.875156E-05
        23    5.011049E-05
        24    3.864107E-05
        25    1.618544E-05
        26   -9.541256E-03
        27    4.163402E-04
        28    8.688970E-04
        29   -1.020493E-03
        30    1.515960E-04
        31    5.325403E-04
        32   -2.899906E-03
        33   -3.333999E-04
        34   -4.555220E-06
        35   -1.125358E-06
        36    1.162907E-03
        37    1.409352E-06
        38    4.390447E-07
        39   -1.406337E-03
        40    4.702117E-06
        41    1.070781E-06
        42   -1.538662E-04
        43   -3.146226E-06
        44   -1.815114E-07
        45   -3.312701E-07
        46   -2.548548E-06
        47   -3.816208E-06
        48    2.400336E-03
        49    1.700264E-04
        50   -5.769407E-06
        51    2.049459E-04
        52   -3.274442E-06
        53    2.932394E-06
        54    3.295636E-04
        55   -2.630207E-07
        56    1.079791E-03
        57   -1.014420E-02
        58   -2.633614E-05
        59    5.370380E-08
        60   -6.372079E-08
        61    1.001698E-08
        62    1.498545E-05