[Molden Format]
[Title]
ADC(2) - opt by CAM-B3LYP gaussian                                              
[Atoms] AU
 c     1    6 -.12589065566052E+01 -.22830902054421E+01 -.26005390588660E-01
 c     2    6 -.25569912224779E+01 0.86573078000000E-06 -.24733756079320E-01
 c     3    6 -.12589060841737E+01 0.22830907841707E+01 -.26008073999770E-01
 c     4    6 0.13324295737882E+01 0.22846183820847E+01 -.28114684000920E-01
 c     5    6 0.26867573459717E+01 0.39329925000000E-06 -.27723246129760E-01
 c     6    6 0.13324281942881E+01 -.22846180679178E+01 -.28111244699360E-01
 h     7    1 -.22982509786098E+01 -.40377481062879E+01 -.23319125993500E-01
 h     8    1 -.22982490510892E+01 0.40377494409070E+01 -.23324322740370E-01
 h     9    1 0.23514918675648E+01 0.40568894753521E+01 -.30529017005560E-01
 h    10    1 0.23514910360853E+01 -.40568888210345E+01 -.30521911635300E-01
 n    11    7 -.52742123095903E+01 0.14763485000000E-06 -.18925267070140E-01
 o    12    8 -.63809534361791E+01 0.20269762391752E+01 -.16457057973460E-01
 o    13    8 -.63809510362269E+01 -.20269772478165E+01 -.16464881439650E-01
 n    14    7 0.52454603626942E+01 -.57046108000000E-06 -.73989411041200E-01
 h    15    1 0.62036818842731E+01 0.16164996606794E+01 0.19711589672944E+00
 h    16    1 0.62036804102867E+01 -.16165023700742E+01 0.19711149366755E+00
[GTO]
    1 0
 s    6 1.00
 0.13575349682000E+05 0.60645503603591E-03
 0.20352333680000E+04 0.46979088884982E-02
 0.46322562359000E+03 0.24332477647552E-01
 0.13120019598000E+03 0.97399968307759E-01
 0.42853015891000E+02 0.30195584253780E+00
 0.15584185766000E+02 0.66233609137875E+00
 s    2 1.00
 0.62067138508000E+01 0.65595308539952E+00
 0.25764896527000E+01 0.37585633285142E+00
 s    1 1.00
 0.57696339419000E+00 0.10000000000000E+01
 s    1 1.00
 0.22972831358000E+00 0.10000000000000E+01
 s    1 1.00
 0.95164440028000E-01 0.10000000000000E+01
 s    1 1.00
 0.48475401370000E-01 0.10000000000000E+01
 p    4 1.00
 0.34697232244000E+02 0.11327220003114E-01
 0.79582622826000E+01 0.76169659202087E-01
 0.23780826883000E+01 0.30192252202676E+00
 0.81433208183000E+00 0.72785027349547E+00
 p    1 1.00
 0.28887547253000E+00 0.10000000000000E+01
 p    1 1.00
 0.10056823671000E+00 0.10000000000000E+01
 d    1 1.00
 0.10970000000000E+01 0.10000000000000E+01
 d    1 1.00
 0.31800000000000E+00 0.10000000000000E+01
 d    1 1.00
 0.90985336424000E-01 0.10000000000000E+01
 f    1 1.00
 0.76100000000000E+00 0.10000000000000E+01
 
    2 0
 s    6 1.00
 0.13575349682000E+05 0.60645503603591E-03
 0.20352333680000E+04 0.46979088884982E-02
 0.46322562359000E+03 0.24332477647552E-01
 0.13120019598000E+03 0.97399968307759E-01
 0.42853015891000E+02 0.30195584253780E+00
 0.15584185766000E+02 0.66233609137875E+00
 s    2 1.00
 0.62067138508000E+01 0.65595308539952E+00
 0.25764896527000E+01 0.37585633285142E+00
 s    1 1.00
 0.57696339419000E+00 0.10000000000000E+01
 s    1 1.00
 0.22972831358000E+00 0.10000000000000E+01
 s    1 1.00
 0.95164440028000E-01 0.10000000000000E+01
 s    1 1.00
 0.48475401370000E-01 0.10000000000000E+01
 p    4 1.00
 0.34697232244000E+02 0.11327220003114E-01
 0.79582622826000E+01 0.76169659202087E-01
 0.23780826883000E+01 0.30192252202676E+00
 0.81433208183000E+00 0.72785027349547E+00
 p    1 1.00
 0.28887547253000E+00 0.10000000000000E+01
 p    1 1.00
 0.10056823671000E+00 0.10000000000000E+01
 d    1 1.00
 0.10970000000000E+01 0.10000000000000E+01
 d    1 1.00
 0.31800000000000E+00 0.10000000000000E+01
 d    1 1.00
 0.90985336424000E-01 0.10000000000000E+01
 f    1 1.00
 0.76100000000000E+00 0.10000000000000E+01
 
    3 0
 s    6 1.00
 0.13575349682000E+05 0.60645503603591E-03
 0.20352333680000E+04 0.46979088884982E-02
 0.46322562359000E+03 0.24332477647552E-01
 0.13120019598000E+03 0.97399968307759E-01
 0.42853015891000E+02 0.30195584253780E+00
 0.15584185766000E+02 0.66233609137875E+00
 s    2 1.00
 0.62067138508000E+01 0.65595308539952E+00
 0.25764896527000E+01 0.37585633285142E+00
 s    1 1.00
 0.57696339419000E+00 0.10000000000000E+01
 s    1 1.00
 0.22972831358000E+00 0.10000000000000E+01
 s    1 1.00
 0.95164440028000E-01 0.10000000000000E+01
 s    1 1.00
 0.48475401370000E-01 0.10000000000000E+01
 p    4 1.00
 0.34697232244000E+02 0.11327220003114E-01
 0.79582622826000E+01 0.76169659202087E-01
 0.23780826883000E+01 0.30192252202676E+00
 0.81433208183000E+00 0.72785027349547E+00
 p    1 1.00
 0.28887547253000E+00 0.10000000000000E+01
 p    1 1.00
 0.10056823671000E+00 0.10000000000000E+01
 d    1 1.00
 0.10970000000000E+01 0.10000000000000E+01
 d    1 1.00
 0.31800000000000E+00 0.10000000000000E+01
 d    1 1.00
 0.90985336424000E-01 0.10000000000000E+01
 f    1 1.00
 0.76100000000000E+00 0.10000000000000E+01
 
    4 0
 s    6 1.00
 0.13575349682000E+05 0.60645503603591E-03
 0.20352333680000E+04 0.46979088884982E-02
 0.46322562359000E+03 0.24332477647552E-01
 0.13120019598000E+03 0.97399968307759E-01
 0.42853015891000E+02 0.30195584253780E+00
 0.15584185766000E+02 0.66233609137875E+00
 s    2 1.00
 0.62067138508000E+01 0.65595308539952E+00
 0.25764896527000E+01 0.37585633285142E+00
 s    1 1.00
 0.57696339419000E+00 0.10000000000000E+01
 s    1 1.00
 0.22972831358000E+00 0.10000000000000E+01
 s    1 1.00
 0.95164440028000E-01 0.10000000000000E+01
 s    1 1.00
 0.48475401370000E-01 0.10000000000000E+01
 p    4 1.00
 0.34697232244000E+02 0.11327220003114E-01
 0.79582622826000E+01 0.76169659202087E-01
 0.23780826883000E+01 0.30192252202676E+00
 0.81433208183000E+00 0.72785027349547E+00
 p    1 1.00
 0.28887547253000E+00 0.10000000000000E+01
 p    1 1.00
 0.10056823671000E+00 0.10000000000000E+01
 d    1 1.00
 0.10970000000000E+01 0.10000000000000E+01
 d    1 1.00
 0.31800000000000E+00 0.10000000000000E+01
 d    1 1.00
 0.90985336424000E-01 0.10000000000000E+01
 f    1 1.00
 0.76100000000000E+00 0.10000000000000E+01
 
    5 0
 s    6 1.00
 0.13575349682000E+05 0.60645503603591E-03
 0.20352333680000E+04 0.46979088884982E-02
 0.46322562359000E+03 0.24332477647552E-01
 0.13120019598000E+03 0.97399968307759E-01
 0.42853015891000E+02 0.30195584253780E+00
 0.15584185766000E+02 0.66233609137875E+00
 s    2 1.00
 0.62067138508000E+01 0.65595308539952E+00
 0.25764896527000E+01 0.37585633285142E+00
 s    1 1.00
 0.57696339419000E+00 0.10000000000000E+01
 s    1 1.00
 0.22972831358000E+00 0.10000000000000E+01
 s    1 1.00
 0.95164440028000E-01 0.10000000000000E+01
 s    1 1.00
 0.48475401370000E-01 0.10000000000000E+01
 p    4 1.00
 0.34697232244000E+02 0.11327220003114E-01
 0.79582622826000E+01 0.76169659202087E-01
 0.23780826883000E+01 0.30192252202676E+00
 0.81433208183000E+00 0.72785027349547E+00
 p    1 1.00
 0.28887547253000E+00 0.10000000000000E+01
 p    1 1.00
 0.10056823671000E+00 0.10000000000000E+01
 d    1 1.00
 0.10970000000000E+01 0.10000000000000E+01
 d    1 1.00
 0.31800000000000E+00 0.10000000000000E+01
 d    1 1.00
 0.90985336424000E-01 0.10000000000000E+01
 f    1 1.00
 0.76100000000000E+00 0.10000000000000E+01
 
    6 0
 s    6 1.00
 0.13575349682000E+05 0.60645503603591E-03
 0.20352333680000E+04 0.46979088884982E-02
 0.46322562359000E+03 0.24332477647552E-01
 0.13120019598000E+03 0.97399968307759E-01
 0.42853015891000E+02 0.30195584253780E+00
 0.15584185766000E+02 0.66233609137875E+00
 s    2 1.00
 0.62067138508000E+01 0.65595308539952E+00
 0.25764896527000E+01 0.37585633285142E+00
 s    1 1.00
 0.57696339419000E+00 0.10000000000000E+01
 s    1 1.00
 0.22972831358000E+00 0.10000000000000E+01
 s    1 1.00
 0.95164440028000E-01 0.10000000000000E+01
 s    1 1.00
 0.48475401370000E-01 0.10000000000000E+01
 p    4 1.00
 0.34697232244000E+02 0.11327220003114E-01
 0.79582622826000E+01 0.76169659202087E-01
 0.23780826883000E+01 0.30192252202676E+00
 0.81433208183000E+00 0.72785027349547E+00
 p    1 1.00
 0.28887547253000E+00 0.10000000000000E+01
 p    1 1.00
 0.10056823671000E+00 0.10000000000000E+01
 d    1 1.00
 0.10970000000000E+01 0.10000000000000E+01
 d    1 1.00
 0.31800000000000E+00 0.10000000000000E+01
 d    1 1.00
 0.90985336424000E-01 0.10000000000000E+01
 f    1 1.00
 0.76100000000000E+00 0.10000000000000E+01
 
    7 0
 s    3 1.00
 0.34061341000000E+02 0.25439307208879E-01
 0.51235746000000E+01 0.19008594890375E+00
 0.11646626000000E+01 0.85244113011042E+00
 s    1 1.00
 0.32723041000000E+00 0.10000000000000E+01
 s    1 1.00
 0.10307241000000E+00 0.10000000000000E+01
 p    1 1.00
 0.80000000000000E+00 0.10000000000000E+01
 p    1 1.00
 0.95774129632000E-01 0.10000000000000E+01
 
    8 0
 s    3 1.00
 0.34061341000000E+02 0.25439307208879E-01
 0.51235746000000E+01 0.19008594890375E+00
 0.11646626000000E+01 0.85244113011042E+00
 s    1 1.00
 0.32723041000000E+00 0.10000000000000E+01
 s    1 1.00
 0.10307241000000E+00 0.10000000000000E+01
 p    1 1.00
 0.80000000000000E+00 0.10000000000000E+01
 p    1 1.00
 0.95774129632000E-01 0.10000000000000E+01
 
    9 0
 s    3 1.00
 0.34061341000000E+02 0.25439307208879E-01
 0.51235746000000E+01 0.19008594890375E+00
 0.11646626000000E+01 0.85244113011042E+00
 s    1 1.00
 0.32723041000000E+00 0.10000000000000E+01
 s    1 1.00
 0.10307241000000E+00 0.10000000000000E+01
 p    1 1.00
 0.80000000000000E+00 0.10000000000000E+01
 p    1 1.00
 0.95774129632000E-01 0.10000000000000E+01
 
   10 0
 s    3 1.00
 0.34061341000000E+02 0.25439307208879E-01
 0.51235746000000E+01 0.19008594890375E+00
 0.11646626000000E+01 0.85244113011042E+00
 s    1 1.00
 0.32723041000000E+00 0.10000000000000E+01
 s    1 1.00
 0.10307241000000E+00 0.10000000000000E+01
 p    1 1.00
 0.80000000000000E+00 0.10000000000000E+01
 p    1 1.00
 0.95774129632000E-01 0.10000000000000E+01
 
   11 0
 s    6 1.00
 0.19730800647000E+05 0.58626402628763E-03
 0.29578958745000E+04 0.45428820586397E-02
 0.67322133595000E+03 0.23558413450084E-01
 0.19068249494000E+03 0.94709193292923E-01
 0.62295441898000E+02 0.29719784913376E+00
 0.22654161182000E+02 0.66916246895232E+00
 s    2 1.00
 0.89791477428000E+01 0.64596683630063E+00
 0.36863002370000E+01 0.38700574393705E+00
 s    1 1.00
 0.84660076805000E+00 0.10000000000000E+01
 s    1 1.00
 0.33647133771000E+00 0.10000000000000E+01
 s    1 1.00
 0.13647653675000E+00 0.10000000000000E+01
 s    1 1.00
 0.68441605847000E-01 0.10000000000000E+01
 p    4 1.00
 0.49200380510000E+02 0.11448825101764E-01
 0.11346790537000E+02 0.78422337970864E-01
 0.34273972411000E+01 0.30818094738830E+00
 0.11785525134000E+01 0.72027196368413E+00
 p    1 1.00
 0.41642204972000E+00 0.10000000000000E+01
 p    1 1.00
 0.14260826011000E+00 0.10000000000000E+01
 d    1 1.00
 0.16540000000000E+01 0.10000000000000E+01
 d    1 1.00
 0.46900000000000E+00 0.10000000000000E+01
 d    1 1.00
 0.12829642058000E+00 0.10000000000000E+01
 f    1 1.00
 0.10930000000000E+01 0.10000000000000E+01
 
   12 0
 s    6 1.00
 0.27032382631000E+05 0.57227335211155E-03
 0.40523871392000E+04 0.44353233492995E-02
 0.92232722710000E+03 0.23020107706038E-01
 0.26124070989000E+03 0.92822490667928E-01
 0.85354641351000E+02 0.29378500009671E+00
 0.31035035245000E+02 0.67401604501641E+00
 s    2 1.00
 0.12260860728000E+02 0.63839937025506E+00
 0.49987076005000E+01 0.39534587125718E+00
 s    1 1.00
 0.11703108158000E+01 0.10000000000000E+01
 s    1 1.00
 0.46474740994000E+00 0.10000000000000E+01
 s    1 1.00
 0.18504536357000E+00 0.10000000000000E+01
 s    1 1.00
 0.70288026270000E-01 0.10000000000000E+01
 p    4 1.00
 0.63274954801000E+02 0.12018332222616E-01
 0.14627049379000E+02 0.83005421790056E-01
 0.44501223456000E+01 0.31991743925964E+00
 0.15275799647000E+01 0.70715542916104E+00
 p    1 1.00
 0.52935117943000E+00 0.10000000000000E+01
 p    1 1.00
 0.17478421270000E+00 0.10000000000000E+01
 p    1 1.00
 0.51112745706000E-01 0.10000000000000E+01
 d    1 1.00
 0.23140000000000E+01 0.10000000000000E+01
 d    1 1.00
 0.64500000000000E+00 0.10000000000000E+01
 d    1 1.00
 0.14696477366000E+00 0.10000000000000E+01
 f    1 1.00
 0.14280000000000E+01 0.10000000000000E+01
 
   13 0
 s    6 1.00
 0.27032382631000E+05 0.57227335211155E-03
 0.40523871392000E+04 0.44353233492995E-02
 0.92232722710000E+03 0.23020107706038E-01
 0.26124070989000E+03 0.92822490667928E-01
 0.85354641351000E+02 0.29378500009671E+00
 0.31035035245000E+02 0.67401604501641E+00
 s    2 1.00
 0.12260860728000E+02 0.63839937025506E+00
 0.49987076005000E+01 0.39534587125718E+00
 s    1 1.00
 0.11703108158000E+01 0.10000000000000E+01
 s    1 1.00
 0.46474740994000E+00 0.10000000000000E+01
 s    1 1.00
 0.18504536357000E+00 0.10000000000000E+01
 s    1 1.00
 0.70288026270000E-01 0.10000000000000E+01
 p    4 1.00
 0.63274954801000E+02 0.12018332222616E-01
 0.14627049379000E+02 0.83005421790056E-01
 0.44501223456000E+01 0.31991743925964E+00
 0.15275799647000E+01 0.70715542916104E+00
 p    1 1.00
 0.52935117943000E+00 0.10000000000000E+01
 p    1 1.00
 0.17478421270000E+00 0.10000000000000E+01
 p    1 1.00
 0.51112745706000E-01 0.10000000000000E+01
 d    1 1.00
 0.23140000000000E+01 0.10000000000000E+01
 d    1 1.00
 0.64500000000000E+00 0.10000000000000E+01
 d    1 1.00
 0.14696477366000E+00 0.10000000000000E+01
 f    1 1.00
 0.14280000000000E+01 0.10000000000000E+01
 
   14 0
 s    6 1.00
 0.19730800647000E+05 0.58626402628763E-03
 0.29578958745000E+04 0.45428820586397E-02
 0.67322133595000E+03 0.23558413450084E-01
 0.19068249494000E+03 0.94709193292923E-01
 0.62295441898000E+02 0.29719784913376E+00
 0.22654161182000E+02 0.66916246895232E+00
 s    2 1.00
 0.89791477428000E+01 0.64596683630063E+00
 0.36863002370000E+01 0.38700574393705E+00
 s    1 1.00
 0.84660076805000E+00 0.10000000000000E+01
 s    1 1.00
 0.33647133771000E+00 0.10000000000000E+01
 s    1 1.00
 0.13647653675000E+00 0.10000000000000E+01
 s    1 1.00
 0.68441605847000E-01 0.10000000000000E+01
 p    4 1.00
 0.49200380510000E+02 0.11448825101764E-01
 0.11346790537000E+02 0.78422337970864E-01
 0.34273972411000E+01 0.30818094738830E+00
 0.11785525134000E+01 0.72027196368413E+00
 p    1 1.00
 0.41642204972000E+00 0.10000000000000E+01
 p    1 1.00
 0.14260826011000E+00 0.10000000000000E+01
 d    1 1.00
 0.16540000000000E+01 0.10000000000000E+01
 d    1 1.00
 0.46900000000000E+00 0.10000000000000E+01
 d    1 1.00
 0.12829642058000E+00 0.10000000000000E+01
 f    1 1.00
 0.10930000000000E+01 0.10000000000000E+01
 
   15 0
 s    3 1.00
 0.34061341000000E+02 0.25439307208879E-01
 0.51235746000000E+01 0.19008594890375E+00
 0.11646626000000E+01 0.85244113011042E+00
 s    1 1.00
 0.32723041000000E+00 0.10000000000000E+01
 s    1 1.00
 0.10307241000000E+00 0.10000000000000E+01
 p    1 1.00
 0.80000000000000E+00 0.10000000000000E+01
 p    1 1.00
 0.95774129632000E-01 0.10000000000000E+01
 
   16 0
 s    3 1.00
 0.34061341000000E+02 0.25439307208879E-01
 0.51235746000000E+01 0.19008594890375E+00
 0.11646626000000E+01 0.85244113011042E+00
 s    1 1.00
 0.32723041000000E+00 0.10000000000000E+01
 s    1 1.00
 0.10307241000000E+00 0.10000000000000E+01
 p    1 1.00
 0.80000000000000E+00 0.10000000000000E+01
 p    1 1.00
 0.95774129632000E-01 0.10000000000000E+01
 
[MO]
 Sym= X
 Ene= -0.899565
 Spin= Alpha
 Occup= -0.899565
         1    8.460575E-04
         2    1.960199E-03
         3    1.288315E-03
         4   -3.554553E-02
         5   -2.556380E-01
         6    4.008238E-02
         7    1.877823E-02
         8   -3.760049E-02
         9   -3.992594E-05
        10    1.970899E-03
        11   -3.428584E-02
        12   -4.095308E-05
        13    8.320180E-03
        14   -8.023266E-02
        15   -1.373870E-04
        16    1.851171E-03
        17   -2.066229E-03
        18    2.150579E-04
        19    1.406277E-04
        20   -1.008583E-06
        21   -4.825254E-07
        22   -3.127457E-03
        23   -7.640579E-06
        24    3.135098E-03
        25    7.933774E-04
        26    2.088758E-06
        27   -4.822009E-06
        28    2.641280E-05
        29   -1.418194E-03
        30    1.391781E-03
        31   -1.417954E-02
        32   -2.099111E-05
        33    2.476000E-05
        34   -1.620126E-04
        35   -4.212545E-04
        36    4.163977E-07
        37    1.760899E-04
        38    4.670060E-04
        39   -3.593587E-07
        40    4.127286E-05
        41    9.816613E-05
        42   -1.992975E-07
        43   -9.158462E-07
        44   -1.367561E-02
        45   -3.089524E-02
        46    4.512377E-02
        47    8.244373E-02
        48    1.796974E-01
        49   -3.864271E-02
        50   -1.334156E-01
        51   -2.751465E-07
        52    1.626257E-04
        53   -9.881232E-02
        54   -1.598411E-06
        55    1.068620E-04
        56    8.943788E-02
        57    2.433720E-05
        58   -2.865006E-04
        59    4.932088E-03
        60   -4.202233E-03
        61   -7.298555E-04
        62    1.127770E-08
        63   -1.540228E-05
        64    2.788332E-07
        65    7.038725E-04
        66   -3.325757E-04
        67   -3.712968E-04
        68   -1.858108E-07
        69    5.595147E-07
        70    1.469293E-06
        71   -3.848326E-02
        72    3.878055E-02
        73   -2.972978E-04
        74   -1.199115E-07
        75    1.079965E-04
        76   -1.444339E-05
        77   -1.051035E-03
        78   -4.254996E-09
        79   -1.908371E-06
        80    8.387085E-04
        81    2.630354E-09
        82    4.605002E-06
        83    5.714029E-04
        84    3.078322E-09
        85   -2.044654E-06
        86    7.042331E-08
        87    8.460276E-04
        88    1.960139E-03
        89    1.288221E-03
        90   -3.554617E-02
        91   -2.556715E-01
        92    4.009003E-02
        93    1.877889E-02
        94    3.760051E-02
        95   -2.167979E-05
        96    1.969446E-03
        97    3.428465E-02
        98   -2.409508E-05
        99    8.339756E-03
       100    8.024367E-02
       101   -1.466468E-04
       102    1.851168E-03
       103   -2.066245E-03
       104    2.150770E-04
       105   -1.406486E-04
       106   -5.466681E-07
       107    3.746013E-07
       108   -3.127799E-03
       109   -7.104536E-06
       110    3.134904E-03
       111   -7.931704E-04
       112    3.252735E-06
       113    5.298735E-06
       114    2.345676E-05
       115   -1.414284E-03
       116    1.390828E-03
       117    1.417906E-02
       118   -5.412427E-05
       119   -4.802557E-05
       120   -1.620114E-04
       121    4.212644E-04
       122    3.556375E-07
       123    1.760841E-04
       124   -4.670130E-04
       125   -2.549897E-07
       126    4.127695E-05
       127   -9.817256E-05
       128   -2.221480E-07
       129    8.653586E-07
       130   -1.665023E-03
       131   -3.785300E-03
       132    2.953254E-03
       133    3.264019E-02
       134    1.132897E-01
       135   -3.322712E-02
       136   -2.015066E-02
       137   -8.193579E-03
       138    4.459550E-05
       139   -3.286978E-02
       140   -7.077556E-03
       141    6.644395E-05
       142   -3.861374E-02
       143   -4.787073E-02
       144    2.403774E-04
       145    5.716253E-04
       146   -4.606848E-04
       147   -1.109404E-04
       148   -1.354337E-03
       149    3.664789E-07
       150    1.447994E-06
       151    3.813657E-03
       152   -1.687671E-03
       153   -2.125987E-03
       154   -2.166256E-03
       155   -1.222073E-05
       156   -5.718202E-06
       157    5.662866E-03
       158   -5.451604E-03
       159   -2.112620E-04
       160    1.895921E-02
       161   -9.804711E-05
       162   -4.057783E-05
       163   -2.462517E-04
       164   -2.302529E-04
       165   -6.567963E-07
       166    1.657188E-04
       167    3.103899E-04
       168    7.384567E-07
       169    1.646626E-04
       170   -1.473292E-06
       171    1.427280E-07
       172   -6.955371E-08
       173   -1.920653E-03
       174   -4.407846E-03
       175    8.909180E-03
       176    6.540185E-04
       177    3.810981E-02
       178    3.603495E-02
       179   -6.270860E-03
       180    1.836183E-07
       181    1.827369E-06
       182   -3.276228E-03
       183    9.522645E-07
       184    4.437230E-05
       185    2.068919E-02
       186    6.554790E-06
       187    5.612523E-05
       188    2.694580E-04
       189   -2.619310E-04
       190   -7.527011E-06
       191   -1.614800E-08
       192   -1.939403E-06
       193    3.609963E-07
       194   -3.728376E-04
       195   -4.291886E-04
       196    8.020262E-04
       197   -1.881556E-07
       198    1.320622E-05
       199    7.837248E-07
       200    1.307257E-02
       201   -1.379592E-02
       202    7.233570E-04
       203   -3.436166E-06
       204    2.278005E-04
       205    1.792281E-05
       206    3.107179E-05
       207   -4.981677E-09
       208   -3.122553E-07
       209   -4.268704E-05
       210    6.754364E-09
       211    5.771543E-07
       212    9.998664E-07
       213   -7.074237E-11
       214   -1.582198E-07
       215   -5.226887E-08
       216   -1.665055E-03
       217   -3.785368E-03
       218    2.953317E-03
       219    3.263956E-02
       220    1.133341E-01
       221   -3.322283E-02
       222   -2.015028E-02
       223    8.192780E-03
       224    2.518204E-05
       225   -3.286771E-02
       226    7.077162E-03
       227    4.671689E-05
       228   -3.861903E-02
       229    4.787697E-02
       230    2.159070E-04
       231    5.716099E-04
       232   -4.606928E-04
       233   -1.109171E-04
       234    1.354333E-03
       235    7.611456E-07
       236   -1.475960E-06
       237    3.813300E-03
       238   -1.687216E-03
       239   -2.126084E-03
       240    2.166358E-03
       241   -1.092426E-05
       242    5.434163E-06
       243    5.657840E-03
       244   -5.445504E-03
       245   -2.123363E-04
       246   -1.895888E-02
       247   -6.558955E-05
       248    5.936468E-05
       249   -2.462442E-04
       250    2.302537E-04
       251   -5.201262E-07
       252    1.657128E-04
       253   -3.103925E-04
       254    5.779751E-07
       255    1.646584E-04
       256    1.474726E-06
       257    1.198474E-07
       258    6.589257E-08
       259    4.030575E-03
       260    5.247821E-03
       261    2.021290E-02
       262    2.009655E-03
       263    6.348269E-04
       264   -5.446379E-06
       265    6.876846E-03
       266    3.621145E-04
       267   -7.694348E-06
       268    4.030519E-03
       269    5.247495E-03
       270    2.021138E-02
       271    2.009579E-03
       272   -6.348329E-04
       273   -4.838300E-06
       274    6.872114E-03
       275   -3.660236E-04
       276    4.900454E-06
       277   -9.795439E-03
       278   -1.594669E-02
       279   -1.613980E-02
       280   -5.200356E-05
       281    1.455786E-03
       282   -1.896140E-06
       283   -7.107159E-03
       284    2.864454E-03
       285    8.029133E-05
       286   -9.795167E-03
       287   -1.594721E-02
       288   -1.615080E-02
       289   -5.194740E-05
       290   -1.455690E-03
       291   -2.340461E-06
       292   -7.101723E-03
       293   -2.861372E-03
       294    8.147908E-05
       295   -1.969529E-03
       296   -4.516634E-03
       297    2.956393E-03
       298    3.041874E-02
       299    1.610503E-01
       300   -1.587222E-02
       301    1.074742E-01
       302    2.416982E-08
       303   -2.317241E-04
       304    1.001194E-01
       305   -2.592412E-07
       306   -2.180756E-04
       307    1.023936E-01
       308   -5.351408E-07
       309   -1.955992E-04
       310    1.166759E-02
       311   -1.294411E-02
       312    1.276521E-03
       313    3.947114E-09
       314   -2.849927E-05
       315   -2.318284E-07
       316    3.318231E-02
       317   -3.449761E-02
       318    1.315301E-03
       319    1.490033E-08
       320   -8.602981E-05
       321   -1.022702E-06
       322   -1.418907E-02
       323    4.710989E-03
       324    9.478083E-03
       325   -2.602117E-06
       326    6.228543E-05
       327   -1.584015E-06
       328   -8.972505E-05
       329    1.497953E-09
       330    1.016074E-06
       331    3.469071E-04
       332   -1.146408E-09
       333   -8.836702E-07
       334   -2.265283E-04
       335   -8.633063E-10
       336   -4.795367E-07
       337    7.544333E-08
       338    9.763297E-04
       339    2.489840E-03
       340   -3.034086E-03
       341    6.828918E-03
       342    3.332638E-03
       343    2.141142E-02
       344   -3.092793E-01
       345   -6.297942E-02
       346    7.136220E-04
       347   -2.722122E-01
       348   -6.031548E-02
       349    6.292551E-04
       350   -2.059900E-01
       351   -5.151938E-02
       352    4.764754E-04
       353   -1.584435E-02
       354   -9.068579E-03
       355    3.198996E-05
       356   -9.786698E-04
       357    2.306809E-04
       358    7.479889E-04
       359    2.608366E-03
       360    4.368260E-06
       361   -6.125957E-06
       362   -3.848333E-03
       363    1.729366E-03
       364    2.118967E-03
       365    5.966268E-03
       366    1.506494E-05
       367   -1.448429E-05
       368   -4.060517E-03
       369    3.408126E-03
       370    6.523908E-04
       371    6.174644E-03
       372    4.474077E-06
       373   -1.733564E-05
       374    2.739728E-04
       375   -5.320686E-04
       376   -1.246180E-06
       377   -6.004529E-04
       378    9.690834E-04
       379    2.304725E-07
       380    2.328797E-04
       381   -2.552385E-04
       382    1.441453E-06
       383   -3.201443E-06
       384    9.762883E-04
       385    2.489737E-03
       386   -3.033901E-03
       387    6.829303E-03
       388    3.336824E-03
       389    2.141485E-02
       390   -3.092794E-01
       391    6.297868E-02
       392    7.251927E-04
       393   -2.722122E-01
       394    6.031485E-02
       395    6.414440E-04
       396   -2.059921E-01
       397    5.151856E-02
       398    4.702063E-04
       399   -1.584335E-02
       400    9.068169E-03
       401    3.621037E-05
       402   -9.786593E-04
       403    2.306801E-04
       404    7.479791E-04
       405   -2.608362E-03
       406    4.513404E-06
       407    6.235371E-06
       408   -3.848353E-03
       409    1.729352E-03
       410    2.119001E-03
       411   -5.966327E-03
       412    1.573288E-05
       413    1.429496E-05
       414   -4.060602E-03
       415    3.408003E-03
       416    6.525990E-04
       417   -6.175249E-03
       418    1.173603E-05
       419    1.055162E-05
       420    2.739758E-04
       421    5.320669E-04
       422   -1.171514E-06
       423   -6.004558E-04
       424   -9.690823E-04
       425    1.153215E-07
       426    2.328787E-04
       427    2.552396E-04
       428    1.456429E-06
       429    3.288991E-06
       430   -3.622786E-04
       431   -8.570394E-04
       432    1.101033E-03
       433    4.849288E-03
       434   -1.707228E-02
       435   -2.321222E-02
       436    2.329993E-04
       437    1.997243E-08
       438    1.691569E-05
       439   -7.599789E-04
       440    1.870308E-07
       441    9.043912E-07
       442    5.432884E-04
       443    2.655557E-07
       444   -2.083494E-04
       445    2.998278E-05
       446   -2.344011E-05
       447   -6.542673E-06
       448    2.361369E-09
       449    3.486847E-06
       450    1.651276E-08
       451    1.330699E-04
       452   -2.840091E-04
       453    1.509392E-04
       454    7.704437E-09
       455   -9.426350E-06
       456    1.867973E-08
       457    5.963903E-04
       458   -3.645442E-04
       459   -2.318461E-04
       460    5.163065E-07
       461    4.932435E-05
       462   -8.436468E-07
       463    7.907011E-08
       464   -5.823095E-10
       465    2.562899E-06
       466    9.905381E-06
       467    9.534721E-10
       468    7.279863E-08
       469   -1.001146E-05
       470   -1.722219E-10
       471   -3.511288E-06
       472   -7.022666E-09
       473    8.171932E-05
       474    7.242571E-04
       475   -1.269584E-03
       476   -4.052808E-05
       477   -1.873187E-04
       478   -2.980283E-05
       479    1.826958E-03
       480    7.236047E-04
       481   -3.153699E-04
       482    8.167115E-05
       483    7.242192E-04
       484   -1.267563E-03
       485   -4.049482E-05
       486    1.873607E-04
       487   -2.992781E-05
       488    1.827928E-03
       489   -7.212563E-04
       490   -3.171549E-04
 Sym= X
 Ene= 0.899565
 Spin= Alpha
 Occup= 0.899565
         1    1.993850E-05
         2    4.749033E-05
         3   -1.495719E-04
         4    1.478116E-04
         5    3.223203E-02
         6   -1.944685E-04
         7   -2.231123E-04
         8   -6.966701E-05
         9   -9.909129E-02
        10   -2.809451E-04
        11   -2.097328E-05
        12   -9.864494E-02
        13    2.206327E-02
        14   -1.657385E-02
        15   -5.560118E-02
        16   -6.801929E-06
        17    2.295376E-06
        18    4.506553E-06
        19   -2.923581E-06
        20    3.249856E-04
        21   -5.613493E-04
        22    1.062325E-04
        23   -3.673298E-05
        24   -6.949951E-05
        25    1.842196E-05
        26    4.978505E-03
        27    3.205868E-04
        28    7.044789E-03
        29   -7.495398E-03
        30    4.506093E-04
        31    2.218625E-04
        32    5.265946E-03
        33    1.669708E-02
        34    3.240861E-06
        35   -1.419120E-06
        36    1.797857E-04
        37   -3.913103E-06
        38    1.525343E-07
        39    1.325920E-04
        40   -4.349679E-07
        41    1.751415E-06
        42   -3.737999E-04
        43   -4.306573E-05
        44    6.384064E-06
        45    1.094963E-05
        46    8.700496E-05
        47   -1.766057E-03
        48    6.467026E-02
        49    6.301788E-03
        50   -1.167004E-05
        51   -1.305183E-07
        52    3.322045E-03
        53   -2.402077E-04
        54   -3.170095E-06
        55   -1.666557E-04
        56    2.185893E-02
        57   -3.271892E-04
        58   -6.304098E-02
        59   -3.376808E-05
        60   -4.073508E-06
        61    3.784159E-05
        62    1.620930E-07