 operating system is UNIX !
 hostname is         dlt13.abaxnet

 dscf (dlt13.abaxnet) : TURBOMOLE V6.6( 19103 ) 21 May 2014 at 15:45:05
 Copyright (C) 2014 TURBOMOLE GmbH, Karlsruhe


    2023-02-12 16:52:52.659 



                             d s c f - program

                   idea & directorship : reinhart ahlrichs
                   program development : marco haeser
                                         michael baer
                           dft version : oliver treutler


                          quantum chemistry group
                          universitaet  karlsruhe
                                  germany




                          References             
                                                 
          TURBOMOLE:                             
              R. Ahlrichs, M. Baer, M. Haeser, H. Horn, and
              C. Koelmel
              Electronic structure calculations on workstation
              computers: the program system TURBOMOLE
              Chem. Phys. Lett. 162: 165 (1989)
          Density Functional:                              
              O. Treutler and R. Ahlrichs                      
              Efficient Molecular Numerical Integration Schemes
              J. Chem. Phys. 102: 346 (1995)                   
          Parallel Version:                                
              Performance of parallel TURBOMOLE for Density    
              Functional Calculations                          
              M. v. Arnim and R. Ahlrichs                      
              J. Comp. Chem. 19: 1746 (1998)                   
                                         




              +--------------------------------------------------+
              | Atomic coordinate, charge and isotop information |
              +--------------------------------------------------+

                    atomic coordinates            atom    charge  isotop
         -1.25887000   -2.28340900   -0.02457990    c      6.000     0
         -2.55765987    0.00000000   -0.02332891    c      6.000     0
         -1.25886811    2.28340900   -0.02458557    c      6.000     0
          1.33197476    2.28513621   -0.02654900    c      6.000     0
          2.68684604    0.00000000   -0.02599153    c      6.000     0
          1.33197287   -2.28513621   -0.02654144    c      6.000     0
         -2.29764679   -4.03839010   -0.02204200    h      1.000     0
         -2.29764490    4.03839199   -0.02205334    h      1.000     0
          2.35112863    4.05729681   -0.02879021    h      1.000     0
          2.35112674   -4.05729681   -0.02877510    h      1.000     0
         -5.27302247    0.00000000   -0.01767484    n      7.000     0
         -6.38128827    2.02693726   -0.01525977    o      8.000     0
         -6.38128449   -2.02693726   -0.01527678    o      8.000     0
          5.24366440    0.00000000   -0.06908484    n      7.000     0
          6.20478667    1.61743927    0.18526851    h      1.000     0
          6.20478478   -1.61744116    0.18526473    h      1.000     0
 
       center of nuclear mass  :   -1.36599444   -0.00000000   -0.02355351
       center of nuclear charge:   -1.22412749   -0.00000000   -0.02072494

   *************************************************************************
   ADC(2) - opt by CAM-B3LYP gaussian                                       
   *************************************************************************



              +--------------------------------------------------+
              |               basis set information              |
              +--------------------------------------------------+

              we will work with the 1s 3p 5d 7f 9g ... basis set
              ...i.e. with spherical basis functions...

   type   atoms  prim   cont   basis
   ---------------------------------------------------------------------------
    c        6     52     37   def2-TZVPD   [6s3p3d1f|12s6p3d1f]
    h        6     11      9   def2-TZVPD   [3s2p|5s2p]
    n        2     52     37   def2-TZVPD   [6s3p3d1f|12s6p3d1f]
    o        2     55     40   def2-TZVPD   [6s4p3d1f|12s7p3d1f]
   ---------------------------------------------------------------------------
   total:   16    592    430
   ---------------------------------------------------------------------------

   total number of primitive shells          :   74
   total number of contracted shells         :  162
   total number of cartesian basis functions :  490
   total number of SCF-basis functions       :  430

 ==============================================================================
                      COSMO switched on
 ==============================================================================
 COSMO: skip init. and read data from file
 This run uses frozen charges (from previous solvent iteration)
 Work to create reaction field =   2.327397917521468E-002

 integral neglect threshold       :  0.68E-11
 integral storage threshold THIZE :  0.10E-04
 integral storage threshold THIME :         5


 DENSITY CONVERGENCE CHECK SWITCHED ON !
 SCF CONVERGENCE IF RMS(delta[D]) <     0.1000000000E-07


 symmetry group of the molecule :   c1 

 the group has the following generators :
   c1(z)

    1 symmetry operations found

 there are 1 real representations :   a   

 maximum number of shells which are related by symmetry :  1


    mo occupation :
   irrep   mo's   occupied
    a      430       36
 
 number of basis functions   :          430
 number of occupied orbitals :           36
 

          ------------------------
          nuclear repulsion energy  :   498.684168833    
          ------------------------

 
          -----------------
          -S,T+V- integrals
          -----------------

 1e-integrals will be neglected if expon. factor < 0.682033E-12
 
   Difference densities algorithm switched on.
   The maximal number of linear combinations of
   difference densities is          20 .

 automatic virtual orbital shift switched on 
      shift if e(lumo)-e(homo) < 0.10000000    


 DIIS switched on: error vector is FDS-SDF
 Max. Iterations for DIIS is     :   5
 DIIS matrix (see manual) 
    Scaling factor of diagonals  :  1.200
    threshold for scaling factor :  0.000

 scf convergence criterion : increment of total energy < .1000000D-06
                  and increment of one-electron energy < .1000000D-03

  MOs are in ASCII format !


 reading orbital data $scfmo  from file mos . 

 orbital characterization : scfconv=7
 

 DSCF restart information will be dumped onto file mos

 COSMO: use frozen qcos
 
                                              current damping :  0.300
 ITERATION  ENERGY          1e-ENERGY        2e-ENERGY     RMS[dD(SAO)]   TOL
   1  -489.42251941597    -1655.9486408     667.84195256    0.000D+00 0.680D-11
                          Ediel =    -0.025793972115
          max. resid. norm for Fia-block=  1.436D-03 for orbital     31a         
          max. resid. fock norm         =  3.292D-03 for orbital    106a         
          Delta Eig. =     0.0734453193 eV 
 COSMO: use frozen qcos
 
                                              current damping :  0.250
 ITERATION  ENERGY          1e-ENERGY        2e-ENERGY     RMS[dD(SAO)]   TOL
   2  -489.42254972067    -1655.9706479     667.86392933    0.330D-03 0.433D-11
                          Ediel =    -0.025586743038
          Norm of current diis error: 0.92145E-02
          max. resid. norm for Fia-block=  5.336D-04 for orbital     36a         
          max. resid. fock norm         =  7.034D-04 for orbital     37a         
          Delta Eig. =     0.0277432643 eV 
 COSMO: use frozen qcos
 
                                              current damping :  0.200
 ITERATION  ENERGY          1e-ENERGY        2e-ENERGY     RMS[dD(SAO)]   TOL
   3  -489.42255599841    -1655.9675448     667.86081999    0.114D-03 0.341D-11
                          Ediel =    -0.025493337869
          Norm of current diis error: 0.44783E-02
          max. resid. norm for Fia-block=  3.256D-04 for orbital     36a         
          max. resid. fock norm         =  4.908D-04 for orbital     37a         
          Delta Eig. =     0.0161080408 eV 
 COSMO: use frozen qcos
 
                                              current damping :  0.250
 ITERATION  ENERGY          1e-ENERGY        2e-ENERGY     RMS[dD(SAO)]   TOL
   4  -489.42255824825    -1655.9691651     667.86243803    0.442D-04 0.292D-11
                          Ediel =    -0.025440336921
          Norm of current diis error: 0.23936E-02
          max. resid. norm for Fia-block=  2.597D-04 for orbital     36a         
          max. resid. fock norm         =  3.051D-04 for orbital     37a         
          Delta Eig. =     0.0046668704 eV 
 COSMO: use frozen qcos
 
                                              current damping :  0.100
 ITERATION  ENERGY          1e-ENERGY        2e-ENERGY     RMS[dD(SAO)]   TOL
   5  -489.42255898504    -1655.9692684     667.86254061    0.119D-04 0.266D-11
                          Ediel =    -0.025412626114
          Norm of current diis error: 0.13557E-02
          max. resid. norm for Fia-block=  1.630D-04 for orbital     36a         
          max. resid. fock norm         =  1.953D-04 for orbital     37a         
 mo-orthogonalization: Cholesky decomposition
          Delta Eig. =     0.0040906957 eV 
 COSMO: use frozen qcos
 
                                              current damping :  0.150
 ITERATION  ENERGY          1e-ENERGY        2e-ENERGY     RMS[dD(SAO)]   TOL
   6  -489.42255928274    -1655.9690594     667.86233127    0.830D-05 0.244D-11
                          Ediel =    -0.025396201052
          Norm of current diis error: 0.62407E-03
          max. resid. norm for Fia-block=  1.004D-04 for orbital     36a         
          max. resid. fock norm         =  1.025D-04 for orbital     37a         
          Delta Eig. =     0.0010896406 eV 
 COSMO: use frozen qcos
 
                                              current damping :  0.100
 ITERATION  ENERGY          1e-ENERGY        2e-ENERGY     RMS[dD(SAO)]   TOL
   7  -489.42255935279    -1655.9690131     667.86228494    0.457D-05 0.230D-11
                          Ediel =    -0.025389612486
          Norm of current diis error: 0.28645E-03
          max. resid. norm for Fia-block=  4.480D-05 for orbital     36a         
          max. resid. fock norm         =  4.524D-05 for orbital     36a         
          Delta Eig. =     0.0010142954 eV 
 COSMO: use frozen qcos
 
                                              current damping :  0.100
 ITERATION  ENERGY          1e-ENERGY        2e-ENERGY     RMS[dD(SAO)]   TOL
   8  -489.42255936664    -1655.9689585     667.86223027    0.200D-05 0.221D-11
                          Ediel =    -0.025387223948
          Norm of current diis error: 0.10458E-03
          max. resid. norm for Fia-block=  1.724D-05 for orbital     36a         
          max. resid. fock norm         =  1.754D-05 for orbital     36a         
          Delta Eig. =     0.0003131594 eV 
 COSMO: use frozen qcos
 
                                              current damping :  0.100
 ITERATION  ENERGY          1e-ENERGY        2e-ENERGY     RMS[dD(SAO)]   TOL
   9  -489.42255936846    -1655.9689386     667.86221036    0.671D-06 0.215D-11
                          Ediel =    -0.025386691997
          Norm of current diis error: 0.37541E-04
          max. resid. norm for Fia-block=  4.762D-06 for orbital     36a         
          max. resid. fock norm         =  7.674D-06 for orbital    187a         
          Delta Eig. =     0.0001309418 eV 
 COSMO: use frozen qcos

 ENERGY & DENSITY CONVERGED !

 
                                              current damping :  0.100
 ITERATION  ENERGY          1e-ENERGY        2e-ENERGY     RMS[dD(SAO)]   TOL
  10  -489.42255936841    -1655.9689377     667.86220954    0.282D-06 0.211D-11
                          Ediel =    -0.025386729689
          max. resid. norm for Fia-block=  1.149D-06 for orbital     36a         
          max. resid. fock norm         =  8.383D-06 for orbital    187a         
 COSMO: write data to file cosmotransfer

 convergence criteria satisfied after 10 iterations


   *************************************************************************
   ADC(2) - opt by CAM-B3LYP gaussian                                       
   *************************************************************************


                  ------------------------------------------ 
                 |  total energy      =   -489.42255936841  |
                  ------------------------------------------ 
                 :  kinetic energy    =    488.91170951304  :
                 :  potential energy  =   -978.33426888145  :
                 :  virial theorem    =      1.99895621923  :
                 :  wavefunction norm =      1.00000000000  :
                  .......................................... 


 orbitals $scfmo  will be written to file mos

    irrep                 32a         33a         34a         35a         36a   
 eigenvalues H         -0.49258    -0.47262    -0.46433    -0.36664    -0.31319
            eV         -13.4038    -12.8606    -12.6352     -9.9770     -8.5224
 occupation              2.0000      2.0000      2.0000      2.0000      2.0000 

    irrep                 37a         38a         39a         40a         41a   
 eigenvalues H          0.04503     0.06823     0.08089     0.08380     0.10348
            eV           1.2253      1.8566      2.2012      2.2802      2.8158
 
 ==============================================================================
                                  COSMO RESULTS
 ==============================================================================
  PARAMETER:
    nppa:      1082
    nspa:        92
    nsph:        32
    nps:        667
    npspher:    311
    disex:   10.0000    
    disex2:  4409.67    
    rsolv [A]: 1.3000
    routf:     0.8500
    phsran:    0.0    
    ampran:   0.10E-04
    cavity:  closed
    epsilon:    46.826
    refind:     1.300
    fepsi:      0.9683049
  CAVITY VOLUME/AREA [a.u.]:
    surface: V1.0, A matrix: V1.0
    area:   572.71
    volume:  1038.17
  SCREENING CHARGE:
    cosmo      :  -0.029855
    correction :   0.029165
    total      :  -0.000690
  ENERGIES [a.u.]:
    Total energy            =     -489.4225593684
    Total energy + OC corr. =     -489.4222178748
    Dielectric energy       =       -0.0253867297
    Diel. energy + OC corr. =       -0.0250452361
  ELEMENT RADIUS [A]: ATOM LIST
    c  2.00: 1-6
    h  1.30: 7-10,15,16
    n  1.83: 11,14
    o  1.72: 12,13
 ==============================================================================
 
 
 
 ==============================================================================
                           electrostatic moments
 ==============================================================================
 
              nuc           elec       ->  total
 ------------------------------------------------------------------------------
                          charge      
 ------------------------------------------------------------------------------
          72.000000     -72.000000      -0.000000
 
 ------------------------------------------------------------------------------
                       dipole moment  
 ------------------------------------------------------------------------------
   x     -88.137179      92.207954       4.070775
   y      -0.000000      -0.000285      -0.000285
   z      -1.492196       1.696492       0.204296
 
   | dipole moment | =     4.0759 a.u. =    10.3599 debye 
 
 ------------------------------------------------------------------------------
                     quadrupole moment
 ------------------------------------------------------------------------------
  xx    1260.122677   -1312.780821     -52.658143
  yy     261.737989    -300.290072     -38.552083
  zz       0.133629     -45.534695     -45.401067
  xy      -0.000007      -0.001198      -0.001205
  xz       1.826606      -0.540177       1.286429
  yz      -0.000007      -0.000218      -0.000225
 
     1/3  trace=     -45.537098
     anisotropy=      12.419422
 
 ==============================================================================
 


    ------------------------------------------------------------------------
         total  cpu-time : 11 minutes and 19 seconds
         total wall-time : 11 minutes and 21 seconds
    ------------------------------------------------------------------------


   ****  dscf : all done  ****


    2023-02-12 17:04:14.129 

