 operating system is UNIX !
 hostname is         dlt13.abaxnet

 dscf (dlt13.abaxnet) : TURBOMOLE V6.6( 19103 ) 21 May 2014 at 15:45:05
 Copyright (C) 2014 TURBOMOLE GmbH, Karlsruhe


    2023-02-12 07:16:15.155 



                             d s c f - program

                   idea & directorship : reinhart ahlrichs
                   program development : marco haeser
                                         michael baer
                           dft version : oliver treutler


                          quantum chemistry group
                          universitaet  karlsruhe
                                  germany




                          References             
                                                 
          TURBOMOLE:                             
              R. Ahlrichs, M. Baer, M. Haeser, H. Horn, and
              C. Koelmel
              Electronic structure calculations on workstation
              computers: the program system TURBOMOLE
              Chem. Phys. Lett. 162: 165 (1989)
          Density Functional:                              
              O. Treutler and R. Ahlrichs                      
              Efficient Molecular Numerical Integration Schemes
              J. Chem. Phys. 102: 346 (1995)                   
          Parallel Version:                                
              Performance of parallel TURBOMOLE for Density    
              Functional Calculations                          
              M. v. Arnim and R. Ahlrichs                      
              J. Comp. Chem. 19: 1746 (1998)                   
                                         




              +--------------------------------------------------+
              | Atomic coordinate, charge and isotop information |
              +--------------------------------------------------+

                    atomic coordinates            atom    charge  isotop
         -1.25887000   -2.28340900   -0.02457990    c      6.000     0
         -2.55765987    0.00000000   -0.02332891    c      6.000     0
         -1.25886811    2.28340900   -0.02458557    c      6.000     0
          1.33197476    2.28513621   -0.02654900    c      6.000     0
          2.68684604    0.00000000   -0.02599153    c      6.000     0
          1.33197287   -2.28513621   -0.02654144    c      6.000     0
         -2.29764679   -4.03839010   -0.02204200    h      1.000     0
         -2.29764490    4.03839199   -0.02205334    h      1.000     0
          2.35112863    4.05729681   -0.02879021    h      1.000     0
          2.35112674   -4.05729681   -0.02877510    h      1.000     0
         -5.27302247    0.00000000   -0.01767484    n      7.000     0
         -6.38128827    2.02693726   -0.01525977    o      8.000     0
         -6.38128449   -2.02693726   -0.01527678    o      8.000     0
          5.24366440    0.00000000   -0.06908484    n      7.000     0
          6.20478667    1.61743927    0.18526851    h      1.000     0
          6.20478478   -1.61744116    0.18526473    h      1.000     0
 
       center of nuclear mass  :   -1.36599444   -0.00000000   -0.02355351
       center of nuclear charge:   -1.22412749   -0.00000000   -0.02072494

   *************************************************************************
   ADC(2) - opt by CAM-B3LYP gaussian                                       
   *************************************************************************



              +--------------------------------------------------+
              |               basis set information              |
              +--------------------------------------------------+

              we will work with the 1s 3p 5d 7f 9g ... basis set
              ...i.e. with spherical basis functions...

   type   atoms  prim   cont   basis
   ---------------------------------------------------------------------------
    c        6     52     37   def2-TZVPD   [6s3p3d1f|12s6p3d1f]
    h        6     11      9   def2-TZVPD   [3s2p|5s2p]
    n        2     52     37   def2-TZVPD   [6s3p3d1f|12s6p3d1f]
    o        2     55     40   def2-TZVPD   [6s4p3d1f|12s7p3d1f]
   ---------------------------------------------------------------------------
   total:   16    592    430
   ---------------------------------------------------------------------------

   total number of primitive shells          :   74
   total number of contracted shells         :  162
   total number of cartesian basis functions :  490
   total number of SCF-basis functions       :  430

 ==============================================================================
                      COSMO switched on
 ==============================================================================
 COSMO stati: segments per atom: H   32 other atoms   92

 symmetry group of the molecule :   c1 

 the group has the following generators :
   c1(z)

    1 symmetry operations found
 COSMO statistics: nps    667 npspher:    311

 symmetry group of the molecule :   c1 

 the group has the following generators :
   c1(z)

    1 symmetry operations found
 COSMO surface:
   number of segments:  667
   area (bohr**2):      572.709528
   volume (bohr**3):   1038.170865
 COSMO: check number of disjunct cavities:

       ... OK contiguous cavity found

 integral neglect threshold       :  0.68E-11
 integral storage threshold THIZE :  0.10E-04
 integral storage threshold THIME :         5


 DENSITY CONVERGENCE CHECK SWITCHED ON !
 SCF CONVERGENCE IF RMS(delta[D]) <     0.1000000000E-07


 symmetry group of the molecule :   c1 

 the group has the following generators :
   c1(z)

    1 symmetry operations found

 there are 1 real representations :   a   

 maximum number of shells which are related by symmetry :  1


    mo occupation :
   irrep   mo's   occupied
    a      430       36
 
 number of basis functions   :          430
 number of occupied orbitals :           36
 

          ------------------------
          nuclear repulsion energy  :   498.684168833    
          ------------------------

 
          -----------------
          -S,T+V- integrals
          -----------------

 1e-integrals will be neglected if expon. factor < 0.682033E-12
 
   Difference densities algorithm switched on.
   The maximal number of linear combinations of
   difference densities is          20 .

 automatic virtual orbital shift switched on 
      shift if e(lumo)-e(homo) < 0.10000000    


 DIIS switched on: error vector is FDS-SDF
 Max. Iterations for DIIS is     :   5
 DIIS matrix (see manual) 
    Scaling factor of diagonals  :  1.200
    threshold for scaling factor :  0.000

 scf convergence criterion : increment of total energy < .1000000D-06
                  and increment of one-electron energy < .1000000D-03


 <geterg> : there is no data group $energy 

  MOs are in ASCII format !


 reading orbital data $scfmo  from file mos . 

 orbital characterization : expanded
 
 mo provided and orthogonalized by Cholesky decomposition

 DSCF restart information will be dumped onto file mos

 
                                              current damping :  0.300
 ITERATION  ENERGY          1e-ENERGY        2e-ENERGY     RMS[dD(SAO)]   TOL
   1  -487.45997225306    -1642.2030923     656.05895120    0.000D+00 0.680D-11
                          Ediel =    -0.078970536438
          max. resid. norm for Fia-block=  4.104D-01 for orbital     22a         
          max. resid. fock norm         =  1.095D+01 for orbital    296a         
          Delta Eig. =   933.4510142375 eV 
 
                                              current damping :  0.250
 ITERATION  ENERGY          1e-ENERGY        2e-ENERGY     RMS[dD(SAO)]   TOL
   2  -489.21482257745    -1654.4087391     666.50974765    0.481D-01 0.672D-11
                          Ediel =    -0.037407684349
          Norm of current diis error:  2.5342    
          max. resid. norm for Fia-block=  1.494D-01 for orbital     11a         
          max. resid. fock norm         =  3.259D-01 for orbital    415a         
          Delta Eig. =   212.6215870648 eV 
 
                                              current damping :  0.150
 ITERATION  ENERGY          1e-ENERGY        2e-ENERGY     RMS[dD(SAO)]   TOL
   3  -489.37931323330    -1655.4566004     667.39311837    0.119D-01 0.442D-11
                          Ediel =    -0.032754606316
          Norm of current diis error: 0.98432    
          max. resid. norm for Fia-block=  6.083D-02 for orbital     24a         
          max. resid. fock norm         =  6.782D-02 for orbital     24a         
          Delta Eig. =    50.1868792013 eV 
 
                                              current damping :  0.100
 ITERATION  ENERGY          1e-ENERGY        2e-ENERGY     RMS[dD(SAO)]   TOL
   4  -489.41777537684    -1655.7561393     667.65419508    0.346D-02 0.346D-11
                          Ediel =    -0.028232453947
          Norm of current diis error: 0.27652    
          max. resid. norm for Fia-block=  1.740D-02 for orbital     22a         
          max. resid. fock norm         =  1.976D-02 for orbital     11a         
          Delta Eig. =     5.8337808608 eV 
 
                                              current damping :  0.100
 ITERATION  ENERGY          1e-ENERGY        2e-ENERGY     RMS[dD(SAO)]   TOL
   5  -489.42200420833    -1655.9869590     667.88078599    0.100D-02 0.310D-11
                          Ediel =    -0.027411454557
          Norm of current diis error: 0.82990E-01
          max. resid. norm for Fia-block=  6.505D-03 for orbital     36a         
          max. resid. fock norm         =  7.973D-03 for orbital    425a         
 mo-orthogonalization: Cholesky decomposition
          Delta Eig. =     0.6085617238 eV 
 
                                              current damping :  0.150
 ITERATION  ENERGY          1e-ENERGY        2e-ENERGY     RMS[dD(SAO)]   TOL
   6  -489.42263385859    -1655.9561393     667.84933662    0.331D-03 0.289D-11
                          Ediel =    -0.026919134390
          Norm of current diis error: 0.35626E-01
          max. resid. norm for Fia-block=  3.935D-03 for orbital     36a         
          max. resid. fock norm         =  4.081D-03 for orbital     36a         
          Delta Eig. =     0.0946736550 eV 
 
                                              current damping :  0.100
 ITERATION  ENERGY          1e-ENERGY        2e-ENERGY     RMS[dD(SAO)]   TOL
   7  -489.42279259257    -1655.9534742     667.84651277    0.170D-03 0.272D-11
                          Ediel =    -0.026581232437
          Norm of current diis error: 0.17311E-01
          max. resid. norm for Fia-block=  2.221D-03 for orbital     36a         
          max. resid. fock norm         =  2.317D-03 for orbital     36a         
          Delta Eig. =     0.0528136565 eV 
 
                                              current damping :  0.150
 ITERATION  ENERGY          1e-ENERGY        2e-ENERGY     RMS[dD(SAO)]   TOL
   8  -489.42283422834    -1655.9548844     667.84788138    0.932D-04 0.256D-11
                          Ediel =    -0.026363624115
          Norm of current diis error: 0.62852E-02
          max. resid. norm for Fia-block=  9.224D-04 for orbital     36a         
          max. resid. fock norm         =  9.413D-04 for orbital     36a         
          Delta Eig. =     0.0188518841 eV 
 
                                              current damping :  0.200
 ITERATION  ENERGY          1e-ENERGY        2e-ENERGY     RMS[dD(SAO)]   TOL
   9  -489.42284029744    -1655.9506610     667.84365191    0.311D-04 0.246D-11
                          Ediel =    -0.026238558506
          Norm of current diis error: 0.27095E-02
          max. resid. norm for Fia-block=  4.109D-04 for orbital     36a         
          max. resid. fock norm         =  4.175D-04 for orbital     36a         
          Delta Eig. =     0.0065686652 eV 
 
                                              current damping :  0.100
 ITERATION  ENERGY          1e-ENERGY        2e-ENERGY     RMS[dD(SAO)]   TOL
  10  -489.42284143282    -1655.9500316     667.84302135    0.113D-04 0.238D-11
                          Ediel =    -0.026180803785
          Norm of current diis error: 0.12589E-02
          max. resid. norm for Fia-block=  2.189D-04 for orbital     36a         
          max. resid. fock norm         =  2.199D-04 for orbital     36a         
 mo-orthogonalization: Cholesky decomposition
          Delta Eig. =     0.0026511391 eV 
 
                                              current damping :  0.100
 ITERATION  ENERGY          1e-ENERGY        2e-ENERGY     RMS[dD(SAO)]   TOL
  11  -489.42284173771    -1655.9494294     667.84241885    0.654D-05 0.228D-11
                          Ediel =    -0.026143452947
          Norm of current diis error: 0.57978E-03
          max. resid. norm for Fia-block=  9.996D-05 for orbital     36a         
          max. resid. fock norm         =  1.044D-04 for orbital     37a         
          Delta Eig. =     0.0018318662 eV 
 
                                              current damping :  0.100
 ITERATION  ENERGY          1e-ENERGY        2e-ENERGY     RMS[dD(SAO)]   TOL
  12  -489.42284180418    -1655.9490758     667.84206515    0.316D-05 0.219D-11
                          Ediel =    -0.026126662859
          Norm of current diis error: 0.27518E-03
          max. resid. norm for Fia-block=  4.701D-05 for orbital     36a         
          max. resid. fock norm         =  4.768D-05 for orbital     36a         
          Delta Eig. =     0.0010862204 eV 
 
                                              current damping :  0.100
 ITERATION  ENERGY          1e-ENERGY        2e-ENERGY     RMS[dD(SAO)]   TOL
  13  -489.42284181854    -1655.9490049     667.84199429    0.136D-05 0.212D-11
                          Ediel =    -0.026120370155
          Norm of current diis error: 0.15125E-03
          max. resid. norm for Fia-block=  2.306D-05 for orbital     36a         
          max. resid. fock norm         =  2.493D-05 for orbital     37a         
          Delta Eig. =     0.0006302342 eV 
 
                                              current damping :  0.100
 ITERATION  ENERGY          1e-ENERGY        2e-ENERGY     RMS[dD(SAO)]   TOL
  14  -489.42284182273    -1655.9489771     667.84196640    0.808D-06 0.205D-11
                          Ediel =    -0.026117352171
          Norm of current diis error: 0.75118E-04
          max. resid. norm for Fia-block=  1.129D-05 for orbital     36a         
          max. resid. fock norm         =  1.879D-05 for orbital    187a         
          Delta Eig. =     0.0002681512 eV 
 
                                              current damping :  0.100
 ITERATION  ENERGY          1e-ENERGY        2e-ENERGY     RMS[dD(SAO)]   TOL
  15  -489.42284182262    -1655.9489538     667.84194316    0.416D-06 0.199D-11
                          Ediel =    -0.026116551343
          Norm of current diis error: 0.32881E-04
          max. resid. norm for Fia-block=  4.497D-06 for orbital     35a         
          max. resid. fock norm         =  1.910D-05 for orbital    187a         
 mo-orthogonalization: Cholesky decomposition
          Delta Eig. =     0.0001449484 eV 
 
                                              current damping :  0.150
 ITERATION  ENERGY          1e-ENERGY        2e-ENERGY     RMS[dD(SAO)]   TOL
  16  -489.42284182211    -1655.9489627     667.84195205    0.346D-06 0.194D-11
                          Ediel =    -0.026116306663
          Norm of current diis error: 0.14397E-04
          max. resid. norm for Fia-block=  2.540D-06 for orbital     35a         
          max. resid. fock norm         =  1.760D-05 for orbital    187a         
          Delta Eig. =     0.0001192900 eV 

 ENERGY & DENSITY CONVERGED !

 
                                              current damping :  0.100
 ITERATION  ENERGY          1e-ENERGY        2e-ENERGY     RMS[dD(SAO)]   TOL
  17  -489.42284182194    -1655.9489628     667.84195215    0.333D-06 0.194D-11
                          Ediel =    -0.026116330885
          max. resid. norm for Fia-block=  4.834D-07 for orbital     22a         
          max. resid. fock norm         =  8.652D-06 for orbital    187a         
 COSMO: write data to file cosmo_transfer.tmp

 convergence criteria satisfied after 17 iterations


   *************************************************************************
   ADC(2) - opt by CAM-B3LYP gaussian                                       
   *************************************************************************


                  ------------------------------------------ 
                 |  total energy      =   -489.42284182194  |
                  ------------------------------------------ 
                 :  kinetic energy    =    488.91133164593  :
                 :  potential energy  =   -978.33417346786  :
                 :  virial theorem    =      1.99895487065  :
                 :  wavefunction norm =      1.00000000000  :
                  .......................................... 


 <geterg> : there is no data group $energy 


 <skperg> : $end is missing 


 orbitals $scfmo  will be written to file mos

    irrep                 32a         33a         34a         35a         36a   
 eigenvalues H         -0.49423    -0.47189    -0.46702    -0.36571    -0.31286
            eV         -13.4489    -12.8410    -12.7084     -9.9516     -8.5135
 occupation              2.0000      2.0000      2.0000      2.0000      2.0000 

    irrep                 37a         38a         39a         40a         41a   
 eigenvalues H          0.04404     0.06778     0.08023     0.08361     0.10289
            eV           1.1985      1.8444      2.1831      2.2751      2.7999
 
 ==============================================================================
                                  COSMO RESULTS
 ==============================================================================
  PARAMETER:
    nppa:      1082
    nspa:        92
    nsph:        32
    nps:        667
    npspher:    311
    disex:   10.0000    
    disex2:  4409.67    
    rsolv [A]: 1.3000
    routf:     0.8500
    phsran:    0.0    
    ampran:   0.10E-04
    cavity:  closed
    epsilon:    46.826
    refind:     1.300
    fepsi:      0.9683049
  CAVITY VOLUME/AREA [a.u.]:
    surface: V1.0, A matrix: V1.0
    area:   572.71
    volume:  1038.17
  SCREENING CHARGE:
    cosmo      :  -0.025642
    correction :   0.024867
    total      :  -0.000775
  ENERGIES [a.u.]:
    Total energy            =     -489.4228418219
    Total energy + OC corr. =     -489.4231289248
    Dielectric energy       =       -0.0261163309
    Diel. energy + OC corr. =       -0.0264034337
  ELEMENT RADIUS [A]: ATOM LIST
    c  2.00: 1-6
    h  1.30: 7-10,15,16
    n  1.83: 11,14
    o  1.72: 12,13
 ==============================================================================
 
 
 
 ==============================================================================
                           electrostatic moments
 ==============================================================================
 
              nuc           elec       ->  total
 ------------------------------------------------------------------------------
                          charge      
 ------------------------------------------------------------------------------
          72.000000     -72.000000      -0.000000
 
 ------------------------------------------------------------------------------
                       dipole moment  
 ------------------------------------------------------------------------------
   x     -88.137179      92.248985       4.111806
   y      -0.000000      -0.000454      -0.000454
   z      -1.492196       1.698378       0.206182
 
   | dipole moment | =     4.1170 a.u. =    10.4643 debye 
 
 ------------------------------------------------------------------------------
                     quadrupole moment
 ------------------------------------------------------------------------------
  xx    1260.122677   -1313.230854     -53.108177
  yy     261.737989    -300.269200     -38.531211
  zz       0.133629     -45.526528     -45.392899
  xy      -0.000007      -0.001297      -0.001304
  xz       1.826606      -0.531543       1.295064
  yz      -0.000007      -0.000585      -0.000592
 
     1/3  trace=     -45.677429
     anisotropy=      12.828861
 
 ==============================================================================
 


    ------------------------------------------------------------------------
         total  cpu-time : 19 minutes and 58 seconds
         total wall-time : 20 minutes and  0 seconds
    ------------------------------------------------------------------------


   ****  dscf : all done  ****


    2023-02-12 07:36:14.836 

