 operating system is UNIX !
 hostname is         dlt13.abaxnet

 dscf (dlt13.abaxnet) : TURBOMOLE V6.6( 19103 ) 21 May 2014 at 15:45:05
 Copyright (C) 2014 TURBOMOLE GmbH, Karlsruhe


    2023-02-13 11:24:04.719 



                             d s c f - program

                   idea & directorship : reinhart ahlrichs
                   program development : marco haeser
                                         michael baer
                           dft version : oliver treutler


                          quantum chemistry group
                          universitaet  karlsruhe
                                  germany




                          References             
                                                 
          TURBOMOLE:                             
              R. Ahlrichs, M. Baer, M. Haeser, H. Horn, and
              C. Koelmel
              Electronic structure calculations on workstation
              computers: the program system TURBOMOLE
              Chem. Phys. Lett. 162: 165 (1989)
          Density Functional:                              
              O. Treutler and R. Ahlrichs                      
              Efficient Molecular Numerical Integration Schemes
              J. Chem. Phys. 102: 346 (1995)                   
          Parallel Version:                                
              Performance of parallel TURBOMOLE for Density    
              Functional Calculations                          
              M. v. Arnim and R. Ahlrichs                      
              J. Comp. Chem. 19: 1746 (1998)                   
                                         




              +--------------------------------------------------+
              | Atomic coordinate, charge and isotop information |
              +--------------------------------------------------+

                    atomic coordinates            atom    charge  isotop
         -1.25887000   -2.28340900   -0.02457990    c      6.000     0
         -2.55765987    0.00000000   -0.02332891    c      6.000     0
         -1.25886811    2.28340900   -0.02458557    c      6.000     0
          1.33197476    2.28513621   -0.02654900    c      6.000     0
          2.68684604    0.00000000   -0.02599153    c      6.000     0
          1.33197287   -2.28513621   -0.02654144    c      6.000     0
         -2.29764679   -4.03839010   -0.02204200    h      1.000     0
         -2.29764490    4.03839199   -0.02205334    h      1.000     0
          2.35112863    4.05729681   -0.02879021    h      1.000     0
          2.35112674   -4.05729681   -0.02877510    h      1.000     0
         -5.27302247    0.00000000   -0.01767484    n      7.000     0
         -6.38128827    2.02693726   -0.01525977    o      8.000     0
         -6.38128449   -2.02693726   -0.01527678    o      8.000     0
          5.24366440    0.00000000   -0.06908484    n      7.000     0
          6.20478667    1.61743927    0.18526851    h      1.000     0
          6.20478478   -1.61744116    0.18526473    h      1.000     0
 
       center of nuclear mass  :   -1.36599444   -0.00000000   -0.02355351
       center of nuclear charge:   -1.22412749   -0.00000000   -0.02072494

   *************************************************************************
   ADC(2) - opt by CAM-B3LYP gaussian                                       
   *************************************************************************



              +--------------------------------------------------+
              |               basis set information              |
              +--------------------------------------------------+

              we will work with the 1s 3p 5d 7f 9g ... basis set
              ...i.e. with spherical basis functions...

   type   atoms  prim   cont   basis
   ---------------------------------------------------------------------------
    c        6     52     37   def2-TZVPD   [6s3p3d1f|12s6p3d1f]
    h        6     11      9   def2-TZVPD   [3s2p|5s2p]
    n        2     52     37   def2-TZVPD   [6s3p3d1f|12s6p3d1f]
    o        2     55     40   def2-TZVPD   [6s4p3d1f|12s7p3d1f]
   ---------------------------------------------------------------------------
   total:   16    592    430
   ---------------------------------------------------------------------------

   total number of primitive shells          :   74
   total number of contracted shells         :  162
   total number of cartesian basis functions :  490
   total number of SCF-basis functions       :  430

 ==============================================================================
                      COSMO switched on
 ==============================================================================
 COSMO: skip init. and read data from file
 This run uses frozen charges (from previous solvent iteration)
 Work to create reaction field =   2.266952993094746E-002

 integral neglect threshold       :  0.68E-11
 integral storage threshold THIZE :  0.10E-04
 integral storage threshold THIME :         5


 DENSITY CONVERGENCE CHECK SWITCHED ON !
 SCF CONVERGENCE IF RMS(delta[D]) <     0.1000000000E-07


 symmetry group of the molecule :   c1 

 the group has the following generators :
   c1(z)

    1 symmetry operations found

 there are 1 real representations :   a   

 maximum number of shells which are related by symmetry :  1


    mo occupation :
   irrep   mo's   occupied
    a      430       36
 
 number of basis functions   :          430
 number of occupied orbitals :           36
 

          ------------------------
          nuclear repulsion energy  :   498.684168833    
          ------------------------

 
          -----------------
          -S,T+V- integrals
          -----------------

 1e-integrals will be neglected if expon. factor < 0.682033E-12
 
   Difference densities algorithm switched on.
   The maximal number of linear combinations of
   difference densities is          20 .

 automatic virtual orbital shift switched on 
      shift if e(lumo)-e(homo) < 0.10000000    


 DIIS switched on: error vector is FDS-SDF
 Max. Iterations for DIIS is     :   5
 DIIS matrix (see manual) 
    Scaling factor of diagonals  :  1.200
    threshold for scaling factor :  0.000

 scf convergence criterion : increment of total energy < .1000000D-06
                  and increment of one-electron energy < .1000000D-03

  MOs are in ASCII format !


 reading orbital data $scfmo  from file mos . 

 orbital characterization : scfconv=7
 

 DSCF restart information will be dumped onto file mos

 COSMO: use frozen qcos
 
                                              current damping :  0.300
 ITERATION  ENERGY          1e-ENERGY        2e-ENERGY     RMS[dD(SAO)]   TOL
   1  -489.42246539824    -1655.9722922     667.86565796    0.000D+00 0.680D-11
                          Ediel =    -0.025187081234
          max. resid. norm for Fia-block=  8.488D-05 for orbital     31a         
          max. resid. fock norm         =  1.978D-04 for orbital    120a         
          Delta Eig. =     0.0044043559 eV 
 COSMO: use frozen qcos
 
                                              current damping :  0.300
 ITERATION  ENERGY          1e-ENERGY        2e-ENERGY     RMS[dD(SAO)]   TOL
   2  -489.42246548596    -1655.9729255     667.86629118    0.866D-05 0.431D-11
                          Ediel =    -0.025168748900
          Norm of current diis error: 0.43086E-03
          max. resid. norm for Fia-block=  3.389D-05 for orbital     31a         
          max. resid. fock norm         =  4.194D-05 for orbital    301a         
          Delta Eig. =     0.0018139066 eV 
 COSMO: use frozen qcos
 
                                              current damping :  0.350
 ITERATION  ENERGY          1e-ENERGY        2e-ENERGY     RMS[dD(SAO)]   TOL
   3  -489.42246550117    -1655.9727859     667.86615153    0.267D-05 0.345D-11
                          Ediel =    -0.025162844111
          Norm of current diis error: 0.18827E-03
          max. resid. norm for Fia-block=  2.127D-05 for orbital     36a         
          max. resid. fock norm         =  2.544D-05 for orbital     37a         
          Delta Eig. =     0.0003340130 eV 
 COSMO: use frozen qcos
 
                                              current damping :  0.400
 ITERATION  ENERGY          1e-ENERGY        2e-ENERGY     RMS[dD(SAO)]   TOL
   4  -489.42246550578    -1655.9728239     667.86618954    0.105D-05 0.297D-11
                          Ediel =    -0.025159333160
          Norm of current diis error: 0.10631E-03
          max. resid. norm for Fia-block=  1.342D-05 for orbital     36a         
          max. resid. fock norm         =  1.624D-05 for orbital     37a         
          Delta Eig. =     0.0002653713 eV 
 COSMO: use frozen qcos
 
                                              current damping :  0.450
 ITERATION  ENERGY          1e-ENERGY        2e-ENERGY     RMS[dD(SAO)]   TOL
   5  -489.42246550676    -1655.9728141     667.86617977    0.576D-06 0.265D-11
                          Ediel =    -0.025157631959
          Norm of current diis error: 0.60232E-04
          max. resid. norm for Fia-block=  9.112D-06 for orbital     36a         
          max. resid. fock norm         =  1.400D-05 for orbital    187a         
 mo-orthogonalization: Cholesky decomposition
          Delta Eig. =     0.0001331403 eV 
 COSMO: use frozen qcos

 ENERGY & DENSITY CONVERGED !

 
                                              current damping :  0.300
 ITERATION  ENERGY          1e-ENERGY        2e-ENERGY     RMS[dD(SAO)]   TOL
   6  -489.42246550573    -1655.9728105     667.86617617    0.446D-06 0.241D-11
                          Ediel =    -0.025156724379
          max. resid. norm for Fia-block=  3.013D-06 for orbital     36a         
          max. resid. fock norm         =  2.669D-05 for orbital    190a         
 COSMO: write data to file cosmotransfer

 convergence criteria satisfied after  6 iterations


   *************************************************************************
   ADC(2) - opt by CAM-B3LYP gaussian                                       
   *************************************************************************


                  ------------------------------------------ 
                 |  total energy      =   -489.42246550573  |
                  ------------------------------------------ 
                 :  kinetic energy    =    488.91174569200  :
                 :  potential energy  =   -978.33421119773  :
                 :  virial theorem    =      1.99895648474  :
                 :  wavefunction norm =      1.00000000000  :
                  .......................................... 


 orbitals $scfmo  will be written to file mos

    irrep                 32a         33a         34a         35a         36a   
 eigenvalues H         -0.49223    -0.47297    -0.46376    -0.36709    -0.31350
            eV         -13.3943    -12.8702    -12.6195     -9.9892     -8.5309
 occupation              2.0000      2.0000      2.0000      2.0000      2.0000 

    irrep                 37a         38a         39a         40a         41a   
 eigenvalues H          0.04518     0.06819     0.08095     0.08372     0.10348
            eV           1.2293      1.8556      2.2027      2.2782      2.8158
 
 ==============================================================================
                                  COSMO RESULTS
 ==============================================================================
  PARAMETER:
    nppa:      1082
    nspa:        92
    nsph:        32
    nps:        667
    npspher:    311
    disex:   10.0000    
    disex2:  4409.67    
    rsolv [A]: 1.3000
    routf:     0.8500
    phsran:    0.0    
    ampran:   0.10E-04
    cavity:  closed
    epsilon:    46.826
    refind:     1.300
    fepsi:      0.9683049
  CAVITY VOLUME/AREA [a.u.]:
    surface: V1.0, A matrix: V1.0
    area:   572.71
    volume:  1038.17
  SCREENING CHARGE:
    cosmo      :  -0.029775
    correction :   0.029100
    total      :  -0.000675
  ENERGIES [a.u.]:
    Total energy            =     -489.4224655057
    Total energy + OC corr. =     -489.4221041341
    Dielectric energy       =       -0.0251567244
    Diel. energy + OC corr. =       -0.0247953528
  ELEMENT RADIUS [A]: ATOM LIST
    c  2.00: 1-6
    h  1.30: 7-10,15,16
    n  1.83: 11,14
    o  1.72: 12,13
 ==============================================================================
 
 
 
 ==============================================================================
                           electrostatic moments
 ==============================================================================
 
              nuc           elec       ->  total
 ------------------------------------------------------------------------------
                          charge      
 ------------------------------------------------------------------------------
          72.000000     -72.000000      -0.000000
 
 ------------------------------------------------------------------------------
                       dipole moment  
 ------------------------------------------------------------------------------
   x     -88.137179      92.191052       4.053873
   y      -0.000000      -0.000169      -0.000169
   z      -1.492196       1.695780       0.203584
 
   | dipole moment | =     4.0590 a.u. =    10.3169 debye 
 
 ------------------------------------------------------------------------------
                     quadrupole moment
 ------------------------------------------------------------------------------
  xx    1260.122677   -1312.652572     -52.529895
  yy     261.737989    -300.296268     -38.558279
  zz       0.133629     -45.539107     -45.405479
  xy      -0.000007      -0.001217      -0.001224
  xz       1.826606      -0.541970       1.284636
  yz      -0.000007      -0.000113      -0.000120
 
     1/3  trace=     -45.497884
     anisotropy=      12.303439
 
 ==============================================================================
 


    ------------------------------------------------------------------------
         total  cpu-time :  6 minutes and 32 seconds
         total wall-time :  6 minutes and 33 seconds
    ------------------------------------------------------------------------


   ****  dscf : all done  ****


    2023-02-13 11:30:37.925 

