[Molden Format]
[Title]
ADC(2) - opt by CAM-B3LYP gaussian                                              
[Atoms] AU
 c     1    6 -.12594776649128E+01 -.22773101438193E+01 -.39940542897370E-01
 c     2    6 -.25470425655544E+01 -.11810788300000E-05 -.37653974276580E-01
 c     3    6 -.12594776649128E+01 0.22773077816617E+01 -.39959440158700E-01
 c     4    6 0.13393870965995E+01 0.22758904870620E+01 -.43795584208460E-01
 c     5    6 0.26846831306008E+01 -.11810788300000E-05 -.44211323957690E-01
 c     6    6 0.13394059938609E+01 -.22758928492196E+01 -.43776686947130E-01
 h     7    1 -.23144739703802E+01 -.40231336316857E+01 -.37313823572660E-01
 h     8    1 -.23144739703802E+01 0.40231312695281E+01 -.37332720833990E-01
 h     9    1 0.23577983041343E+01 0.40499086888311E+01 -.52469427158400E-01
 h    10    1 0.23577983041343E+01 -.40498921537274E+01 -.52431632635740E-01
 n    11    7 -.52968964450843E+01 -.11810788300000E-05 -.29906097131750E-01
 o    12    8 -.63725096626615E+01 0.20302827815708E+01 -.26599076399200E-01
 o    13    8 -.63725096626615E+01 -.20302851437285E+01 -.26655768183180E-01
 n    14    7 0.52734000627795E+01 -.11810788300000E-05 -.11796733492422E+00
 h    15    1 0.61922038058499E+01 0.16034881344586E+01 0.31500671664254E+00
 h    16    1 0.61921849085885E+01 -.16034904966163E+01 0.31500671664254E+00
[GTO]
    1 0
 s    6 1.00
 0.13575349682000E+05 0.60645503603591E-03
 0.20352333680000E+04 0.46979088884982E-02
 0.46322562359000E+03 0.24332477647552E-01
 0.13120019598000E+03 0.97399968307759E-01
 0.42853015891000E+02 0.30195584253780E+00
 0.15584185766000E+02 0.66233609137875E+00
 s    2 1.00
 0.62067138508000E+01 0.65595308539952E+00
 0.25764896527000E+01 0.37585633285142E+00
 s    1 1.00
 0.57696339419000E+00 0.10000000000000E+01
 s    1 1.00
 0.22972831358000E+00 0.10000000000000E+01
 s    1 1.00
 0.95164440028000E-01 0.10000000000000E+01
 s    1 1.00
 0.48475401370000E-01 0.10000000000000E+01
 p    4 1.00
 0.34697232244000E+02 0.11327220003114E-01
 0.79582622826000E+01 0.76169659202087E-01
 0.23780826883000E+01 0.30192252202676E+00
 0.81433208183000E+00 0.72785027349547E+00
 p    1 1.00
 0.28887547253000E+00 0.10000000000000E+01
 p    1 1.00
 0.10056823671000E+00 0.10000000000000E+01
 d    1 1.00
 0.10970000000000E+01 0.10000000000000E+01
 d    1 1.00
 0.31800000000000E+00 0.10000000000000E+01
 d    1 1.00
 0.90985336424000E-01 0.10000000000000E+01
 f    1 1.00
 0.76100000000000E+00 0.10000000000000E+01
 
    2 0
 s    6 1.00
 0.13575349682000E+05 0.60645503603591E-03
 0.20352333680000E+04 0.46979088884982E-02
 0.46322562359000E+03 0.24332477647552E-01
 0.13120019598000E+03 0.97399968307759E-01
 0.42853015891000E+02 0.30195584253780E+00
 0.15584185766000E+02 0.66233609137875E+00
 s    2 1.00
 0.62067138508000E+01 0.65595308539952E+00
 0.25764896527000E+01 0.37585633285142E+00
 s    1 1.00
 0.57696339419000E+00 0.10000000000000E+01
 s    1 1.00
 0.22972831358000E+00 0.10000000000000E+01
 s    1 1.00
 0.95164440028000E-01 0.10000000000000E+01
 s    1 1.00
 0.48475401370000E-01 0.10000000000000E+01
 p    4 1.00
 0.34697232244000E+02 0.11327220003114E-01
 0.79582622826000E+01 0.76169659202087E-01
 0.23780826883000E+01 0.30192252202676E+00
 0.81433208183000E+00 0.72785027349547E+00
 p    1 1.00
 0.28887547253000E+00 0.10000000000000E+01
 p    1 1.00
 0.10056823671000E+00 0.10000000000000E+01
 d    1 1.00
 0.10970000000000E+01 0.10000000000000E+01
 d    1 1.00
 0.31800000000000E+00 0.10000000000000E+01
 d    1 1.00
 0.90985336424000E-01 0.10000000000000E+01
 f    1 1.00
 0.76100000000000E+00 0.10000000000000E+01
 
    3 0
 s    6 1.00
 0.13575349682000E+05 0.60645503603591E-03
 0.20352333680000E+04 0.46979088884982E-02
 0.46322562359000E+03 0.24332477647552E-01
 0.13120019598000E+03 0.97399968307759E-01
 0.42853015891000E+02 0.30195584253780E+00
 0.15584185766000E+02 0.66233609137875E+00
 s    2 1.00
 0.62067138508000E+01 0.65595308539952E+00
 0.25764896527000E+01 0.37585633285142E+00
 s    1 1.00
 0.57696339419000E+00 0.10000000000000E+01
 s    1 1.00
 0.22972831358000E+00 0.10000000000000E+01
 s    1 1.00
 0.95164440028000E-01 0.10000000000000E+01
 s    1 1.00
 0.48475401370000E-01 0.10000000000000E+01
 p    4 1.00
 0.34697232244000E+02 0.11327220003114E-01
 0.79582622826000E+01 0.76169659202087E-01
 0.23780826883000E+01 0.30192252202676E+00
 0.81433208183000E+00 0.72785027349547E+00
 p    1 1.00
 0.28887547253000E+00 0.10000000000000E+01
 p    1 1.00
 0.10056823671000E+00 0.10000000000000E+01
 d    1 1.00
 0.10970000000000E+01 0.10000000000000E+01
 d    1 1.00
 0.31800000000000E+00 0.10000000000000E+01
 d    1 1.00
 0.90985336424000E-01 0.10000000000000E+01
 f    1 1.00
 0.76100000000000E+00 0.10000000000000E+01
 
    4 0
 s    6 1.00
 0.13575349682000E+05 0.60645503603591E-03
 0.20352333680000E+04 0.46979088884982E-02
 0.46322562359000E+03 0.24332477647552E-01
 0.13120019598000E+03 0.97399968307759E-01
 0.42853015891000E+02 0.30195584253780E+00
 0.15584185766000E+02 0.66233609137875E+00
 s    2 1.00
 0.62067138508000E+01 0.65595308539952E+00
 0.25764896527000E+01 0.37585633285142E+00
 s    1 1.00
 0.57696339419000E+00 0.10000000000000E+01
 s    1 1.00
 0.22972831358000E+00 0.10000000000000E+01
 s    1 1.00
 0.95164440028000E-01 0.10000000000000E+01
 s    1 1.00
 0.48475401370000E-01 0.10000000000000E+01
 p    4 1.00
 0.34697232244000E+02 0.11327220003114E-01
 0.79582622826000E+01 0.76169659202087E-01
 0.23780826883000E+01 0.30192252202676E+00
 0.81433208183000E+00 0.72785027349547E+00
 p    1 1.00
 0.28887547253000E+00 0.10000000000000E+01
 p    1 1.00
 0.10056823671000E+00 0.10000000000000E+01
 d    1 1.00
 0.10970000000000E+01 0.10000000000000E+01
 d    1 1.00
 0.31800000000000E+00 0.10000000000000E+01
 d    1 1.00
 0.90985336424000E-01 0.10000000000000E+01
 f    1 1.00
 0.76100000000000E+00 0.10000000000000E+01
 
    5 0
 s    6 1.00
 0.13575349682000E+05 0.60645503603591E-03
 0.20352333680000E+04 0.46979088884982E-02
 0.46322562359000E+03 0.24332477647552E-01
 0.13120019598000E+03 0.97399968307759E-01
 0.42853015891000E+02 0.30195584253780E+00
 0.15584185766000E+02 0.66233609137875E+00
 s    2 1.00
 0.62067138508000E+01 0.65595308539952E+00
 0.25764896527000E+01 0.37585633285142E+00
 s    1 1.00
 0.57696339419000E+00 0.10000000000000E+01
 s    1 1.00
 0.22972831358000E+00 0.10000000000000E+01
 s    1 1.00
 0.95164440028000E-01 0.10000000000000E+01
 s    1 1.00
 0.48475401370000E-01 0.10000000000000E+01
 p    4 1.00
 0.34697232244000E+02 0.11327220003114E-01
 0.79582622826000E+01 0.76169659202087E-01
 0.23780826883000E+01 0.30192252202676E+00
 0.81433208183000E+00 0.72785027349547E+00
 p    1 1.00
 0.28887547253000E+00 0.10000000000000E+01
 p    1 1.00
 0.10056823671000E+00 0.10000000000000E+01
 d    1 1.00
 0.10970000000000E+01 0.10000000000000E+01
 d    1 1.00
 0.31800000000000E+00 0.10000000000000E+01
 d    1 1.00
 0.90985336424000E-01 0.10000000000000E+01
 f    1 1.00
 0.76100000000000E+00 0.10000000000000E+01
 
    6 0
 s    6 1.00
 0.13575349682000E+05 0.60645503603591E-03
 0.20352333680000E+04 0.46979088884982E-02
 0.46322562359000E+03 0.24332477647552E-01
 0.13120019598000E+03 0.97399968307759E-01
 0.42853015891000E+02 0.30195584253780E+00
 0.15584185766000E+02 0.66233609137875E+00
 s    2 1.00
 0.62067138508000E+01 0.65595308539952E+00
 0.25764896527000E+01 0.37585633285142E+00
 s    1 1.00
 0.57696339419000E+00 0.10000000000000E+01
 s    1 1.00
 0.22972831358000E+00 0.10000000000000E+01
 s    1 1.00
 0.95164440028000E-01 0.10000000000000E+01
 s    1 1.00
 0.48475401370000E-01 0.10000000000000E+01
 p    4 1.00
 0.34697232244000E+02 0.11327220003114E-01
 0.79582622826000E+01 0.76169659202087E-01
 0.23780826883000E+01 0.30192252202676E+00
 0.81433208183000E+00 0.72785027349547E+00
 p    1 1.00
 0.28887547253000E+00 0.10000000000000E+01
 p    1 1.00
 0.10056823671000E+00 0.10000000000000E+01
 d    1 1.00
 0.10970000000000E+01 0.10000000000000E+01
 d    1 1.00
 0.31800000000000E+00 0.10000000000000E+01
 d    1 1.00
 0.90985336424000E-01 0.10000000000000E+01
 f    1 1.00
 0.76100000000000E+00 0.10000000000000E+01
 
    7 0
 s    3 1.00
 0.34061341000000E+02 0.25439307208879E-01
 0.51235746000000E+01 0.19008594890375E+00
 0.11646626000000E+01 0.85244113011042E+00
 s    1 1.00
 0.32723041000000E+00 0.10000000000000E+01
 s    1 1.00
 0.10307241000000E+00 0.10000000000000E+01
 p    1 1.00
 0.80000000000000E+00 0.10000000000000E+01
 p    1 1.00
 0.95774129632000E-01 0.10000000000000E+01
 
    8 0
 s    3 1.00
 0.34061341000000E+02 0.25439307208879E-01
 0.51235746000000E+01 0.19008594890375E+00
 0.11646626000000E+01 0.85244113011042E+00
 s    1 1.00
 0.32723041000000E+00 0.10000000000000E+01
 s    1 1.00
 0.10307241000000E+00 0.10000000000000E+01
 p    1 1.00
 0.80000000000000E+00 0.10000000000000E+01
 p    1 1.00
 0.95774129632000E-01 0.10000000000000E+01
 
    9 0
 s    3 1.00
 0.34061341000000E+02 0.25439307208879E-01
 0.51235746000000E+01 0.19008594890375E+00
 0.11646626000000E+01 0.85244113011042E+00
 s    1 1.00
 0.32723041000000E+00 0.10000000000000E+01
 s    1 1.00
 0.10307241000000E+00 0.10000000000000E+01
 p    1 1.00
 0.80000000000000E+00 0.10000000000000E+01
 p    1 1.00
 0.95774129632000E-01 0.10000000000000E+01
 
   10 0
 s    3 1.00
 0.34061341000000E+02 0.25439307208879E-01
 0.51235746000000E+01 0.19008594890375E+00
 0.11646626000000E+01 0.85244113011042E+00
 s    1 1.00
 0.32723041000000E+00 0.10000000000000E+01
 s    1 1.00
 0.10307241000000E+00 0.10000000000000E+01
 p    1 1.00
 0.80000000000000E+00 0.10000000000000E+01
 p    1 1.00
 0.95774129632000E-01 0.10000000000000E+01
 
   11 0
 s    6 1.00
 0.19730800647000E+05 0.58626402628763E-03
 0.29578958745000E+04 0.45428820586397E-02
 0.67322133595000E+03 0.23558413450084E-01
 0.19068249494000E+03 0.94709193292923E-01
 0.62295441898000E+02 0.29719784913376E+00
 0.22654161182000E+02 0.66916246895232E+00
 s    2 1.00
 0.89791477428000E+01 0.64596683630063E+00
 0.36863002370000E+01 0.38700574393705E+00
 s    1 1.00
 0.84660076805000E+00 0.10000000000000E+01
 s    1 1.00
 0.33647133771000E+00 0.10000000000000E+01
 s    1 1.00
 0.13647653675000E+00 0.10000000000000E+01
 s    1 1.00
 0.68441605847000E-01 0.10000000000000E+01
 p    4 1.00
 0.49200380510000E+02 0.11448825101764E-01
 0.11346790537000E+02 0.78422337970864E-01
 0.34273972411000E+01 0.30818094738830E+00
 0.11785525134000E+01 0.72027196368413E+00
 p    1 1.00
 0.41642204972000E+00 0.10000000000000E+01
 p    1 1.00
 0.14260826011000E+00 0.10000000000000E+01
 d    1 1.00
 0.16540000000000E+01 0.10000000000000E+01
 d    1 1.00
 0.46900000000000E+00 0.10000000000000E+01
 d    1 1.00
 0.12829642058000E+00 0.10000000000000E+01
 f    1 1.00
 0.10930000000000E+01 0.10000000000000E+01
 
   12 0
 s    6 1.00
 0.27032382631000E+05 0.57227335211155E-03
 0.40523871392000E+04 0.44353233492995E-02
 0.92232722710000E+03 0.23020107706038E-01
 0.26124070989000E+03 0.92822490667928E-01
 0.85354641351000E+02 0.29378500009671E+00
 0.31035035245000E+02 0.67401604501641E+00
 s    2 1.00
 0.12260860728000E+02 0.63839937025506E+00
 0.49987076005000E+01 0.39534587125718E+00
 s    1 1.00
 0.11703108158000E+01 0.10000000000000E+01
 s    1 1.00
 0.46474740994000E+00 0.10000000000000E+01
 s    1 1.00
 0.18504536357000E+00 0.10000000000000E+01
 s    1 1.00
 0.70288026270000E-01 0.10000000000000E+01
 p    4 1.00
 0.63274954801000E+02 0.12018332222616E-01
 0.14627049379000E+02 0.83005421790056E-01
 0.44501223456000E+01 0.31991743925964E+00
 0.15275799647000E+01 0.70715542916104E+00
 p    1 1.00
 0.52935117943000E+00 0.10000000000000E+01
 p    1 1.00
 0.17478421270000E+00 0.10000000000000E+01
 p    1 1.00
 0.51112745706000E-01 0.10000000000000E+01
 d    1 1.00
 0.23140000000000E+01 0.10000000000000E+01
 d    1 1.00
 0.64500000000000E+00 0.10000000000000E+01
 d    1 1.00
 0.14696477366000E+00 0.10000000000000E+01
 f    1 1.00
 0.14280000000000E+01 0.10000000000000E+01
 
   13 0
 s    6 1.00
 0.27032382631000E+05 0.57227335211155E-03
 0.40523871392000E+04 0.44353233492995E-02
 0.92232722710000E+03 0.23020107706038E-01
 0.26124070989000E+03 0.92822490667928E-01
 0.85354641351000E+02 0.29378500009671E+00
 0.31035035245000E+02 0.67401604501641E+00
 s    2 1.00
 0.12260860728000E+02 0.63839937025506E+00
 0.49987076005000E+01 0.39534587125718E+00
 s    1 1.00
 0.11703108158000E+01 0.10000000000000E+01
 s    1 1.00
 0.46474740994000E+00 0.10000000000000E+01
 s    1 1.00
 0.18504536357000E+00 0.10000000000000E+01
 s    1 1.00
 0.70288026270000E-01 0.10000000000000E+01
 p    4 1.00
 0.63274954801000E+02 0.12018332222616E-01
 0.14627049379000E+02 0.83005421790056E-01
 0.44501223456000E+01 0.31991743925964E+00
 0.15275799647000E+01 0.70715542916104E+00
 p    1 1.00
 0.52935117943000E+00 0.10000000000000E+01
 p    1 1.00
 0.17478421270000E+00 0.10000000000000E+01
 p    1 1.00
 0.51112745706000E-01 0.10000000000000E+01
 d    1 1.00
 0.23140000000000E+01 0.10000000000000E+01
 d    1 1.00
 0.64500000000000E+00 0.10000000000000E+01
 d    1 1.00
 0.14696477366000E+00 0.10000000000000E+01
 f    1 1.00
 0.14280000000000E+01 0.10000000000000E+01
 
   14 0
 s    6 1.00
 0.19730800647000E+05 0.58626402628763E-03
 0.29578958745000E+04 0.45428820586397E-02
 0.67322133595000E+03 0.23558413450084E-01
 0.19068249494000E+03 0.94709193292923E-01
 0.62295441898000E+02 0.29719784913376E+00
 0.22654161182000E+02 0.66916246895232E+00
 s    2 1.00
 0.89791477428000E+01 0.64596683630063E+00
 0.36863002370000E+01 0.38700574393705E+00
 s    1 1.00
 0.84660076805000E+00 0.10000000000000E+01
 s    1 1.00
 0.33647133771000E+00 0.10000000000000E+01
 s    1 1.00
 0.13647653675000E+00 0.10000000000000E+01
 s    1 1.00
 0.68441605847000E-01 0.10000000000000E+01
 p    4 1.00
 0.49200380510000E+02 0.11448825101764E-01
 0.11346790537000E+02 0.78422337970864E-01
 0.34273972411000E+01 0.30818094738830E+00
 0.11785525134000E+01 0.72027196368413E+00
 p    1 1.00
 0.41642204972000E+00 0.10000000000000E+01
 p    1 1.00
 0.14260826011000E+00 0.10000000000000E+01
 d    1 1.00
 0.16540000000000E+01 0.10000000000000E+01
 d    1 1.00
 0.46900000000000E+00 0.10000000000000E+01
 d    1 1.00
 0.12829642058000E+00 0.10000000000000E+01
 f    1 1.00
 0.10930000000000E+01 0.10000000000000E+01
 
   15 0
 s    3 1.00
 0.34061341000000E+02 0.25439307208879E-01
 0.51235746000000E+01 0.19008594890375E+00
 0.11646626000000E+01 0.85244113011042E+00
 s    1 1.00
 0.32723041000000E+00 0.10000000000000E+01
 s    1 1.00
 0.10307241000000E+00 0.10000000000000E+01
 p    1 1.00
 0.80000000000000E+00 0.10000000000000E+01
 p    1 1.00
 0.95774129632000E-01 0.10000000000000E+01
 
   16 0
 s    3 1.00
 0.34061341000000E+02 0.25439307208879E-01
 0.51235746000000E+01 0.19008594890375E+00
 0.11646626000000E+01 0.85244113011042E+00
 s    1 1.00
 0.32723041000000E+00 0.10000000000000E+01
 s    1 1.00
 0.10307241000000E+00 0.10000000000000E+01
 p    1 1.00
 0.80000000000000E+00 0.10000000000000E+01
 p    1 1.00
 0.95774129632000E-01 0.10000000000000E+01
 
[MO]
 Sym= X
 Ene= -0.940555
 Spin= Alpha
 Occup= -0.940555
         1   -1.945918E-04
         2   -4.560330E-04
         3    1.605158E-03
         4   -5.601248E-03
         5    6.458557E-02
         6   -1.683992E-02
         7    1.800605E-03
         8    1.358281E-04
         9    4.989477E-02
        10   -4.739969E-03
        11    6.826307E-04
        12    4.777871E-02
        13   -3.443743E-02
        14    2.264770E-02
        15    2.655866E-02
        16   -2.398031E-05
        17   -3.064119E-06
        18    2.704443E-05
        19    5.674744E-06
        20   -6.223791E-03
        21    4.330514E-03
        22   -1.057286E-03
        23    6.149577E-04
        24    4.423284E-04
        25   -9.964053E-04
        26   -1.420103E-02
        27    8.009146E-03
        28   -1.584115E-03
        29    1.426628E-03
        30    1.574872E-04
        31    2.527518E-03
        32    3.765901E-03
        33   -8.066799E-03
        34   -3.699161E-05
        35    4.957755E-06
        36   -2.507400E-04
        37    1.903159E-05
        38   -1.747761E-06
        39   -6.428123E-04
        40    3.059786E-05
        41   -4.903765E-06
        42    9.792153E-04
        43   -7.359278E-04
        44    4.097509E-05
        45    8.822706E-05
        46    2.396364E-04
        47   -5.054164E-03
        48   -8.104186E-02
        49    8.182475E-03
        50    5.395396E-04
        51    1.060848E-06
        52    2.210002E-01
        53   -6.747074E-04
        54    6.488547E-07
        55    2.282173E-01
        56   -1.448065E-02
        57   -1.312688E-05
        58    1.922060E-01
        59    4.750389E-05
        60   -4.125286E-05
        61   -6.251027E-06
        62    2.551425E-08
        63    2.718084E-04
        64   -4.203637E-08
        65    5.244254E-04
        66   -9.022763E-04
        67    3.778509E-04
        68    4.431958E-09
        69   -1.202164E-03
        70   -1.006109E-07
        71    2.128008E-02
        72   -2.389010E-02
        73    2.610024E-03
        74   -1.740067E-06
        75    3.724222E-03
        76    5.356935E-07
        77    1.199033E-05
        78    1.273153E-08
        79   -1.291232E-03
        80   -1.063409E-05
        81   -1.024039E-09
        82    6.899859E-04
        83   -5.452625E-06
        84   -1.605709E-08
        85    1.042384E-03
        86   -4.795468E-09
        87   -1.946218E-04
        88   -4.560971E-04
        89    1.605097E-03
        90   -5.600181E-03
        91    6.460364E-02
        92   -1.684273E-02
        93    1.800392E-03
        94   -1.357951E-04
        95    4.989312E-02
        96   -4.740324E-03
        97   -6.829312E-04
        98    4.777711E-02
        99   -3.445228E-02
       100   -2.266032E-02
       101    2.655768E-02
       102   -2.399454E-05
       103   -3.107011E-06
       104    2.710155E-05
       105   -5.734304E-06
       106   -6.223779E-03
       107   -4.330493E-03
       108   -1.057280E-03
       109    6.149112E-04
       110    4.423685E-04
       111    9.964199E-04
       112   -1.420093E-02
       113   -8.009130E-03
       114   -1.586389E-03
       115    1.429009E-03
       116    1.573798E-04
       117   -2.526562E-03
       118    3.766607E-03
       119    8.067378E-03
       120   -3.698711E-05
       121   -4.943888E-06
       122   -2.507393E-04
       123    1.903532E-05
       124    1.742281E-06
       125   -6.428080E-04
       126    3.058809E-05
       127    4.890641E-06
       128    9.792101E-04
       129    7.359263E-04
       130    1.150988E-04
       131    2.468631E-04
       132    7.471475E-04
       133   -1.289048E-02
       134   -1.989993E-02
       135    2.117691E-02
       136   -1.318170E-03
       137    4.300900E-04
       138   -1.520168E-01
       139   -1.314669E-02
       140    8.389641E-03
       141   -1.542242E-01
       142   -1.900107E-03
       143   -1.115321E-02
       144   -9.993730E-02
       145    1.453879E-04
       146   -1.758195E-04
       147    3.043161E-05
       148    1.155203E-05
       149   -1.960655E-03
       150    3.553539E-03
       151    1.127888E-03
       152   -1.132070E-03
       153    4.182238E-06
       154    2.268362E-03
       155   -6.615498E-03
       156    5.859040E-03
       157    8.893434E-03
       158   -6.060599E-03
       159   -2.832835E-03
       160   -1.957723E-02
       161    4.489941E-03
       162   -8.210630E-03
       163   -2.980557E-05
       164    5.890711E-06
       165    8.853725E-04
       166   -1.565659E-05
       167    3.094961E-05
       168   -1.310451E-04
       169    5.564496E-05
       170   -3.885283E-05
       171   -1.056807E-03
       172    4.535990E-04
       173   -1.302385E-03
       174   -2.970914E-03
       175    2.533859E-03
       176    3.225375E-02
       177   -9.484878E-02
       178    7.223398E-03
       179    9.421461E-03
       180   -5.216820E-07
       181   -1.520978E-01
       182   -1.372603E-03
       183   -6.937418E-07
       184   -1.546582E-01
       185   -7.292674E-02
       186    4.891236E-06
       187   -1.329919E-01
       188    5.835043E-04
       189   -3.162635E-04
       190   -2.672408E-04
       191    1.524650E-08
       192    8.415793E-03
       193    1.204802E-07
       194   -2.518863E-03
       195    5.620410E-03
       196   -3.101547E-03
       197   -1.390192E-08
       198    2.146564E-02
       199    1.841491E-07
       200   -1.416185E-02
       201    1.496430E-02
       202   -8.024588E-04
       203   -5.794523E-07
       204    1.101141E-02
       205   -4.339158E-07
       206    1.402144E-04
       207   -1.271333E-08
       208    6.462834E-04
       209   -1.136517E-04
       210    6.883931E-10
       211    6.851606E-04
       212   -7.446559E-05
       213    1.636833E-08
       214   -1.552241E-03
       215   -5.391585E-09
       216    1.151155E-04
       217    2.469029E-04
       218    7.470171E-04
       219   -1.289073E-02
       220   -1.990691E-02
       221    2.117644E-02
       222   -1.318358E-03
       223   -4.316772E-04
       224   -1.520194E-01
       225   -1.314690E-02
       226   -8.391351E-03
       227   -1.542268E-01
       228   -1.889123E-03
       229    1.115928E-02
       230   -9.993948E-02
       231    1.453956E-04
       232   -1.758807E-04
       233    3.048514E-05
       234   -1.156336E-05
       235   -1.960701E-03
       236   -3.553591E-03
       237    1.127949E-03
       238   -1.132166E-03
       239    4.216529E-06
       240   -2.268379E-03
       241   -6.615492E-03
       242   -5.859056E-03
       243    8.892367E-03
       244   -6.059342E-03
       245   -2.833025E-03
       246    1.957816E-02
       247    4.489007E-03
       248    8.210176E-03
       249   -2.980692E-05
       250   -5.911336E-06
       251    8.853855E-04
       252   -1.566169E-05
       253   -3.095267E-05
       254   -1.310419E-04
       255    5.565187E-05
       256    3.888356E-05
       257   -1.056827E-03
       258   -4.535891E-04
       259   -3.225803E-04
       260    1.911768E-04
       261   -2.011477E-02
       262   -8.339582E-06
       263    5.526389E-05
       264    1.993485E-03
       265   -6.538955E-03
       266   -1.543724E-03
       267   -3.519530E-03
       268   -3.224735E-04
       269    1.914118E-04
       270   -2.011618E-02
       271   -8.344999E-06
       272   -5.528191E-05
       273    1.993420E-03
       274   -6.539131E-03
       275    1.543605E-03
       276   -3.519678E-03
       277   -3.311293E-04
       278   -3.032367E-03
       279    5.335821E-02
       280   -3.471563E-05
       281    1.034666E-04
       282   -6.286964E-03
       283    3.898067E-04
       284   -5.208448E-03
       285   -3.731991E-03
       286   -3.311917E-04
       287   -3.032570E-03
       288    5.336018E-02
       289   -3.471780E-05
       290   -1.035482E-04
       291   -6.287150E-03
       292    3.901021E-04
       293    5.208561E-03
       294   -3.732241E-03
       295   -4.331354E-05
       296   -1.016793E-04
       297    1.119038E-04
       298   -7.256515E-05
       299   -1.262330E-02
       300   -3.031237E-03
       301    4.296808E-04
       302   -2.812586E-07
       303    7.415879E-03
       304   -6.544454E-05
       305   -2.109269E-07
       306    9.718074E-03
       307   -3.824780E-03
       308    1.353593E-07
       309   -2.620148E-06
       310    2.500553E-05
       311   -6.421185E-06
       312   -1.858434E-05
       313   -2.559072E-08
       314    4.294080E-03
       315    1.232503E-09
       316    8.350638E-06
       317    8.022172E-05
       318   -8.857236E-05
       319   -5.621402E-08
       320    1.277188E-02
       321    2.601816E-09
       322    3.169822E-05
       323    3.585128E-03
       324   -3.616827E-03
       325    3.063258E-07
       326    3.917899E-03
       327   -7.141172E-08
       328    9.675365E-06
       329    4.085708E-09
       330   -8.880969E-06
       331   -6.587275E-06
       332    1.379435E-08
       333    7.175554E-04
       334   -6.393590E-06
       335   -1.927590E-08
       336   -7.056403E-04
       337   -1.504177E-09
       338   -1.030029E-05
       339   -1.979540E-05
       340   -3.885267E-05
       341    6.992482E-04
       342   -8.997515E-03
       343   -2.052317E-03
       344   -2.553936E-04
       345    1.061766E-04
       346   -7.242865E-02
       347   -4.542639E-04
       348    2.842730E-04
       349   -6.711230E-02
       350   -1.235792E-03
       351    1.036301E-03
       352   -5.143970E-02
       353   -4.884865E-04
       354    2.945706E-04
       355   -5.557563E-03
       356    2.886033E-06
       357   -4.710358E-06
       358    1.824325E-06
       359    1.533710E-06
       360   -4.419409E-05
       361    5.639337E-04
       362   -1.273622E-05
       363   -1.084599E-05
       364    2.358221E-05
       365    1.489479E-05
       366   -6.602705E-04
       367    1.793859E-03
       368   -6.027208E-05
       369   -5.746887E-05
       370    1.177409E-04
       371   -1.200128E-04
       372   -1.157194E-03
       373    3.426244E-04
       374    9.409335E-07
       375    2.095991E-06
       376    7.031346E-05
       377   -1.273779E-06
       378   -2.857310E-07
       379    9.240029E-05
       380    1.138456E-08
       381   -2.526336E-06
       382   -1.867357E-04
       383    1.452236E-04
       384   -1.037132E-05
       385   -1.997165E-05
       386   -3.857967E-05
       387    6.995969E-04
       388   -8.997638E-03
       389   -2.052933E-03
       390   -2.527576E-04
       391   -1.049203E-04
       392   -7.242883E-02
       393   -4.518629E-04
       394   -2.831433E-04
       395   -6.711246E-02
       396   -1.233679E-03
       397   -1.035743E-03
       398   -5.144015E-02
       399   -4.886250E-04
       400   -2.941668E-04
       401   -5.557597E-03
       402    2.885707E-06
       403   -4.680938E-06
       404    1.795231E-06
       405   -1.514585E-06
       406   -4.419373E-05
       407   -5.639344E-04
       408   -1.271188E-05
       409   -1.077479E-05
       410    2.348667E-05
       411   -1.481198E-05
       412   -6.602726E-04
       413   -1.793871E-03
       414   -6.023554E-05
       415   -5.751941E-05
       416    1.177550E-04
       417    1.201464E-04
       418   -1.157223E-03
       419   -3.426343E-04
       420    9.363960E-07
       421   -2.087514E-06
       422    7.031369E-05
       423   -1.260999E-06
       424    2.900892E-07
       425    9.240064E-05
       426    4.692357E-09
       427    2.510604E-06
       428   -1.867364E-04
       429   -1.452241E-04
       430    6.392851E-03
       431    1.520157E-02
       432   -2.362415E-02
       433   -4.035591E-02
       434   -3.007793E-03
       435   -8.893231E-02
       436   -2.231406E-02
       437    2.892860E-07
       438    2.067320E-01
       439   -2.598297E-02
       440    3.642470E-07
       441    2.040140E-01
       442   -3.308741E-02
       443    5.824489E-07
       444    1.723127E-01
       445   -2.131816E-04
       446   -8.680773E-06
       447    2.218624E-04
       448    1.842239E-08
       449    1.504592E-03
       450   -5.451926E-09
       451   -4.536488E-04
       452   -2.105862E-03
       453    2.559511E-03
       454    2.994508E-08
       455    5.051032E-03
       456    1.700377E-08
       457   -4.077216E-03
       458   -5.987524E-03
       459    1.006474E-02
       460   -5.577216E-08
       461    2.805895E-03
       462    1.031361E-07
       463   -2.063254E-04
       464    3.581672E-09
       465   -6.746600E-04
       466   -1.136189E-04
       467   -6.113627E-10
       468    2.238648E-04
       469    3.904334E-04
       470   -4.193955E-09
       471    6.812866E-04
       472    9.675572E-10
       473    1.354373E-02
       474    2.655909E-02
       475    5.457722E-02
       476   -2.858974E-03
       477   -2.572442E-03
       478    1.056137E-02
       479   -2.198838E-04
       480   -6.074018E-03
       481    1.429529E-02
       482    1.354348E-02
       483    2.655882E-02
       484    5.457665E-02
       485   -2.858970E-03
       486    2.572482E-03
       487    1.056140E-02
       488   -2.198211E-04
       489    6.073999E-03
       490    1.429533E-02
 Sym= X
 Ene= 0.940555
 Spin= Alpha
 Occup= 0.940555
         1    4.753051E-04
         2    1.024262E-03
         3   -1.998534E-04
         4   -2.107702E-02
         5   -7.459853E-02
         6    9.824704E-01
         7    1.854511E-04
         8    9.764010E-04
         9   -1.228432E-01
        10   -4.838046E-03
        11    3.186122E-03
        12   -1.371483E-01
        13   -1.019765E-01
        14   -9.271741E-02
        15    2.996472E-02
        16   -9.066729E-05
        17    6.491558E-05
        18    2.575171E-05
        19   -8.526355E-05
        20   -2.682027E-03
        21    2.316450E-03
        22   -1.383345E-03
        23    1.380286E-03
        24    3.059622E-06
        25    1.075127E-03
        26   -2.299553E-03
        27    7.613784E-03
        28    1.035746E-01
        29   -9.364312E-02
        30   -9.931488E-03
        31   -1.672908E-01
        32    2.766161E-02
        33    4.664823E-02
        34   -1.991284E-05
        35    3.941659E-07
        36    1.703746E-04
        37   -8.875300E-06
        38   -1.825300E-05
        39   -1.137261E-04
        40    3.559117E-05
        41    1.772417E-05
        42   -1.148554E-04
        43   -2.695358E-04
        44   -2.416900E-04
        45   -5.735366E-04
        46    1.869358E-03
        47   -1.810772E-03
        48   -6.922152E-01
        49   -1.116014E+00
        50    6.492536E-04
        51    4.990091E-07
        52    1.045631E-01
        53    1.155955E-03
        54   -1.002984E-06
        55    1.208009E-01
        56    4.762886E-01
        57    2.417993E-05
        58    9.643906E-03
        59    2.153409E-05
        60   -5.882666E-05
        61    3.729257E-05
        62    9.105513E-08