[Molden Format]
[Title]
ADC(2) - opt by CAM-B3LYP gaussian                                              
[Atoms] AU
 c     1    6 -.12594776649128E+01 -.22773101438193E+01 -.39940542897370E-01
 c     2    6 -.25470425655544E+01 -.11810788300000E-05 -.37653974276580E-01
 c     3    6 -.12594776649128E+01 0.22773077816617E+01 -.39959440158700E-01
 c     4    6 0.13393870965995E+01 0.22758904870620E+01 -.43795584208460E-01
 c     5    6 0.26846831306008E+01 -.11810788300000E-05 -.44211323957690E-01
 c     6    6 0.13394059938609E+01 -.22758928492196E+01 -.43776686947130E-01
 h     7    1 -.23144739703802E+01 -.40231336316857E+01 -.37313823572660E-01
 h     8    1 -.23144739703802E+01 0.40231312695281E+01 -.37332720833990E-01
 h     9    1 0.23577983041343E+01 0.40499086888311E+01 -.52469427158400E-01
 h    10    1 0.23577983041343E+01 -.40498921537274E+01 -.52431632635740E-01
 n    11    7 -.52968964450843E+01 -.11810788300000E-05 -.29906097131750E-01
 o    12    8 -.63725096626615E+01 0.20302827815708E+01 -.26599076399200E-01
 o    13    8 -.63725096626615E+01 -.20302851437285E+01 -.26655768183180E-01
 n    14    7 0.52734000627795E+01 -.11810788300000E-05 -.11796733492422E+00
 h    15    1 0.61922038058499E+01 0.16034881344586E+01 0.31500671664254E+00
 h    16    1 0.61921849085885E+01 -.16034904966163E+01 0.31500671664254E+00
[GTO]
    1 0
 s    6 1.00
 0.13575349682000E+05 0.60645503603591E-03
 0.20352333680000E+04 0.46979088884982E-02
 0.46322562359000E+03 0.24332477647552E-01
 0.13120019598000E+03 0.97399968307759E-01
 0.42853015891000E+02 0.30195584253780E+00
 0.15584185766000E+02 0.66233609137875E+00
 s    2 1.00
 0.62067138508000E+01 0.65595308539952E+00
 0.25764896527000E+01 0.37585633285142E+00
 s    1 1.00
 0.57696339419000E+00 0.10000000000000E+01
 s    1 1.00
 0.22972831358000E+00 0.10000000000000E+01
 s    1 1.00
 0.95164440028000E-01 0.10000000000000E+01
 s    1 1.00
 0.48475401370000E-01 0.10000000000000E+01
 p    4 1.00
 0.34697232244000E+02 0.11327220003114E-01
 0.79582622826000E+01 0.76169659202087E-01
 0.23780826883000E+01 0.30192252202676E+00
 0.81433208183000E+00 0.72785027349547E+00
 p    1 1.00
 0.28887547253000E+00 0.10000000000000E+01
 p    1 1.00
 0.10056823671000E+00 0.10000000000000E+01
 d    1 1.00
 0.10970000000000E+01 0.10000000000000E+01
 d    1 1.00
 0.31800000000000E+00 0.10000000000000E+01
 d    1 1.00
 0.90985336424000E-01 0.10000000000000E+01
 f    1 1.00
 0.76100000000000E+00 0.10000000000000E+01
 
    2 0
 s    6 1.00
 0.13575349682000E+05 0.60645503603591E-03
 0.20352333680000E+04 0.46979088884982E-02
 0.46322562359000E+03 0.24332477647552E-01
 0.13120019598000E+03 0.97399968307759E-01
 0.42853015891000E+02 0.30195584253780E+00
 0.15584185766000E+02 0.66233609137875E+00
 s    2 1.00
 0.62067138508000E+01 0.65595308539952E+00
 0.25764896527000E+01 0.37585633285142E+00
 s    1 1.00
 0.57696339419000E+00 0.10000000000000E+01
 s    1 1.00
 0.22972831358000E+00 0.10000000000000E+01
 s    1 1.00
 0.95164440028000E-01 0.10000000000000E+01
 s    1 1.00
 0.48475401370000E-01 0.10000000000000E+01
 p    4 1.00
 0.34697232244000E+02 0.11327220003114E-01
 0.79582622826000E+01 0.76169659202087E-01
 0.23780826883000E+01 0.30192252202676E+00
 0.81433208183000E+00 0.72785027349547E+00
 p    1 1.00
 0.28887547253000E+00 0.10000000000000E+01
 p    1 1.00
 0.10056823671000E+00 0.10000000000000E+01
 d    1 1.00
 0.10970000000000E+01 0.10000000000000E+01
 d    1 1.00
 0.31800000000000E+00 0.10000000000000E+01
 d    1 1.00
 0.90985336424000E-01 0.10000000000000E+01
 f    1 1.00
 0.76100000000000E+00 0.10000000000000E+01
 
    3 0
 s    6 1.00
 0.13575349682000E+05 0.60645503603591E-03
 0.20352333680000E+04 0.46979088884982E-02
 0.46322562359000E+03 0.24332477647552E-01
 0.13120019598000E+03 0.97399968307759E-01
 0.42853015891000E+02 0.30195584253780E+00
 0.15584185766000E+02 0.66233609137875E+00
 s    2 1.00
 0.62067138508000E+01 0.65595308539952E+00
 0.25764896527000E+01 0.37585633285142E+00
 s    1 1.00
 0.57696339419000E+00 0.10000000000000E+01
 s    1 1.00
 0.22972831358000E+00 0.10000000000000E+01
 s    1 1.00
 0.95164440028000E-01 0.10000000000000E+01
 s    1 1.00
 0.48475401370000E-01 0.10000000000000E+01
 p    4 1.00
 0.34697232244000E+02 0.11327220003114E-01
 0.79582622826000E+01 0.76169659202087E-01
 0.23780826883000E+01 0.30192252202676E+00
 0.81433208183000E+00 0.72785027349547E+00
 p    1 1.00
 0.28887547253000E+00 0.10000000000000E+01
 p    1 1.00
 0.10056823671000E+00 0.10000000000000E+01
 d    1 1.00
 0.10970000000000E+01 0.10000000000000E+01
 d    1 1.00
 0.31800000000000E+00 0.10000000000000E+01
 d    1 1.00
 0.90985336424000E-01 0.10000000000000E+01
 f    1 1.00
 0.76100000000000E+00 0.10000000000000E+01
 
    4 0
 s    6 1.00
 0.13575349682000E+05 0.60645503603591E-03
 0.20352333680000E+04 0.46979088884982E-02
 0.46322562359000E+03 0.24332477647552E-01
 0.13120019598000E+03 0.97399968307759E-01
 0.42853015891000E+02 0.30195584253780E+00
 0.15584185766000E+02 0.66233609137875E+00
 s    2 1.00
 0.62067138508000E+01 0.65595308539952E+00
 0.25764896527000E+01 0.37585633285142E+00
 s    1 1.00
 0.57696339419000E+00 0.10000000000000E+01
 s    1 1.00
 0.22972831358000E+00 0.10000000000000E+01
 s    1 1.00
 0.95164440028000E-01 0.10000000000000E+01
 s    1 1.00
 0.48475401370000E-01 0.10000000000000E+01
 p    4 1.00
 0.34697232244000E+02 0.11327220003114E-01
 0.79582622826000E+01 0.76169659202087E-01
 0.23780826883000E+01 0.30192252202676E+00
 0.81433208183000E+00 0.72785027349547E+00
 p    1 1.00
 0.28887547253000E+00 0.10000000000000E+01
 p    1 1.00
 0.10056823671000E+00 0.10000000000000E+01
 d    1 1.00
 0.10970000000000E+01 0.10000000000000E+01
 d    1 1.00
 0.31800000000000E+00 0.10000000000000E+01
 d    1 1.00
 0.90985336424000E-01 0.10000000000000E+01
 f    1 1.00
 0.76100000000000E+00 0.10000000000000E+01
 
    5 0
 s    6 1.00
 0.13575349682000E+05 0.60645503603591E-03
 0.20352333680000E+04 0.46979088884982E-02
 0.46322562359000E+03 0.24332477647552E-01
 0.13120019598000E+03 0.97399968307759E-01
 0.42853015891000E+02 0.30195584253780E+00
 0.15584185766000E+02 0.66233609137875E+00
 s    2 1.00
 0.62067138508000E+01 0.65595308539952E+00
 0.25764896527000E+01 0.37585633285142E+00
 s    1 1.00
 0.57696339419000E+00 0.10000000000000E+01
 s    1 1.00
 0.22972831358000E+00 0.10000000000000E+01
 s    1 1.00
 0.95164440028000E-01 0.10000000000000E+01
 s    1 1.00
 0.48475401370000E-01 0.10000000000000E+01
 p    4 1.00
 0.34697232244000E+02 0.11327220003114E-01
 0.79582622826000E+01 0.76169659202087E-01
 0.23780826883000E+01 0.30192252202676E+00
 0.81433208183000E+00 0.72785027349547E+00
 p    1 1.00
 0.28887547253000E+00 0.10000000000000E+01
 p    1 1.00
 0.10056823671000E+00 0.10000000000000E+01
 d    1 1.00
 0.10970000000000E+01 0.10000000000000E+01
 d    1 1.00
 0.31800000000000E+00 0.10000000000000E+01
 d    1 1.00
 0.90985336424000E-01 0.10000000000000E+01
 f    1 1.00
 0.76100000000000E+00 0.10000000000000E+01
 
    6 0
 s    6 1.00
 0.13575349682000E+05 0.60645503603591E-03
 0.20352333680000E+04 0.46979088884982E-02
 0.46322562359000E+03 0.24332477647552E-01
 0.13120019598000E+03 0.97399968307759E-01
 0.42853015891000E+02 0.30195584253780E+00
 0.15584185766000E+02 0.66233609137875E+00
 s    2 1.00
 0.62067138508000E+01 0.65595308539952E+00
 0.25764896527000E+01 0.37585633285142E+00
 s    1 1.00
 0.57696339419000E+00 0.10000000000000E+01
 s    1 1.00
 0.22972831358000E+00 0.10000000000000E+01
 s    1 1.00
 0.95164440028000E-01 0.10000000000000E+01
 s    1 1.00
 0.48475401370000E-01 0.10000000000000E+01
 p    4 1.00
 0.34697232244000E+02 0.11327220003114E-01
 0.79582622826000E+01 0.76169659202087E-01
 0.23780826883000E+01 0.30192252202676E+00
 0.81433208183000E+00 0.72785027349547E+00
 p    1 1.00
 0.28887547253000E+00 0.10000000000000E+01
 p    1 1.00
 0.10056823671000E+00 0.10000000000000E+01
 d    1 1.00
 0.10970000000000E+01 0.10000000000000E+01
 d    1 1.00
 0.31800000000000E+00 0.10000000000000E+01
 d    1 1.00
 0.90985336424000E-01 0.10000000000000E+01
 f    1 1.00
 0.76100000000000E+00 0.10000000000000E+01
 
    7 0
 s    3 1.00
 0.34061341000000E+02 0.25439307208879E-01
 0.51235746000000E+01 0.19008594890375E+00
 0.11646626000000E+01 0.85244113011042E+00
 s    1 1.00
 0.32723041000000E+00 0.10000000000000E+01
 s    1 1.00
 0.10307241000000E+00 0.10000000000000E+01
 p    1 1.00
 0.80000000000000E+00 0.10000000000000E+01
 p    1 1.00
 0.95774129632000E-01 0.10000000000000E+01
 
    8 0
 s    3 1.00
 0.34061341000000E+02 0.25439307208879E-01
 0.51235746000000E+01 0.19008594890375E+00
 0.11646626000000E+01 0.85244113011042E+00
 s    1 1.00
 0.32723041000000E+00 0.10000000000000E+01
 s    1 1.00
 0.10307241000000E+00 0.10000000000000E+01
 p    1 1.00
 0.80000000000000E+00 0.10000000000000E+01
 p    1 1.00
 0.95774129632000E-01 0.10000000000000E+01
 
    9 0
 s    3 1.00
 0.34061341000000E+02 0.25439307208879E-01
 0.51235746000000E+01 0.19008594890375E+00
 0.11646626000000E+01 0.85244113011042E+00
 s    1 1.00
 0.32723041000000E+00 0.10000000000000E+01
 s    1 1.00
 0.10307241000000E+00 0.10000000000000E+01
 p    1 1.00
 0.80000000000000E+00 0.10000000000000E+01
 p    1 1.00
 0.95774129632000E-01 0.10000000000000E+01
 
   10 0
 s    3 1.00
 0.34061341000000E+02 0.25439307208879E-01
 0.51235746000000E+01 0.19008594890375E+00
 0.11646626000000E+01 0.85244113011042E+00
 s    1 1.00
 0.32723041000000E+00 0.10000000000000E+01
 s    1 1.00
 0.10307241000000E+00 0.10000000000000E+01
 p    1 1.00
 0.80000000000000E+00 0.10000000000000E+01
 p    1 1.00
 0.95774129632000E-01 0.10000000000000E+01
 
   11 0
 s    6 1.00
 0.19730800647000E+05 0.58626402628763E-03
 0.29578958745000E+04 0.45428820586397E-02
 0.67322133595000E+03 0.23558413450084E-01
 0.19068249494000E+03 0.94709193292923E-01
 0.62295441898000E+02 0.29719784913376E+00
 0.22654161182000E+02 0.66916246895232E+00
 s    2 1.00
 0.89791477428000E+01 0.64596683630063E+00
 0.36863002370000E+01 0.38700574393705E+00
 s    1 1.00
 0.84660076805000E+00 0.10000000000000E+01
 s    1 1.00
 0.33647133771000E+00 0.10000000000000E+01
 s    1 1.00
 0.13647653675000E+00 0.10000000000000E+01
 s    1 1.00
 0.68441605847000E-01 0.10000000000000E+01
 p    4 1.00
 0.49200380510000E+02 0.11448825101764E-01
 0.11346790537000E+02 0.78422337970864E-01
 0.34273972411000E+01 0.30818094738830E+00
 0.11785525134000E+01 0.72027196368413E+00
 p    1 1.00
 0.41642204972000E+00 0.10000000000000E+01
 p    1 1.00
 0.14260826011000E+00 0.10000000000000E+01
 d    1 1.00
 0.16540000000000E+01 0.10000000000000E+01
 d    1 1.00
 0.46900000000000E+00 0.10000000000000E+01
 d    1 1.00
 0.12829642058000E+00 0.10000000000000E+01
 f    1 1.00
 0.10930000000000E+01 0.10000000000000E+01
 
   12 0
 s    6 1.00
 0.27032382631000E+05 0.57227335211155E-03
 0.40523871392000E+04 0.44353233492995E-02
 0.92232722710000E+03 0.23020107706038E-01
 0.26124070989000E+03 0.92822490667928E-01
 0.85354641351000E+02 0.29378500009671E+00
 0.31035035245000E+02 0.67401604501641E+00
 s    2 1.00
 0.12260860728000E+02 0.63839937025506E+00
 0.49987076005000E+01 0.39534587125718E+00
 s    1 1.00
 0.11703108158000E+01 0.10000000000000E+01
 s    1 1.00
 0.46474740994000E+00 0.10000000000000E+01
 s    1 1.00
 0.18504536357000E+00 0.10000000000000E+01
 s    1 1.00
 0.70288026270000E-01 0.10000000000000E+01
 p    4 1.00
 0.63274954801000E+02 0.12018332222616E-01
 0.14627049379000E+02 0.83005421790056E-01
 0.44501223456000E+01 0.31991743925964E+00
 0.15275799647000E+01 0.70715542916104E+00
 p    1 1.00
 0.52935117943000E+00 0.10000000000000E+01
 p    1 1.00
 0.17478421270000E+00 0.10000000000000E+01
 p    1 1.00
 0.51112745706000E-01 0.10000000000000E+01
 d    1 1.00
 0.23140000000000E+01 0.10000000000000E+01
 d    1 1.00
 0.64500000000000E+00 0.10000000000000E+01
 d    1 1.00
 0.14696477366000E+00 0.10000000000000E+01
 f    1 1.00
 0.14280000000000E+01 0.10000000000000E+01
 
   13 0
 s    6 1.00
 0.27032382631000E+05 0.57227335211155E-03
 0.40523871392000E+04 0.44353233492995E-02
 0.92232722710000E+03 0.23020107706038E-01
 0.26124070989000E+03 0.92822490667928E-01
 0.85354641351000E+02 0.29378500009671E+00
 0.31035035245000E+02 0.67401604501641E+00
 s    2 1.00
 0.12260860728000E+02 0.63839937025506E+00
 0.49987076005000E+01 0.39534587125718E+00
 s    1 1.00
 0.11703108158000E+01 0.10000000000000E+01
 s    1 1.00
 0.46474740994000E+00 0.10000000000000E+01
 s    1 1.00
 0.18504536357000E+00 0.10000000000000E+01
 s    1 1.00
 0.70288026270000E-01 0.10000000000000E+01
 p    4 1.00
 0.63274954801000E+02 0.12018332222616E-01
 0.14627049379000E+02 0.83005421790056E-01
 0.44501223456000E+01 0.31991743925964E+00
 0.15275799647000E+01 0.70715542916104E+00
 p    1 1.00
 0.52935117943000E+00 0.10000000000000E+01
 p    1 1.00
 0.17478421270000E+00 0.10000000000000E+01
 p    1 1.00
 0.51112745706000E-01 0.10000000000000E+01
 d    1 1.00
 0.23140000000000E+01 0.10000000000000E+01
 d    1 1.00
 0.64500000000000E+00 0.10000000000000E+01
 d    1 1.00
 0.14696477366000E+00 0.10000000000000E+01
 f    1 1.00
 0.14280000000000E+01 0.10000000000000E+01
 
   14 0
 s    6 1.00
 0.19730800647000E+05 0.58626402628763E-03
 0.29578958745000E+04 0.45428820586397E-02
 0.67322133595000E+03 0.23558413450084E-01
 0.19068249494000E+03 0.94709193292923E-01
 0.62295441898000E+02 0.29719784913376E+00
 0.22654161182000E+02 0.66916246895232E+00
 s    2 1.00
 0.89791477428000E+01 0.64596683630063E+00
 0.36863002370000E+01 0.38700574393705E+00
 s    1 1.00
 0.84660076805000E+00 0.10000000000000E+01
 s    1 1.00
 0.33647133771000E+00 0.10000000000000E+01
 s    1 1.00
 0.13647653675000E+00 0.10000000000000E+01
 s    1 1.00
 0.68441605847000E-01 0.10000000000000E+01
 p    4 1.00
 0.49200380510000E+02 0.11448825101764E-01
 0.11346790537000E+02 0.78422337970864E-01
 0.34273972411000E+01 0.30818094738830E+00
 0.11785525134000E+01 0.72027196368413E+00
 p    1 1.00
 0.41642204972000E+00 0.10000000000000E+01
 p    1 1.00
 0.14260826011000E+00 0.10000000000000E+01
 d    1 1.00
 0.16540000000000E+01 0.10000000000000E+01
 d    1 1.00
 0.46900000000000E+00 0.10000000000000E+01
 d    1 1.00
 0.12829642058000E+00 0.10000000000000E+01
 f    1 1.00
 0.10930000000000E+01 0.10000000000000E+01
 
   15 0
 s    3 1.00
 0.34061341000000E+02 0.25439307208879E-01
 0.51235746000000E+01 0.19008594890375E+00
 0.11646626000000E+01 0.85244113011042E+00
 s    1 1.00
 0.32723041000000E+00 0.10000000000000E+01
 s    1 1.00
 0.10307241000000E+00 0.10000000000000E+01
 p    1 1.00
 0.80000000000000E+00 0.10000000000000E+01
 p    1 1.00
 0.95774129632000E-01 0.10000000000000E+01
 
   16 0
 s    3 1.00
 0.34061341000000E+02 0.25439307208879E-01
 0.51235746000000E+01 0.19008594890375E+00
 0.11646626000000E+01 0.85244113011042E+00
 s    1 1.00
 0.32723041000000E+00 0.10000000000000E+01
 s    1 1.00
 0.10307241000000E+00 0.10000000000000E+01
 p    1 1.00
 0.80000000000000E+00 0.10000000000000E+01
 p    1 1.00
 0.95774129632000E-01 0.10000000000000E+01
 
[MO]
 Sym= X
 Ene= -0.919698
 Spin= Alpha
 Occup= -0.919698
         1    3.100137E-04
         2    7.190312E-04
         3   -2.099839E-03
         4    5.704711E-03
         5   -6.578700E-02
         6    1.864145E-02
         7   -5.771830E-03
         8   -5.141815E-04
         9   -4.576653E-02
        10    2.447000E-03
        11   -1.152952E-03
        12   -4.362504E-02
        13    4.119632E-02
        14   -2.298387E-02
        15   -2.439288E-02
        16   -1.007273E-04
        17    1.225607E-04
        18   -2.183341E-05
        19    2.685275E-05
        20    6.062475E-03
        21   -4.149898E-03
        22    1.049860E-03
        23   -5.874481E-04
        24   -4.624122E-04
        25    1.185812E-03
        26    1.385623E-02
        27   -7.703772E-03
        28    1.843046E-03
        29   -1.400752E-03
        30   -4.422943E-04
        31   -2.888094E-03
        32   -4.257515E-03
        33    9.123922E-03
        34    3.083121E-05
        35   -8.173393E-06
        36    2.228438E-04
        37   -2.012047E-05
        38    2.878573E-06
        39    6.407967E-04
        40   -2.124394E-05
        41    8.087184E-06
        42   -9.397730E-04
        43    7.051265E-04
        44   -1.338387E-04
        45   -2.947873E-04
        46   -5.924983E-05
        47    6.513066E-03
        48    8.473702E-02
        49   -9.615026E-03
        50    1.132570E-03
        51   -1.293812E-06
        52   -2.119902E-01
        53    2.140092E-03
        54   -1.088701E-06
        55   -2.189131E-01
        56    1.450984E-02
        57    1.359337E-05
        58   -1.914349E-01
        59   -2.200411E-04
        60    2.101565E-04
        61    9.884574E-06
        62   -4.427894E-08
        63   -1.948092E-04
        64    4.304402E-08
        65   -7.737057E-04
        66    1.248074E-03
        67   -4.743683E-04
        68    7.725156E-08
        69    1.321684E-03
        70    1.016841E-07
        71   -2.497121E-02
        72    2.766532E-02
        73   -2.694111E-03
        74    1.962285E-06
        75   -3.433407E-03
        76   -5.611393E-07
        77   -3.942360E-06
        78   -2.283427E-08
        79    1.229878E-03
        80    8.266878E-06
        81    1.249891E-08
        82   -6.581538E-04
        83   -2.977647E-06
        84    1.813647E-08
        85   -9.919002E-04
        86    4.923664E-09
        87    3.102312E-04
        88    7.195258E-04
        89   -2.100686E-03
        90    5.703945E-03
        91   -6.580903E-02
        92    1.864292E-02
        93   -5.769714E-03
        94    5.132876E-04
        95   -4.576478E-02
        96    2.449567E-03
        97    1.152501E-03
        98   -4.362333E-02
        99    4.121036E-02
       100    2.299644E-02
       101   -2.439194E-02
       102   -1.006479E-04
       103    1.225288E-04
       104   -2.188096E-05
       105   -2.676582E-05
       106    6.062468E-03
       107    4.149876E-03
       108    1.050234E-03
       109   -5.876704E-04
       110   -4.625635E-04
       111   -1.185738E-03
       112    1.385615E-02
       113    7.703757E-03
       114    1.844725E-03
       115   -1.402662E-03
       116   -4.420629E-04
       117    2.887122E-03
       118   -4.258243E-03
       119   -9.124520E-03
       120    3.083040E-05
       121    8.162978E-06
       122    2.228418E-04
       123   -2.012205E-05
       124   -2.880719E-06
       125    6.407942E-04
       126   -2.124127E-05
       127   -8.071066E-06
       128   -9.397679E-04
       129   -7.051250E-04
       130   -1.522117E-04
       131   -3.286310E-04
       132   -8.369371E-04
       133    1.522678E-02
       134    2.293160E-02
       135   -2.263678E-02
       136    5.181782E-03
       137   -1.141571E-03
       138    1.479672E-01
       139    1.773380E-02
       140   -1.005631E-02
       141    1.503659E-01
       142    8.707333E-03
       143    1.195570E-02
       144    9.726876E-02
       145   -3.213723E-04
       146    3.634859E-04
       147   -4.211351E-05
       148   -2.332599E-05
       149    1.709271E-03
       150   -3.314183E-03
       151   -1.399508E-03
       152    1.449615E-03
       153   -5.010727E-05
       154   -2.638609E-03
       155    6.171757E-03
       156   -5.397690E-03
       157   -1.009156E-02
       158    6.784938E-03
       159    3.306620E-03
       160    2.117139E-02
       161   -5.164669E-03
       162    9.684468E-03
       163    4.016503E-05
       164   -1.527207E-05
       165   -8.420024E-04
       166    2.456461E-05
       167   -2.673699E-05
       168    1.203348E-04
       169   -7.845164E-05
       170    4.722662E-05
       171    1.009330E-03
       172   -4.088018E-04
       173    1.403954E-03
       174    3.202816E-03
       175   -2.603829E-03
       176   -3.536978E-02
       177    9.883801E-02
       178   -1.011124E-02
       179   -1.518299E-02
       180   -2.416587E-07
       181    1.360316E-01
       182   -1.463270E-03
       183   -7.929625E-08
       184    1.391898E-01
       185    8.247193E-02
       186   -3.676587E-06
       187    1.361557E-01
       188   -9.086892E-04
       189    5.938840E-04
       190    3.148052E-04
       191   -3.711633E-09
       192   -8.987882E-03
       193   -1.139240E-07
       194    2.661612E-03
       195   -6.162208E-03
       196    3.500596E-03
       197    1.005555E-07
       198   -2.255962E-02
       199   -1.707341E-07
       200    1.838507E-02
       201   -1.928515E-02
       202    9.000865E-04
       203    2.520670E-07
       204   -1.082312E-02
       205    4.377350E-07
       206   -1.819104E-04
       207    6.720811E-09
       208   -4.737763E-04
       209    1.342537E-04
       210    3.337084E-09
       211   -8.838180E-04
       212    1.098048E-04
       213   -1.235400E-08
       214    1.519456E-03
       215    4.917184E-09
       216   -1.521232E-04
       217   -3.284317E-04
       218   -8.372631E-04
       219    1.522742E-02
       220    2.293842E-02
       221   -2.263688E-02
       222    5.183405E-03
       223    1.143661E-03
       224    1.479695E-01
       225    1.773423E-02
       226    1.005816E-02
       227    1.503683E-01
       228    8.698244E-03
       229   -1.195997E-02
       230    9.727071E-02
       231   -3.214161E-04
       232    3.635766E-04
       233   -4.216054E-05
       234    2.337564E-05
       235    1.709320E-03
       236    3.314227E-03
       237   -1.399402E-03
       238    1.449596E-03
       239   -5.019460E-05
       240    2.638663E-03
       241    6.171750E-03
       242    5.397695E-03
       243   -1.009079E-02
       244    6.783930E-03
       245    3.306855E-03
       246   -2.117201E-02
       247   -5.163693E-03
       248   -9.684033E-03
       249    4.016768E-05
       250    1.529348E-05
       251   -8.420133E-04
       252    2.457010E-05
       253    2.673926E-05
       254    1.203304E-04
       255   -7.846069E-05
       256   -4.725761E-05
       257    1.009349E-03
       258    4.087911E-04
       259    1.498187E-03
       260    1.532214E-03
       261    2.435794E-02
       262    2.089583E-05
       263    1.136543E-04
       264   -1.825117E-03
       265    7.268577E-03
       266    2.108152E-03
       267    4.192203E-03
       268    1.497103E-03
       269    1.530588E-03
       270    2.435809E-02
       271    2.080303E-05
       272   -1.134997E-04
       273   -1.825047E-03
       274    7.268263E-03
       275   -2.108142E-03
       276    4.192359E-03
       277    1.243076E-03
       278    4.764015E-03
       279   -5.828845E-02
       280    6.714122E-05
       281   -2.609692E-04
       282    6.108810E-03
       283    2.444267E-04
       284    5.560131E-03
       285    2.665546E-03
       286    1.243088E-03
       287    4.764153E-03
       288   -5.828994E-02
       289    6.717883E-05
       290    2.610571E-04
       291    6.108981E-03
       292    2.443574E-04
       293   -5.560067E-03
       294    2.665756E-03
       295    1.892264E-04
       296    4.465537E-04
       297   -5.784510E-04
       298   -1.109490E-03
       299    1.406037E-02
       300    5.554043E-03
       301   -2.854452E-03
       302   -5.577839E-07
       303   -7.592029E-03
       304   -2.158892E-03
       305   -4.037202E-07
       306   -9.920852E-03
       307    3.362338E-03
       308    3.024655E-08
       309    7.147288E-04
       310   -1.015894E-04
       311    9.928281E-05
       312    2.306547E-06
       313    2.058843E-07
       314   -4.134496E-03
       315    1.768391E-10
       316   -2.502804E-04
       317    1.723419E-04
       318    7.793849E-05
       319    5.371304E-07
       320   -1.230506E-02
       321    4.708331E-10
       322    8.300862E-05
       323   -4.107080E-03
       324    4.024071E-03
       325   -3.459446E-07
       326   -3.557922E-03
       327    7.411418E-08
       328   -1.354847E-05
       329    3.452875E-08
       330    8.386350E-06
       331    3.741512E-06
       332   -6.808483E-08
       333   -6.904893E-04
       334    1.443567E-05
       335    2.175965E-08
       336    6.792378E-04
       337    1.444899E-09
       338    6.315455E-05
       339    1.485122E-04
       340   -1.580564E-04
       341   -1.235619E-03
       342    9.885046E-03
       343    1.696221E-03
       344    1.991206E-03
       345   -5.026069E-04
       346    6.984336E-02
       347    1.998687E-03
       348   -5.903582E-04
       349    6.473218E-02
       350    2.623670E-03
       351   -1.161594E-03
       352    4.964636E-02
       353    6.394018E-04
       354   -2.070053E-04
       355    5.383835E-03
       356   -9.713049E-06
       357    2.292020E-05
       358   -1.320715E-05
       359   -1.566250E-05
       360    3.930259E-05
       361   -5.391525E-04
       362    1.401189E-05
       363    4.631828E-05
       364   -6.033017E-05
       365   -3.531944E-05
       366    6.309316E-04
       367   -1.712987E-03
       368    1.107463E-04
       369    3.017960E-05
       370   -1.409259E-04
       371    8.073417E-05
       372    1.040631E-03
       373   -3.398115E-04
       374   -3.696796E-06
       375   -5.633006E-06
       376   -6.712068E-05
       377    6.652811E-06
       378    9.435552E-07
       379   -8.910046E-05
       380   -1.693039E-06
       381    6.613916E-06
       382    1.791523E-04
       383   -1.390425E-04
       384    6.320797E-05
       385    1.486414E-04
       386   -1.582755E-04
       387   -1.236176E-03
       388    9.885270E-03
       389    1.696030E-03
       390    1.979457E-03
       391    5.096691E-04
       392    6.984357E-02
       393    1.988014E-03
       394    5.965097E-04
       395    6.473236E-02
       396    2.615474E-03
       397    1.166141E-03
       398    4.964685E-02
       399    6.384853E-04
       400    2.071223E-04
       401    5.383869E-03
       402   -9.792204E-06
       403    2.299809E-05
       404   -1.320589E-05
       405    1.564972E-05
       406    3.930275E-05
       407    5.391539E-04
       408    1.374393E-05
       409    4.652669E-05
       410   -6.027062E-05
       411    3.521568E-05
       412    6.309355E-04
       413    1.713001E-03
       414    1.103880E-04
       415    3.050269E-05
       416   -1.408907E-04
       417   -8.087395E-05
       418    1.040665E-03
       419    3.398225E-04
       420   -3.701251E-06
       421    5.653865E-06
       422   -6.712114E-05
       423    6.657902E-06
       424   -9.796006E-07
       425   -8.910076E-05
       426   -1.692153E-06
       427   -6.605855E-06
       428    1.791532E-04
       429    1.390433E-04
       430   -7.198554E-03
       431   -1.711163E-02
       432    2.661805E-02
       433    4.537451E-02
       434    1.426919E-03
       435    9.706302E-02
       436    2.954562E-02
       437   -7.450625E-08
       438   -2.373871E-01
       439    3.336538E-02
       440   -2.154343E-07
       441   -2.335584E-01
       442    4.074689E-02
       443   -5.782182E-07
       444   -1.923753E-01
       445    1.813940E-04
       446    1.057468E-04
       447   -2.871408E-04
       448   -4.368967E-09
       449   -1.219803E-03
       450    1.138679E-08
       451    3.651319E-04
       452    2.642209E-03
       453   -3.007341E-03
       454    1.224235E-08
       455   -4.373740E-03
       456   -1.018404E-08
       457    4.235820E-03
       458    7.363185E-03
       459   -1.159901E-02
       460    5.526260E-08
       461   -2.467680E-03
       462   -1.189926E-07
       463    2.333240E-04
       464   -1.892960E-09
       465    8.315714E-04
       466    1.379377E-04
       467   -1.887062E-09
       468   -3.616319E-04
       469   -4.509746E-04
       470    4.426734E-09
       471   -7.540382E-04
       472   -5.292808E-10
       473   -1.407905E-02
       474   -2.857020E-02
       475   -6.150315E-02
       476    3.380483E-03
       477    2.829965E-03
       478   -1.195761E-02
       479    8.911945E-04
       480    7.003510E-03
       481   -1.475253E-02
       482   -1.407909E-02
       483   -2.857039E-02
       484   -6.150341E-02
       485    3.380504E-03
       486   -2.830038E-03
       487   -1.195764E-02
       488    8.912480E-04
       489   -7.003577E-03
       490   -1.475255E-02
 Sym= X
 Ene= 0.919698
 Spin= Alpha
 Occup= 0.919698
         1    1.230154E-02
         2    2.757885E-02
         3   -2.333406E-02
         4   -2.904089E-01
         5   -5.966348E+00
         6    2.002625E+00
         7    8.181001E-03
         8    2.047798E-02
         9    3.754657E-03
        10    2.157564E-02
        11    5.844352E-03
        12    4.937699E-03
        13    1.041205E+00
        14   -1.451910E-01
        15    1.707483E-01
        16   -1.903899E-03
        17    2.252273E-04
        18    1.678672E-03
        19    6.044835E-04
        20    1.102244E-03
        21   -1.588421E-03
        22   -6.062655E-03
        23   -6.464666E-03
        24    1.252732E-02
        25    5.902497E-03
        26    3.257090E-03
        27   -1.437686E-03
        28    2.286111E-01
        29   -1.081846E-03
        30   -2.275292E-01
        31   -3.660699E-01
        32    5.761982E-02
        33    1.749548E-02
        34   -4.019451E-04
        35   -3.120186E-05
        36    4.490899E-06
        37    7.956226E-04
        38    6.121897E-05
        39    9.458816E-05
        40   -2.563566E-04
        41   -1.935728E-05
        42   -1.006133E-04
        43   -6.081247E-05
        44    3.860402E-03
        45    7.909812E-03
        46    2.991691E-03
        47   -1.916309E-01
        48   -4.112997E-01
        49   -1.565956E+00
        50    9.309831E-03
        51   -3.429458E-07
        52   -3.137204E-02
        53    8.724997E-02
        54    9.066688E-06
        55   -3.775793E-02
        56    2.579651E+00
        57    4.075762E-05
        58   -7.501601E-02
        59    2.993547E-04
        60   -2.761805E-03
        61    2.462451E-03
        62    3.101261E-08