[Molden Format]
[Title]
ADC(2) - opt by CAM-B3LYP gaussian                                              
[Atoms] AU
 c     1    6 -.12594776649128E+01 -.22773101438193E+01 -.39940542897370E-01
 c     2    6 -.25470425655544E+01 -.11810788300000E-05 -.37653974276580E-01
 c     3    6 -.12594776649128E+01 0.22773077816617E+01 -.39959440158700E-01
 c     4    6 0.13393870965995E+01 0.22758904870620E+01 -.43795584208460E-01
 c     5    6 0.26846831306008E+01 -.11810788300000E-05 -.44211323957690E-01
 c     6    6 0.13394059938609E+01 -.22758928492196E+01 -.43776686947130E-01
 h     7    1 -.23144739703802E+01 -.40231336316857E+01 -.37313823572660E-01
 h     8    1 -.23144739703802E+01 0.40231312695281E+01 -.37332720833990E-01
 h     9    1 0.23577983041343E+01 0.40499086888311E+01 -.52469427158400E-01
 h    10    1 0.23577983041343E+01 -.40498921537274E+01 -.52431632635740E-01
 n    11    7 -.52968964450843E+01 -.11810788300000E-05 -.29906097131750E-01
 o    12    8 -.63725096626615E+01 0.20302827815708E+01 -.26599076399200E-01
 o    13    8 -.63725096626615E+01 -.20302851437285E+01 -.26655768183180E-01
 n    14    7 0.52734000627795E+01 -.11810788300000E-05 -.11796733492422E+00
 h    15    1 0.61922038058499E+01 0.16034881344586E+01 0.31500671664254E+00
 h    16    1 0.61921849085885E+01 -.16034904966163E+01 0.31500671664254E+00
[GTO]
    1 0
 s    6 1.00
 0.13575349682000E+05 0.60645503603591E-03
 0.20352333680000E+04 0.46979088884982E-02
 0.46322562359000E+03 0.24332477647552E-01
 0.13120019598000E+03 0.97399968307759E-01
 0.42853015891000E+02 0.30195584253780E+00
 0.15584185766000E+02 0.66233609137875E+00
 s    2 1.00
 0.62067138508000E+01 0.65595308539952E+00
 0.25764896527000E+01 0.37585633285142E+00
 s    1 1.00
 0.57696339419000E+00 0.10000000000000E+01
 s    1 1.00
 0.22972831358000E+00 0.10000000000000E+01
 s    1 1.00
 0.95164440028000E-01 0.10000000000000E+01
 s    1 1.00
 0.48475401370000E-01 0.10000000000000E+01
 p    4 1.00
 0.34697232244000E+02 0.11327220003114E-01
 0.79582622826000E+01 0.76169659202087E-01
 0.23780826883000E+01 0.30192252202676E+00
 0.81433208183000E+00 0.72785027349547E+00
 p    1 1.00
 0.28887547253000E+00 0.10000000000000E+01
 p    1 1.00
 0.10056823671000E+00 0.10000000000000E+01
 d    1 1.00
 0.10970000000000E+01 0.10000000000000E+01
 d    1 1.00
 0.31800000000000E+00 0.10000000000000E+01
 d    1 1.00
 0.90985336424000E-01 0.10000000000000E+01
 f    1 1.00
 0.76100000000000E+00 0.10000000000000E+01
 
    2 0
 s    6 1.00
 0.13575349682000E+05 0.60645503603591E-03
 0.20352333680000E+04 0.46979088884982E-02
 0.46322562359000E+03 0.24332477647552E-01
 0.13120019598000E+03 0.97399968307759E-01
 0.42853015891000E+02 0.30195584253780E+00
 0.15584185766000E+02 0.66233609137875E+00
 s    2 1.00
 0.62067138508000E+01 0.65595308539952E+00
 0.25764896527000E+01 0.37585633285142E+00
 s    1 1.00
 0.57696339419000E+00 0.10000000000000E+01
 s    1 1.00
 0.22972831358000E+00 0.10000000000000E+01
 s    1 1.00
 0.95164440028000E-01 0.10000000000000E+01
 s    1 1.00
 0.48475401370000E-01 0.10000000000000E+01
 p    4 1.00
 0.34697232244000E+02 0.11327220003114E-01
 0.79582622826000E+01 0.76169659202087E-01
 0.23780826883000E+01 0.30192252202676E+00
 0.81433208183000E+00 0.72785027349547E+00
 p    1 1.00
 0.28887547253000E+00 0.10000000000000E+01
 p    1 1.00
 0.10056823671000E+00 0.10000000000000E+01
 d    1 1.00
 0.10970000000000E+01 0.10000000000000E+01
 d    1 1.00
 0.31800000000000E+00 0.10000000000000E+01
 d    1 1.00
 0.90985336424000E-01 0.10000000000000E+01
 f    1 1.00
 0.76100000000000E+00 0.10000000000000E+01
 
    3 0
 s    6 1.00
 0.13575349682000E+05 0.60645503603591E-03
 0.20352333680000E+04 0.46979088884982E-02
 0.46322562359000E+03 0.24332477647552E-01
 0.13120019598000E+03 0.97399968307759E-01
 0.42853015891000E+02 0.30195584253780E+00
 0.15584185766000E+02 0.66233609137875E+00
 s    2 1.00
 0.62067138508000E+01 0.65595308539952E+00
 0.25764896527000E+01 0.37585633285142E+00
 s    1 1.00
 0.57696339419000E+00 0.10000000000000E+01
 s    1 1.00
 0.22972831358000E+00 0.10000000000000E+01
 s    1 1.00
 0.95164440028000E-01 0.10000000000000E+01
 s    1 1.00
 0.48475401370000E-01 0.10000000000000E+01
 p    4 1.00
 0.34697232244000E+02 0.11327220003114E-01
 0.79582622826000E+01 0.76169659202087E-01
 0.23780826883000E+01 0.30192252202676E+00
 0.81433208183000E+00 0.72785027349547E+00
 p    1 1.00
 0.28887547253000E+00 0.10000000000000E+01
 p    1 1.00
 0.10056823671000E+00 0.10000000000000E+01
 d    1 1.00
 0.10970000000000E+01 0.10000000000000E+01
 d    1 1.00
 0.31800000000000E+00 0.10000000000000E+01
 d    1 1.00
 0.90985336424000E-01 0.10000000000000E+01
 f    1 1.00
 0.76100000000000E+00 0.10000000000000E+01
 
    4 0
 s    6 1.00
 0.13575349682000E+05 0.60645503603591E-03
 0.20352333680000E+04 0.46979088884982E-02
 0.46322562359000E+03 0.24332477647552E-01
 0.13120019598000E+03 0.97399968307759E-01
 0.42853015891000E+02 0.30195584253780E+00
 0.15584185766000E+02 0.66233609137875E+00
 s    2 1.00
 0.62067138508000E+01 0.65595308539952E+00
 0.25764896527000E+01 0.37585633285142E+00
 s    1 1.00
 0.57696339419000E+00 0.10000000000000E+01
 s    1 1.00
 0.22972831358000E+00 0.10000000000000E+01
 s    1 1.00
 0.95164440028000E-01 0.10000000000000E+01
 s    1 1.00
 0.48475401370000E-01 0.10000000000000E+01
 p    4 1.00
 0.34697232244000E+02 0.11327220003114E-01
 0.79582622826000E+01 0.76169659202087E-01
 0.23780826883000E+01 0.30192252202676E+00
 0.81433208183000E+00 0.72785027349547E+00
 p    1 1.00
 0.28887547253000E+00 0.10000000000000E+01
 p    1 1.00
 0.10056823671000E+00 0.10000000000000E+01
 d    1 1.00
 0.10970000000000E+01 0.10000000000000E+01
 d    1 1.00
 0.31800000000000E+00 0.10000000000000E+01
 d    1 1.00
 0.90985336424000E-01 0.10000000000000E+01
 f    1 1.00
 0.76100000000000E+00 0.10000000000000E+01
 
    5 0
 s    6 1.00
 0.13575349682000E+05 0.60645503603591E-03
 0.20352333680000E+04 0.46979088884982E-02
 0.46322562359000E+03 0.24332477647552E-01
 0.13120019598000E+03 0.97399968307759E-01
 0.42853015891000E+02 0.30195584253780E+00
 0.15584185766000E+02 0.66233609137875E+00
 s    2 1.00
 0.62067138508000E+01 0.65595308539952E+00
 0.25764896527000E+01 0.37585633285142E+00
 s    1 1.00
 0.57696339419000E+00 0.10000000000000E+01
 s    1 1.00
 0.22972831358000E+00 0.10000000000000E+01
 s    1 1.00
 0.95164440028000E-01 0.10000000000000E+01
 s    1 1.00
 0.48475401370000E-01 0.10000000000000E+01
 p    4 1.00
 0.34697232244000E+02 0.11327220003114E-01
 0.79582622826000E+01 0.76169659202087E-01
 0.23780826883000E+01 0.30192252202676E+00
 0.81433208183000E+00 0.72785027349547E+00
 p    1 1.00
 0.28887547253000E+00 0.10000000000000E+01
 p    1 1.00
 0.10056823671000E+00 0.10000000000000E+01
 d    1 1.00
 0.10970000000000E+01 0.10000000000000E+01
 d    1 1.00
 0.31800000000000E+00 0.10000000000000E+01
 d    1 1.00
 0.90985336424000E-01 0.10000000000000E+01
 f    1 1.00
 0.76100000000000E+00 0.10000000000000E+01
 
    6 0
 s    6 1.00
 0.13575349682000E+05 0.60645503603591E-03
 0.20352333680000E+04 0.46979088884982E-02
 0.46322562359000E+03 0.24332477647552E-01
 0.13120019598000E+03 0.97399968307759E-01
 0.42853015891000E+02 0.30195584253780E+00
 0.15584185766000E+02 0.66233609137875E+00
 s    2 1.00
 0.62067138508000E+01 0.65595308539952E+00
 0.25764896527000E+01 0.37585633285142E+00
 s    1 1.00
 0.57696339419000E+00 0.10000000000000E+01
 s    1 1.00
 0.22972831358000E+00 0.10000000000000E+01
 s    1 1.00
 0.95164440028000E-01 0.10000000000000E+01
 s    1 1.00
 0.48475401370000E-01 0.10000000000000E+01
 p    4 1.00
 0.34697232244000E+02 0.11327220003114E-01
 0.79582622826000E+01 0.76169659202087E-01
 0.23780826883000E+01 0.30192252202676E+00
 0.81433208183000E+00 0.72785027349547E+00
 p    1 1.00
 0.28887547253000E+00 0.10000000000000E+01
 p    1 1.00
 0.10056823671000E+00 0.10000000000000E+01
 d    1 1.00
 0.10970000000000E+01 0.10000000000000E+01
 d    1 1.00
 0.31800000000000E+00 0.10000000000000E+01
 d    1 1.00
 0.90985336424000E-01 0.10000000000000E+01
 f    1 1.00
 0.76100000000000E+00 0.10000000000000E+01
 
    7 0
 s    3 1.00
 0.34061341000000E+02 0.25439307208879E-01
 0.51235746000000E+01 0.19008594890375E+00
 0.11646626000000E+01 0.85244113011042E+00
 s    1 1.00
 0.32723041000000E+00 0.10000000000000E+01
 s    1 1.00
 0.10307241000000E+00 0.10000000000000E+01
 p    1 1.00
 0.80000000000000E+00 0.10000000000000E+01
 p    1 1.00
 0.95774129632000E-01 0.10000000000000E+01
 
    8 0
 s    3 1.00
 0.34061341000000E+02 0.25439307208879E-01
 0.51235746000000E+01 0.19008594890375E+00
 0.11646626000000E+01 0.85244113011042E+00
 s    1 1.00
 0.32723041000000E+00 0.10000000000000E+01
 s    1 1.00
 0.10307241000000E+00 0.10000000000000E+01
 p    1 1.00
 0.80000000000000E+00 0.10000000000000E+01
 p    1 1.00
 0.95774129632000E-01 0.10000000000000E+01
 
    9 0
 s    3 1.00
 0.34061341000000E+02 0.25439307208879E-01
 0.51235746000000E+01 0.19008594890375E+00
 0.11646626000000E+01 0.85244113011042E+00
 s    1 1.00
 0.32723041000000E+00 0.10000000000000E+01
 s    1 1.00
 0.10307241000000E+00 0.10000000000000E+01
 p    1 1.00
 0.80000000000000E+00 0.10000000000000E+01
 p    1 1.00
 0.95774129632000E-01 0.10000000000000E+01
 
   10 0
 s    3 1.00
 0.34061341000000E+02 0.25439307208879E-01
 0.51235746000000E+01 0.19008594890375E+00
 0.11646626000000E+01 0.85244113011042E+00
 s    1 1.00
 0.32723041000000E+00 0.10000000000000E+01
 s    1 1.00
 0.10307241000000E+00 0.10000000000000E+01
 p    1 1.00
 0.80000000000000E+00 0.10000000000000E+01
 p    1 1.00
 0.95774129632000E-01 0.10000000000000E+01
 
   11 0
 s    6 1.00
 0.19730800647000E+05 0.58626402628763E-03
 0.29578958745000E+04 0.45428820586397E-02
 0.67322133595000E+03 0.23558413450084E-01
 0.19068249494000E+03 0.94709193292923E-01
 0.62295441898000E+02 0.29719784913376E+00
 0.22654161182000E+02 0.66916246895232E+00
 s    2 1.00
 0.89791477428000E+01 0.64596683630063E+00
 0.36863002370000E+01 0.38700574393705E+00
 s    1 1.00
 0.84660076805000E+00 0.10000000000000E+01
 s    1 1.00
 0.33647133771000E+00 0.10000000000000E+01
 s    1 1.00
 0.13647653675000E+00 0.10000000000000E+01
 s    1 1.00
 0.68441605847000E-01 0.10000000000000E+01
 p    4 1.00
 0.49200380510000E+02 0.11448825101764E-01
 0.11346790537000E+02 0.78422337970864E-01
 0.34273972411000E+01 0.30818094738830E+00
 0.11785525134000E+01 0.72027196368413E+00
 p    1 1.00
 0.41642204972000E+00 0.10000000000000E+01
 p    1 1.00
 0.14260826011000E+00 0.10000000000000E+01
 d    1 1.00
 0.16540000000000E+01 0.10000000000000E+01
 d    1 1.00
 0.46900000000000E+00 0.10000000000000E+01
 d    1 1.00
 0.12829642058000E+00 0.10000000000000E+01
 f    1 1.00
 0.10930000000000E+01 0.10000000000000E+01
 
   12 0
 s    6 1.00
 0.27032382631000E+05 0.57227335211155E-03
 0.40523871392000E+04 0.44353233492995E-02
 0.92232722710000E+03 0.23020107706038E-01
 0.26124070989000E+03 0.92822490667928E-01
 0.85354641351000E+02 0.29378500009671E+00
 0.31035035245000E+02 0.67401604501641E+00
 s    2 1.00
 0.12260860728000E+02 0.63839937025506E+00
 0.49987076005000E+01 0.39534587125718E+00
 s    1 1.00
 0.11703108158000E+01 0.10000000000000E+01
 s    1 1.00
 0.46474740994000E+00 0.10000000000000E+01
 s    1 1.00
 0.18504536357000E+00 0.10000000000000E+01
 s    1 1.00
 0.70288026270000E-01 0.10000000000000E+01
 p    4 1.00
 0.63274954801000E+02 0.12018332222616E-01
 0.14627049379000E+02 0.83005421790056E-01
 0.44501223456000E+01 0.31991743925964E+00
 0.15275799647000E+01 0.70715542916104E+00
 p    1 1.00
 0.52935117943000E+00 0.10000000000000E+01
 p    1 1.00
 0.17478421270000E+00 0.10000000000000E+01
 p    1 1.00
 0.51112745706000E-01 0.10000000000000E+01
 d    1 1.00
 0.23140000000000E+01 0.10000000000000E+01
 d    1 1.00
 0.64500000000000E+00 0.10000000000000E+01
 d    1 1.00
 0.14696477366000E+00 0.10000000000000E+01
 f    1 1.00
 0.14280000000000E+01 0.10000000000000E+01
 
   13 0
 s    6 1.00
 0.27032382631000E+05 0.57227335211155E-03
 0.40523871392000E+04 0.44353233492995E-02
 0.92232722710000E+03 0.23020107706038E-01
 0.26124070989000E+03 0.92822490667928E-01
 0.85354641351000E+02 0.29378500009671E+00
 0.31035035245000E+02 0.67401604501641E+00
 s    2 1.00
 0.12260860728000E+02 0.63839937025506E+00
 0.49987076005000E+01 0.39534587125718E+00
 s    1 1.00
 0.11703108158000E+01 0.10000000000000E+01
 s    1 1.00
 0.46474740994000E+00 0.10000000000000E+01
 s    1 1.00
 0.18504536357000E+00 0.10000000000000E+01
 s    1 1.00
 0.70288026270000E-01 0.10000000000000E+01
 p    4 1.00
 0.63274954801000E+02 0.12018332222616E-01
 0.14627049379000E+02 0.83005421790056E-01
 0.44501223456000E+01 0.31991743925964E+00
 0.15275799647000E+01 0.70715542916104E+00
 p    1 1.00
 0.52935117943000E+00 0.10000000000000E+01
 p    1 1.00
 0.17478421270000E+00 0.10000000000000E+01
 p    1 1.00
 0.51112745706000E-01 0.10000000000000E+01
 d    1 1.00
 0.23140000000000E+01 0.10000000000000E+01
 d    1 1.00
 0.64500000000000E+00 0.10000000000000E+01
 d    1 1.00
 0.14696477366000E+00 0.10000000000000E+01
 f    1 1.00
 0.14280000000000E+01 0.10000000000000E+01
 
   14 0
 s    6 1.00
 0.19730800647000E+05 0.58626402628763E-03
 0.29578958745000E+04 0.45428820586397E-02
 0.67322133595000E+03 0.23558413450084E-01
 0.19068249494000E+03 0.94709193292923E-01
 0.62295441898000E+02 0.29719784913376E+00
 0.22654161182000E+02 0.66916246895232E+00
 s    2 1.00
 0.89791477428000E+01 0.64596683630063E+00
 0.36863002370000E+01 0.38700574393705E+00
 s    1 1.00
 0.84660076805000E+00 0.10000000000000E+01
 s    1 1.00
 0.33647133771000E+00 0.10000000000000E+01
 s    1 1.00
 0.13647653675000E+00 0.10000000000000E+01
 s    1 1.00
 0.68441605847000E-01 0.10000000000000E+01
 p    4 1.00
 0.49200380510000E+02 0.11448825101764E-01
 0.11346790537000E+02 0.78422337970864E-01
 0.34273972411000E+01 0.30818094738830E+00
 0.11785525134000E+01 0.72027196368413E+00
 p    1 1.00
 0.41642204972000E+00 0.10000000000000E+01
 p    1 1.00
 0.14260826011000E+00 0.10000000000000E+01
 d    1 1.00
 0.16540000000000E+01 0.10000000000000E+01
 d    1 1.00
 0.46900000000000E+00 0.10000000000000E+01
 d    1 1.00
 0.12829642058000E+00 0.10000000000000E+01
 f    1 1.00
 0.10930000000000E+01 0.10000000000000E+01
 
   15 0
 s    3 1.00
 0.34061341000000E+02 0.25439307208879E-01
 0.51235746000000E+01 0.19008594890375E+00
 0.11646626000000E+01 0.85244113011042E+00
 s    1 1.00
 0.32723041000000E+00 0.10000000000000E+01
 s    1 1.00
 0.10307241000000E+00 0.10000000000000E+01
 p    1 1.00
 0.80000000000000E+00 0.10000000000000E+01
 p    1 1.00
 0.95774129632000E-01 0.10000000000000E+01
 
   16 0
 s    3 1.00
 0.34061341000000E+02 0.25439307208879E-01
 0.51235746000000E+01 0.19008594890375E+00
 0.11646626000000E+01 0.85244113011042E+00
 s    1 1.00
 0.32723041000000E+00 0.10000000000000E+01
 s    1 1.00
 0.10307241000000E+00 0.10000000000000E+01
 p    1 1.00
 0.80000000000000E+00 0.10000000000000E+01
 p    1 1.00
 0.95774129632000E-01 0.10000000000000E+01
 
[MO]
 Sym= X
 Ene= -0.951865
 Spin= Alpha
 Occup= -0.951865
         1   -5.550653E-03
         2   -1.273695E-02
         3    2.638512E-02
         4   -7.002028E-03
         5    1.598365E-01
         6    3.412809E-02
         7   -4.860382E-02
         8   -1.797801E-02
         9    4.013517E-05
        10   -5.721901E-02
        11   -1.639001E-02
        12    3.839611E-05
        13   -8.096833E-03
        14    3.312291E-02
        15    1.553304E-04
        16   -1.676820E-03
        17    1.893126E-03
        18   -2.163051E-04
        19    4.333978E-04
        20    1.311070E-06
        21   -3.324614E-06
        22   -1.028712E-02
        23    7.119034E-03
        24    3.168082E-03
        25    2.035305E-03
        26    2.084722E-05
        27   -3.585647E-06
        28    1.018307E-02
        29   -6.631240E-03
        30   -3.551835E-03
        31   -5.341872E-03
        32    1.613711E-04
        33   -5.266747E-05
        34   -7.861374E-05
        35    1.025635E-04
        36    9.826725E-09
        37   -5.598862E-05
        38   -2.217863E-04
        39   -3.349300E-07
        40    1.614600E-04
        41    8.418295E-05
        42    3.217460E-07
        43    8.860405E-07
        44   -1.825225E-07
        45   -4.168996E-07
        46    8.366586E-07
        47   -8.307565E-07
        48   -4.926235E-06
        49    4.087167E-06
        50   -3.520655E-06
        51   -2.011584E-02
        52   -4.642965E-05
        53   -3.236968E-06
        54   -3.102214E-02
        55   -4.694404E-05
        56   -2.321403E-06
        57    9.585300E-02
        58   -1.425952E-05
        59    1.838117E-07
        60   -1.732541E-07
        61   -1.055763E-08
        62   -1.384822E-03
        63   -7.916853E-07
        64    3.579823E-06
        65    2.852525E-07
        66   -4.372353E-07
        67    1.519828E-07
        68    3.733846E-03
        69   -1.358685E-06
        70   -1.693132E-06
        71    6.033832E-06
        72   -6.360019E-06
        73    3.261875E-07
        74    2.392090E-02
        75   -1.827605E-06
        76   -2.552703E-04
        77   -2.185349E-08
        78   -5.792046E-04
        79    3.671113E-07
        80    1.075847E-08
        81    5.944593E-04
        82   -1.822455E-07
        83    1.856106E-08
        84    1.826252E-04
        85   -3.102859E-07
        86   -7.252873E-07
        87    5.550414E-03
        88    1.273640E-02
        89   -2.638373E-02
        90    7.001110E-03
        91   -1.598198E-01
        92   -3.413806E-02
        93    4.860934E-02
        94   -1.797671E-02
        95   -1.075781E-04
        96    5.722037E-02
        97   -1.638942E-02
        98   -1.051421E-04
        99    8.079079E-03
       100    3.312135E-02
       101   -1.778833E-04
       102    1.677031E-03
       103   -1.893335E-03
       104    2.163042E-04
       105    4.334343E-04
       106   -1.292267E-06
       107   -1.287263E-06
       108    1.028683E-02
       109   -7.118901E-03
       110   -3.167925E-03
       111    2.036019E-03
       112   -2.074797E-05
       113   -2.717682E-07
       114   -1.018381E-02
       115    6.631598E-03
       116    3.552209E-03
       117   -5.343819E-03
       118   -1.575382E-04
       119   -5.028782E-05
       120    7.860328E-05
       121    1.025733E-04
       122    5.573208E-07
       123    5.599565E-05
       124   -2.218019E-04
       125    1.034251E-08
       126   -1.614530E-04
       127    8.418535E-05
       128   -7.580669E-07
       129    6.744781E-07
       130   -3.181185E-03
       131   -7.228967E-03
       132    1.410001E-02
       133   -1.105210E-02
       134    6.543798E-02
       135    1.162741E-02
       136   -3.480308E-02
       137    7.859619E-03
       138    5.981340E-05
       139   -1.822872E-03
       140   -9.282611E-04
       141    6.426152E-05
       142   -2.213164E-02
       143    1.581677E-02
       144    7.130270E-05
       145    8.734338E-04
       146   -7.643303E-04
       147   -1.091036E-04
       148    7.592080E-04
       149   -1.680169E-06
       150   -4.520712E-07
       151   -4.975337E-03
       152    3.207355E-03
       153    1.767982E-03
       154    6.407837E-04
       155    3.171038E-05
       156   -2.106852E-05
       157   -5.284615E-04
       158    1.530629E-03
       159   -1.002167E-03
       160    4.411706E-03
       161   -2.531085E-04
       162    2.861037E-05
       163   -1.367851E-05
       164    7.216495E-06
       165   -1.182791E-06
       166   -3.127809E-05
       167    4.631671E-06
       168    7.450518E-07
       169    4.962974E-05
       170   -1.431362E-05
       171    8.418290E-07
       172   -1.509496E-06
       173   -5.410687E-07
       174   -1.227751E-06
       175    1.392002E-06
       176    8.031294E-06
       177   -2.966968E-05
       178    9.196195E-07
       179    6.357358E-06
       180   -2.679970E-02
       181    1.383298E-05
       182    1.473811E-06
       183   -3.098918E-02
       184    1.317483E-05
       185   -2.329233E-05
       186    3.344973E-03
       187   -8.278507E-06
       188    3.205633E-07
       189   -2.344151E-07
       190   -8.614820E-08
       191    3.547475E-04
       192    1.862671E-06
       193    1.193944E-05
       194   -8.414214E-07
       195    1.703516E-06
       196   -8.620947E-07
       197    3.919374E-03
       198    4.114835E-06
       199   -5.039419E-05
       200   -5.673821E-06
       201    5.618233E-06
       202    5.558840E-08
       203   -3.196315E-03
       204    5.162429E-07
       205    2.390399E-04
       206    5.977945E-08
       207   -2.398872E-04
       208   -1.720126E-07
       209   -3.655753E-08
       210    1.963947E-04
       211    3.385955E-07
       212   -4.364502E-08
       213    1.254477E-04
       214   -1.078164E-07
       215    7.963001E-07
       216    3.181284E-03
       217    7.229187E-03
       218   -1.409947E-02
       219    1.104127E-02
       220   -6.545329E-02
       221   -1.161520E-02
       222    3.479767E-02
       223    7.858695E-03
       224   -9.115453E-05
       225    1.812312E-03
       226   -9.341087E-04
       227   -9.525966E-05
       228    2.212389E-02
       229    1.582770E-02
       230   -8.493607E-05
       231   -8.731299E-04
       232    7.639876E-04
       233    1.091423E-04
       234    7.592515E-04
       235    3.593777E-06
       236   -4.114957E-07
       237    4.975913E-03
       238   -3.208103E-03
       239   -1.767810E-03
       240    6.393528E-04
       241   -2.856725E-05
       242   -2.057930E-05
       243    5.344816E-04
       244   -1.535099E-03
       245    1.000617E-03
       246    4.420693E-03
       247    2.558803E-04
       248    3.390198E-05
       249    1.365243E-05
       250    7.208829E-06
       251    1.431117E-06
       252    3.126223E-05
       253    4.611610E-06
       254   -1.049369E-06
       255   -4.957888E-05
       256   -1.428327E-05
       257   -8.706761E-07
       258   -1.363022E-06
       259    2.322399E-02
       260    3.275014E-02
       261    3.271122E-02
       262    2.525994E-03
       263    3.369360E-03
       264   -6.966550E-06
       265    1.018866E-02
       266   -2.013372E-03
       267    1.121406E-05
       268   -2.322507E-02
       269   -3.275152E-02
       270   -3.272739E-02
       271   -2.525934E-03
       272    3.369477E-03
       273    4.578456E-06
       274   -1.019229E-02
       275   -2.011664E-03
       276   -1.246936E-05
       277   -8.238580E-04
       278   -1.649310E-03
       279   -2.123250E-02
       280   -6.136848E-04
       281    3.463204E-04
       282    2.184600E-06
       283   -1.781478E-03
       284    2.838216E-03
       285    4.430435E-05
       286    8.222392E-04
       287    1.645148E-03
       288    2.126531E-02
       289    6.136867E-04
       290    3.460244E-04
       291   -3.149123E-06
       292    1.777628E-03
       293    2.840818E-03
       294   -4.132936E-05
       295   -1.153659E-07
       296   -2.688521E-07
       297    2.643428E-07
       298    1.243448E-06
       299   -2.435444E-06
       300   -3.307198E-06
       301    3.433883E-06
       302   -4.619238E-02
       303    6.511137E-06
       304    3.067385E-06
       305   -3.406913E-02
       306    6.429917E-06
       307    1.779681E-07
       308    9.198824E-03
       309   -8.403086E-08
       310    2.389792E-07
       311   -2.730143E-07
       312    3.403510E-08
       313    1.005685E-02
       314   -6.977878E-07
       315   -2.839114E-05
       316    6.721577E-07
       317   -6.977354E-07
       318    2.557764E-08
       319    2.679459E-02
       320   -1.993022E-06
       321   -7.603735E-05
       322   -1.357562E-07
       323    1.030981E-06
       324   -8.952247E-07
       325   -4.390090E-03
       326   -1.256436E-06
       327    3.847517E-05
       328    3.033388E-09
       329    2.146138E-03
       330   -2.877640E-08
       331    5.215666E-09
       332   -3.056486E-03
       333   -1.647172E-07
       334   -9.285383E-09
       335    1.771393E-04
       336    2.033248E-07
       337    1.101648E-05
       338    4.815702E-04
       339    1.288476E-03
       340   -1.473202E-03
       341    5.714563E-03
       342   -4.113208E-03
       343    2.238021E-02
       344    2.567659E-01
       345    2.299988E-01
       346   -7.016899E-04
       347    2.330401E-01
       348    2.013216E-01
       349   -6.348773E-04
       350    1.724968E-01
       351    1.417779E-01
       352   -4.924419E-04
       353    2.987144E-02
       354    1.449423E-02
       355   -8.822411E-05
       356    2.212102E-03
       357   -2.945084E-03
       358    7.329826E-04
       359    1.521005E-04
       360   -4.578591E-06
       361   -1.080879E-06
       362    6.830113E-03
       363   -7.700685E-03
       364    8.705722E-04
       365   -6.835525E-04
       366   -1.722417E-05
       367    1.971502E-06
       368    9.086247E-03
       369   -7.581491E-03
       370   -1.504755E-03
       371   -3.087594E-04
       372   -2.849739E-05
       373    9.172927E-06
       374    2.447296E-04
       375    8.054816E-04
       376   -1.187998E-06
       377   -4.811220E-04
       378   -8.857598E-04
       379   -1.174425E-07
       380    1.527828E-04
       381   -1.949072E-04
       382    1.711309E-06
       383    2.232741E-06
       384   -4.816381E-04
       385   -1.288637E-03
       386    1.473447E-03
       387   -5.713133E-03
       388    4.108386E-03
       389   -2.238037E-02
       390   -2.567779E-01
       391    2.299998E-01
       392    7.400754E-04
       393   -2.330508E-01
       394    2.013226E-01
       395    6.698547E-04
       396   -1.725052E-01
       397    1.417785E-01
       398    5.157221E-04
       399   -2.987243E-02
       400    1.449452E-02
       401    9.006388E-05
       402   -2.212121E-03
       403    2.945062E-03
       404   -7.329411E-04
       405    1.519964E-04
       406    4.718910E-06
       407   -5.500319E-07
       408   -6.830239E-03
       409    7.700677E-03
       410   -8.704379E-04
       411   -6.837807E-04
       412    1.777588E-05
       413    3.488267E-06
       414   -9.086489E-03
       415    7.581575E-03
       416    1.504914E-03
       417   -3.088553E-04
       418    2.942074E-05
       419    9.583707E-06
       420   -2.447152E-04
       421    8.054919E-04
       422    1.115664E-06
       423    4.810932E-04
       424   -8.857880E-04
       425    5.578728E-08
       426   -1.527733E-04
       427   -1.948928E-04
       428   -1.552607E-06
       429    2.356518E-06
       430    2.045594E-06
       431    4.852914E-06
       432   -7.510220E-06
       433   -1.275742E-05
       434    2.551121E-06
       435   -1.601293E-05
       436   -9.626192E-06
       437    1.015980E-02
       438    6.699292E-05
       439   -1.069947E-05
       440    7.611233E-03
       441    6.488905E-05
       442   -1.508325E-05
       443    3.945951E-03
       444    4.509474E-05
       445   -4.441195E-08
       446   -9.213207E-08
       447    1.365440E-07
       448    5.500008E-04
       449   -3.542213E-07
       450    1.602072E-04
       451    2.629499E-08
       452   -9.931192E-07
       453    9.668242E-07
       454    1.598573E-03
       455   -7.320131E-07
       456    2.208965E-04
       457    8.771514E-08
       458   -3.066860E-06
       459    2.979145E-06
       460   -1.116913E-03
       461   -6.331043E-08
       462   -2.431036E-04
       463   -4.662373E-08
       464    8.901917E-05
       465   -3.173406E-07
       466   -4.994442E-08
       467   -1.011451E-04
       468    2.543535E-07
       469    1.124967E-07
       470   -1.828668E-05
       471    1.714036E-07
       472    3.238967E-05
       473    5.582029E-03
       474    8.758917E-03
       475    1.403763E-02
       476   -4.159543E-04
       477   -5.245988E-04
       478   -2.059305E-04
       479   -1.768592E-03
       480   -1.598171E-03
       481   -4.916119E-04
       482   -5.576593E-03
       483   -8.745587E-03
       484   -1.400828E-02
       485    4.138178E-04
       486   -5.230613E-04
       487    2.120885E-04
       488    1.765430E-03
       489   -1.595287E-03
       490    4.946540E-04
 Sym= X
 Ene= 0.951865
 Spin= Alpha
 Occup= 0.951865
         1   -1.029775E-04
         2   -2.015959E-04
         3    7.932607E-04
         4   -1.616837E-03
         5    1.239835E+00
         6    2.266990E-01
         7   -1.368725E-03
         8   -1.893270E-03
         9   -1.812578E-01
        10   -1.773886E-02
        11   -8.505362E-05
        12   -2.026773E-01
        13   -3.255671E-01
        14    5.294138E-01
        15    1.267580E-01
        16   -6.368223E-05
        17    5.958109E-05
        18    4.101138E-06
        19    2.268044E-05
        20    5.081680E-03
        21   -5.729592E-04
        22   -3.039995E-03
        23    2.784599E-03
        24    2.553955E-04
        25   -6.980772E-04
        26    1.582127E-02
        27    4.744856E-03
        28   -1.234843E-01
        29    1.298017E-01
        30   -6.317354E-03
        31   -1.783589E-01
        32   -1.141762E-01
        33    1.521895E-01
        34   -7.773481E-05
        35   -2.491123E-05
        36    1.965191E-04
        37   -3.800560E-05
        38   -4.993975E-06
        39    2.206525E-04
        40    1.422978E-04
        41    3.841590E-05
        42   -4.843106E-04
        43   -6.740101E-05
        44   -1.773808E-07
        45   -3.861477E-07
        46    6.877479E-07
        47    6.133812E-06
        48    3.423060E-04
        49   -2.756410E-04
        50    6.442478E-09
        51    9.005411E-05
        52    3.575448E-07
        53   -1.009292E-06
        54    7.384473E-03
        55    2.703499E-07
        56    1.672434E-04
        57    1.235106E+00
        58   -1.176648E-05
        59    9.140569E-08
        60    7.962001E-08
        61   -1.710257E-07
        62    9.749134E-05