[Molden Format]
[Title]
ADC(2) - opt by CAM-B3LYP gaussian                                              
[Atoms] AU
 c     1    6 -.12594776649128E+01 -.22773101438193E+01 -.39940542897370E-01
 c     2    6 -.25470425655544E+01 -.11810788300000E-05 -.37653974276580E-01
 c     3    6 -.12594776649128E+01 0.22773077816617E+01 -.39959440158700E-01
 c     4    6 0.13393870965995E+01 0.22758904870620E+01 -.43795584208460E-01
 c     5    6 0.26846831306008E+01 -.11810788300000E-05 -.44211323957690E-01
 c     6    6 0.13394059938609E+01 -.22758928492196E+01 -.43776686947130E-01
 h     7    1 -.23144739703802E+01 -.40231336316857E+01 -.37313823572660E-01
 h     8    1 -.23144739703802E+01 0.40231312695281E+01 -.37332720833990E-01
 h     9    1 0.23577983041343E+01 0.40499086888311E+01 -.52469427158400E-01
 h    10    1 0.23577983041343E+01 -.40498921537274E+01 -.52431632635740E-01
 n    11    7 -.52968964450843E+01 -.11810788300000E-05 -.29906097131750E-01
 o    12    8 -.63725096626615E+01 0.20302827815708E+01 -.26599076399200E-01
 o    13    8 -.63725096626615E+01 -.20302851437285E+01 -.26655768183180E-01
 n    14    7 0.52734000627795E+01 -.11810788300000E-05 -.11796733492422E+00
 h    15    1 0.61922038058499E+01 0.16034881344586E+01 0.31500671664254E+00
 h    16    1 0.61921849085885E+01 -.16034904966163E+01 0.31500671664254E+00
[GTO]
    1 0
 s    6 1.00
 0.13575349682000E+05 0.60645503603591E-03
 0.20352333680000E+04 0.46979088884982E-02
 0.46322562359000E+03 0.24332477647552E-01
 0.13120019598000E+03 0.97399968307759E-01
 0.42853015891000E+02 0.30195584253780E+00
 0.15584185766000E+02 0.66233609137875E+00
 s    2 1.00
 0.62067138508000E+01 0.65595308539952E+00
 0.25764896527000E+01 0.37585633285142E+00
 s    1 1.00
 0.57696339419000E+00 0.10000000000000E+01
 s    1 1.00
 0.22972831358000E+00 0.10000000000000E+01
 s    1 1.00
 0.95164440028000E-01 0.10000000000000E+01
 s    1 1.00
 0.48475401370000E-01 0.10000000000000E+01
 p    4 1.00
 0.34697232244000E+02 0.11327220003114E-01
 0.79582622826000E+01 0.76169659202087E-01
 0.23780826883000E+01 0.30192252202676E+00
 0.81433208183000E+00 0.72785027349547E+00
 p    1 1.00
 0.28887547253000E+00 0.10000000000000E+01
 p    1 1.00
 0.10056823671000E+00 0.10000000000000E+01
 d    1 1.00
 0.10970000000000E+01 0.10000000000000E+01
 d    1 1.00
 0.31800000000000E+00 0.10000000000000E+01
 d    1 1.00
 0.90985336424000E-01 0.10000000000000E+01
 f    1 1.00
 0.76100000000000E+00 0.10000000000000E+01
 
    2 0
 s    6 1.00
 0.13575349682000E+05 0.60645503603591E-03
 0.20352333680000E+04 0.46979088884982E-02
 0.46322562359000E+03 0.24332477647552E-01
 0.13120019598000E+03 0.97399968307759E-01
 0.42853015891000E+02 0.30195584253780E+00
 0.15584185766000E+02 0.66233609137875E+00
 s    2 1.00
 0.62067138508000E+01 0.65595308539952E+00
 0.25764896527000E+01 0.37585633285142E+00
 s    1 1.00
 0.57696339419000E+00 0.10000000000000E+01
 s    1 1.00
 0.22972831358000E+00 0.10000000000000E+01
 s    1 1.00
 0.95164440028000E-01 0.10000000000000E+01
 s    1 1.00
 0.48475401370000E-01 0.10000000000000E+01
 p    4 1.00
 0.34697232244000E+02 0.11327220003114E-01
 0.79582622826000E+01 0.76169659202087E-01
 0.23780826883000E+01 0.30192252202676E+00
 0.81433208183000E+00 0.72785027349547E+00
 p    1 1.00
 0.28887547253000E+00 0.10000000000000E+01
 p    1 1.00
 0.10056823671000E+00 0.10000000000000E+01
 d    1 1.00
 0.10970000000000E+01 0.10000000000000E+01
 d    1 1.00
 0.31800000000000E+00 0.10000000000000E+01
 d    1 1.00
 0.90985336424000E-01 0.10000000000000E+01
 f    1 1.00
 0.76100000000000E+00 0.10000000000000E+01
 
    3 0
 s    6 1.00
 0.13575349682000E+05 0.60645503603591E-03
 0.20352333680000E+04 0.46979088884982E-02
 0.46322562359000E+03 0.24332477647552E-01
 0.13120019598000E+03 0.97399968307759E-01
 0.42853015891000E+02 0.30195584253780E+00
 0.15584185766000E+02 0.66233609137875E+00
 s    2 1.00
 0.62067138508000E+01 0.65595308539952E+00
 0.25764896527000E+01 0.37585633285142E+00
 s    1 1.00
 0.57696339419000E+00 0.10000000000000E+01
 s    1 1.00
 0.22972831358000E+00 0.10000000000000E+01
 s    1 1.00
 0.95164440028000E-01 0.10000000000000E+01
 s    1 1.00
 0.48475401370000E-01 0.10000000000000E+01
 p    4 1.00
 0.34697232244000E+02 0.11327220003114E-01
 0.79582622826000E+01 0.76169659202087E-01
 0.23780826883000E+01 0.30192252202676E+00
 0.81433208183000E+00 0.72785027349547E+00
 p    1 1.00
 0.28887547253000E+00 0.10000000000000E+01
 p    1 1.00
 0.10056823671000E+00 0.10000000000000E+01
 d    1 1.00
 0.10970000000000E+01 0.10000000000000E+01
 d    1 1.00
 0.31800000000000E+00 0.10000000000000E+01
 d    1 1.00
 0.90985336424000E-01 0.10000000000000E+01
 f    1 1.00
 0.76100000000000E+00 0.10000000000000E+01
 
    4 0
 s    6 1.00
 0.13575349682000E+05 0.60645503603591E-03
 0.20352333680000E+04 0.46979088884982E-02
 0.46322562359000E+03 0.24332477647552E-01
 0.13120019598000E+03 0.97399968307759E-01
 0.42853015891000E+02 0.30195584253780E+00
 0.15584185766000E+02 0.66233609137875E+00
 s    2 1.00
 0.62067138508000E+01 0.65595308539952E+00
 0.25764896527000E+01 0.37585633285142E+00
 s    1 1.00
 0.57696339419000E+00 0.10000000000000E+01
 s    1 1.00
 0.22972831358000E+00 0.10000000000000E+01
 s    1 1.00
 0.95164440028000E-01 0.10000000000000E+01
 s    1 1.00
 0.48475401370000E-01 0.10000000000000E+01
 p    4 1.00
 0.34697232244000E+02 0.11327220003114E-01
 0.79582622826000E+01 0.76169659202087E-01
 0.23780826883000E+01 0.30192252202676E+00
 0.81433208183000E+00 0.72785027349547E+00
 p    1 1.00
 0.28887547253000E+00 0.10000000000000E+01
 p    1 1.00
 0.10056823671000E+00 0.10000000000000E+01
 d    1 1.00
 0.10970000000000E+01 0.10000000000000E+01
 d    1 1.00
 0.31800000000000E+00 0.10000000000000E+01
 d    1 1.00
 0.90985336424000E-01 0.10000000000000E+01
 f    1 1.00
 0.76100000000000E+00 0.10000000000000E+01
 
    5 0
 s    6 1.00
 0.13575349682000E+05 0.60645503603591E-03
 0.20352333680000E+04 0.46979088884982E-02
 0.46322562359000E+03 0.24332477647552E-01
 0.13120019598000E+03 0.97399968307759E-01
 0.42853015891000E+02 0.30195584253780E+00
 0.15584185766000E+02 0.66233609137875E+00
 s    2 1.00
 0.62067138508000E+01 0.65595308539952E+00
 0.25764896527000E+01 0.37585633285142E+00
 s    1 1.00
 0.57696339419000E+00 0.10000000000000E+01
 s    1 1.00
 0.22972831358000E+00 0.10000000000000E+01
 s    1 1.00
 0.95164440028000E-01 0.10000000000000E+01
 s    1 1.00
 0.48475401370000E-01 0.10000000000000E+01
 p    4 1.00
 0.34697232244000E+02 0.11327220003114E-01
 0.79582622826000E+01 0.76169659202087E-01
 0.23780826883000E+01 0.30192252202676E+00
 0.81433208183000E+00 0.72785027349547E+00
 p    1 1.00
 0.28887547253000E+00 0.10000000000000E+01
 p    1 1.00
 0.10056823671000E+00 0.10000000000000E+01
 d    1 1.00
 0.10970000000000E+01 0.10000000000000E+01
 d    1 1.00
 0.31800000000000E+00 0.10000000000000E+01
 d    1 1.00
 0.90985336424000E-01 0.10000000000000E+01
 f    1 1.00
 0.76100000000000E+00 0.10000000000000E+01
 
    6 0
 s    6 1.00
 0.13575349682000E+05 0.60645503603591E-03
 0.20352333680000E+04 0.46979088884982E-02
 0.46322562359000E+03 0.24332477647552E-01
 0.13120019598000E+03 0.97399968307759E-01
 0.42853015891000E+02 0.30195584253780E+00
 0.15584185766000E+02 0.66233609137875E+00
 s    2 1.00
 0.62067138508000E+01 0.65595308539952E+00
 0.25764896527000E+01 0.37585633285142E+00
 s    1 1.00
 0.57696339419000E+00 0.10000000000000E+01
 s    1 1.00
 0.22972831358000E+00 0.10000000000000E+01
 s    1 1.00
 0.95164440028000E-01 0.10000000000000E+01
 s    1 1.00
 0.48475401370000E-01 0.10000000000000E+01
 p    4 1.00
 0.34697232244000E+02 0.11327220003114E-01
 0.79582622826000E+01 0.76169659202087E-01
 0.23780826883000E+01 0.30192252202676E+00
 0.81433208183000E+00 0.72785027349547E+00
 p    1 1.00
 0.28887547253000E+00 0.10000000000000E+01
 p    1 1.00
 0.10056823671000E+00 0.10000000000000E+01
 d    1 1.00
 0.10970000000000E+01 0.10000000000000E+01
 d    1 1.00
 0.31800000000000E+00 0.10000000000000E+01
 d    1 1.00
 0.90985336424000E-01 0.10000000000000E+01
 f    1 1.00
 0.76100000000000E+00 0.10000000000000E+01
 
    7 0
 s    3 1.00
 0.34061341000000E+02 0.25439307208879E-01
 0.51235746000000E+01 0.19008594890375E+00
 0.11646626000000E+01 0.85244113011042E+00
 s    1 1.00
 0.32723041000000E+00 0.10000000000000E+01
 s    1 1.00
 0.10307241000000E+00 0.10000000000000E+01
 p    1 1.00
 0.80000000000000E+00 0.10000000000000E+01
 p    1 1.00
 0.95774129632000E-01 0.10000000000000E+01
 
    8 0
 s    3 1.00
 0.34061341000000E+02 0.25439307208879E-01
 0.51235746000000E+01 0.19008594890375E+00
 0.11646626000000E+01 0.85244113011042E+00
 s    1 1.00
 0.32723041000000E+00 0.10000000000000E+01
 s    1 1.00
 0.10307241000000E+00 0.10000000000000E+01
 p    1 1.00
 0.80000000000000E+00 0.10000000000000E+01
 p    1 1.00
 0.95774129632000E-01 0.10000000000000E+01
 
    9 0
 s    3 1.00
 0.34061341000000E+02 0.25439307208879E-01
 0.51235746000000E+01 0.19008594890375E+00
 0.11646626000000E+01 0.85244113011042E+00
 s    1 1.00
 0.32723041000000E+00 0.10000000000000E+01
 s    1 1.00
 0.10307241000000E+00 0.10000000000000E+01
 p    1 1.00
 0.80000000000000E+00 0.10000000000000E+01
 p    1 1.00
 0.95774129632000E-01 0.10000000000000E+01
 
   10 0
 s    3 1.00
 0.34061341000000E+02 0.25439307208879E-01
 0.51235746000000E+01 0.19008594890375E+00
 0.11646626000000E+01 0.85244113011042E+00
 s    1 1.00
 0.32723041000000E+00 0.10000000000000E+01
 s    1 1.00
 0.10307241000000E+00 0.10000000000000E+01
 p    1 1.00
 0.80000000000000E+00 0.10000000000000E+01
 p    1 1.00
 0.95774129632000E-01 0.10000000000000E+01
 
   11 0
 s    6 1.00
 0.19730800647000E+05 0.58626402628763E-03
 0.29578958745000E+04 0.45428820586397E-02
 0.67322133595000E+03 0.23558413450084E-01
 0.19068249494000E+03 0.94709193292923E-01
 0.62295441898000E+02 0.29719784913376E+00
 0.22654161182000E+02 0.66916246895232E+00
 s    2 1.00
 0.89791477428000E+01 0.64596683630063E+00
 0.36863002370000E+01 0.38700574393705E+00
 s    1 1.00
 0.84660076805000E+00 0.10000000000000E+01
 s    1 1.00
 0.33647133771000E+00 0.10000000000000E+01
 s    1 1.00
 0.13647653675000E+00 0.10000000000000E+01
 s    1 1.00
 0.68441605847000E-01 0.10000000000000E+01
 p    4 1.00
 0.49200380510000E+02 0.11448825101764E-01
 0.11346790537000E+02 0.78422337970864E-01
 0.34273972411000E+01 0.30818094738830E+00
 0.11785525134000E+01 0.72027196368413E+00
 p    1 1.00
 0.41642204972000E+00 0.10000000000000E+01
 p    1 1.00
 0.14260826011000E+00 0.10000000000000E+01
 d    1 1.00
 0.16540000000000E+01 0.10000000000000E+01
 d    1 1.00
 0.46900000000000E+00 0.10000000000000E+01
 d    1 1.00
 0.12829642058000E+00 0.10000000000000E+01
 f    1 1.00
 0.10930000000000E+01 0.10000000000000E+01
 
   12 0
 s    6 1.00
 0.27032382631000E+05 0.57227335211155E-03
 0.40523871392000E+04 0.44353233492995E-02
 0.92232722710000E+03 0.23020107706038E-01
 0.26124070989000E+03 0.92822490667928E-01
 0.85354641351000E+02 0.29378500009671E+00
 0.31035035245000E+02 0.67401604501641E+00
 s    2 1.00
 0.12260860728000E+02 0.63839937025506E+00
 0.49987076005000E+01 0.39534587125718E+00
 s    1 1.00
 0.11703108158000E+01 0.10000000000000E+01
 s    1 1.00
 0.46474740994000E+00 0.10000000000000E+01
 s    1 1.00
 0.18504536357000E+00 0.10000000000000E+01
 s    1 1.00
 0.70288026270000E-01 0.10000000000000E+01
 p    4 1.00
 0.63274954801000E+02 0.12018332222616E-01
 0.14627049379000E+02 0.83005421790056E-01
 0.44501223456000E+01 0.31991743925964E+00
 0.15275799647000E+01 0.70715542916104E+00
 p    1 1.00
 0.52935117943000E+00 0.10000000000000E+01
 p    1 1.00
 0.17478421270000E+00 0.10000000000000E+01
 p    1 1.00
 0.51112745706000E-01 0.10000000000000E+01
 d    1 1.00
 0.23140000000000E+01 0.10000000000000E+01
 d    1 1.00
 0.64500000000000E+00 0.10000000000000E+01
 d    1 1.00
 0.14696477366000E+00 0.10000000000000E+01
 f    1 1.00
 0.14280000000000E+01 0.10000000000000E+01
 
   13 0
 s    6 1.00
 0.27032382631000E+05 0.57227335211155E-03
 0.40523871392000E+04 0.44353233492995E-02
 0.92232722710000E+03 0.23020107706038E-01
 0.26124070989000E+03 0.92822490667928E-01
 0.85354641351000E+02 0.29378500009671E+00
 0.31035035245000E+02 0.67401604501641E+00
 s    2 1.00
 0.12260860728000E+02 0.63839937025506E+00
 0.49987076005000E+01 0.39534587125718E+00
 s    1 1.00
 0.11703108158000E+01 0.10000000000000E+01
 s    1 1.00
 0.46474740994000E+00 0.10000000000000E+01
 s    1 1.00
 0.18504536357000E+00 0.10000000000000E+01
 s    1 1.00
 0.70288026270000E-01 0.10000000000000E+01
 p    4 1.00
 0.63274954801000E+02 0.12018332222616E-01
 0.14627049379000E+02 0.83005421790056E-01
 0.44501223456000E+01 0.31991743925964E+00
 0.15275799647000E+01 0.70715542916104E+00
 p    1 1.00
 0.52935117943000E+00 0.10000000000000E+01
 p    1 1.00
 0.17478421270000E+00 0.10000000000000E+01
 p    1 1.00
 0.51112745706000E-01 0.10000000000000E+01
 d    1 1.00
 0.23140000000000E+01 0.10000000000000E+01
 d    1 1.00
 0.64500000000000E+00 0.10000000000000E+01
 d    1 1.00
 0.14696477366000E+00 0.10000000000000E+01
 f    1 1.00
 0.14280000000000E+01 0.10000000000000E+01
 
   14 0
 s    6 1.00
 0.19730800647000E+05 0.58626402628763E-03
 0.29578958745000E+04 0.45428820586397E-02
 0.67322133595000E+03 0.23558413450084E-01
 0.19068249494000E+03 0.94709193292923E-01
 0.62295441898000E+02 0.29719784913376E+00
 0.22654161182000E+02 0.66916246895232E+00
 s    2 1.00
 0.89791477428000E+01 0.64596683630063E+00
 0.36863002370000E+01 0.38700574393705E+00
 s    1 1.00
 0.84660076805000E+00 0.10000000000000E+01
 s    1 1.00
 0.33647133771000E+00 0.10000000000000E+01
 s    1 1.00
 0.13647653675000E+00 0.10000000000000E+01
 s    1 1.00
 0.68441605847000E-01 0.10000000000000E+01
 p    4 1.00
 0.49200380510000E+02 0.11448825101764E-01
 0.11346790537000E+02 0.78422337970864E-01
 0.34273972411000E+01 0.30818094738830E+00
 0.11785525134000E+01 0.72027196368413E+00
 p    1 1.00
 0.41642204972000E+00 0.10000000000000E+01
 p    1 1.00
 0.14260826011000E+00 0.10000000000000E+01
 d    1 1.00
 0.16540000000000E+01 0.10000000000000E+01
 d    1 1.00
 0.46900000000000E+00 0.10000000000000E+01
 d    1 1.00
 0.12829642058000E+00 0.10000000000000E+01
 f    1 1.00
 0.10930000000000E+01 0.10000000000000E+01
 
   15 0
 s    3 1.00
 0.34061341000000E+02 0.25439307208879E-01
 0.51235746000000E+01 0.19008594890375E+00
 0.11646626000000E+01 0.85244113011042E+00
 s    1 1.00
 0.32723041000000E+00 0.10000000000000E+01
 s    1 1.00
 0.10307241000000E+00 0.10000000000000E+01
 p    1 1.00
 0.80000000000000E+00 0.10000000000000E+01
 p    1 1.00
 0.95774129632000E-01 0.10000000000000E+01
 
   16 0
 s    3 1.00
 0.34061341000000E+02 0.25439307208879E-01
 0.51235746000000E+01 0.19008594890375E+00
 0.11646626000000E+01 0.85244113011042E+00
 s    1 1.00
 0.32723041000000E+00 0.10000000000000E+01
 s    1 1.00
 0.10307241000000E+00 0.10000000000000E+01
 p    1 1.00
 0.80000000000000E+00 0.10000000000000E+01
 p    1 1.00
 0.95774129632000E-01 0.10000000000000E+01
 
[MO]
 Sym= X
 Ene= -0.119498
 Spin= Alpha
 Occup= -0.119498
         1   -4.128126E-04
         2   -9.548069E-04
         3    2.888536E-03
         4   -7.934449E-03
         5    6.637321E-02
         6   -2.283487E-02
         7    8.561165E-03
         8   -2.350970E-03
         9   -2.176459E-02
        10   -2.864847E-03
        11   -1.003417E-03
        12   -2.290303E-02
        13   -4.699433E-02
        14    1.721479E-02
        15    1.135793E-03
        16    2.654401E-04
        17   -2.945184E-04
        18    2.907830E-05
        19   -1.785462E-05
        20   -5.353585E-03
        21    1.791941E-03
        22   -1.351009E-03
        23    6.788914E-04
        24    6.721171E-04
        25   -1.563749E-03
        26   -1.203775E-02
        27    3.774519E-03
        28   -1.900166E-03
        29    1.271999E-03
        30    6.281671E-04
        31    3.558732E-03
        32    6.636597E-03
        33   -9.337748E-03
        34   -4.486751E-05
        35   -1.737007E-05
        36    3.298114E-04
        37    2.839394E-05
        38    2.582202E-05
        39   -8.738508E-04
        40    3.180213E-05
        41   -2.517621E-06
        42    4.313624E-04
        43   -4.327115E-04
        44   -4.765228E-04
        45   -1.088763E-03
        46    2.308260E-03
        47   -4.880142E-03
        48   -7.109991E-02
        49    1.416355E-02
        50   -1.035514E-02
        51    2.407485E-06
        52    1.011620E-01
        53   -9.927118E-03
        54    3.545564E-06
        55    1.066313E-01
        56   -1.238070E-02
        57   -1.775703E-05
        58    1.398888E-01
        59    5.723906E-04
        60   -5.325651E-04
        61   -3.982546E-05
        62    1.563146E-07
        63   -1.276902E-03
        64   -5.283016E-08
        65    1.182776E-03
        66   -1.791424E-03
        67    6.086477E-04
        68   -5.529565E-07
        69   -3.658872E-03
        70   -1.116985E-07
        71    2.987456E-02
        72   -3.260513E-02
        73    2.730576E-03
        74   -3.615859E-06
        75   -5.419467E-04
        76    6.252173E-07
        77   -5.691813E-05
        78    7.773366E-08
        79   -3.953617E-04
        80    2.761319E-05
        81   -7.988771E-08
        82    2.516001E-04
        83    4.875049E-05
        84   -2.440294E-08
        85    2.788333E-04
        86   -6.231271E-09
        87   -4.142213E-04
        88   -9.580340E-04
        89    2.895080E-03
        90   -7.935471E-03
        91    6.641399E-02
        92   -2.282807E-02
        93    8.548401E-03
        94    2.356466E-03
        95   -2.176732E-02
        96   -2.880040E-03
        97    1.007981E-03
        98   -2.290560E-02
        99   -4.700743E-02
       100   -1.722820E-02
       101    1.134685E-03
       102    2.649929E-04
       103   -2.940447E-04
       104    2.905181E-05
       105    1.762220E-05
       106   -5.353649E-03
       107   -1.791921E-03
       108   -1.353656E-03
       109    6.807371E-04
       110    6.729190E-04
       111    1.563130E-03
       112   -1.203777E-02
       113   -3.774520E-03
       114   -1.899248E-03
       115    1.271983E-03
       116    6.272654E-04
       117   -3.556704E-03
       118    6.637367E-03
       119    9.338301E-03
       120   -4.488660E-05
       121    1.735447E-05
       122    3.298238E-04
       123    2.838155E-05
       124   -2.577398E-05
       125   -8.738628E-04
       126    3.184014E-05
       127    2.490518E-06
       128    4.313577E-04
       129    4.327110E-04
       130    1.987970E-04
       131    4.291234E-04
       132    9.559229E-04
       133   -1.882294E-02
       134   -3.044944E-02
       135    2.831880E-02
       136   -8.301731E-03
       137    1.010330E-03
       138   -1.612327E-01
       139   -2.491287E-02
       140    1.258633E-02
       141   -1.630595E-01
       142   -1.141665E-02
       143   -2.190086E-02
       144   -9.833103E-02
       145    4.812030E-04
       146   -5.428003E-04
       147    6.159736E-05
       148   -8.686836E-05
       149    1.536957E-04
       150    3.014953E-03
       151    1.868883E-03
       152   -1.893653E-03
       153    2.477002E-05
       154    3.306824E-03
       155   -2.645271E-03
       156    4.578808E-03
       157    1.327190E-02
       158   -9.277099E-03
       159   -3.994797E-03
       160   -2.488212E-02
       161    6.262398E-03
       162   -1.248615E-02
       163   -6.411157E-05
       164    6.779487E-06
       165    1.000907E-03
       166   -2.701269E-05
       167    5.238840E-05
       168   -4.052519E-04
       169    1.130274E-04
       170   -6.148403E-05
       171   -9.376051E-04
       172    2.476511E-04
       173   -2.201029E-03
       174   -5.011496E-03
       175    5.014001E-03
       176    4.337178E-02
       177   -1.388749E-01
       178    9.970520E-03
       179    2.093241E-02
       180    3.921523E-06
       181   -1.041487E-01
       182    1.832786E-03
       183    4.153589E-06
       184   -1.077627E-01
       185   -1.065960E-01
       186   -3.605546E-07
       187   -1.317505E-01
       188    1.226872E-03
       189   -8.234295E-04
       190   -4.034430E-04
       191   -5.269308E-08
       192    1.090817E-02
       193    8.024783E-08
       194   -3.715817E-03
       195    8.046151E-03
       196   -4.330334E-03
       197   -6.012461E-07
       198    2.659249E-02
       199    1.050329E-07
       200   -2.418554E-02
       201    2.466388E-02
       202   -4.783413E-04
       203    9.181066E-07
       204    1.067304E-02
       205   -3.410348E-07
       206    2.440167E-04
       207    2.127076E-08
       208    2.178015E-04
       209   -1.769604E-04
       210   -2.388809E-08
       211    1.261266E-03
       212   -1.504223E-04
       213   -4.649629E-09
       214   -1.553477E-03
       215   -2.830455E-10
       216    1.980346E-04
       217    4.273941E-04
       218    9.592133E-04
       219   -1.882591E-02
       220   -3.045268E-02
       221    2.832208E-02
       222   -8.311108E-03
       223   -1.015188E-03
       224   -1.612330E-01
       225   -2.491366E-02
       226   -1.258872E-02
       227   -1.630600E-01
       228   -1.141387E-02
       229    2.189656E-02
       230   -9.833161E-02
       231    4.814352E-04
       232   -5.430535E-04
       233    6.161834E-05
       234    8.660677E-05
       235    1.535885E-04
       236   -3.014976E-03
       237    1.867661E-03
       238   -1.892889E-03
       239    2.522734E-05
       240   -3.307063E-03
       241   -2.645315E-03
       242   -4.578776E-03
       243    1.327149E-02
       244   -9.276279E-03
       245   -3.995210E-03
       246    2.488163E-02
       247    6.261393E-03
       248    1.248584E-02
       249   -6.411743E-05
       250   -6.805558E-06
       251    1.000904E-03
       252   -2.702279E-05
       253   -5.239152E-05
       254   -4.052342E-04
       255    1.130453E-04
       256    6.152214E-05
       257   -9.376199E-04
       258   -2.476397E-04
       259   -1.371329E-03
       260   -1.283461E-03
       261   -3.319934E-02
       262    1.182808E-04
       263   -8.331012E-05
       264   -6.081918E-04
       265   -9.031154E-03
       266   -3.190832E-03
       267   -4.442009E-03
       268   -1.364732E-03
       269   -1.274090E-03
       270   -3.319142E-02
       271    1.189475E-04
       272    8.238344E-05
       273   -6.082966E-04
       274   -9.028770E-03
       275    3.191016E-03
       276   -4.442120E-03
       277   -2.595137E-03
       278   -7.781610E-03
       279    7.549758E-02
       280   -7.177033E-05
       281    4.761558E-04
       282   -6.352907E-03
       283   -3.498358E-03
       284   -6.857657E-03
       285    1.144134E-04
       286   -2.594864E-03
       287   -7.781401E-03
       288    7.549505E-02
       289   -7.197754E-05
       290   -4.762804E-04
       291   -6.353003E-03
       292   -3.498794E-03
       293    6.856894E-03
       294    1.143426E-04
       295   -3.606067E-04
       296   -8.415015E-04
       297    8.540874E-04
       298    3.373954E-03
       299   -1.195798E-02
       300   -1.014735E-02
       301    1.065110E-02
       302    5.535434E-06
       303    2.118953E-02
       304    9.225563E-03
       305    4.049737E-06
       306    2.273189E-02
       307   -3.656519E-04
       308   -1.108245E-06
       309   -1.029078E-04
       310    7.546716E-04
       311   -8.393415E-04
       312    8.466998E-05
       313   -1.274921E-06
       314    2.069784E-03
       315   -1.541065E-08
       316    2.097930E-03
       317   -2.102298E-03
       318    4.368172E-06
       319   -3.394692E-06
       320    6.462129E-03
       321   -3.802954E-08
       322   -5.801438E-04
       323    5.200592E-03
       324   -4.620449E-03
       325    5.825324E-07
       326    9.080931E-04
       327   -7.677105E-08
       328    1.660372E-05
       329   -2.669323E-07
       330   -7.715425E-05
       331    1.216544E-05
       332    3.874825E-07
       333    3.836796E-04
       334   -3.444167E-05
       335   -2.935517E-08
       336   -2.801663E-04
       337   -1.073815E-09
       338   -1.030150E-04
       339   -2.409068E-04
       340    3.321259E-04
       341    2.516159E-03
       342   -1.213829E-02
       343   -1.361591E-03
       344   -1.876673E-02
       345   -1.693473E-03
       346   -3.133216E-02
       347   -1.682809E-02
       348   -1.608450E-03
       349   -2.928634E-02
       350   -1.365684E-02
       351   -5.973630E-04
       352   -2.559971E-02
       353   -1.733281E-03
       354   -2.411684E-04
       355   -3.307304E-03
       356   -2.840707E-05
       357   -3.619984E-05
       358    6.460691E-05
       359    1.623447E-04
       360    1.007411E-04
       361    7.682038E-05
       362   -2.060233E-04
       363   -9.015693E-06
       364    2.150390E-04
       365    3.624546E-04
       366    1.186487E-05
       367    3.223858E-04
       368   -4.120931E-04
       369    1.343253E-04
       370    2.777678E-04
       371    1.312455E-04
       372    1.269054E-05
       373    1.090049E-04
       374    2.294469E-05
       375   -1.508652E-05
       376   -1.364788E-06
       377   -4.446474E-05
       378    4.439614E-05
       379    4.572216E-05
       380    1.368121E-05
       381   -2.415545E-05
       382   -4.389111E-05
       383    2.416357E-05
       384   -1.029589E-04
       385   -2.407438E-04
       386    3.320051E-04
       387    2.517956E-03
       388   -1.213900E-02
       389   -1.356401E-03
       390   -1.870145E-02
       391    1.636276E-03
       392   -3.133217E-02
       393   -1.676882E-02
       394    1.558442E-03
       395   -2.928633E-02
       396   -1.361283E-02
       397    5.621949E-04
       398   -2.560011E-02
       399   -1.726096E-03
       400    2.379230E-04
       401   -3.307323E-03
       402   -2.785456E-05
       403   -3.693494E-05
       404    6.478950E-05
       405   -1.623820E-04
       406    1.007374E-04
       407   -7.682118E-05
       408   -2.043084E-04
       409   -1.093125E-05
       410    2.152396E-04
       411   -3.622591E-04
       412    1.185182E-05
       413   -3.223971E-04
       414   -4.098116E-04
       415    1.323817E-04
       416    2.774298E-04
       417   -1.310968E-04
       418    1.264188E-05
       419   -1.090107E-04
       420    2.300442E-05
       421    1.488613E-05
       422   -1.363815E-06
       423   -4.458229E-05
       424   -4.417279E-05
       425    4.572088E-05
       426    1.371862E-05
       427    2.420095E-05
       428   -4.389113E-05
       429   -2.416563E-05
       430    9.442591E-03
       431    2.243230E-02
       432   -3.482608E-02
       433   -5.928345E-02
       434    2.687586E-03
       435   -1.090925E-01
       436   -3.895864E-02
       437   -1.016024E-06
       438    3.100911E-01
       439   -4.425788E-02
       440   -5.465247E-07
       441    3.036175E-01
       442   -5.873926E-02
       443    4.295838E-07
       444    2.373666E-01
       445   -2.624743E-04
       446   -1.962813E-04
       447    4.587555E-04
       448   -6.368519E-08
       449    6.009863E-04
       450   -3.583170E-08
       451   -3.097992E-04
       452   -3.795232E-03
       453    4.105031E-03
       454   -2.199831E-07
       455    2.913169E-03
       456   -1.928376E-08
       457   -3.355978E-03
       458   -1.125765E-02
       459    1.461363E-02
       460    1.352409E-08
       461    2.241847E-03
       462    1.748769E-07
       463   -2.729139E-04
       464   -7.873289E-09
       465   -1.205061E-03
       466   -1.957263E-04
       467    1.480414E-08
       468    6.914395E-04
       469    5.618786E-04
       470   -4.241020E-09
       471    9.253191E-04
       472   -2.253781E-09
       473    1.691397E-02
       474    3.584159E-02
       475    7.672769E-02
       476   -4.570690E-03
       477   -3.731572E-03
       478    1.516993E-02
       479   -3.410705E-03
       480   -8.189105E-03
       481    1.533129E-02
       482    1.691535E-02
       483    3.584394E-02
       484    7.673214E-02
       485   -4.570813E-03
       486    3.731782E-03
       487    1.516994E-02
       488   -3.411375E-03
       489    8.189630E-03
       490    1.533122E-02
 Sym= X
 Ene= -0.820952
 Spin= Alpha
 Occup= -0.820952
         1   -3.311351E-05
         2   -7.642865E-05
         3    2.098801E-04
         4   -4.196121E-04
         5    2.637763E-03
         6   -4.669812E-04
         7   -7.087866E-05
         8   -1.135806E-04
         9   -1.161528E-01
        10   -8.038268E-04
        11    1.796841E-04
        12   -1.165455E-01
        13    7.966700E-04
        14    2.148053E-04
        15   -7.955559E-02
        16   -5.759272E-06
        17    3.479989E-06
        18    2.279283E-06
        19    5.050132E-06
        20   -2.817733E-03
        21   -3.877524E-04
        22   -1.516234E-04
        23    1.202400E-04
        24    3.138341E-05
        25   -1.131681E-06
        26   -4.596177E-03
        27    1.809382E-05
        28   -2.698053E-04
        29    4.190148E-04
        30   -1.492095E-04
        31   -2.519884E-04
        32   -1.259504E-03
        33   -1.206962E-03
        34   -5.853826E-06
        35   -1.110722E-07
        36    7.907822E-04
        37    1.403134E-06
        38    7.263181E-07
        39   -9.373350E-04
        40    6.450597E-06
        41   -5.772991E-07
        42   -1.236107E-04
        43    4.328849E-05
        44   -6.480019E-08
        45   -1.419113E-07
        46   -5.081668E-08
        47    2.072209E-06
        48    4.992792E-06
        49   -2.065322E-06
        50   -3.200914E-07
        51    1.061239E-04
        52   -1.967916E-06
        53    1.284555E-07
        54    4.547265E-04
        55   -2.074179E-06
        56    1.063051E-06
        57    2.729654E-04
        58   -1.477139E-06
        59    4.472879E-09
        60    1.425610E-08
        61   -1.872898E-08
        62    8.135548E-06