[Molden Format]
[Title]
ADC(2) - opt by CAM-B3LYP gaussian                                              
[Atoms] AU
 c     1    6 -.12594776649128E+01 -.22773101438193E+01 -.39940542897370E-01
 c     2    6 -.25470425655544E+01 -.11810788300000E-05 -.37653974276580E-01
 c     3    6 -.12594776649128E+01 0.22773077816617E+01 -.39959440158700E-01
 c     4    6 0.13393870965995E+01 0.22758904870620E+01 -.43795584208460E-01
 c     5    6 0.26846831306008E+01 -.11810788300000E-05 -.44211323957690E-01
 c     6    6 0.13394059938609E+01 -.22758928492196E+01 -.43776686947130E-01
 h     7    1 -.23144739703802E+01 -.40231336316857E+01 -.37313823572660E-01
 h     8    1 -.23144739703802E+01 0.40231312695281E+01 -.37332720833990E-01
 h     9    1 0.23577983041343E+01 0.40499086888311E+01 -.52469427158400E-01
 h    10    1 0.23577983041343E+01 -.40498921537274E+01 -.52431632635740E-01
 n    11    7 -.52968964450843E+01 -.11810788300000E-05 -.29906097131750E-01
 o    12    8 -.63725096626615E+01 0.20302827815708E+01 -.26599076399200E-01
 o    13    8 -.63725096626615E+01 -.20302851437285E+01 -.26655768183180E-01
 n    14    7 0.52734000627795E+01 -.11810788300000E-05 -.11796733492422E+00
 h    15    1 0.61922038058499E+01 0.16034881344586E+01 0.31500671664254E+00
 h    16    1 0.61921849085885E+01 -.16034904966163E+01 0.31500671664254E+00
[GTO]
    1 0
 s    6 1.00
 0.13575349682000E+05 0.60645503603591E-03
 0.20352333680000E+04 0.46979088884982E-02
 0.46322562359000E+03 0.24332477647552E-01
 0.13120019598000E+03 0.97399968307759E-01
 0.42853015891000E+02 0.30195584253780E+00
 0.15584185766000E+02 0.66233609137875E+00
 s    2 1.00
 0.62067138508000E+01 0.65595308539952E+00
 0.25764896527000E+01 0.37585633285142E+00
 s    1 1.00
 0.57696339419000E+00 0.10000000000000E+01
 s    1 1.00
 0.22972831358000E+00 0.10000000000000E+01
 s    1 1.00
 0.95164440028000E-01 0.10000000000000E+01
 s    1 1.00
 0.48475401370000E-01 0.10000000000000E+01
 p    4 1.00
 0.34697232244000E+02 0.11327220003114E-01
 0.79582622826000E+01 0.76169659202087E-01
 0.23780826883000E+01 0.30192252202676E+00
 0.81433208183000E+00 0.72785027349547E+00
 p    1 1.00
 0.28887547253000E+00 0.10000000000000E+01
 p    1 1.00
 0.10056823671000E+00 0.10000000000000E+01
 d    1 1.00
 0.10970000000000E+01 0.10000000000000E+01
 d    1 1.00
 0.31800000000000E+00 0.10000000000000E+01
 d    1 1.00
 0.90985336424000E-01 0.10000000000000E+01
 f    1 1.00
 0.76100000000000E+00 0.10000000000000E+01
 
    2 0
 s    6 1.00
 0.13575349682000E+05 0.60645503603591E-03
 0.20352333680000E+04 0.46979088884982E-02
 0.46322562359000E+03 0.24332477647552E-01
 0.13120019598000E+03 0.97399968307759E-01
 0.42853015891000E+02 0.30195584253780E+00
 0.15584185766000E+02 0.66233609137875E+00
 s    2 1.00
 0.62067138508000E+01 0.65595308539952E+00
 0.25764896527000E+01 0.37585633285142E+00
 s    1 1.00
 0.57696339419000E+00 0.10000000000000E+01
 s    1 1.00
 0.22972831358000E+00 0.10000000000000E+01
 s    1 1.00
 0.95164440028000E-01 0.10000000000000E+01
 s    1 1.00
 0.48475401370000E-01 0.10000000000000E+01
 p    4 1.00
 0.34697232244000E+02 0.11327220003114E-01
 0.79582622826000E+01 0.76169659202087E-01
 0.23780826883000E+01 0.30192252202676E+00
 0.81433208183000E+00 0.72785027349547E+00
 p    1 1.00
 0.28887547253000E+00 0.10000000000000E+01
 p    1 1.00
 0.10056823671000E+00 0.10000000000000E+01
 d    1 1.00
 0.10970000000000E+01 0.10000000000000E+01
 d    1 1.00
 0.31800000000000E+00 0.10000000000000E+01
 d    1 1.00
 0.90985336424000E-01 0.10000000000000E+01
 f    1 1.00
 0.76100000000000E+00 0.10000000000000E+01
 
    3 0
 s    6 1.00
 0.13575349682000E+05 0.60645503603591E-03
 0.20352333680000E+04 0.46979088884982E-02
 0.46322562359000E+03 0.24332477647552E-01
 0.13120019598000E+03 0.97399968307759E-01
 0.42853015891000E+02 0.30195584253780E+00
 0.15584185766000E+02 0.66233609137875E+00
 s    2 1.00
 0.62067138508000E+01 0.65595308539952E+00
 0.25764896527000E+01 0.37585633285142E+00
 s    1 1.00
 0.57696339419000E+00 0.10000000000000E+01
 s    1 1.00
 0.22972831358000E+00 0.10000000000000E+01
 s    1 1.00
 0.95164440028000E-01 0.10000000000000E+01
 s    1 1.00
 0.48475401370000E-01 0.10000000000000E+01
 p    4 1.00
 0.34697232244000E+02 0.11327220003114E-01
 0.79582622826000E+01 0.76169659202087E-01
 0.23780826883000E+01 0.30192252202676E+00
 0.81433208183000E+00 0.72785027349547E+00
 p    1 1.00
 0.28887547253000E+00 0.10000000000000E+01
 p    1 1.00
 0.10056823671000E+00 0.10000000000000E+01
 d    1 1.00
 0.10970000000000E+01 0.10000000000000E+01
 d    1 1.00
 0.31800000000000E+00 0.10000000000000E+01
 d    1 1.00
 0.90985336424000E-01 0.10000000000000E+01
 f    1 1.00
 0.76100000000000E+00 0.10000000000000E+01
 
    4 0
 s    6 1.00
 0.13575349682000E+05 0.60645503603591E-03
 0.20352333680000E+04 0.46979088884982E-02
 0.46322562359000E+03 0.24332477647552E-01
 0.13120019598000E+03 0.97399968307759E-01
 0.42853015891000E+02 0.30195584253780E+00
 0.15584185766000E+02 0.66233609137875E+00
 s    2 1.00
 0.62067138508000E+01 0.65595308539952E+00
 0.25764896527000E+01 0.37585633285142E+00
 s    1 1.00
 0.57696339419000E+00 0.10000000000000E+01
 s    1 1.00
 0.22972831358000E+00 0.10000000000000E+01
 s    1 1.00
 0.95164440028000E-01 0.10000000000000E+01
 s    1 1.00
 0.48475401370000E-01 0.10000000000000E+01
 p    4 1.00
 0.34697232244000E+02 0.11327220003114E-01
 0.79582622826000E+01 0.76169659202087E-01
 0.23780826883000E+01 0.30192252202676E+00
 0.81433208183000E+00 0.72785027349547E+00
 p    1 1.00
 0.28887547253000E+00 0.10000000000000E+01
 p    1 1.00
 0.10056823671000E+00 0.10000000000000E+01
 d    1 1.00
 0.10970000000000E+01 0.10000000000000E+01
 d    1 1.00
 0.31800000000000E+00 0.10000000000000E+01
 d    1 1.00
 0.90985336424000E-01 0.10000000000000E+01
 f    1 1.00
 0.76100000000000E+00 0.10000000000000E+01
 
    5 0
 s    6 1.00
 0.13575349682000E+05 0.60645503603591E-03
 0.20352333680000E+04 0.46979088884982E-02
 0.46322562359000E+03 0.24332477647552E-01
 0.13120019598000E+03 0.97399968307759E-01
 0.42853015891000E+02 0.30195584253780E+00
 0.15584185766000E+02 0.66233609137875E+00
 s    2 1.00
 0.62067138508000E+01 0.65595308539952E+00
 0.25764896527000E+01 0.37585633285142E+00
 s    1 1.00
 0.57696339419000E+00 0.10000000000000E+01
 s    1 1.00
 0.22972831358000E+00 0.10000000000000E+01
 s    1 1.00
 0.95164440028000E-01 0.10000000000000E+01
 s    1 1.00
 0.48475401370000E-01 0.10000000000000E+01
 p    4 1.00
 0.34697232244000E+02 0.11327220003114E-01
 0.79582622826000E+01 0.76169659202087E-01
 0.23780826883000E+01 0.30192252202676E+00
 0.81433208183000E+00 0.72785027349547E+00
 p    1 1.00
 0.28887547253000E+00 0.10000000000000E+01
 p    1 1.00
 0.10056823671000E+00 0.10000000000000E+01
 d    1 1.00
 0.10970000000000E+01 0.10000000000000E+01
 d    1 1.00
 0.31800000000000E+00 0.10000000000000E+01
 d    1 1.00
 0.90985336424000E-01 0.10000000000000E+01
 f    1 1.00
 0.76100000000000E+00 0.10000000000000E+01
 
    6 0
 s    6 1.00
 0.13575349682000E+05 0.60645503603591E-03
 0.20352333680000E+04 0.46979088884982E-02
 0.46322562359000E+03 0.24332477647552E-01
 0.13120019598000E+03 0.97399968307759E-01
 0.42853015891000E+02 0.30195584253780E+00
 0.15584185766000E+02 0.66233609137875E+00
 s    2 1.00
 0.62067138508000E+01 0.65595308539952E+00
 0.25764896527000E+01 0.37585633285142E+00
 s    1 1.00
 0.57696339419000E+00 0.10000000000000E+01
 s    1 1.00
 0.22972831358000E+00 0.10000000000000E+01
 s    1 1.00
 0.95164440028000E-01 0.10000000000000E+01
 s    1 1.00
 0.48475401370000E-01 0.10000000000000E+01
 p    4 1.00
 0.34697232244000E+02 0.11327220003114E-01
 0.79582622826000E+01 0.76169659202087E-01
 0.23780826883000E+01 0.30192252202676E+00
 0.81433208183000E+00 0.72785027349547E+00
 p    1 1.00
 0.28887547253000E+00 0.10000000000000E+01
 p    1 1.00
 0.10056823671000E+00 0.10000000000000E+01
 d    1 1.00
 0.10970000000000E+01 0.10000000000000E+01
 d    1 1.00
 0.31800000000000E+00 0.10000000000000E+01
 d    1 1.00
 0.90985336424000E-01 0.10000000000000E+01
 f    1 1.00
 0.76100000000000E+00 0.10000000000000E+01
 
    7 0
 s    3 1.00
 0.34061341000000E+02 0.25439307208879E-01
 0.51235746000000E+01 0.19008594890375E+00
 0.11646626000000E+01 0.85244113011042E+00
 s    1 1.00
 0.32723041000000E+00 0.10000000000000E+01
 s    1 1.00
 0.10307241000000E+00 0.10000000000000E+01
 p    1 1.00
 0.80000000000000E+00 0.10000000000000E+01
 p    1 1.00
 0.95774129632000E-01 0.10000000000000E+01
 
    8 0
 s    3 1.00
 0.34061341000000E+02 0.25439307208879E-01
 0.51235746000000E+01 0.19008594890375E+00
 0.11646626000000E+01 0.85244113011042E+00
 s    1 1.00
 0.32723041000000E+00 0.10000000000000E+01
 s    1 1.00
 0.10307241000000E+00 0.10000000000000E+01
 p    1 1.00
 0.80000000000000E+00 0.10000000000000E+01
 p    1 1.00
 0.95774129632000E-01 0.10000000000000E+01
 
    9 0
 s    3 1.00
 0.34061341000000E+02 0.25439307208879E-01
 0.51235746000000E+01 0.19008594890375E+00
 0.11646626000000E+01 0.85244113011042E+00
 s    1 1.00
 0.32723041000000E+00 0.10000000000000E+01
 s    1 1.00
 0.10307241000000E+00 0.10000000000000E+01
 p    1 1.00
 0.80000000000000E+00 0.10000000000000E+01
 p    1 1.00
 0.95774129632000E-01 0.10000000000000E+01
 
   10 0
 s    3 1.00
 0.34061341000000E+02 0.25439307208879E-01
 0.51235746000000E+01 0.19008594890375E+00
 0.11646626000000E+01 0.85244113011042E+00
 s    1 1.00
 0.32723041000000E+00 0.10000000000000E+01
 s    1 1.00
 0.10307241000000E+00 0.10000000000000E+01
 p    1 1.00
 0.80000000000000E+00 0.10000000000000E+01
 p    1 1.00
 0.95774129632000E-01 0.10000000000000E+01
 
   11 0
 s    6 1.00
 0.19730800647000E+05 0.58626402628763E-03
 0.29578958745000E+04 0.45428820586397E-02
 0.67322133595000E+03 0.23558413450084E-01
 0.19068249494000E+03 0.94709193292923E-01
 0.62295441898000E+02 0.29719784913376E+00
 0.22654161182000E+02 0.66916246895232E+00
 s    2 1.00
 0.89791477428000E+01 0.64596683630063E+00
 0.36863002370000E+01 0.38700574393705E+00
 s    1 1.00
 0.84660076805000E+00 0.10000000000000E+01
 s    1 1.00
 0.33647133771000E+00 0.10000000000000E+01
 s    1 1.00
 0.13647653675000E+00 0.10000000000000E+01
 s    1 1.00
 0.68441605847000E-01 0.10000000000000E+01
 p    4 1.00
 0.49200380510000E+02 0.11448825101764E-01
 0.11346790537000E+02 0.78422337970864E-01
 0.34273972411000E+01 0.30818094738830E+00
 0.11785525134000E+01 0.72027196368413E+00
 p    1 1.00
 0.41642204972000E+00 0.10000000000000E+01
 p    1 1.00
 0.14260826011000E+00 0.10000000000000E+01
 d    1 1.00
 0.16540000000000E+01 0.10000000000000E+01
 d    1 1.00
 0.46900000000000E+00 0.10000000000000E+01
 d    1 1.00
 0.12829642058000E+00 0.10000000000000E+01
 f    1 1.00
 0.10930000000000E+01 0.10000000000000E+01
 
   12 0
 s    6 1.00
 0.27032382631000E+05 0.57227335211155E-03
 0.40523871392000E+04 0.44353233492995E-02
 0.92232722710000E+03 0.23020107706038E-01
 0.26124070989000E+03 0.92822490667928E-01
 0.85354641351000E+02 0.29378500009671E+00
 0.31035035245000E+02 0.67401604501641E+00
 s    2 1.00
 0.12260860728000E+02 0.63839937025506E+00
 0.49987076005000E+01 0.39534587125718E+00
 s    1 1.00
 0.11703108158000E+01 0.10000000000000E+01
 s    1 1.00
 0.46474740994000E+00 0.10000000000000E+01
 s    1 1.00
 0.18504536357000E+00 0.10000000000000E+01
 s    1 1.00
 0.70288026270000E-01 0.10000000000000E+01
 p    4 1.00
 0.63274954801000E+02 0.12018332222616E-01
 0.14627049379000E+02 0.83005421790056E-01
 0.44501223456000E+01 0.31991743925964E+00
 0.15275799647000E+01 0.70715542916104E+00
 p    1 1.00
 0.52935117943000E+00 0.10000000000000E+01
 p    1 1.00
 0.17478421270000E+00 0.10000000000000E+01
 p    1 1.00
 0.51112745706000E-01 0.10000000000000E+01
 d    1 1.00
 0.23140000000000E+01 0.10000000000000E+01
 d    1 1.00
 0.64500000000000E+00 0.10000000000000E+01
 d    1 1.00
 0.14696477366000E+00 0.10000000000000E+01
 f    1 1.00
 0.14280000000000E+01 0.10000000000000E+01
 
   13 0
 s    6 1.00
 0.27032382631000E+05 0.57227335211155E-03
 0.40523871392000E+04 0.44353233492995E-02
 0.92232722710000E+03 0.23020107706038E-01
 0.26124070989000E+03 0.92822490667928E-01
 0.85354641351000E+02 0.29378500009671E+00
 0.31035035245000E+02 0.67401604501641E+00
 s    2 1.00
 0.12260860728000E+02 0.63839937025506E+00
 0.49987076005000E+01 0.39534587125718E+00
 s    1 1.00
 0.11703108158000E+01 0.10000000000000E+01
 s    1 1.00
 0.46474740994000E+00 0.10000000000000E+01
 s    1 1.00
 0.18504536357000E+00 0.10000000000000E+01
 s    1 1.00
 0.70288026270000E-01 0.10000000000000E+01
 p    4 1.00
 0.63274954801000E+02 0.12018332222616E-01
 0.14627049379000E+02 0.83005421790056E-01
 0.44501223456000E+01 0.31991743925964E+00
 0.15275799647000E+01 0.70715542916104E+00
 p    1 1.00
 0.52935117943000E+00 0.10000000000000E+01
 p    1 1.00
 0.17478421270000E+00 0.10000000000000E+01
 p    1 1.00
 0.51112745706000E-01 0.10000000000000E+01
 d    1 1.00
 0.23140000000000E+01 0.10000000000000E+01
 d    1 1.00
 0.64500000000000E+00 0.10000000000000E+01
 d    1 1.00
 0.14696477366000E+00 0.10000000000000E+01
 f    1 1.00
 0.14280000000000E+01 0.10000000000000E+01
 
   14 0
 s    6 1.00
 0.19730800647000E+05 0.58626402628763E-03
 0.29578958745000E+04 0.45428820586397E-02
 0.67322133595000E+03 0.23558413450084E-01
 0.19068249494000E+03 0.94709193292923E-01
 0.62295441898000E+02 0.29719784913376E+00
 0.22654161182000E+02 0.66916246895232E+00
 s    2 1.00
 0.89791477428000E+01 0.64596683630063E+00
 0.36863002370000E+01 0.38700574393705E+00
 s    1 1.00
 0.84660076805000E+00 0.10000000000000E+01
 s    1 1.00
 0.33647133771000E+00 0.10000000000000E+01
 s    1 1.00
 0.13647653675000E+00 0.10000000000000E+01
 s    1 1.00
 0.68441605847000E-01 0.10000000000000E+01
 p    4 1.00
 0.49200380510000E+02 0.11448825101764E-01
 0.11346790537000E+02 0.78422337970864E-01
 0.34273972411000E+01 0.30818094738830E+00
 0.11785525134000E+01 0.72027196368413E+00
 p    1 1.00
 0.41642204972000E+00 0.10000000000000E+01
 p    1 1.00
 0.14260826011000E+00 0.10000000000000E+01
 d    1 1.00
 0.16540000000000E+01 0.10000000000000E+01
 d    1 1.00
 0.46900000000000E+00 0.10000000000000E+01
 d    1 1.00
 0.12829642058000E+00 0.10000000000000E+01
 f    1 1.00
 0.10930000000000E+01 0.10000000000000E+01
 
   15 0
 s    3 1.00
 0.34061341000000E+02 0.25439307208879E-01
 0.51235746000000E+01 0.19008594890375E+00
 0.11646626000000E+01 0.85244113011042E+00
 s    1 1.00
 0.32723041000000E+00 0.10000000000000E+01
 s    1 1.00
 0.10307241000000E+00 0.10000000000000E+01
 p    1 1.00
 0.80000000000000E+00 0.10000000000000E+01
 p    1 1.00
 0.95774129632000E-01 0.10000000000000E+01
 
   16 0
 s    3 1.00
 0.34061341000000E+02 0.25439307208879E-01
 0.51235746000000E+01 0.19008594890375E+00
 0.11646626000000E+01 0.85244113011042E+00
 s    1 1.00
 0.32723041000000E+00 0.10000000000000E+01
 s    1 1.00
 0.10307241000000E+00 0.10000000000000E+01
 p    1 1.00
 0.80000000000000E+00 0.10000000000000E+01
 p    1 1.00
 0.95774129632000E-01 0.10000000000000E+01
 
[MO]
 Sym= X
 Ene= -0.946292
 Spin= Alpha
 Occup= -0.946292
         1   -9.382437E-04
         2   -2.169586E-03
         3    9.113710E-05
         4    2.656292E-02
         5    2.721714E-01
         6   -3.170480E-02
         7   -2.961156E-02
         8    5.310204E-02
         9   -8.386522E-03
        10   -1.073391E-02
        11    4.423045E-02
        12   -8.257313E-03
        13   -4.954219E-02
        14    9.699759E-02
        15   -2.143411E-03
        16   -2.567625E-03
        17    2.796976E-03
        18   -2.293511E-04
        19   -6.245260E-04
        20   -4.865677E-05
        21   -2.351490E-04
        22    1.226135E-03
        23    1.262214E-03
        24   -2.488349E-03
        25   -8.205685E-04
        26   -6.574362E-05
        27   -3.652644E-04
        28    2.503089E-03
        29   -2.346471E-03
        30   -1.566181E-04
        31    9.313471E-03
        32    4.084967E-04
        33   -1.770981E-04
        34    1.382337E-04
        35    5.444984E-04
        36    7.270292E-05
        37   -1.658361E-04
        38   -5.867110E-04
        39   -4.802314E-05
        40   -1.962384E-05
        41   -1.438102E-04
        42   -4.951807E-05
        43    2.184174E-05
        44    1.087285E-02
        45    2.460121E-02
        46   -3.650720E-02
        47   -7.021411E-02
        48   -2.767894E-01
        49    1.731079E-02
        50    1.616612E-01
        51    1.131777E-06
        52   -1.097333E-02
        53    1.252137E-01
        54    9.958955E-07
        55   -1.093484E-02
        56   -5.896198E-02
        57   -2.801108E-06
        58   -3.076036E-03
        59   -5.904943E-03
        60    5.302264E-03
        61    6.026788E-04
        62    3.112525E-08
        63   -1.792569E-04
        64    1.934229E-08
        65   -2.572099E-03
        66    2.895986E-03
        67   -3.238868E-04
        68    1.679431E-07
        69   -3.504348E-04
        70    8.803384E-08
        71    5.614773E-02
        72   -5.841387E-02
        73    2.266139E-03
        74   -3.760195E-07
        75   -5.882935E-04
        76   -1.246902E-07
        77    1.085143E-03
        78    9.242098E-10
        79    9.218765E-05
        80   -7.437524E-04
        81    2.608464E-09
        82   -4.890115E-05
        83   -7.121194E-04
        84   -3.848421E-09
        85   -7.478156E-05
        86   -1.072534E-08
        87   -9.380982E-04
        88   -2.169258E-03
        89    9.037961E-05
        90    2.656398E-02
        91    2.721695E-01
        92   -3.170571E-02
        93   -2.961148E-02
        94   -5.310436E-02
        95   -8.385488E-03
        96   -1.073223E-02
        97   -4.423202E-02
        98   -8.256393E-03
        99   -4.954784E-02
       100   -9.700197E-02
       101   -2.141591E-03
       102   -2.567605E-03
       103    2.796957E-03
       104   -2.293520E-04
       105    6.246804E-04
       106   -4.867399E-05
       107    2.351073E-04
       108    1.226530E-03
       109    1.261970E-03
       110   -2.488500E-03
       111    8.207851E-04
       112   -6.581774E-05
       113    3.652262E-04
       114    2.501969E-03
       115   -2.345400E-03
       116   -1.565690E-04
       117   -9.312562E-03
       118    4.081831E-04
       119    1.767917E-04
       120    1.382398E-04
       121   -5.445075E-04
       122    7.269152E-05
       123   -1.658386E-04
       124    5.867149E-04
       125   -4.801801E-05
       126   -1.962964E-05
       127    1.438186E-04
       128   -4.950790E-05
       129   -2.183878E-05
       130    2.084194E-03
       131    4.742301E-03
       132   -4.699317E-03
       133   -3.049813E-02
       134   -1.074646E-01
       135    3.407267E-02
       136    3.267936E-02
       137    1.676932E-02
       138   -6.116695E-03
       139    3.949657E-02
       140    1.415503E-02
       141   -6.048321E-03
       142    2.695778E-02
       143    4.957633E-02
       144   -2.909511E-03
       145   -8.338251E-04
       146    7.138817E-04
       147    1.199434E-04
       148    1.972164E-03
       149    1.817937E-04
       150    7.894446E-05
       151   -3.225822E-03
       152    1.251600E-03
       153    1.974222E-03
       154    2.824709E-03
       155    3.387952E-04
       156    1.230002E-04
       157   -2.504561E-03
       158    3.929185E-03
       159   -1.424624E-03
       160   -2.303043E-02
       161    4.420458E-04
       162   -3.758075E-04
       163    2.900935E-04
       164    3.253046E-04
       165    5.473168E-05
       166   -1.766838E-04
       167   -4.084902E-04
       168   -5.112452E-05
       169   -2.125174E-04
       170   -2.795175E-05
       171   -2.230573E-05
       172   -3.806690E-06
       173    2.789745E-03
       174    6.380755E-03
       175   -1.227515E-02
       176   -2.460099E-03
       177   -4.853622E-02
       178   -3.782844E-02
       179    1.236119E-02
       180   -2.116337E-06
       181   -2.324935E-03
       182    6.481395E-03
       183   -2.089541E-06
       184   -2.345214E-03
       185   -3.605183E-02
       186    2.700919E-06
       187   -2.986718E-03
       188   -4.474779E-04
       189    4.293609E-04
       190    1.811701E-05
       191    7.510640E-08
       192    2.974133E-04
       193    5.686730E-09
       194    1.122593E-04
       195    8.203871E-04
       196   -9.326465E-04
       197    2.122283E-07
       198    6.719447E-04
       199    2.556299E-09
       200   -1.927303E-02
       201    1.881652E-02
       202    4.565143E-04
       203   -8.990978E-07
       204   -3.003512E-04
       205    6.065762E-08
       206   -2.523073E-05
       207   -4.264106E-09
       208    2.077710E-05
       209    6.391500E-05
       210   -3.043075E-09
       211    1.482413E-05
       212   -3.006442E-05
       213    8.763974E-09
       214   -4.269954E-05
       215   -1.120485E-09
       216    2.084170E-03
       217    4.742247E-03
       218   -4.699215E-03
       219   -3.049723E-02
       220   -1.074642E-01
       221    3.407164E-02
       222    3.267964E-02
       223   -1.676587E-02
       224   -6.116790E-03
       225    3.949537E-02
       226   -1.415257E-02
       227   -6.048485E-03
       228    2.696336E-02
       229   -4.957085E-02
       230   -2.909331E-03
       231   -8.337857E-04
       232    7.138487E-04
       233    1.199370E-04
       234   -1.971940E-03
       235    1.818162E-04
       236   -7.895428E-05
       237   -3.225527E-03
       238    1.251386E-03
       239    1.974141E-03
       240   -2.824476E-03
       241    3.388497E-04
       242   -1.229965E-04
       243   -2.505875E-03
       244    3.930423E-03
       245   -1.424549E-03
       246    2.303130E-02
       247    4.421205E-04
       248    3.758768E-04
       249    2.900885E-04
       250   -3.252986E-04
       251    5.473322E-05
       252   -1.766758E-04
       253    4.084932E-04
       254   -5.113041E-05
       255   -2.125187E-04
       256    2.794070E-05
       257   -2.230192E-05
       258    3.806459E-06
       259   -7.077979E-03
       260   -9.518190E-03
       261   -6.502017E-03
       262   -2.667500E-03
       263   -7.832391E-04
       264   -2.875391E-04
       265   -6.972839E-03
       266    1.027482E-04
       267   -1.050449E-04
       268   -7.079356E-03
       269   -9.520342E-03
       270   -6.502802E-03
       271   -2.667631E-03
       272    7.833878E-04
       273   -2.874804E-04
       274   -6.973807E-03
       275   -1.030972E-04
       276   -1.047627E-04
       277    1.746638E-02
       278    2.847377E-02
       279    3.251210E-02
       280   -1.576227E-04
       281   -2.494353E-03
       282   -1.809820E-04
       283    8.326112E-03
       284   -4.302988E-03
       285    2.115997E-04
       286    1.746446E-02
       287    2.847048E-02
       288    3.251051E-02
       289   -1.574180E-04
       290    2.494160E-03
       291   -1.810282E-04
       292    8.327266E-03
       293    4.303295E-03
       294    2.114529E-04
       295    2.505646E-03
       296    5.739481E-03
       297   -3.228968E-03
       298   -3.710525E-02
       299   -1.551250E-01
       300    1.908380E-02
       301   -1.353477E-01
       302   -6.172881E-07
       303    2.630011E-03
       304   -1.260827E-01
       305   -4.363313E-07
       306    2.525584E-03
       307   -9.513212E-02
       308   -7.216822E-08
       309    4.542787E-04
       310   -1.185366E-02
       311    1.321595E-02
       312   -1.362289E-03
       313    1.044029E-07
       314   -1.604583E-04
       315    2.454302E-07
       316   -3.429567E-02
       317    3.523036E-02
       318   -9.346878E-04
       319    2.879204E-07
       320   -4.263387E-04
       321    6.171445E-07
       322    1.236862E-02
       323   -9.645535E-04
       324   -1.140406E-02
       325   -1.808980E-08
       326   -3.720514E-04
       327    6.422919E-08
       328   -5.644264E-05
       329    1.485033E-08
       330   -1.355827E-05
       331   -2.952500E-04
       332   -2.351636E-08
       333   -2.466198E-05
       334    3.709757E-04
       335    3.592553E-09
       336    4.285231E-05
       337   -1.384636E-08
       338    6.538712E-04
       339    1.542875E-03
       340   -3.376227E-03
       341   -1.864846E-02
       342   -1.369602E-02
       343   -1.723295E-02
       344    3.019193E-01
       345    3.948191E-02
       346    3.021939E-03
       347    2.654226E-01
       348    4.068312E-02
       349    2.809926E-03
       350    1.955752E-01
       351    3.960272E-02
       352    1.706567E-03
       353    1.585088E-02
       354    8.257335E-03
       355    1.321398E-04
       356    7.047413E-04
       357    2.217622E-04
       358   -9.265036E-04
       359   -2.668721E-03
       360    1.430991E-05
       361   -4.644433E-05
       362    3.439211E-03
       363   -7.657452E-04
       364   -2.673466E-03
       365   -5.913039E-03
       366    6.085218E-05
       367   -1.430958E-04
       368    5.630029E-03
       369   -3.980898E-03
       370   -1.649131E-03
       371   -5.454976E-03
       372    1.091038E-04
       373   -5.620546E-06
       374   -3.492185E-04
       375    3.845493E-04
       376   -7.040080E-06
       377    6.816184E-04
       378   -8.303092E-04
       379   -3.955540E-06
       380   -2.130926E-04
       381    3.143822E-04
       382    1.340080E-05
       383   -9.433229E-06
       384    6.538877E-04
       385    1.542914E-03
       386   -3.376301E-03
       387   -1.864873E-02
       388   -1.369623E-02
       389   -1.723331E-02
       390    3.019149E-01
       391   -3.947761E-02
       392    3.020063E-03
       393    2.654187E-01
       394   -4.067939E-02
       395    2.808099E-03
       396    1.955722E-01
       397   -3.960022E-02
       398    1.704943E-03
       399    1.585039E-02
       400   -8.257102E-03
       401    1.318236E-04
       402    7.047002E-04
       403    2.218182E-04
       404   -9.265184E-04
       405    2.668729E-03
       406    1.438260E-05
       407    4.647524E-05
       408    3.439093E-03
       409   -7.656075E-04
       410   -2.673486E-03
       411    5.913039E-03
       412    6.102539E-05
       413    1.431366E-04
       414    5.629872E-03
       415   -3.980768E-03
       416   -1.649104E-03
       417    5.454947E-03
       418    1.092869E-04
       419    5.525312E-06
       420   -3.492240E-04
       421   -3.845351E-04
       422   -7.060719E-06
       423    6.816291E-04
       424    8.302936E-04
       425   -3.929166E-06
       426   -2.130958E-04
       427   -3.143857E-04
       428    1.340211E-05
       429    9.459726E-06
       430    9.300876E-04
       431    2.206553E-03
       432   -3.092089E-03
       433   -9.147603E-03
       434    2.739910E-02
       435    2.230739E-02
       436   -3.220590E-03
       437    2.804236E-07
       438    6.413307E-03
       439   -2.157481E-03
       440    1.800099E-07
       441    6.235262E-03
       442   -4.567018E-03
       443    2.032938E-07
       444    5.422269E-03
       445   -1.447492E-06
       446   -9.786161E-06
       447    1.123365E-05
       448    2.713219E-08
       449   -2.313820E-05
       450    4.897422E-09
       451   -3.278950E-05
       452    1.566180E-04
       453   -1.238285E-04
       454    7.498939E-08
       455    8.115772E-06
       456    4.146068E-09
       457   -9.163514E-04
       458    1.003051E-04
       459    8.160464E-04
       460   -4.863502E-08
       461   -2.911510E-04
       462   -1.283879E-08
       463   -4.224313E-06
       464    4.295241E-09
       465   -2.637766E-05
       466   -3.211464E-05
       467   -5.370983E-09
       468    1.563050E-05
       469    3.778215E-05
       470   -3.916875E-10
       471    1.975886E-05
       472    1.488876E-09
       473   -4.213438E-04
       474   -5.842015E-04
       475    4.664568E-03
       476   -1.380768E-04
       477    2.718177E-04
       478    3.896669E-04
       479   -2.054627E-03
       480   -1.598820E-03
       481    8.199434E-04
       482   -4.217463E-04
       483   -5.848566E-04
       484    4.663082E-03
       485   -1.380539E-04
       486   -2.718438E-04
       487    3.896826E-04
       488   -2.054454E-03
       489    1.598711E-03
       490    8.199869E-04
 Sym= X
 Ene= 0.946292
 Spin= Alpha
 Occup= 0.946292
         1   -3.138515E-04
         2   -6.710219E-04
         3   -1.098914E-03
         4    2.079287E-02
         5   -5.219325E-02
         6    5.240280E-02
         7   -2.516450E-04
         8   -8.423039E-04
         9    1.035257E-01
        10    6.006602E-04
        11    8.086624E-04
        12    1.091770E-01
        13    4.365306E-02
        14    1.734331E-01
        15    4.573774E-02
        16    8.228961E-05
        17   -4.086905E-05
        18   -4.142056E-05
        19   -1.150245E-04
        20    8.935476E-04
        21   -2.767862E-04
        22    4.101861E-04
        23    3.117207E-04
        24   -7.219068E-04
        25    5.658959E-04
        26   -2.842902E-03
        27   -1.981966E-03
        28   -2.907569E-02
        29    3.194465E-02
        30   -2.868961E-03
        31   -6.055594E-04
        32   -9.970863E-03
        33   -1.940637E-02
        34    2.983030E-05
        35   -4.512264E-06
        36   -1.525577E-04
        37   -4.897016E-05
        38    4.077485E-06
        39   -1.665800E-04
        40    8.948612E-06
        41    1.976353E-06
        42    3.712576E-04
        43    2.106342E-04
        44   -1.787817E-04
        45   -3.682062E-04
        46    5.671800E-04
        47    1.734902E-02
        48   -4.680640E-01
        49   -3.144801E-01
        50   -9.503727E-04
        51    2.755277E-07
        52   -4.312616E-02
        53   -3.915774E-04
        54   -8.278704E-06
        55   -4.035881E-02
        56   -1.294418E-01
        57   -3.326802E-04
        58    5.490762E-02
        59    9.754208E-06
        60    1.366949E-04
        61   -1.464491E-04
        62   -1.327126E-07