[Molden Format]
[Title]
ADC(2) - opt by CAM-B3LYP gaussian                                              
[Atoms] AU
 c     1    6 -.12594776649128E+01 -.22773101438193E+01 -.39940542897370E-01
 c     2    6 -.25470425655544E+01 -.11810788300000E-05 -.37653974276580E-01
 c     3    6 -.12594776649128E+01 0.22773077816617E+01 -.39959440158700E-01
 c     4    6 0.13393870965995E+01 0.22758904870620E+01 -.43795584208460E-01
 c     5    6 0.26846831306008E+01 -.11810788300000E-05 -.44211323957690E-01
 c     6    6 0.13394059938609E+01 -.22758928492196E+01 -.43776686947130E-01
 h     7    1 -.23144739703802E+01 -.40231336316857E+01 -.37313823572660E-01
 h     8    1 -.23144739703802E+01 0.40231312695281E+01 -.37332720833990E-01
 h     9    1 0.23577983041343E+01 0.40499086888311E+01 -.52469427158400E-01
 h    10    1 0.23577983041343E+01 -.40498921537274E+01 -.52431632635740E-01
 n    11    7 -.52968964450843E+01 -.11810788300000E-05 -.29906097131750E-01
 o    12    8 -.63725096626615E+01 0.20302827815708E+01 -.26599076399200E-01
 o    13    8 -.63725096626615E+01 -.20302851437285E+01 -.26655768183180E-01
 n    14    7 0.52734000627795E+01 -.11810788300000E-05 -.11796733492422E+00
 h    15    1 0.61922038058499E+01 0.16034881344586E+01 0.31500671664254E+00
 h    16    1 0.61921849085885E+01 -.16034904966163E+01 0.31500671664254E+00
[GTO]
    1 0
 s    6 1.00
 0.13575349682000E+05 0.60645503603591E-03
 0.20352333680000E+04 0.46979088884982E-02
 0.46322562359000E+03 0.24332477647552E-01
 0.13120019598000E+03 0.97399968307759E-01
 0.42853015891000E+02 0.30195584253780E+00
 0.15584185766000E+02 0.66233609137875E+00
 s    2 1.00
 0.62067138508000E+01 0.65595308539952E+00
 0.25764896527000E+01 0.37585633285142E+00
 s    1 1.00
 0.57696339419000E+00 0.10000000000000E+01
 s    1 1.00
 0.22972831358000E+00 0.10000000000000E+01
 s    1 1.00
 0.95164440028000E-01 0.10000000000000E+01
 s    1 1.00
 0.48475401370000E-01 0.10000000000000E+01
 p    4 1.00
 0.34697232244000E+02 0.11327220003114E-01
 0.79582622826000E+01 0.76169659202087E-01
 0.23780826883000E+01 0.30192252202676E+00
 0.81433208183000E+00 0.72785027349547E+00
 p    1 1.00
 0.28887547253000E+00 0.10000000000000E+01
 p    1 1.00
 0.10056823671000E+00 0.10000000000000E+01
 d    1 1.00
 0.10970000000000E+01 0.10000000000000E+01
 d    1 1.00
 0.31800000000000E+00 0.10000000000000E+01
 d    1 1.00
 0.90985336424000E-01 0.10000000000000E+01
 f    1 1.00
 0.76100000000000E+00 0.10000000000000E+01
 
    2 0
 s    6 1.00
 0.13575349682000E+05 0.60645503603591E-03
 0.20352333680000E+04 0.46979088884982E-02
 0.46322562359000E+03 0.24332477647552E-01
 0.13120019598000E+03 0.97399968307759E-01
 0.42853015891000E+02 0.30195584253780E+00
 0.15584185766000E+02 0.66233609137875E+00
 s    2 1.00
 0.62067138508000E+01 0.65595308539952E+00
 0.25764896527000E+01 0.37585633285142E+00
 s    1 1.00
 0.57696339419000E+00 0.10000000000000E+01
 s    1 1.00
 0.22972831358000E+00 0.10000000000000E+01
 s    1 1.00
 0.95164440028000E-01 0.10000000000000E+01
 s    1 1.00
 0.48475401370000E-01 0.10000000000000E+01
 p    4 1.00
 0.34697232244000E+02 0.11327220003114E-01
 0.79582622826000E+01 0.76169659202087E-01
 0.23780826883000E+01 0.30192252202676E+00
 0.81433208183000E+00 0.72785027349547E+00
 p    1 1.00
 0.28887547253000E+00 0.10000000000000E+01
 p    1 1.00
 0.10056823671000E+00 0.10000000000000E+01
 d    1 1.00
 0.10970000000000E+01 0.10000000000000E+01
 d    1 1.00
 0.31800000000000E+00 0.10000000000000E+01
 d    1 1.00
 0.90985336424000E-01 0.10000000000000E+01
 f    1 1.00
 0.76100000000000E+00 0.10000000000000E+01
 
    3 0
 s    6 1.00
 0.13575349682000E+05 0.60645503603591E-03
 0.20352333680000E+04 0.46979088884982E-02
 0.46322562359000E+03 0.24332477647552E-01
 0.13120019598000E+03 0.97399968307759E-01
 0.42853015891000E+02 0.30195584253780E+00
 0.15584185766000E+02 0.66233609137875E+00
 s    2 1.00
 0.62067138508000E+01 0.65595308539952E+00
 0.25764896527000E+01 0.37585633285142E+00
 s    1 1.00
 0.57696339419000E+00 0.10000000000000E+01
 s    1 1.00
 0.22972831358000E+00 0.10000000000000E+01
 s    1 1.00
 0.95164440028000E-01 0.10000000000000E+01
 s    1 1.00
 0.48475401370000E-01 0.10000000000000E+01
 p    4 1.00
 0.34697232244000E+02 0.11327220003114E-01
 0.79582622826000E+01 0.76169659202087E-01
 0.23780826883000E+01 0.30192252202676E+00
 0.81433208183000E+00 0.72785027349547E+00
 p    1 1.00
 0.28887547253000E+00 0.10000000000000E+01
 p    1 1.00
 0.10056823671000E+00 0.10000000000000E+01
 d    1 1.00
 0.10970000000000E+01 0.10000000000000E+01
 d    1 1.00
 0.31800000000000E+00 0.10000000000000E+01
 d    1 1.00
 0.90985336424000E-01 0.10000000000000E+01
 f    1 1.00
 0.76100000000000E+00 0.10000000000000E+01
 
    4 0
 s    6 1.00
 0.13575349682000E+05 0.60645503603591E-03
 0.20352333680000E+04 0.46979088884982E-02
 0.46322562359000E+03 0.24332477647552E-01
 0.13120019598000E+03 0.97399968307759E-01
 0.42853015891000E+02 0.30195584253780E+00
 0.15584185766000E+02 0.66233609137875E+00
 s    2 1.00
 0.62067138508000E+01 0.65595308539952E+00
 0.25764896527000E+01 0.37585633285142E+00
 s    1 1.00
 0.57696339419000E+00 0.10000000000000E+01
 s    1 1.00
 0.22972831358000E+00 0.10000000000000E+01
 s    1 1.00
 0.95164440028000E-01 0.10000000000000E+01
 s    1 1.00
 0.48475401370000E-01 0.10000000000000E+01
 p    4 1.00
 0.34697232244000E+02 0.11327220003114E-01
 0.79582622826000E+01 0.76169659202087E-01
 0.23780826883000E+01 0.30192252202676E+00
 0.81433208183000E+00 0.72785027349547E+00
 p    1 1.00
 0.28887547253000E+00 0.10000000000000E+01
 p    1 1.00
 0.10056823671000E+00 0.10000000000000E+01
 d    1 1.00
 0.10970000000000E+01 0.10000000000000E+01
 d    1 1.00
 0.31800000000000E+00 0.10000000000000E+01
 d    1 1.00
 0.90985336424000E-01 0.10000000000000E+01
 f    1 1.00
 0.76100000000000E+00 0.10000000000000E+01
 
    5 0
 s    6 1.00
 0.13575349682000E+05 0.60645503603591E-03
 0.20352333680000E+04 0.46979088884982E-02
 0.46322562359000E+03 0.24332477647552E-01
 0.13120019598000E+03 0.97399968307759E-01
 0.42853015891000E+02 0.30195584253780E+00
 0.15584185766000E+02 0.66233609137875E+00
 s    2 1.00
 0.62067138508000E+01 0.65595308539952E+00
 0.25764896527000E+01 0.37585633285142E+00
 s    1 1.00
 0.57696339419000E+00 0.10000000000000E+01
 s    1 1.00
 0.22972831358000E+00 0.10000000000000E+01
 s    1 1.00
 0.95164440028000E-01 0.10000000000000E+01
 s    1 1.00
 0.48475401370000E-01 0.10000000000000E+01
 p    4 1.00
 0.34697232244000E+02 0.11327220003114E-01
 0.79582622826000E+01 0.76169659202087E-01
 0.23780826883000E+01 0.30192252202676E+00
 0.81433208183000E+00 0.72785027349547E+00
 p    1 1.00
 0.28887547253000E+00 0.10000000000000E+01
 p    1 1.00
 0.10056823671000E+00 0.10000000000000E+01
 d    1 1.00
 0.10970000000000E+01 0.10000000000000E+01
 d    1 1.00
 0.31800000000000E+00 0.10000000000000E+01
 d    1 1.00
 0.90985336424000E-01 0.10000000000000E+01
 f    1 1.00
 0.76100000000000E+00 0.10000000000000E+01
 
    6 0
 s    6 1.00
 0.13575349682000E+05 0.60645503603591E-03
 0.20352333680000E+04 0.46979088884982E-02
 0.46322562359000E+03 0.24332477647552E-01
 0.13120019598000E+03 0.97399968307759E-01
 0.42853015891000E+02 0.30195584253780E+00
 0.15584185766000E+02 0.66233609137875E+00
 s    2 1.00
 0.62067138508000E+01 0.65595308539952E+00
 0.25764896527000E+01 0.37585633285142E+00
 s    1 1.00
 0.57696339419000E+00 0.10000000000000E+01
 s    1 1.00
 0.22972831358000E+00 0.10000000000000E+01
 s    1 1.00
 0.95164440028000E-01 0.10000000000000E+01
 s    1 1.00
 0.48475401370000E-01 0.10000000000000E+01
 p    4 1.00
 0.34697232244000E+02 0.11327220003114E-01
 0.79582622826000E+01 0.76169659202087E-01
 0.23780826883000E+01 0.30192252202676E+00
 0.81433208183000E+00 0.72785027349547E+00
 p    1 1.00
 0.28887547253000E+00 0.10000000000000E+01
 p    1 1.00
 0.10056823671000E+00 0.10000000000000E+01
 d    1 1.00
 0.10970000000000E+01 0.10000000000000E+01
 d    1 1.00
 0.31800000000000E+00 0.10000000000000E+01
 d    1 1.00
 0.90985336424000E-01 0.10000000000000E+01
 f    1 1.00
 0.76100000000000E+00 0.10000000000000E+01
 
    7 0
 s    3 1.00
 0.34061341000000E+02 0.25439307208879E-01
 0.51235746000000E+01 0.19008594890375E+00
 0.11646626000000E+01 0.85244113011042E+00
 s    1 1.00
 0.32723041000000E+00 0.10000000000000E+01
 s    1 1.00
 0.10307241000000E+00 0.10000000000000E+01
 p    1 1.00
 0.80000000000000E+00 0.10000000000000E+01
 p    1 1.00
 0.95774129632000E-01 0.10000000000000E+01
 
    8 0
 s    3 1.00
 0.34061341000000E+02 0.25439307208879E-01
 0.51235746000000E+01 0.19008594890375E+00
 0.11646626000000E+01 0.85244113011042E+00
 s    1 1.00
 0.32723041000000E+00 0.10000000000000E+01
 s    1 1.00
 0.10307241000000E+00 0.10000000000000E+01
 p    1 1.00
 0.80000000000000E+00 0.10000000000000E+01
 p    1 1.00
 0.95774129632000E-01 0.10000000000000E+01
 
    9 0
 s    3 1.00
 0.34061341000000E+02 0.25439307208879E-01
 0.51235746000000E+01 0.19008594890375E+00
 0.11646626000000E+01 0.85244113011042E+00
 s    1 1.00
 0.32723041000000E+00 0.10000000000000E+01
 s    1 1.00
 0.10307241000000E+00 0.10000000000000E+01
 p    1 1.00
 0.80000000000000E+00 0.10000000000000E+01
 p    1 1.00
 0.95774129632000E-01 0.10000000000000E+01
 
   10 0
 s    3 1.00
 0.34061341000000E+02 0.25439307208879E-01
 0.51235746000000E+01 0.19008594890375E+00
 0.11646626000000E+01 0.85244113011042E+00
 s    1 1.00
 0.32723041000000E+00 0.10000000000000E+01
 s    1 1.00
 0.10307241000000E+00 0.10000000000000E+01
 p    1 1.00
 0.80000000000000E+00 0.10000000000000E+01
 p    1 1.00
 0.95774129632000E-01 0.10000000000000E+01
 
   11 0
 s    6 1.00
 0.19730800647000E+05 0.58626402628763E-03
 0.29578958745000E+04 0.45428820586397E-02
 0.67322133595000E+03 0.23558413450084E-01
 0.19068249494000E+03 0.94709193292923E-01
 0.62295441898000E+02 0.29719784913376E+00
 0.22654161182000E+02 0.66916246895232E+00
 s    2 1.00
 0.89791477428000E+01 0.64596683630063E+00
 0.36863002370000E+01 0.38700574393705E+00
 s    1 1.00
 0.84660076805000E+00 0.10000000000000E+01
 s    1 1.00
 0.33647133771000E+00 0.10000000000000E+01
 s    1 1.00
 0.13647653675000E+00 0.10000000000000E+01
 s    1 1.00
 0.68441605847000E-01 0.10000000000000E+01
 p    4 1.00
 0.49200380510000E+02 0.11448825101764E-01
 0.11346790537000E+02 0.78422337970864E-01
 0.34273972411000E+01 0.30818094738830E+00
 0.11785525134000E+01 0.72027196368413E+00
 p    1 1.00
 0.41642204972000E+00 0.10000000000000E+01
 p    1 1.00
 0.14260826011000E+00 0.10000000000000E+01
 d    1 1.00
 0.16540000000000E+01 0.10000000000000E+01
 d    1 1.00
 0.46900000000000E+00 0.10000000000000E+01
 d    1 1.00
 0.12829642058000E+00 0.10000000000000E+01
 f    1 1.00
 0.10930000000000E+01 0.10000000000000E+01
 
   12 0
 s    6 1.00
 0.27032382631000E+05 0.57227335211155E-03
 0.40523871392000E+04 0.44353233492995E-02
 0.92232722710000E+03 0.23020107706038E-01
 0.26124070989000E+03 0.92822490667928E-01
 0.85354641351000E+02 0.29378500009671E+00
 0.31035035245000E+02 0.67401604501641E+00
 s    2 1.00
 0.12260860728000E+02 0.63839937025506E+00
 0.49987076005000E+01 0.39534587125718E+00
 s    1 1.00
 0.11703108158000E+01 0.10000000000000E+01
 s    1 1.00
 0.46474740994000E+00 0.10000000000000E+01
 s    1 1.00
 0.18504536357000E+00 0.10000000000000E+01
 s    1 1.00
 0.70288026270000E-01 0.10000000000000E+01
 p    4 1.00
 0.63274954801000E+02 0.12018332222616E-01
 0.14627049379000E+02 0.83005421790056E-01
 0.44501223456000E+01 0.31991743925964E+00
 0.15275799647000E+01 0.70715542916104E+00
 p    1 1.00
 0.52935117943000E+00 0.10000000000000E+01
 p    1 1.00
 0.17478421270000E+00 0.10000000000000E+01
 p    1 1.00
 0.51112745706000E-01 0.10000000000000E+01
 d    1 1.00
 0.23140000000000E+01 0.10000000000000E+01
 d    1 1.00
 0.64500000000000E+00 0.10000000000000E+01
 d    1 1.00
 0.14696477366000E+00 0.10000000000000E+01
 f    1 1.00
 0.14280000000000E+01 0.10000000000000E+01
 
   13 0
 s    6 1.00
 0.27032382631000E+05 0.57227335211155E-03
 0.40523871392000E+04 0.44353233492995E-02
 0.92232722710000E+03 0.23020107706038E-01
 0.26124070989000E+03 0.92822490667928E-01
 0.85354641351000E+02 0.29378500009671E+00
 0.31035035245000E+02 0.67401604501641E+00
 s    2 1.00
 0.12260860728000E+02 0.63839937025506E+00
 0.49987076005000E+01 0.39534587125718E+00
 s    1 1.00
 0.11703108158000E+01 0.10000000000000E+01
 s    1 1.00
 0.46474740994000E+00 0.10000000000000E+01
 s    1 1.00
 0.18504536357000E+00 0.10000000000000E+01
 s    1 1.00
 0.70288026270000E-01 0.10000000000000E+01
 p    4 1.00
 0.63274954801000E+02 0.12018332222616E-01
 0.14627049379000E+02 0.83005421790056E-01
 0.44501223456000E+01 0.31991743925964E+00
 0.15275799647000E+01 0.70715542916104E+00
 p    1 1.00
 0.52935117943000E+00 0.10000000000000E+01
 p    1 1.00
 0.17478421270000E+00 0.10000000000000E+01
 p    1 1.00
 0.51112745706000E-01 0.10000000000000E+01
 d    1 1.00
 0.23140000000000E+01 0.10000000000000E+01
 d    1 1.00
 0.64500000000000E+00 0.10000000000000E+01
 d    1 1.00
 0.14696477366000E+00 0.10000000000000E+01
 f    1 1.00
 0.14280000000000E+01 0.10000000000000E+01
 
   14 0
 s    6 1.00
 0.19730800647000E+05 0.58626402628763E-03
 0.29578958745000E+04 0.45428820586397E-02
 0.67322133595000E+03 0.23558413450084E-01
 0.19068249494000E+03 0.94709193292923E-01
 0.62295441898000E+02 0.29719784913376E+00
 0.22654161182000E+02 0.66916246895232E+00
 s    2 1.00
 0.89791477428000E+01 0.64596683630063E+00
 0.36863002370000E+01 0.38700574393705E+00
 s    1 1.00
 0.84660076805000E+00 0.10000000000000E+01
 s    1 1.00
 0.33647133771000E+00 0.10000000000000E+01
 s    1 1.00
 0.13647653675000E+00 0.10000000000000E+01
 s    1 1.00
 0.68441605847000E-01 0.10000000000000E+01
 p    4 1.00
 0.49200380510000E+02 0.11448825101764E-01
 0.11346790537000E+02 0.78422337970864E-01
 0.34273972411000E+01 0.30818094738830E+00
 0.11785525134000E+01 0.72027196368413E+00
 p    1 1.00
 0.41642204972000E+00 0.10000000000000E+01
 p    1 1.00
 0.14260826011000E+00 0.10000000000000E+01
 d    1 1.00
 0.16540000000000E+01 0.10000000000000E+01
 d    1 1.00
 0.46900000000000E+00 0.10000000000000E+01
 d    1 1.00
 0.12829642058000E+00 0.10000000000000E+01
 f    1 1.00
 0.10930000000000E+01 0.10000000000000E+01
 
   15 0
 s    3 1.00
 0.34061341000000E+02 0.25439307208879E-01
 0.51235746000000E+01 0.19008594890375E+00
 0.11646626000000E+01 0.85244113011042E+00
 s    1 1.00
 0.32723041000000E+00 0.10000000000000E+01
 s    1 1.00
 0.10307241000000E+00 0.10000000000000E+01
 p    1 1.00
 0.80000000000000E+00 0.10000000000000E+01
 p    1 1.00
 0.95774129632000E-01 0.10000000000000E+01
 
   16 0
 s    3 1.00
 0.34061341000000E+02 0.25439307208879E-01
 0.51235746000000E+01 0.19008594890375E+00
 0.11646626000000E+01 0.85244113011042E+00
 s    1 1.00
 0.32723041000000E+00 0.10000000000000E+01
 s    1 1.00
 0.10307241000000E+00 0.10000000000000E+01
 p    1 1.00
 0.80000000000000E+00 0.10000000000000E+01
 p    1 1.00
 0.95774129632000E-01 0.10000000000000E+01
 
[MO]
 Sym= X
 Ene= -0.070447
 Spin= Alpha
 Occup= -0.070447
         1    7.032863E-04
         2    1.614810E-03
         3   -3.886427E-03
         4    6.620027E-03
         5   -6.441501E-02
         6    2.485630E-02
         7   -1.935679E-02
         8   -3.219592E-04
         9    3.435609E-03
        10   -4.915582E-03
        11   -1.539533E-03
        12    5.002288E-03
        13    6.219181E-02
        14   -1.939436E-02
        15   -4.338635E-03
        16   -5.707613E-04
        17    5.774955E-04
        18   -6.734292E-06
        19    1.246835E-04
        20    4.700324E-03
        21   -2.101352E-03
        22    1.081446E-03
        23   -4.935302E-04
        24   -5.879154E-04
        25    1.874054E-03
        26    1.072532E-02
        27   -4.210024E-03
        28    2.546717E-03
        29   -1.139255E-03
        30   -1.407461E-03
        31   -4.122298E-03
        32   -6.610308E-03
        33    1.185370E-02
        34    1.516417E-05
        35   -5.654102E-06
        36   -1.482267E-04
        37   -2.586620E-05
        38   -7.388392E-06
        39    6.915777E-04
        40    5.521328E-06
        41    1.497417E-05
        42   -4.927107E-04
        43    4.176973E-04
        44   -1.302003E-04
        45   -2.746171E-04
        46   -5.455014E-04
        47    9.871793E-03
        48    8.301324E-02
        49   -1.557040E-02
        50    1.079003E-02
        51   -2.462781E-06
        52   -1.126169E-01
        53    1.036704E-02
        54   -3.577593E-06
        55   -1.173250E-01
        56    1.237631E-02
        57    1.593326E-05
        58   -1.484179E-01
        59   -9.228097E-04
        60    8.878506E-04
        61    3.495911E-05
        62   -1.540767E-07
        63    7.686868E-04
        64    4.733040E-08
        65   -1.703341E-03
        66    2.511553E-03
        67   -8.082119E-04
        68    5.591668E-07
        69    2.706437E-03
        70    1.013822E-07
        71   -3.705653E-02
        72    3.981231E-02
        73   -2.755775E-03
        74    3.297690E-06
        75   -3.218060E-04
        76   -6.263024E-07
        77    5.116196E-05
        78   -7.945418E-08
        79    5.330943E-04
        80   -1.708939E-05
        81    8.032773E-08
        82   -3.075329E-04
        83   -5.155158E-05
        84    2.627124E-08
        85   -4.076882E-04
        86    5.545000E-09
        87    7.046543E-04
        88    1.617945E-03
        89   -3.892826E-03
        90    6.621142E-03
        91   -6.445681E-02
        92    2.484940E-02
        93   -1.934368E-02
        94    3.161887E-04
        95    3.438028E-03
        96   -4.900128E-03
        97    1.534752E-03
        98    5.004621E-03
        99    6.220166E-02
       100    1.940616E-02
       101   -4.337801E-03
       102   -5.703042E-04
       103    5.770162E-04
       104   -6.711958E-06
       105   -1.244468E-04
       106    4.700370E-03
       107    2.101331E-03
       108    1.084089E-03
       109   -4.953690E-04
       110   -5.887204E-04
       111   -1.873444E-03
       112    1.072535E-02
       113    4.210020E-03
       114    2.545113E-03
       115   -1.138580E-03
       116   -1.406533E-03
       117    4.120853E-03
       118   -6.611062E-03
       119   -1.185428E-02
       120    1.518475E-05
       121    5.668018E-06
       122   -1.482375E-04
       123   -2.585409E-05
       124    7.340123E-06
       125    6.915882E-04
       126    5.481612E-06
       127   -1.494457E-05
       128   -4.927067E-04
       129   -4.176964E-04
       130   -2.807064E-04
       131   -6.112755E-04
       132   -1.111578E-03
       133    2.315896E-02
       134    3.431568E-02
       135   -2.812930E-02
       136    1.862815E-02
       137   -3.266262E-03
       138    1.289029E-01
       139    3.438205E-02
       140   -1.576558E-02
       141    1.314428E-01
       142    3.110738E-02
       143    1.826115E-02
       144    8.107252E-02
       145   -9.351314E-04
       146    1.020469E-03
       147   -8.533782E-05
       148   -6.724501E-06
       149   -1.265857E-04
       150   -2.126542E-03
       151   -2.377137E-03
       152    2.558339E-03
       153   -1.812024E-04
       154   -3.923564E-03
       155    2.553905E-03
       156   -3.076240E-03
       157   -1.460403E-02
       158    9.726675E-03
       159    4.877352E-03
       160    2.627956E-02
       161   -7.419438E-03
       162    1.493544E-02
       163    8.143265E-05
       164   -4.005220E-05
       165   -7.079904E-04
       166    5.225335E-05
       167   -2.318744E-05
       168    2.114492E-04
       169   -1.615067E-04
       170    7.692310E-05
       171    7.384195E-04
       172   -1.542004E-04
       173    1.991530E-03
       174    4.539265E-03
       175   -3.757034E-03
       176   -4.621394E-02
       177    1.224126E-01
       178   -1.846325E-02
       179   -3.513248E-02
       180   -4.421146E-06
       181    5.793404E-02
       182   -1.061501E-02
       183   -4.491130E-06
       184    6.296287E-02
       185    1.176711E-01
       186    2.448719E-06
       187    1.328161E-01
       188   -2.027317E-03
       189    1.544086E-03
       190    4.832311E-04
       191    6.044066E-08
       192   -1.098473E-02
       193   -6.733440E-08
       194    3.398385E-03
       195   -8.281051E-03
       196    4.882666E-03
       197    6.083530E-07
       198   -2.610014E-02
       199   -8.214947E-08
       200    3.315548E-02
       201   -3.409282E-02
       202    9.373410E-04
       203   -1.376087E-06
       204   -9.241847E-03
       205    3.673514E-07
       206   -3.300079E-04
       207   -2.638436E-08
       208    2.411092E-04
       209    2.094335E-04
       210    2.574984E-08
       211   -1.626780E-03
       212    2.333186E-04
       213    9.648493E-09
       214    1.303298E-03
       215    7.789944E-10
       216   -2.799672E-04
       217   -6.095979E-04
       218   -1.114751E-03
       219    2.316194E-02
       220    3.431970E-02
       221   -2.813275E-02
       222    1.863793E-02
       223    3.271107E-03
       224    1.289031E-01
       225    3.438330E-02
       226    1.576798E-02
       227    1.314432E-01
       228    3.110813E-02
       229   -1.825523E-02
       230    8.107291E-02
       231   -9.353767E-04
       232    1.020724E-03
       233   -8.534766E-05
       234    6.993809E-06
       235   -1.265043E-04
       236    2.126549E-03
       237   -2.375969E-03
       238    2.557598E-03
       239   -1.816286E-04
       240    3.923822E-03
       241    2.553917E-03
       242    3.076190E-03
       243   -1.460444E-02
       244    9.726638E-03
       245    4.877800E-03
       246   -2.627859E-02
       247   -7.418395E-03
       248   -1.493517E-02
       249    8.144078E-05
       250    4.007653E-05
       251   -7.079873E-04
       252    5.226185E-05
       253    2.318742E-05
       254    2.114352E-04
       255   -1.615261E-04
       256   -7.695572E-05
       257    7.384294E-04
       258    1.541879E-04
       259    5.084185E-03
       260    6.814843E-03
       261    4.013921E-02
       262   -6.780496E-06
       263    6.316516E-04
       264    2.542701E-05
       265    9.839694E-03
       266    4.257676E-03
       267    6.118369E-03
       268    5.077433E-03
       269    6.805207E-03
       270    4.013148E-02
       271   -7.453718E-06
       272   -6.307043E-04
       273    2.552228E-05
       274    9.836850E-03
       275   -4.258104E-03
       276    6.118518E-03
       277    4.708100E-03
       278    1.135662E-02
       279   -7.741543E-02
       280    1.677565E-04
       281   -8.468226E-04
       282    5.142137E-03
       283    3.806830E-03
       284    6.840425E-03
       285   -2.301569E-03
       286    4.707817E-03
       287    1.135637E-02
       288   -7.741333E-02
       289    1.679854E-04
       290    8.469408E-04
       291    5.142212E-03
       292    3.807732E-03
       293   -6.839467E-03
       294   -2.301574E-03
       295    7.230593E-04
       296    1.703546E-03
       297   -2.158010E-03
       298   -5.886358E-03
       299    1.649409E-02
       300    1.536846E-02
       301   -1.410422E-02
       302   -5.571104E-06
       303   -1.399073E-02
       304   -1.247653E-02
       305   -4.076485E-06
       306   -1.583594E-02
       307    1.716419E-04
       308    1.071882E-06
       309    2.648523E-03
       310   -6.494922E-04
       311    7.409815E-04
       312   -9.148933E-05
       313    1.275681E-06
       314   -2.294230E-03
       315    1.193103E-08
       316   -1.884529E-03
       317    1.886387E-03
       318   -1.857520E-06
       319    3.394578E-06
       320   -6.997855E-03
       321    2.815774E-08
       322    6.805869E-04
       323   -5.958193E-03
       324    5.277606E-03
       325   -5.566582E-07
       326   -8.446143E-04
       327    7.784620E-08
       328   -2.629434E-05
       329    2.660911E-07
       330    3.881341E-05
       331   -1.326934E-05
       332   -3.885195E-07
       333   -3.999059E-04
       334    4.854689E-05
       335    3.152084E-08
       336    3.478322E-04
       337    9.572560E-10
       338    2.464064E-04
       339    5.930052E-04
       340   -8.593897E-04
       341   -3.462273E-03
       342    1.297726E-02
       343    2.526017E-04
       344    1.537444E-02
       345   -6.876558E-04
       346    3.738261E-02
       347    1.384141E-02
       348   -4.769087E-04
       349    3.481571E-02
       350    1.210581E-02
       351   -6.295534E-04
       352    2.829804E-02
       353    1.590482E-03
       354    3.044713E-04
       355    3.388013E-03
       356   -1.266815E-05
       357    8.574288E-05
       358   -7.307473E-05
       359   -1.294644E-04
       360   -4.630469E-05
       361   -1.945759E-04
       362    1.082800E-04
       363    1.385023E-04
       364   -2.467823E-04
       365   -2.535245E-04
       366    1.781973E-04
       367   -6.486008E-04
       368    4.067793E-04
       369   -1.381607E-04
       370   -2.686185E-04
       371   -1.528885E-04
       372    7.846162E-05
       373   -1.925450E-04
       374   -2.138616E-05
       375   -6.652346E-06
       376   -1.867871E-05
       377    4.134247E-05
       378   -1.859489E-05
       379   -5.042019E-05
       380   -1.264992E-05
       381    2.751995E-05
       382    7.548030E-05
       383   -5.292286E-05
       384    2.463467E-04
       385    5.928334E-04
       386   -8.592560E-04
       387   -3.464041E-03
       388    1.297801E-02
       389    2.474593E-04
       390    1.530897E-02
       391    7.446664E-04
       392    3.738278E-02
       393    1.378197E-02
       394    5.267701E-04
       395    3.481584E-02
       396    1.206175E-02
       397    6.646688E-04
       398    2.829856E-02
       399    1.583275E-03
       400   -3.012049E-04
       401    3.388037E-03
       402   -1.322087E-05
       403    8.647119E-05
       404   -7.325032E-05
       405    1.294969E-04
       406   -4.630117E-05
       407    1.945793E-04
       408    1.065644E-04
       409    1.404025E-04
       410   -2.469670E-04
       411    2.533186E-04
       412    1.782109E-04
       413    6.486195E-04
       414    4.045037E-04
       415   -1.362193E-04
       416   -2.682844E-04
       417    1.527361E-04
       418    7.851700E-05
       419    1.925559E-04
       420   -2.144539E-05
       421    6.850987E-06
       422   -1.868011E-05
       423    4.145797E-05
       424    1.837109E-05
       425   -5.041952E-05
       426   -1.268596E-05
       427   -2.756266E-05
       428    7.548152E-05
       429    5.292501E-05
       430   -1.024867E-02
       431   -2.433900E-02
       432    3.790078E-02
       433    6.429565E-02
       434   -5.721894E-03
       435    1.207490E-01
       436    5.475243E-02
       437    1.139623E-06
       438   -3.504608E-01
       439    5.944036E-02
       440    6.425303E-07
       441   -3.421307E-01
       442    7.047077E-02
       443   -4.455440E-07
       444   -2.620479E-01
       445    1.028021E-04
       446    4.513877E-04
       447   -5.541898E-04
       448    7.346083E-08
       449    9.036901E-05
       450    4.110431E-08
       451    2.426005E-05
       452    4.690409E-03
       453   -4.714669E-03
       454    2.453999E-07
       455   -1.139891E-03
       456    2.656722E-08
       457    3.971616E-03
       458    1.301332E-02
       459   -1.698493E-02
       460    1.627832E-08
       461   -1.068628E-03
       462   -1.864937E-07
       463    3.192528E-04
       464    8.329607E-09
       465    1.443088E-03
       466    2.319092E-04
       467   -1.589010E-08
       468   -9.302733E-04
       469   -6.602319E-04
       470    4.714757E-09
       471   -1.005832E-03
       472    2.245165E-09
       473   -1.596699E-02
       474   -3.609086E-02
       475   -8.581978E-02
       476    5.336985E-03
       477    3.848283E-03
       478   -1.696476E-02
       479    4.169034E-03
       480    9.963563E-03
       481   -1.526025E-02
       482   -1.596860E-02
       483   -3.609355E-02
       484   -8.582466E-02
       485    5.337132E-03
       486   -3.848522E-03
       487   -1.696477E-02
       488    4.169749E-03
       489   -9.964118E-03
       490   -1.526017E-02
 Sym= X
 Ene= -0.867061
 Spin= Alpha
 Occup= -0.867061
         1   -5.028002E-05
         2   -1.160810E-04
         3    3.353092E-04
         4   -7.691587E-04
         5   -1.158260E-03
         6   -5.047867E-04
         7   -8.663516E-05
         8   -1.543358E-04
         9   -1.824793E-01
        10   -1.423554E-03
        11    3.216597E-04
        12   -1.834887E-01
        13    4.801940E-03
        14   -3.021534E-03
        15   -1.061288E-01
        16   -9.727216E-06
        17    4.684917E-06
        18    5.042298E-06
        19    6.792976E-06
        20   -4.847786E-03
        21   -5.369831E-04
        22   -2.842030E-04
        23    2.117569E-04
        24    7.244609E-05
        25   -4.458795E-07
        26   -9.813899E-03
        27    5.453713E-04
        28    7.054079E-04
        29   -6.000579E-04
        30   -1.053500E-04
        31    9.349531E-05
        32   -6.237707E-03
        33    3.340995E-03
        34   -9.219900E-06
        35   -3.362779E-07
        36    1.140625E-03
        37    2.571260E-06
        38    1.187231E-06
        39   -1.378044E-03
        40    9.798534E-06
        41   -7.360669E-07
        42   -1.522656E-04
        43   -1.723771E-05
        44   -6.793125E-08
        45   -1.560844E-07
        46    2.974624E-07
        47    2.175484E-08
        48    7.049479E-06
        49    1.607234E-06
        50   -1.530544E-07
        51    1.626597E-04
        52   -2.858841E-06
        53   -3.755609E-07
        54    7.645941E-04
        55   -3.019305E-06
        56   -2.377967E-06
        57   -6.421830E-03
        58   -1.978435E-06
        59    2.509093E-08
        60    3.549842E-08
        61   -6.058935E-08
        62    9.771958E-06