[Molden Format]
[Title]
ADC(2) - opt by CAM-B3LYP gaussian                                              
[Atoms] AU
 c     1    6 -.12594776649128E+01 -.22773101438193E+01 -.39940542897370E-01
 c     2    6 -.25470425655544E+01 -.11810788300000E-05 -.37653974276580E-01
 c     3    6 -.12594776649128E+01 0.22773077816617E+01 -.39959440158700E-01
 c     4    6 0.13393870965995E+01 0.22758904870620E+01 -.43795584208460E-01
 c     5    6 0.26846831306008E+01 -.11810788300000E-05 -.44211323957690E-01
 c     6    6 0.13394059938609E+01 -.22758928492196E+01 -.43776686947130E-01
 h     7    1 -.23144739703802E+01 -.40231336316857E+01 -.37313823572660E-01
 h     8    1 -.23144739703802E+01 0.40231312695281E+01 -.37332720833990E-01
 h     9    1 0.23577983041343E+01 0.40499086888311E+01 -.52469427158400E-01
 h    10    1 0.23577983041343E+01 -.40498921537274E+01 -.52431632635740E-01
 n    11    7 -.52968964450843E+01 -.11810788300000E-05 -.29906097131750E-01
 o    12    8 -.63725096626615E+01 0.20302827815708E+01 -.26599076399200E-01
 o    13    8 -.63725096626615E+01 -.20302851437285E+01 -.26655768183180E-01
 n    14    7 0.52734000627795E+01 -.11810788300000E-05 -.11796733492422E+00
 h    15    1 0.61922038058499E+01 0.16034881344586E+01 0.31500671664254E+00
 h    16    1 0.61921849085885E+01 -.16034904966163E+01 0.31500671664254E+00
[GTO]
    1 0
 s    6 1.00
 0.13575349682000E+05 0.60645503603591E-03
 0.20352333680000E+04 0.46979088884982E-02
 0.46322562359000E+03 0.24332477647552E-01
 0.13120019598000E+03 0.97399968307759E-01
 0.42853015891000E+02 0.30195584253780E+00
 0.15584185766000E+02 0.66233609137875E+00
 s    2 1.00
 0.62067138508000E+01 0.65595308539952E+00
 0.25764896527000E+01 0.37585633285142E+00
 s    1 1.00
 0.57696339419000E+00 0.10000000000000E+01
 s    1 1.00
 0.22972831358000E+00 0.10000000000000E+01
 s    1 1.00
 0.95164440028000E-01 0.10000000000000E+01
 s    1 1.00
 0.48475401370000E-01 0.10000000000000E+01
 p    4 1.00
 0.34697232244000E+02 0.11327220003114E-01
 0.79582622826000E+01 0.76169659202087E-01
 0.23780826883000E+01 0.30192252202676E+00
 0.81433208183000E+00 0.72785027349547E+00
 p    1 1.00
 0.28887547253000E+00 0.10000000000000E+01
 p    1 1.00
 0.10056823671000E+00 0.10000000000000E+01
 d    1 1.00
 0.10970000000000E+01 0.10000000000000E+01
 d    1 1.00
 0.31800000000000E+00 0.10000000000000E+01
 d    1 1.00
 0.90985336424000E-01 0.10000000000000E+01
 f    1 1.00
 0.76100000000000E+00 0.10000000000000E+01
 
    2 0
 s    6 1.00
 0.13575349682000E+05 0.60645503603591E-03
 0.20352333680000E+04 0.46979088884982E-02
 0.46322562359000E+03 0.24332477647552E-01
 0.13120019598000E+03 0.97399968307759E-01
 0.42853015891000E+02 0.30195584253780E+00
 0.15584185766000E+02 0.66233609137875E+00
 s    2 1.00
 0.62067138508000E+01 0.65595308539952E+00
 0.25764896527000E+01 0.37585633285142E+00
 s    1 1.00
 0.57696339419000E+00 0.10000000000000E+01
 s    1 1.00
 0.22972831358000E+00 0.10000000000000E+01
 s    1 1.00
 0.95164440028000E-01 0.10000000000000E+01
 s    1 1.00
 0.48475401370000E-01 0.10000000000000E+01
 p    4 1.00
 0.34697232244000E+02 0.11327220003114E-01
 0.79582622826000E+01 0.76169659202087E-01
 0.23780826883000E+01 0.30192252202676E+00
 0.81433208183000E+00 0.72785027349547E+00
 p    1 1.00
 0.28887547253000E+00 0.10000000000000E+01
 p    1 1.00
 0.10056823671000E+00 0.10000000000000E+01
 d    1 1.00
 0.10970000000000E+01 0.10000000000000E+01
 d    1 1.00
 0.31800000000000E+00 0.10000000000000E+01
 d    1 1.00
 0.90985336424000E-01 0.10000000000000E+01
 f    1 1.00
 0.76100000000000E+00 0.10000000000000E+01
 
    3 0
 s    6 1.00
 0.13575349682000E+05 0.60645503603591E-03
 0.20352333680000E+04 0.46979088884982E-02
 0.46322562359000E+03 0.24332477647552E-01
 0.13120019598000E+03 0.97399968307759E-01
 0.42853015891000E+02 0.30195584253780E+00
 0.15584185766000E+02 0.66233609137875E+00
 s    2 1.00
 0.62067138508000E+01 0.65595308539952E+00
 0.25764896527000E+01 0.37585633285142E+00
 s    1 1.00
 0.57696339419000E+00 0.10000000000000E+01
 s    1 1.00
 0.22972831358000E+00 0.10000000000000E+01
 s    1 1.00
 0.95164440028000E-01 0.10000000000000E+01
 s    1 1.00
 0.48475401370000E-01 0.10000000000000E+01
 p    4 1.00
 0.34697232244000E+02 0.11327220003114E-01
 0.79582622826000E+01 0.76169659202087E-01
 0.23780826883000E+01 0.30192252202676E+00
 0.81433208183000E+00 0.72785027349547E+00
 p    1 1.00
 0.28887547253000E+00 0.10000000000000E+01
 p    1 1.00
 0.10056823671000E+00 0.10000000000000E+01
 d    1 1.00
 0.10970000000000E+01 0.10000000000000E+01
 d    1 1.00
 0.31800000000000E+00 0.10000000000000E+01
 d    1 1.00
 0.90985336424000E-01 0.10000000000000E+01
 f    1 1.00
 0.76100000000000E+00 0.10000000000000E+01
 
    4 0
 s    6 1.00
 0.13575349682000E+05 0.60645503603591E-03
 0.20352333680000E+04 0.46979088884982E-02
 0.46322562359000E+03 0.24332477647552E-01
 0.13120019598000E+03 0.97399968307759E-01
 0.42853015891000E+02 0.30195584253780E+00
 0.15584185766000E+02 0.66233609137875E+00
 s    2 1.00
 0.62067138508000E+01 0.65595308539952E+00
 0.25764896527000E+01 0.37585633285142E+00
 s    1 1.00
 0.57696339419000E+00 0.10000000000000E+01
 s    1 1.00
 0.22972831358000E+00 0.10000000000000E+01
 s    1 1.00
 0.95164440028000E-01 0.10000000000000E+01
 s    1 1.00
 0.48475401370000E-01 0.10000000000000E+01
 p    4 1.00
 0.34697232244000E+02 0.11327220003114E-01
 0.79582622826000E+01 0.76169659202087E-01
 0.23780826883000E+01 0.30192252202676E+00
 0.81433208183000E+00 0.72785027349547E+00
 p    1 1.00
 0.28887547253000E+00 0.10000000000000E+01
 p    1 1.00
 0.10056823671000E+00 0.10000000000000E+01
 d    1 1.00
 0.10970000000000E+01 0.10000000000000E+01
 d    1 1.00
 0.31800000000000E+00 0.10000000000000E+01
 d    1 1.00
 0.90985336424000E-01 0.10000000000000E+01
 f    1 1.00
 0.76100000000000E+00 0.10000000000000E+01
 
    5 0
 s    6 1.00
 0.13575349682000E+05 0.60645503603591E-03
 0.20352333680000E+04 0.46979088884982E-02
 0.46322562359000E+03 0.24332477647552E-01
 0.13120019598000E+03 0.97399968307759E-01
 0.42853015891000E+02 0.30195584253780E+00
 0.15584185766000E+02 0.66233609137875E+00
 s    2 1.00
 0.62067138508000E+01 0.65595308539952E+00
 0.25764896527000E+01 0.37585633285142E+00
 s    1 1.00
 0.57696339419000E+00 0.10000000000000E+01
 s    1 1.00
 0.22972831358000E+00 0.10000000000000E+01
 s    1 1.00
 0.95164440028000E-01 0.10000000000000E+01
 s    1 1.00
 0.48475401370000E-01 0.10000000000000E+01
 p    4 1.00
 0.34697232244000E+02 0.11327220003114E-01
 0.79582622826000E+01 0.76169659202087E-01
 0.23780826883000E+01 0.30192252202676E+00
 0.81433208183000E+00 0.72785027349547E+00
 p    1 1.00
 0.28887547253000E+00 0.10000000000000E+01
 p    1 1.00
 0.10056823671000E+00 0.10000000000000E+01
 d    1 1.00
 0.10970000000000E+01 0.10000000000000E+01
 d    1 1.00
 0.31800000000000E+00 0.10000000000000E+01
 d    1 1.00
 0.90985336424000E-01 0.10000000000000E+01
 f    1 1.00
 0.76100000000000E+00 0.10000000000000E+01
 
    6 0
 s    6 1.00
 0.13575349682000E+05 0.60645503603591E-03
 0.20352333680000E+04 0.46979088884982E-02
 0.46322562359000E+03 0.24332477647552E-01
 0.13120019598000E+03 0.97399968307759E-01
 0.42853015891000E+02 0.30195584253780E+00
 0.15584185766000E+02 0.66233609137875E+00
 s    2 1.00
 0.62067138508000E+01 0.65595308539952E+00
 0.25764896527000E+01 0.37585633285142E+00
 s    1 1.00
 0.57696339419000E+00 0.10000000000000E+01
 s    1 1.00
 0.22972831358000E+00 0.10000000000000E+01
 s    1 1.00
 0.95164440028000E-01 0.10000000000000E+01
 s    1 1.00
 0.48475401370000E-01 0.10000000000000E+01
 p    4 1.00
 0.34697232244000E+02 0.11327220003114E-01
 0.79582622826000E+01 0.76169659202087E-01
 0.23780826883000E+01 0.30192252202676E+00
 0.81433208183000E+00 0.72785027349547E+00
 p    1 1.00
 0.28887547253000E+00 0.10000000000000E+01
 p    1 1.00
 0.10056823671000E+00 0.10000000000000E+01
 d    1 1.00
 0.10970000000000E+01 0.10000000000000E+01
 d    1 1.00
 0.31800000000000E+00 0.10000000000000E+01
 d    1 1.00
 0.90985336424000E-01 0.10000000000000E+01
 f    1 1.00
 0.76100000000000E+00 0.10000000000000E+01
 
    7 0
 s    3 1.00
 0.34061341000000E+02 0.25439307208879E-01
 0.51235746000000E+01 0.19008594890375E+00
 0.11646626000000E+01 0.85244113011042E+00
 s    1 1.00
 0.32723041000000E+00 0.10000000000000E+01
 s    1 1.00
 0.10307241000000E+00 0.10000000000000E+01
 p    1 1.00
 0.80000000000000E+00 0.10000000000000E+01
 p    1 1.00
 0.95774129632000E-01 0.10000000000000E+01
 
    8 0
 s    3 1.00
 0.34061341000000E+02 0.25439307208879E-01
 0.51235746000000E+01 0.19008594890375E+00
 0.11646626000000E+01 0.85244113011042E+00
 s    1 1.00
 0.32723041000000E+00 0.10000000000000E+01
 s    1 1.00
 0.10307241000000E+00 0.10000000000000E+01
 p    1 1.00
 0.80000000000000E+00 0.10000000000000E+01
 p    1 1.00
 0.95774129632000E-01 0.10000000000000E+01
 
    9 0
 s    3 1.00
 0.34061341000000E+02 0.25439307208879E-01
 0.51235746000000E+01 0.19008594890375E+00
 0.11646626000000E+01 0.85244113011042E+00
 s    1 1.00
 0.32723041000000E+00 0.10000000000000E+01
 s    1 1.00
 0.10307241000000E+00 0.10000000000000E+01
 p    1 1.00
 0.80000000000000E+00 0.10000000000000E+01
 p    1 1.00
 0.95774129632000E-01 0.10000000000000E+01
 
   10 0
 s    3 1.00
 0.34061341000000E+02 0.25439307208879E-01
 0.51235746000000E+01 0.19008594890375E+00
 0.11646626000000E+01 0.85244113011042E+00
 s    1 1.00
 0.32723041000000E+00 0.10000000000000E+01
 s    1 1.00
 0.10307241000000E+00 0.10000000000000E+01
 p    1 1.00
 0.80000000000000E+00 0.10000000000000E+01
 p    1 1.00
 0.95774129632000E-01 0.10000000000000E+01
 
   11 0
 s    6 1.00
 0.19730800647000E+05 0.58626402628763E-03
 0.29578958745000E+04 0.45428820586397E-02
 0.67322133595000E+03 0.23558413450084E-01
 0.19068249494000E+03 0.94709193292923E-01
 0.62295441898000E+02 0.29719784913376E+00
 0.22654161182000E+02 0.66916246895232E+00
 s    2 1.00
 0.89791477428000E+01 0.64596683630063E+00
 0.36863002370000E+01 0.38700574393705E+00
 s    1 1.00
 0.84660076805000E+00 0.10000000000000E+01
 s    1 1.00
 0.33647133771000E+00 0.10000000000000E+01
 s    1 1.00
 0.13647653675000E+00 0.10000000000000E+01
 s    1 1.00
 0.68441605847000E-01 0.10000000000000E+01
 p    4 1.00
 0.49200380510000E+02 0.11448825101764E-01
 0.11346790537000E+02 0.78422337970864E-01
 0.34273972411000E+01 0.30818094738830E+00
 0.11785525134000E+01 0.72027196368413E+00
 p    1 1.00
 0.41642204972000E+00 0.10000000000000E+01
 p    1 1.00
 0.14260826011000E+00 0.10000000000000E+01
 d    1 1.00
 0.16540000000000E+01 0.10000000000000E+01
 d    1 1.00
 0.46900000000000E+00 0.10000000000000E+01
 d    1 1.00
 0.12829642058000E+00 0.10000000000000E+01
 f    1 1.00
 0.10930000000000E+01 0.10000000000000E+01
 
   12 0
 s    6 1.00
 0.27032382631000E+05 0.57227335211155E-03
 0.40523871392000E+04 0.44353233492995E-02
 0.92232722710000E+03 0.23020107706038E-01
 0.26124070989000E+03 0.92822490667928E-01
 0.85354641351000E+02 0.29378500009671E+00
 0.31035035245000E+02 0.67401604501641E+00
 s    2 1.00
 0.12260860728000E+02 0.63839937025506E+00
 0.49987076005000E+01 0.39534587125718E+00
 s    1 1.00
 0.11703108158000E+01 0.10000000000000E+01
 s    1 1.00
 0.46474740994000E+00 0.10000000000000E+01
 s    1 1.00
 0.18504536357000E+00 0.10000000000000E+01
 s    1 1.00
 0.70288026270000E-01 0.10000000000000E+01
 p    4 1.00
 0.63274954801000E+02 0.12018332222616E-01
 0.14627049379000E+02 0.83005421790056E-01
 0.44501223456000E+01 0.31991743925964E+00
 0.15275799647000E+01 0.70715542916104E+00
 p    1 1.00
 0.52935117943000E+00 0.10000000000000E+01
 p    1 1.00
 0.17478421270000E+00 0.10000000000000E+01
 p    1 1.00
 0.51112745706000E-01 0.10000000000000E+01
 d    1 1.00
 0.23140000000000E+01 0.10000000000000E+01
 d    1 1.00
 0.64500000000000E+00 0.10000000000000E+01
 d    1 1.00
 0.14696477366000E+00 0.10000000000000E+01
 f    1 1.00
 0.14280000000000E+01 0.10000000000000E+01
 
   13 0
 s    6 1.00
 0.27032382631000E+05 0.57227335211155E-03
 0.40523871392000E+04 0.44353233492995E-02
 0.92232722710000E+03 0.23020107706038E-01
 0.26124070989000E+03 0.92822490667928E-01
 0.85354641351000E+02 0.29378500009671E+00
 0.31035035245000E+02 0.67401604501641E+00
 s    2 1.00
 0.12260860728000E+02 0.63839937025506E+00
 0.49987076005000E+01 0.39534587125718E+00
 s    1 1.00
 0.11703108158000E+01 0.10000000000000E+01
 s    1 1.00
 0.46474740994000E+00 0.10000000000000E+01
 s    1 1.00
 0.18504536357000E+00 0.10000000000000E+01
 s    1 1.00
 0.70288026270000E-01 0.10000000000000E+01
 p    4 1.00
 0.63274954801000E+02 0.12018332222616E-01
 0.14627049379000E+02 0.83005421790056E-01
 0.44501223456000E+01 0.31991743925964E+00
 0.15275799647000E+01 0.70715542916104E+00
 p    1 1.00
 0.52935117943000E+00 0.10000000000000E+01
 p    1 1.00
 0.17478421270000E+00 0.10000000000000E+01
 p    1 1.00
 0.51112745706000E-01 0.10000000000000E+01
 d    1 1.00
 0.23140000000000E+01 0.10000000000000E+01
 d    1 1.00
 0.64500000000000E+00 0.10000000000000E+01
 d    1 1.00
 0.14696477366000E+00 0.10000000000000E+01
 f    1 1.00
 0.14280000000000E+01 0.10000000000000E+01
 
   14 0
 s    6 1.00
 0.19730800647000E+05 0.58626402628763E-03
 0.29578958745000E+04 0.45428820586397E-02
 0.67322133595000E+03 0.23558413450084E-01
 0.19068249494000E+03 0.94709193292923E-01
 0.62295441898000E+02 0.29719784913376E+00
 0.22654161182000E+02 0.66916246895232E+00
 s    2 1.00
 0.89791477428000E+01 0.64596683630063E+00
 0.36863002370000E+01 0.38700574393705E+00
 s    1 1.00
 0.84660076805000E+00 0.10000000000000E+01
 s    1 1.00
 0.33647133771000E+00 0.10000000000000E+01
 s    1 1.00
 0.13647653675000E+00 0.10000000000000E+01
 s    1 1.00
 0.68441605847000E-01 0.10000000000000E+01
 p    4 1.00
 0.49200380510000E+02 0.11448825101764E-01
 0.11346790537000E+02 0.78422337970864E-01
 0.34273972411000E+01 0.30818094738830E+00
 0.11785525134000E+01 0.72027196368413E+00
 p    1 1.00
 0.41642204972000E+00 0.10000000000000E+01
 p    1 1.00
 0.14260826011000E+00 0.10000000000000E+01
 d    1 1.00
 0.16540000000000E+01 0.10000000000000E+01
 d    1 1.00
 0.46900000000000E+00 0.10000000000000E+01
 d    1 1.00
 0.12829642058000E+00 0.10000000000000E+01
 f    1 1.00
 0.10930000000000E+01 0.10000000000000E+01
 
   15 0
 s    3 1.00
 0.34061341000000E+02 0.25439307208879E-01
 0.51235746000000E+01 0.19008594890375E+00
 0.11646626000000E+01 0.85244113011042E+00
 s    1 1.00
 0.32723041000000E+00 0.10000000000000E+01
 s    1 1.00
 0.10307241000000E+00 0.10000000000000E+01
 p    1 1.00
 0.80000000000000E+00 0.10000000000000E+01
 p    1 1.00
 0.95774129632000E-01 0.10000000000000E+01
 
   16 0
 s    3 1.00
 0.34061341000000E+02 0.25439307208879E-01
 0.51235746000000E+01 0.19008594890375E+00
 0.11646626000000E+01 0.85244113011042E+00
 s    1 1.00
 0.32723041000000E+00 0.10000000000000E+01
 s    1 1.00
 0.10307241000000E+00 0.10000000000000E+01
 p    1 1.00
 0.80000000000000E+00 0.10000000000000E+01
 p    1 1.00
 0.95774129632000E-01 0.10000000000000E+01
 
[MO]
 Sym= X
 Ene= -0.946789
 Spin= Alpha
 Occup= -0.946789
         1   -2.370624E-04
         2   -5.533226E-04
         3    1.863815E-03
         4   -6.123219E-03
         5    6.614796E-02
         6   -1.822827E-02
         7    3.034845E-03
         8   -3.027851E-04
         9    3.814224E-02
        10   -4.498653E-03
        11    3.966367E-04
        12    3.615884E-02
        13   -3.732936E-02
        14    2.212039E-02
        15    2.255994E-02
        16    2.690915E-05
        17   -5.483586E-05
        18    2.792672E-05
        19    1.609344E-06
        20   -6.189386E-03
        21    3.963588E-03
        22   -1.129786E-03
        23    6.381579E-04
        24    4.916278E-04
        25   -1.116280E-03
        26   -1.409099E-02
        27    7.412213E-03
        28   -1.670734E-03
        29    1.426698E-03
        30    2.440362E-04
        31    2.759217E-03
        32    4.347854E-03
        33   -8.447831E-03
        34   -3.910222E-05
        35    1.091719E-06
        36   -1.525672E-04
        37    2.105968E-05
        38    3.110242E-06
        39   -6.961988E-04
        40    3.140146E-05
        41   -4.574937E-06
        42    9.008892E-04
        43   -6.963169E-04
        44   -5.005444E-05
        45   -1.189049E-04
        46    6.112920E-04
        47   -5.120731E-03
        48   -8.084035E-02
        49    9.401455E-03
        50   -1.383099E-03
        51    1.320235E-06
        52    2.039982E-01
        53   -2.329369E-03
        54    1.175327E-06
        55    2.110443E-01
        56   -1.438724E-02
        57   -1.420149E-05
        58    1.866291E-01
        59    1.415503E-04
        60   -1.292216E-04
        61   -1.232865E-05
        62    4.921405E-08
        63    2.261564E-06
        64   -4.476197E-08
        65    6.513473E-04
        66   -1.077433E-03
        67    4.260860E-04
        68   -9.437990E-08
        69   -1.661234E-03
        70   -1.045179E-07
        71    2.321527E-02
        72   -2.589701E-02
        73    2.681735E-03
        74   -2.106437E-06
        75    3.039079E-03
        76    5.619059E-07
        77   -4.908689E-09
        78    2.451030E-08
        79   -1.157173E-03
        80   -4.052909E-06
        81   -1.503654E-08
        82    6.255062E-04
        83    4.059495E-06
        84   -1.784748E-08
        85    9.270044E-04
        86   -5.142679E-09
        87   -2.373376E-04
        88   -5.539492E-04
        89    1.864925E-03
        90   -6.122502E-03
        91    6.617041E-02
        92   -1.822944E-02
        93    3.032401E-03
        94    3.037880E-04
        95    3.814037E-02
        96   -4.501648E-03
        97   -3.960800E-04
        98    3.615703E-02
        99   -3.734417E-02
       100   -2.213339E-02
       101    2.255892E-02
       102    2.681782E-05
       103   -5.478792E-05
       104    2.797010E-05
       105   -1.700723E-06
       106   -6.189387E-03
       107   -3.963566E-03
       108   -1.130250E-03
       109    6.384461E-04
       110    4.918039E-04
       111    1.116182E-03
       112   -1.409092E-02
       113   -7.412200E-03
       114   -1.672485E-03
       115    1.428699E-03
       116    2.437857E-04
       117   -2.758052E-03
       118    4.348586E-03
       119    8.448417E-03
       120   -3.910182E-05
       121   -1.082814E-06
       122   -1.525644E-04
       123    2.106062E-05
       124   -3.106331E-06
       125   -6.961973E-04
       126    3.139998E-05
       127    4.559079E-06
       128    9.008839E-04
       129    6.963155E-04
       130    1.321685E-04
       131    2.839611E-04
       132    7.985954E-04
       133   -1.419160E-02
       134   -2.215540E-02
       135    2.285238E-02
       136   -2.582676E-03
       137    5.413340E-04
       138   -1.565828E-01
       139   -1.548783E-02
       140    9.296010E-03
       141   -1.587653E-01
       142   -3.625258E-03
       143   -1.327520E-02
       144   -1.015791E-01
       145    2.077745E-04
       146   -2.443226E-04
       147    3.654806E-05
       148   -5.687949E-06
       149   -1.623308E-03
       150    3.526490E-03
       151    1.281108E-03
       152   -1.289024E-03
       153    7.915757E-06
       154    2.496350E-03
       155   -6.038608E-03
       156    5.744851E-03
       157    9.841769E-03
       158   -6.748150E-03
       159   -3.093619E-03
       160   -2.089593E-02
       161    4.890994E-03
       162   -9.127534E-03
       163   -3.646712E-05
       164    6.161979E-06
       165    9.229417E-04
       166   -1.797336E-05
       167    3.535020E-05
       168   -1.822241E-04
       169    6.689914E-05
       170   -4.361736E-05
       171   -1.056032E-03
       172    4.258031E-04
       173   -1.486941E-03
       174   -3.390253E-03
       175    3.022762E-03
       176    3.484827E-02
       177   -1.044890E-01
       178    7.850087E-03
       179    1.164549E-02
       180    2.566167E-07
       181   -1.465227E-01
       182   -8.303353E-04
       183    1.529436E-07
       184   -1.493193E-01
       185   -8.030669E-02
       186    4.053715E-06
       187   -1.353357E-01
       188    7.089069E-04
       189   -4.123474E-04
       190   -2.965595E-04
       191    3.485946E-09
       192    9.020271E-03
       193    1.156646E-07
       194   -2.779802E-03
       195    6.159171E-03
       196   -3.379368E-03
       197   -1.183823E-07
       198    2.278916E-02
       199    1.736620E-07
       200   -1.621339E-02
       201    1.697381E-02
       202   -7.604221E-04
       203   -3.249126E-07
       204    1.116368E-02
       205   -4.258018E-07
       206    1.613353E-04
       207   -6.928656E-09
       208    5.827183E-04
       209   -1.270758E-04
       210   -3.658935E-09
       211    8.005887E-04
       212   -8.937827E-05
       213    1.295470E-08
       214   -1.582387E-03
       215   -4.589128E-09
       216    1.320472E-04
       217    2.836877E-04
       218    7.990695E-04
       219   -1.419234E-02
       220   -2.216185E-02
       221    2.285257E-02
       222   -2.584498E-03
       223   -5.435321E-04
       224   -1.565851E-01
       225   -1.548815E-02
       226   -9.297874E-03
       227   -1.587676E-01
       228   -3.615518E-03
       229    1.327954E-02
       230   -1.015810E-01
       231    2.078222E-04
       232   -2.444191E-04
       233    3.659685E-05
       234    5.632000E-06
       235   -1.623365E-03
       236   -3.526538E-03
       237    1.280943E-03
       238   -1.288969E-03
       239    8.025766E-06
       240   -2.496407E-03
       241   -6.038611E-03
       242   -5.744859E-03
       243    9.840798E-03
       244   -6.746947E-03
       245   -3.093851E-03
       246    2.089662E-02
       247    4.890029E-03
       248    9.127098E-03
       249   -3.646930E-05
       250   -6.183968E-06
       251    9.229522E-04
       252   -1.797944E-05
       253   -3.535333E-05
       254   -1.822183E-04
       255    6.690814E-05
       256    4.364999E-05
       257   -1.056052E-03
       258   -4.257927E-04
       259   -5.148788E-04
       260   -6.678192E-05
       261   -2.282417E-02
       262    1.396585E-05
       263    3.174223E-05
       264    1.570304E-03
       265   -7.107216E-03
       266   -1.865733E-03
       267   -3.751062E-03
       268   -5.136184E-04
       269   -6.492149E-05
       270   -2.282396E-02
       271    1.407959E-05
       272   -3.192181E-05
       273    1.570231E-03
       274   -7.106941E-03
       275    1.865666E-03
       276   -3.751206E-03
       277   -7.392157E-04
       278   -3.933488E-03
       279    5.831514E-02
       280   -4.195955E-05
       281    1.715876E-04
       282   -6.419877E-03
       283   -2.925539E-04
       284   -5.601486E-03
       285   -3.121478E-03
       286   -7.392200E-04
       287   -3.933622E-03
       288    5.831635E-02
       289   -4.199815E-05
       290   -1.716784E-04
       291   -6.420050E-03
       292   -2.923826E-04
       293    5.601445E-03
       294   -3.121701E-03
       295   -1.004459E-04
       296   -2.349061E-04
       297    2.457467E-04
       298    5.375508E-04
       299   -1.274863E-02
       300   -4.352290E-03
       301    2.251548E-03
       302    7.453731E-07
       303    1.000271E-02
       304    1.581795E-03
       305    5.409749E-07
       306    1.221448E-02
       307   -3.284770E-03
       308   -8.268346E-08
       309   -2.046467E-05
       310    1.549521E-04
       311   -1.543298E-04
       312   -6.222606E-07
       313   -2.477526E-07
       314    3.982213E-03
       315   -1.696725E-09
       316    3.792651E-04
       317   -3.054755E-04
       318   -7.378962E-05
       319   -6.496432E-07
       320    1.189858E-02
       321   -4.557233E-09
       322   -7.624962E-05
       323    3.940881E-03
       324   -3.864631E-03
       325    3.612391E-07
       326    3.459407E-03
       327   -7.373944E-08
       328    1.109120E-05
       329   -4.392218E-08
       330   -2.116591E-05
       331   -3.386987E-06
       332    8.036370E-08
       333    6.721503E-04
       334   -1.149342E-05
       335   -2.143590E-08
       336   -6.437533E-04
       337   -1.456819E-09
       338   -2.694924E-05
       339   -5.940880E-05
       340    2.622089E-05
       341    1.035104E-03
       342   -9.728253E-03
       343   -1.969330E-03
       344   -3.544780E-03
       345   -2.110877E-04
       346   -6.653333E-02
       347   -3.368226E-03
       348   -4.607159E-05
       349   -6.169478E-02
       350   -3.463482E-03
       351    7.664205E-04
       352   -4.784667E-02
       353   -7.187681E-04
       354    2.051939E-04
       355   -5.265450E-03
       356   -2.610652E-06
       357   -1.038835E-05
       358    1.299900E-05
       359    3.009593E-05
       360   -1.933034E-05
       361    4.883779E-04
       362   -4.727665E-05
       363   -1.073035E-05
       364    5.800700E-05
       365    7.684941E-05
       366   -5.537437E-04
       367    1.567361E-03
       368   -1.238576E-04
       369   -2.454688E-05
       370    1.484045E-04
       371   -7.774596E-05
       372   -9.719323E-04
       373    3.077791E-04
       374    4.863196E-06
       375   -9.122878E-07
       376    5.895125E-05
       377   -8.961700E-06
       378    7.636654E-06
       379    8.589968E-05
       380    2.437037E-06
       381   -6.412691E-06
       382   -1.649911E-04
       383    1.265439E-04
       384   -2.699908E-05
       385   -5.952825E-05
       386    2.642928E-05
       387    1.035716E-03
       388   -9.728483E-03
       389   -1.968928E-03
       390   -3.530977E-03
       391    2.019968E-04
       392   -6.653348E-02
       393   -3.355688E-03
       394    3.814978E-05
       395   -6.169490E-02
       396   -3.453894E-03
       397   -7.721906E-04
       398   -4.784712E-02
       399   -7.176098E-04
       400   -2.054298E-04
       401   -5.265482E-03
       402   -2.512895E-06
       403   -1.049401E-05
       404    1.300690E-05
       405   -3.008645E-05
       406   -1.933069E-05
       407   -4.883786E-04
       408   -4.695189E-05
       409   -1.101029E-05
       410    5.796217E-05
       411   -7.674501E-05
       412   -5.537478E-04
       413   -1.567373E-03
       414   -1.234221E-04
       415   -2.493427E-05
       416    1.483563E-04
       417    7.788476E-05
       418   -9.719651E-04
       419   -3.077885E-04
       420    4.869974E-06
       421    8.838690E-07
       422    5.895161E-05
       423   -8.971798E-06
       424   -7.593356E-06
       425    8.589975E-05
       426    2.438042E-06
       427    6.407521E-06
       428   -1.649916E-04
       429   -1.265446E-04
       430    7.057220E-03
       431    1.677760E-02
       432   -2.606718E-02
       433   -4.449228E-02
       434   -2.055254E-03
       435   -9.422394E-02
       436   -2.569752E-02
       437    6.326251E-08
       438    2.290568E-01
       439   -2.972643E-02
       440    2.096717E-07
       441    2.256200E-01
       442   -3.827674E-02
       443    5.665557E-07
       444    1.871774E-01
       445   -2.260377E-04
       446   -4.213405E-05
       447    2.681718E-04
       448    4.209247E-09
       449    1.373274E-03
       450   -1.094732E-08
       451   -4.368720E-04
       452   -2.446207E-03
       453    2.883079E-03
       454   -1.382228E-08
       455    4.769095E-03
       456    1.089312E-08
       457   -4.027856E-03
       458   -7.038041E-03
       459    1.106590E-02
       460   -4.455223E-08
       461    2.759913E-03
       462    1.178535E-07
       463   -2.221181E-04
       464    1.618276E-09
       465   -7.817763E-04
       466   -1.303777E-04
       467    2.112020E-09
       468    3.111425E-04
       469    4.283804E-04
       470   -4.283165E-09
       471    7.377204E-04
       472    4.146505E-10
       473    1.440283E-02
       474    2.871814E-02
       475    5.955962E-02
       476   -3.217804E-03
       477   -2.827703E-03
       478    1.158269E-02
       479   -7.902699E-04
       480   -6.566404E-03
       481    1.475472E-02
       482    1.440287E-02
       483    2.871833E-02
       484    5.955993E-02
       485   -3.217823E-03
       486    2.827774E-03
       487    1.158272E-02
       488   -7.903360E-04
       489    6.566482E-03
       490    1.475474E-02
 Sym= X
 Ene= 0.946789
 Spin= Alpha
 Occup= 0.946789
         1   -4.565676E-04
         2   -8.598517E-04
         3   -4.675829E-03
         4    2.655894E-02
         5    1.786038E+00
         6    8.179844E-01
         7   -1.857994E-02
         8   -3.062108E-02
         9    6.891710E-03
        10    8.491203E-03
        11   -1.092749E-01
        12    1.315722E-04
        13    1.009056E+00
        14    1.730973E+00
        15    1.369592E-01
        16    1.348739E-03
        17   -4.242187E-03
        18    2.893448E-03
        19   -2.061986E-03
        20    3.981876E-04
        21    1.628806E-04
        22   -9.082194E-03
        23   -1.411255E-03
        24    1.049345E-02
        25    7.626578E-03
        26   -7.226897E-04
        27   -7.146882E-06
        28   -1.527913E-01
        29   -1.829033E-03
        30    1.546203E-01
        31   -7.639435E-01
        32    3.347598E-02
        33   -5.252371E-02
        34    1.108944E-04
        35   -2.614714E-04
        36    4.448994E-05
        37   -4.554186E-04
        38   -2.955331E-04
        39   -9.106694E-05
        40    3.066382E-04
        41    6.463338E-04
        42    3.137742E-05
        43    1.213210E-05
        44    2.244738E-03
        45    4.595621E-03
        46    6.425455E-04
        47   -1.312825E-01
        48   -5.671401E+00
        49    4.160164E+00
        50   -3.725960E-02
        51    2.539699E-07
        52   -1.365743E-03
        53    2.203653E-04
        54   -2.483659E-06
        55   -3.232924E-03
        56   -1.949440E+00
        57   -6.243988E-05
        58    9.448245E-02
        59   -4.836199E-03
        60    3.836213E-04
        61    4.452577E-03
        62    9.397775E-09