[Molden Format]
[Title]
ADC(2) - opt by CAM-B3LYP gaussian                                              
[Atoms] AU
 c     1    6 -.12594776649128E+01 -.22773101438193E+01 -.39940542897370E-01
 c     2    6 -.25470425655544E+01 -.11810788300000E-05 -.37653974276580E-01
 c     3    6 -.12594776649128E+01 0.22773077816617E+01 -.39959440158700E-01
 c     4    6 0.13393870965995E+01 0.22758904870620E+01 -.43795584208460E-01
 c     5    6 0.26846831306008E+01 -.11810788300000E-05 -.44211323957690E-01
 c     6    6 0.13394059938609E+01 -.22758928492196E+01 -.43776686947130E-01
 h     7    1 -.23144739703802E+01 -.40231336316857E+01 -.37313823572660E-01
 h     8    1 -.23144739703802E+01 0.40231312695281E+01 -.37332720833990E-01
 h     9    1 0.23577983041343E+01 0.40499086888311E+01 -.52469427158400E-01
 h    10    1 0.23577983041343E+01 -.40498921537274E+01 -.52431632635740E-01
 n    11    7 -.52968964450843E+01 -.11810788300000E-05 -.29906097131750E-01
 o    12    8 -.63725096626615E+01 0.20302827815708E+01 -.26599076399200E-01
 o    13    8 -.63725096626615E+01 -.20302851437285E+01 -.26655768183180E-01
 n    14    7 0.52734000627795E+01 -.11810788300000E-05 -.11796733492422E+00
 h    15    1 0.61922038058499E+01 0.16034881344586E+01 0.31500671664254E+00
 h    16    1 0.61921849085885E+01 -.16034904966163E+01 0.31500671664254E+00
[GTO]
    1 0
 s    6 1.00
 0.13575349682000E+05 0.60645503603591E-03
 0.20352333680000E+04 0.46979088884982E-02
 0.46322562359000E+03 0.24332477647552E-01
 0.13120019598000E+03 0.97399968307759E-01
 0.42853015891000E+02 0.30195584253780E+00
 0.15584185766000E+02 0.66233609137875E+00
 s    2 1.00
 0.62067138508000E+01 0.65595308539952E+00
 0.25764896527000E+01 0.37585633285142E+00
 s    1 1.00
 0.57696339419000E+00 0.10000000000000E+01
 s    1 1.00
 0.22972831358000E+00 0.10000000000000E+01
 s    1 1.00
 0.95164440028000E-01 0.10000000000000E+01
 s    1 1.00
 0.48475401370000E-01 0.10000000000000E+01
 p    4 1.00
 0.34697232244000E+02 0.11327220003114E-01
 0.79582622826000E+01 0.76169659202087E-01
 0.23780826883000E+01 0.30192252202676E+00
 0.81433208183000E+00 0.72785027349547E+00
 p    1 1.00
 0.28887547253000E+00 0.10000000000000E+01
 p    1 1.00
 0.10056823671000E+00 0.10000000000000E+01
 d    1 1.00
 0.10970000000000E+01 0.10000000000000E+01
 d    1 1.00
 0.31800000000000E+00 0.10000000000000E+01
 d    1 1.00
 0.90985336424000E-01 0.10000000000000E+01
 f    1 1.00
 0.76100000000000E+00 0.10000000000000E+01
 
    2 0
 s    6 1.00
 0.13575349682000E+05 0.60645503603591E-03
 0.20352333680000E+04 0.46979088884982E-02
 0.46322562359000E+03 0.24332477647552E-01
 0.13120019598000E+03 0.97399968307759E-01
 0.42853015891000E+02 0.30195584253780E+00
 0.15584185766000E+02 0.66233609137875E+00
 s    2 1.00
 0.62067138508000E+01 0.65595308539952E+00
 0.25764896527000E+01 0.37585633285142E+00
 s    1 1.00
 0.57696339419000E+00 0.10000000000000E+01
 s    1 1.00
 0.22972831358000E+00 0.10000000000000E+01
 s    1 1.00
 0.95164440028000E-01 0.10000000000000E+01
 s    1 1.00
 0.48475401370000E-01 0.10000000000000E+01
 p    4 1.00
 0.34697232244000E+02 0.11327220003114E-01
 0.79582622826000E+01 0.76169659202087E-01
 0.23780826883000E+01 0.30192252202676E+00
 0.81433208183000E+00 0.72785027349547E+00
 p    1 1.00
 0.28887547253000E+00 0.10000000000000E+01
 p    1 1.00
 0.10056823671000E+00 0.10000000000000E+01
 d    1 1.00
 0.10970000000000E+01 0.10000000000000E+01
 d    1 1.00
 0.31800000000000E+00 0.10000000000000E+01
 d    1 1.00
 0.90985336424000E-01 0.10000000000000E+01
 f    1 1.00
 0.76100000000000E+00 0.10000000000000E+01
 
    3 0
 s    6 1.00
 0.13575349682000E+05 0.60645503603591E-03
 0.20352333680000E+04 0.46979088884982E-02
 0.46322562359000E+03 0.24332477647552E-01
 0.13120019598000E+03 0.97399968307759E-01
 0.42853015891000E+02 0.30195584253780E+00
 0.15584185766000E+02 0.66233609137875E+00
 s    2 1.00
 0.62067138508000E+01 0.65595308539952E+00
 0.25764896527000E+01 0.37585633285142E+00
 s    1 1.00
 0.57696339419000E+00 0.10000000000000E+01
 s    1 1.00
 0.22972831358000E+00 0.10000000000000E+01
 s    1 1.00
 0.95164440028000E-01 0.10000000000000E+01
 s    1 1.00
 0.48475401370000E-01 0.10000000000000E+01
 p    4 1.00
 0.34697232244000E+02 0.11327220003114E-01
 0.79582622826000E+01 0.76169659202087E-01
 0.23780826883000E+01 0.30192252202676E+00
 0.81433208183000E+00 0.72785027349547E+00
 p    1 1.00
 0.28887547253000E+00 0.10000000000000E+01
 p    1 1.00
 0.10056823671000E+00 0.10000000000000E+01
 d    1 1.00
 0.10970000000000E+01 0.10000000000000E+01
 d    1 1.00
 0.31800000000000E+00 0.10000000000000E+01
 d    1 1.00
 0.90985336424000E-01 0.10000000000000E+01
 f    1 1.00
 0.76100000000000E+00 0.10000000000000E+01
 
    4 0
 s    6 1.00
 0.13575349682000E+05 0.60645503603591E-03
 0.20352333680000E+04 0.46979088884982E-02
 0.46322562359000E+03 0.24332477647552E-01
 0.13120019598000E+03 0.97399968307759E-01
 0.42853015891000E+02 0.30195584253780E+00
 0.15584185766000E+02 0.66233609137875E+00
 s    2 1.00
 0.62067138508000E+01 0.65595308539952E+00
 0.25764896527000E+01 0.37585633285142E+00
 s    1 1.00
 0.57696339419000E+00 0.10000000000000E+01
 s    1 1.00
 0.22972831358000E+00 0.10000000000000E+01
 s    1 1.00
 0.95164440028000E-01 0.10000000000000E+01
 s    1 1.00
 0.48475401370000E-01 0.10000000000000E+01
 p    4 1.00
 0.34697232244000E+02 0.11327220003114E-01
 0.79582622826000E+01 0.76169659202087E-01
 0.23780826883000E+01 0.30192252202676E+00
 0.81433208183000E+00 0.72785027349547E+00
 p    1 1.00
 0.28887547253000E+00 0.10000000000000E+01
 p    1 1.00
 0.10056823671000E+00 0.10000000000000E+01
 d    1 1.00
 0.10970000000000E+01 0.10000000000000E+01
 d    1 1.00
 0.31800000000000E+00 0.10000000000000E+01
 d    1 1.00
 0.90985336424000E-01 0.10000000000000E+01
 f    1 1.00
 0.76100000000000E+00 0.10000000000000E+01
 
    5 0
 s    6 1.00
 0.13575349682000E+05 0.60645503603591E-03
 0.20352333680000E+04 0.46979088884982E-02
 0.46322562359000E+03 0.24332477647552E-01
 0.13120019598000E+03 0.97399968307759E-01
 0.42853015891000E+02 0.30195584253780E+00
 0.15584185766000E+02 0.66233609137875E+00
 s    2 1.00
 0.62067138508000E+01 0.65595308539952E+00
 0.25764896527000E+01 0.37585633285142E+00
 s    1 1.00
 0.57696339419000E+00 0.10000000000000E+01
 s    1 1.00
 0.22972831358000E+00 0.10000000000000E+01
 s    1 1.00
 0.95164440028000E-01 0.10000000000000E+01
 s    1 1.00
 0.48475401370000E-01 0.10000000000000E+01
 p    4 1.00
 0.34697232244000E+02 0.11327220003114E-01
 0.79582622826000E+01 0.76169659202087E-01
 0.23780826883000E+01 0.30192252202676E+00
 0.81433208183000E+00 0.72785027349547E+00
 p    1 1.00
 0.28887547253000E+00 0.10000000000000E+01
 p    1 1.00
 0.10056823671000E+00 0.10000000000000E+01
 d    1 1.00
 0.10970000000000E+01 0.10000000000000E+01
 d    1 1.00
 0.31800000000000E+00 0.10000000000000E+01
 d    1 1.00
 0.90985336424000E-01 0.10000000000000E+01
 f    1 1.00
 0.76100000000000E+00 0.10000000000000E+01
 
    6 0
 s    6 1.00
 0.13575349682000E+05 0.60645503603591E-03
 0.20352333680000E+04 0.46979088884982E-02
 0.46322562359000E+03 0.24332477647552E-01
 0.13120019598000E+03 0.97399968307759E-01
 0.42853015891000E+02 0.30195584253780E+00
 0.15584185766000E+02 0.66233609137875E+00
 s    2 1.00
 0.62067138508000E+01 0.65595308539952E+00
 0.25764896527000E+01 0.37585633285142E+00
 s    1 1.00
 0.57696339419000E+00 0.10000000000000E+01
 s    1 1.00
 0.22972831358000E+00 0.10000000000000E+01
 s    1 1.00
 0.95164440028000E-01 0.10000000000000E+01
 s    1 1.00
 0.48475401370000E-01 0.10000000000000E+01
 p    4 1.00
 0.34697232244000E+02 0.11327220003114E-01
 0.79582622826000E+01 0.76169659202087E-01
 0.23780826883000E+01 0.30192252202676E+00
 0.81433208183000E+00 0.72785027349547E+00
 p    1 1.00
 0.28887547253000E+00 0.10000000000000E+01
 p    1 1.00
 0.10056823671000E+00 0.10000000000000E+01
 d    1 1.00
 0.10970000000000E+01 0.10000000000000E+01
 d    1 1.00
 0.31800000000000E+00 0.10000000000000E+01
 d    1 1.00
 0.90985336424000E-01 0.10000000000000E+01
 f    1 1.00
 0.76100000000000E+00 0.10000000000000E+01
 
    7 0
 s    3 1.00
 0.34061341000000E+02 0.25439307208879E-01
 0.51235746000000E+01 0.19008594890375E+00
 0.11646626000000E+01 0.85244113011042E+00
 s    1 1.00
 0.32723041000000E+00 0.10000000000000E+01
 s    1 1.00
 0.10307241000000E+00 0.10000000000000E+01
 p    1 1.00
 0.80000000000000E+00 0.10000000000000E+01
 p    1 1.00
 0.95774129632000E-01 0.10000000000000E+01
 
    8 0
 s    3 1.00
 0.34061341000000E+02 0.25439307208879E-01
 0.51235746000000E+01 0.19008594890375E+00
 0.11646626000000E+01 0.85244113011042E+00
 s    1 1.00
 0.32723041000000E+00 0.10000000000000E+01
 s    1 1.00
 0.10307241000000E+00 0.10000000000000E+01
 p    1 1.00
 0.80000000000000E+00 0.10000000000000E+01
 p    1 1.00
 0.95774129632000E-01 0.10000000000000E+01
 
    9 0
 s    3 1.00
 0.34061341000000E+02 0.25439307208879E-01
 0.51235746000000E+01 0.19008594890375E+00
 0.11646626000000E+01 0.85244113011042E+00
 s    1 1.00
 0.32723041000000E+00 0.10000000000000E+01
 s    1 1.00
 0.10307241000000E+00 0.10000000000000E+01
 p    1 1.00
 0.80000000000000E+00 0.10000000000000E+01
 p    1 1.00
 0.95774129632000E-01 0.10000000000000E+01
 
   10 0
 s    3 1.00
 0.34061341000000E+02 0.25439307208879E-01
 0.51235746000000E+01 0.19008594890375E+00
 0.11646626000000E+01 0.85244113011042E+00
 s    1 1.00
 0.32723041000000E+00 0.10000000000000E+01
 s    1 1.00
 0.10307241000000E+00 0.10000000000000E+01
 p    1 1.00
 0.80000000000000E+00 0.10000000000000E+01
 p    1 1.00
 0.95774129632000E-01 0.10000000000000E+01
 
   11 0
 s    6 1.00
 0.19730800647000E+05 0.58626402628763E-03
 0.29578958745000E+04 0.45428820586397E-02
 0.67322133595000E+03 0.23558413450084E-01
 0.19068249494000E+03 0.94709193292923E-01
 0.62295441898000E+02 0.29719784913376E+00
 0.22654161182000E+02 0.66916246895232E+00
 s    2 1.00
 0.89791477428000E+01 0.64596683630063E+00
 0.36863002370000E+01 0.38700574393705E+00
 s    1 1.00
 0.84660076805000E+00 0.10000000000000E+01
 s    1 1.00
 0.33647133771000E+00 0.10000000000000E+01
 s    1 1.00
 0.13647653675000E+00 0.10000000000000E+01
 s    1 1.00
 0.68441605847000E-01 0.10000000000000E+01
 p    4 1.00
 0.49200380510000E+02 0.11448825101764E-01
 0.11346790537000E+02 0.78422337970864E-01
 0.34273972411000E+01 0.30818094738830E+00
 0.11785525134000E+01 0.72027196368413E+00
 p    1 1.00
 0.41642204972000E+00 0.10000000000000E+01
 p    1 1.00
 0.14260826011000E+00 0.10000000000000E+01
 d    1 1.00
 0.16540000000000E+01 0.10000000000000E+01
 d    1 1.00
 0.46900000000000E+00 0.10000000000000E+01
 d    1 1.00
 0.12829642058000E+00 0.10000000000000E+01
 f    1 1.00
 0.10930000000000E+01 0.10000000000000E+01
 
   12 0
 s    6 1.00
 0.27032382631000E+05 0.57227335211155E-03
 0.40523871392000E+04 0.44353233492995E-02
 0.92232722710000E+03 0.23020107706038E-01
 0.26124070989000E+03 0.92822490667928E-01
 0.85354641351000E+02 0.29378500009671E+00
 0.31035035245000E+02 0.67401604501641E+00
 s    2 1.00
 0.12260860728000E+02 0.63839937025506E+00
 0.49987076005000E+01 0.39534587125718E+00
 s    1 1.00
 0.11703108158000E+01 0.10000000000000E+01
 s    1 1.00
 0.46474740994000E+00 0.10000000000000E+01
 s    1 1.00
 0.18504536357000E+00 0.10000000000000E+01
 s    1 1.00
 0.70288026270000E-01 0.10000000000000E+01
 p    4 1.00
 0.63274954801000E+02 0.12018332222616E-01
 0.14627049379000E+02 0.83005421790056E-01
 0.44501223456000E+01 0.31991743925964E+00
 0.15275799647000E+01 0.70715542916104E+00
 p    1 1.00
 0.52935117943000E+00 0.10000000000000E+01
 p    1 1.00
 0.17478421270000E+00 0.10000000000000E+01
 p    1 1.00
 0.51112745706000E-01 0.10000000000000E+01
 d    1 1.00
 0.23140000000000E+01 0.10000000000000E+01
 d    1 1.00
 0.64500000000000E+00 0.10000000000000E+01
 d    1 1.00
 0.14696477366000E+00 0.10000000000000E+01
 f    1 1.00
 0.14280000000000E+01 0.10000000000000E+01
 
   13 0
 s    6 1.00
 0.27032382631000E+05 0.57227335211155E-03
 0.40523871392000E+04 0.44353233492995E-02
 0.92232722710000E+03 0.23020107706038E-01
 0.26124070989000E+03 0.92822490667928E-01
 0.85354641351000E+02 0.29378500009671E+00
 0.31035035245000E+02 0.67401604501641E+00
 s    2 1.00
 0.12260860728000E+02 0.63839937025506E+00
 0.49987076005000E+01 0.39534587125718E+00
 s    1 1.00
 0.11703108158000E+01 0.10000000000000E+01
 s    1 1.00
 0.46474740994000E+00 0.10000000000000E+01
 s    1 1.00
 0.18504536357000E+00 0.10000000000000E+01
 s    1 1.00
 0.70288026270000E-01 0.10000000000000E+01
 p    4 1.00
 0.63274954801000E+02 0.12018332222616E-01
 0.14627049379000E+02 0.83005421790056E-01
 0.44501223456000E+01 0.31991743925964E+00
 0.15275799647000E+01 0.70715542916104E+00
 p    1 1.00
 0.52935117943000E+00 0.10000000000000E+01
 p    1 1.00
 0.17478421270000E+00 0.10000000000000E+01
 p    1 1.00
 0.51112745706000E-01 0.10000000000000E+01
 d    1 1.00
 0.23140000000000E+01 0.10000000000000E+01
 d    1 1.00
 0.64500000000000E+00 0.10000000000000E+01
 d    1 1.00
 0.14696477366000E+00 0.10000000000000E+01
 f    1 1.00
 0.14280000000000E+01 0.10000000000000E+01
 
   14 0
 s    6 1.00
 0.19730800647000E+05 0.58626402628763E-03
 0.29578958745000E+04 0.45428820586397E-02
 0.67322133595000E+03 0.23558413450084E-01
 0.19068249494000E+03 0.94709193292923E-01
 0.62295441898000E+02 0.29719784913376E+00
 0.22654161182000E+02 0.66916246895232E+00
 s    2 1.00
 0.89791477428000E+01 0.64596683630063E+00
 0.36863002370000E+01 0.38700574393705E+00
 s    1 1.00
 0.84660076805000E+00 0.10000000000000E+01
 s    1 1.00
 0.33647133771000E+00 0.10000000000000E+01
 s    1 1.00
 0.13647653675000E+00 0.10000000000000E+01
 s    1 1.00
 0.68441605847000E-01 0.10000000000000E+01
 p    4 1.00
 0.49200380510000E+02 0.11448825101764E-01
 0.11346790537000E+02 0.78422337970864E-01
 0.34273972411000E+01 0.30818094738830E+00
 0.11785525134000E+01 0.72027196368413E+00
 p    1 1.00
 0.41642204972000E+00 0.10000000000000E+01
 p    1 1.00
 0.14260826011000E+00 0.10000000000000E+01
 d    1 1.00
 0.16540000000000E+01 0.10000000000000E+01
 d    1 1.00
 0.46900000000000E+00 0.10000000000000E+01
 d    1 1.00
 0.12829642058000E+00 0.10000000000000E+01
 f    1 1.00
 0.10930000000000E+01 0.10000000000000E+01
 
   15 0
 s    3 1.00
 0.34061341000000E+02 0.25439307208879E-01
 0.51235746000000E+01 0.19008594890375E+00
 0.11646626000000E+01 0.85244113011042E+00
 s    1 1.00
 0.32723041000000E+00 0.10000000000000E+01
 s    1 1.00
 0.10307241000000E+00 0.10000000000000E+01
 p    1 1.00
 0.80000000000000E+00 0.10000000000000E+01
 p    1 1.00
 0.95774129632000E-01 0.10000000000000E+01
 
   16 0
 s    3 1.00
 0.34061341000000E+02 0.25439307208879E-01
 0.51235746000000E+01 0.19008594890375E+00
 0.11646626000000E+01 0.85244113011042E+00
 s    1 1.00
 0.32723041000000E+00 0.10000000000000E+01
 s    1 1.00
 0.10307241000000E+00 0.10000000000000E+01
 p    1 1.00
 0.80000000000000E+00 0.10000000000000E+01
 p    1 1.00
 0.95774129632000E-01 0.10000000000000E+01
 
[MO]
 Sym= X
 Ene= -0.132071
 Spin= Alpha
 Occup= -0.132071
         1   -3.075925E-04
         2   -7.146964E-04
         3    2.285458E-03
         4   -6.929657E-03
         5    6.766211E-02
         6   -2.033673E-02
         7    5.157044E-03
         8   -1.071548E-03
         9    1.667314E-02
        10   -3.987920E-03
        11   -1.158059E-04
        12    1.496130E-02
        13   -4.173328E-02
        14    2.077312E-02
        15    1.507493E-02
        16    1.162584E-04
        17   -1.452176E-04
        18    2.895913E-05
        19   -5.599217E-06
        20   -6.012183E-03
        21    3.241132E-03
        22   -1.236542E-03
        23    6.671155E-04
        24    5.694260E-04
        25   -1.306939E-03
        26   -1.363158E-02
        27    6.218749E-03
        28   -1.792242E-03
        29    1.399978E-03
        30    3.922643E-04
        31    3.116413E-03
        32    5.293606E-03
        33   -8.961675E-03
        34   -4.209324E-05
        35   -5.755085E-06
        36    2.364723E-05
        37    2.424444E-05
        38    1.162951E-05
        39   -7.773646E-04
        40    3.222956E-05
        41   -3.908248E-06
        42    7.456385E-04
        43   -6.132748E-04
        44   -2.098436E-04
        45   -4.824010E-04
        46    1.256023E-03
        47   -5.141924E-03
        48   -7.896354E-02
        49    1.137692E-02
        50   -4.751882E-03
        51    1.753394E-06
        52    1.701396E-01
        53   -5.207179E-03
        54    2.082806E-06
        55    1.767513E-01
        56   -1.395162E-02
        57   -1.583174E-05
        58    1.732706E-01
        59    3.049449E-04
        60   -2.821169E-04
        61   -2.282796E-05
        62    9.013485E-08
        63   -4.737201E-04
        64   -4.873238E-08
        65    8.631984E-04
        66   -1.366437E-03
        67    5.032382E-04
        68   -2.670764E-07
        69   -2.440561E-03
        70   -1.094501E-07
        71    2.619546E-02
        72   -2.895336E-02
        73    2.757899E-03
        74   -2.713704E-06
        75    1.772143E-03
        76    5.976169E-07
        77   -2.118482E-05
        78    4.484694E-08
        79   -8.986927E-04
        80    7.643744E-06
        81   -3.949553E-08
        82    4.998854E-04
        83    2.077868E-05
        84   -2.067296E-08
        85    7.058374E-04
        86   -5.658991E-09
        87   -3.082954E-04
        88   -7.163043E-04
        89    2.288614E-03
        90   -6.929572E-03
        91    6.769187E-02
        92   -2.033496E-02
        93    5.150707E-03
        94    1.074245E-03
        95    1.667091E-02
        96   -3.995519E-03
        97    1.178657E-04
        98    1.495917E-02
        99   -4.174777E-02
       100   -2.078656E-02
       101    1.507385E-02
       102    1.160327E-04
       103   -1.450101E-04
       104    2.897745E-05
       105    5.453376E-06
       106   -6.012207E-03
       107   -3.241110E-03
       108   -1.237828E-03
       109    6.679896E-04
       110    5.698388E-04
       111    1.306646E-03
       112   -1.363155E-02
       113   -6.218741E-03
       114   -1.793037E-03
       115    1.401271E-03
       116    3.917661E-04
       117   -3.114902E-03
       118    5.294368E-03
       119    8.962261E-03
       120   -4.210008E-05
       121    5.755060E-06
       122    2.365365E-05
       123    2.424044E-05
       124   -1.160909E-05
       125   -7.773681E-04
       126    3.224275E-05
       127    3.887862E-06
       128    7.456334E-04
       129    6.132737E-04
       130    1.598217E-04
       131    3.441222E-04
       132    8.744117E-04
       133   -1.622198E-02
       134   -2.572103E-02
       135    2.538081E-02
       136   -4.766822E-03
       137    7.275724E-04
       138   -1.616990E-01
       139   -1.933018E-02
       140    1.072149E-02
       141   -1.637963E-01
       142   -6.603151E-03
       143   -1.677222E-02
       144   -1.025668E-01
       145    3.140215E-04
       146   -3.606817E-04
       147    4.666024E-05
       148   -3.602159E-05
       149   -9.971108E-04
       150    3.412379E-03
       151    1.527545E-03
       152   -1.541904E-03
       153    1.435910E-05
       154    2.851940E-03
       155   -4.906378E-03
       156    5.435139E-03
       157    1.133107E-02
       158   -7.835194E-03
       159   -3.495879E-03
       160   -2.283119E-02
       161    5.507110E-03
       162   -1.057478E-02
       163   -4.754332E-05
       164    6.525021E-06
       165    9.719125E-04
       166   -2.172592E-05
       167    4.245521E-05
       168   -2.691624E-04
       169    8.551197E-05
       170   -5.120945E-05
       171   -1.034795E-03
       172    3.687125E-04
       173   -1.784836E-03
       174   -4.066893E-03
       175    3.829148E-03
       176    3.877376E-02
       177   -1.195448E-01
       178    8.808933E-03
       179    1.535336E-02
       180    1.626031E-06
       181   -1.339218E-01
       182    1.427697E-04
       183    1.645059E-06
       184   -1.370831E-01
       185   -9.182652E-02
       186    2.498633E-06
       187   -1.369279E-01
       188    9.169925E-04
       189   -5.742445E-04
       190   -3.427479E-04
       191   -1.734526E-08
       192    9.917884E-03
       193    1.049856E-07
       194   -3.188241E-03
       195    6.994576E-03
       196   -3.806335E-03
       197   -3.006361E-07
       198    2.469731E-02
       199    1.518773E-07
       200   -1.953075E-02
       201    2.020264E-02
       202   -6.718907E-04
       203    1.306415E-07
       204    1.122248E-02
       205   -4.034636E-07
       206    1.955931E-04
       207    3.415717E-09
       208    4.595176E-04
       209   -1.483877E-04
       210   -1.126617E-08
       211    9.893374E-04
       212   -1.140280E-04
       213    6.683510E-09
       214   -1.605845E-03
       215   -3.085885E-09
       216    1.594592E-04
       217    3.433011E-04
       218    8.759442E-04
       219   -1.622357E-02
       220   -2.572643E-02
       221    2.538215E-02
       222   -4.771496E-03
       223   -7.308079E-04
       224   -1.617006E-01
       225   -1.933068E-02
       226   -1.072359E-02
       227   -1.637980E-01
       228   -6.595791E-03
       229    1.677344E-02
       230   -1.025683E-01
       231    3.141389E-04
       232   -3.608386E-04
       233    4.669974E-05
       234    3.588790E-05
       235   -9.971883E-04
       236   -3.412419E-03
       237    1.526984E-03
       238   -1.541584E-03
       239    1.460074E-05
       240   -2.852066E-03
       241   -4.906396E-03
       242   -5.435132E-03
       243    1.133029E-02
       244   -7.834108E-03
       245   -3.496184E-03
       246    2.283146E-02
       247    5.506109E-03
       248    1.057438E-02
       249   -4.754691E-05
       250   -6.549004E-06
       251    9.719186E-04
       252   -2.173362E-05
       253   -4.245840E-05
       254   -2.691520E-04
       255    8.552450E-05
       256    5.124482E-05
       257   -1.034814E-03
       258   -3.687014E-04
       259   -8.447331E-04
       260   -5.210035E-04
       261   -2.717874E-02
       262    5.308780E-05
       263   -1.038723E-05
       264    7.935491E-04
       265   -7.976874E-03
       266   -2.399201E-03
       267   -4.089302E-03
       268   -8.414596E-04
       269   -5.163079E-04
       270   -2.717565E-02
       271    5.340982E-05
       272    9.925738E-06
       273    7.934626E-04
       274   -7.975809E-03
       275    2.399226E-03
       276   -4.089437E-03
       277   -1.445866E-03
       278   -5.450590E-03
       279    6.597040E-02
       280   -5.396069E-05
       281    2.886405E-04
       282   -6.533772E-03
       283   -1.491895E-03
       284   -6.190081E-03
       285   -1.984762E-03
       286   -1.445768E-03
       287   -5.450599E-03
       288    6.597025E-02
       289   -5.406287E-05
       290   -2.887459E-04
       291   -6.533921E-03
       292   -1.491945E-03
       293    6.189771E-03
       294   -1.984934E-03
       295   -1.994346E-04
       296   -4.657252E-04
       297    4.774497E-04
       298    1.604719E-03
       299   -1.273006E-02
       300   -6.602987E-03
       301    5.426060E-03
       302    2.544074E-06
       303    1.438209E-02
       304    4.460566E-03
       305    1.858430E-06
       306    1.639257E-02
       307   -2.269470E-03
       308   -4.661261E-07
       309   -5.158773E-05
       310    3.814835E-04
       311   -4.125886E-04
       312    3.110512E-05
       313   -6.353626E-07
       314    3.356626E-03
       315   -6.836941E-09
       316    1.027053E-03
       317   -9.807540E-04
       318   -4.629938E-05
       319   -1.685239E-06
       320    1.013273E-02
       321   -1.711223E-08
       322   -2.654186E-04
       323    4.494887E-03
       324   -4.229468E-03
       325    4.514027E-07
       326    2.584759E-03
       327   -7.646211E-08
       328    1.338247E-05
       329   -1.278634E-07
       330   -4.245920E-05
       331    2.327490E-06
       332    1.963932E-07
       333    5.793322E-04
       334   -2.028196E-05
       335   -2.484651E-08
       336   -5.223672E-04
       337   -1.345788E-09
       338   -5.583926E-05
       339   -1.282365E-04
       340    1.406280E-04
       341    1.608649E-03
       342   -1.083548E-02
       343   -1.785748E-03
       344   -9.286158E-03
       345   -7.673099E-04
       346   -5.487215E-02
       347   -8.450040E-03
       348   -6.284945E-04
       349   -5.096827E-02
       350   -7.331751E-03
       351    2.754716E-04
       352   -4.060223E-02
       353   -1.111853E-03
       354    4.352062E-05
       355   -4.650597E-03
       356   -1.226703E-05
       357   -2.021852E-05
       358    3.248555E-05
       359    7.996201E-05
       360    2.493531E-05
       361    3.457803E-04
       362   -1.073752E-04
       363   -1.032428E-05
       364    1.176995E-04
       365    1.847968E-04
       366   -3.552306E-04
       367    1.137945E-03
       368   -2.338004E-04
       369    3.404535E-05
       370    1.997550E-04
       371   -1.652533E-06
       372   -6.265289E-04
       373    2.404620E-04
       374    1.169724E-05
       375   -6.206844E-06
       376    3.777982E-05
       377   -2.236766E-05
       378    2.148154E-05
       379    7.280535E-05
       380    6.674163E-06
       381   -1.315418E-05
       382   -1.234923E-04
       383    9.118011E-05
       384   -5.585074E-05
       385   -1.282534E-04
       386    1.407184E-04
       387    1.609715E-03
       388   -1.083590E-02
       389   -1.783555E-03
       390   -9.252898E-03
       391    7.401203E-04
       392   -5.487225E-02
       393   -8.419840E-03
       394    6.047395E-04
       395   -5.096835E-02
       396   -7.309145E-03
       397   -2.923067E-04
       398   -4.060268E-02
       399   -1.108427E-03
       400   -4.488157E-05
       401   -4.650625E-03
       402   -1.199793E-05
       403   -2.056070E-05
       404    3.255864E-05
       405   -7.996974E-05
       406    2.493370E-05
       407   -3.457810E-04
       408   -1.065261E-04
       409   -1.121895E-05
       410    1.177451E-04
       411   -1.846563E-04
       412   -3.552381E-04
       413   -1.137957E-03
       414   -2.326684E-04
       415    3.307049E-05
       416    1.995979E-04
       417    1.798031E-06
       418   -6.265683E-04
       419   -2.404703E-04
       420    1.172387E-05
       421    6.113813E-06
       422    3.778042E-05
       423   -2.241796E-05
       424   -2.137030E-05
       425    7.280492E-05
       426    6.688738E-06
       427    1.316776E-05
       428   -1.234927E-04
       429   -9.118138E-05
       430    8.097516E-03
       431    1.924474E-02
       432   -2.989039E-02
       433   -5.095876E-02
       434   -3.346845E-04
       435   -1.017946E-01
       436   -3.118820E-02
       437   -3.370176E-07
       438    2.641660E-01
       439   -3.577698E-02
       440   -6.720705E-08
       441    2.595248E-01
       442   -4.671937E-02
       443    5.278334E-07
       444    2.099023E-01
       445   -2.444849E-04
       446   -1.004098E-04
       447    3.448947E-04
       448   -2.096611E-08
       449    1.115568E-03
       450   -2.044456E-08
       451   -3.990294E-04
       452   -3.001131E-03
       453    3.400160E-03
       454   -9.084229E-08
       455    4.181549E-03
       456   -1.014270E-10
       457   -3.864917E-03
       458   -8.760520E-03
       459    1.262544E-02
       460   -2.390295E-08
       461    2.626797E-03
       462    1.416227E-07
       463   -2.458242E-04
       464   -1.878943E-09
       465   -9.562027E-04
       466   -1.575159E-04
       467    6.880963E-09
       468    4.593949E-04
       469    4.873237E-04
       470   -4.360096E-09
       471    8.234856E-04
       472   -5.694192E-10
       473    1.564876E-02
       474    3.199005E-02
       475    6.723645E-02
       476   -3.790849E-03
       477   -3.225214E-03
       478    1.316811E-02
       479   -1.782532E-03
       480   -7.312266E-03
       481    1.528833E-02
       482    1.564930E-02
       483    3.199105E-02
       484    6.723830E-02
       485   -3.790907E-03
       486    3.225339E-03
       487    1.316813E-02
       488   -1.782825E-03
       489    7.312511E-03
       490    1.528831E-02
 Sym= X
 Ene= -0.814850
 Spin= Alpha
 Occup= -0.814850
         1    3.546186E-05
         2    8.188207E-05
         3   -2.427841E-04
         4    5.924652E-04
         5    2.772062E-03
         6    2.786673E-04
         7    5.315557E-05
         8    1.019875E-04
         9    1.310144E-01
        10    1.080886E-03
        11   -2.453501E-04
        12    1.318828E-01
        13   -4.746963E-03
        14    3.398659E-03
        15    6.929663E-02
        16    7.232415E-06
        17   -3.077346E-06
        18   -4.155069E-06
        19   -4.459599E-06
        20    3.634648E-03
        21    3.591188E-04
        22    2.208828E-04
        23   -1.603996E-04
        24   -6.048324E-05
        25   -1.673533E-07
        26    7.995095E-03
        27   -5.807459E-04
        28   -9.197430E-04
        29    8.913379E-04
        30    2.840508E-05
        31   -2.462237E-04
        32    6.037140E-03
        33   -4.315374E-03
        34    6.628153E-06
        35    3.006437E-07
        36   -7.817080E-04
        37   -1.980357E-06
        38   -8.692895E-07
        39    9.547947E-04
        40   -6.912243E-06
        41    4.659337E-07
        42    9.397665E-05
        43    4.357330E-05
        44    3.637649E-08
        45    8.759411E-08
        46   -3.516479E-07
        47    1.167834E-06
        48   -4.770600E-06
        49   -2.929598E-06
        50   -1.813469E-08
        51   -1.152973E-04
        52    1.967356E-06
        53    4.809403E-07
        54   -5.673284E-04
        55    2.080194E-06
        56    3.188770E-06
        57    7.117810E-03
        58    1.295222E-06
        59   -2.462534E-08
        60   -3.028158E-08
        61    5.490692E-08
        62   -5.914675E-06