[Molden Format]
[Title]
ADC(2) - opt by CAM-B3LYP gaussian                                              
[Atoms] AU
 c     1    6 -.12594776649128E+01 -.22773101438193E+01 -.39940542897370E-01
 c     2    6 -.25470425655544E+01 -.11810788300000E-05 -.37653974276580E-01
 c     3    6 -.12594776649128E+01 0.22773077816617E+01 -.39959440158700E-01
 c     4    6 0.13393870965995E+01 0.22758904870620E+01 -.43795584208460E-01
 c     5    6 0.26846831306008E+01 -.11810788300000E-05 -.44211323957690E-01
 c     6    6 0.13394059938609E+01 -.22758928492196E+01 -.43776686947130E-01
 h     7    1 -.23144739703802E+01 -.40231336316857E+01 -.37313823572660E-01
 h     8    1 -.23144739703802E+01 0.40231312695281E+01 -.37332720833990E-01
 h     9    1 0.23577983041343E+01 0.40499086888311E+01 -.52469427158400E-01
 h    10    1 0.23577983041343E+01 -.40498921537274E+01 -.52431632635740E-01
 n    11    7 -.52968964450843E+01 -.11810788300000E-05 -.29906097131750E-01
 o    12    8 -.63725096626615E+01 0.20302827815708E+01 -.26599076399200E-01
 o    13    8 -.63725096626615E+01 -.20302851437285E+01 -.26655768183180E-01
 n    14    7 0.52734000627795E+01 -.11810788300000E-05 -.11796733492422E+00
 h    15    1 0.61922038058499E+01 0.16034881344586E+01 0.31500671664254E+00
 h    16    1 0.61921849085885E+01 -.16034904966163E+01 0.31500671664254E+00
[GTO]
    1 0
 s    6 1.00
 0.13575349682000E+05 0.60645503603591E-03
 0.20352333680000E+04 0.46979088884982E-02
 0.46322562359000E+03 0.24332477647552E-01
 0.13120019598000E+03 0.97399968307759E-01
 0.42853015891000E+02 0.30195584253780E+00
 0.15584185766000E+02 0.66233609137875E+00
 s    2 1.00
 0.62067138508000E+01 0.65595308539952E+00
 0.25764896527000E+01 0.37585633285142E+00
 s    1 1.00
 0.57696339419000E+00 0.10000000000000E+01
 s    1 1.00
 0.22972831358000E+00 0.10000000000000E+01
 s    1 1.00
 0.95164440028000E-01 0.10000000000000E+01
 s    1 1.00
 0.48475401370000E-01 0.10000000000000E+01
 p    4 1.00
 0.34697232244000E+02 0.11327220003114E-01
 0.79582622826000E+01 0.76169659202087E-01
 0.23780826883000E+01 0.30192252202676E+00
 0.81433208183000E+00 0.72785027349547E+00
 p    1 1.00
 0.28887547253000E+00 0.10000000000000E+01
 p    1 1.00
 0.10056823671000E+00 0.10000000000000E+01
 d    1 1.00
 0.10970000000000E+01 0.10000000000000E+01
 d    1 1.00
 0.31800000000000E+00 0.10000000000000E+01
 d    1 1.00
 0.90985336424000E-01 0.10000000000000E+01
 f    1 1.00
 0.76100000000000E+00 0.10000000000000E+01
 
    2 0
 s    6 1.00
 0.13575349682000E+05 0.60645503603591E-03
 0.20352333680000E+04 0.46979088884982E-02
 0.46322562359000E+03 0.24332477647552E-01
 0.13120019598000E+03 0.97399968307759E-01
 0.42853015891000E+02 0.30195584253780E+00
 0.15584185766000E+02 0.66233609137875E+00
 s    2 1.00
 0.62067138508000E+01 0.65595308539952E+00
 0.25764896527000E+01 0.37585633285142E+00
 s    1 1.00
 0.57696339419000E+00 0.10000000000000E+01
 s    1 1.00
 0.22972831358000E+00 0.10000000000000E+01
 s    1 1.00
 0.95164440028000E-01 0.10000000000000E+01
 s    1 1.00
 0.48475401370000E-01 0.10000000000000E+01
 p    4 1.00
 0.34697232244000E+02 0.11327220003114E-01
 0.79582622826000E+01 0.76169659202087E-01
 0.23780826883000E+01 0.30192252202676E+00
 0.81433208183000E+00 0.72785027349547E+00
 p    1 1.00
 0.28887547253000E+00 0.10000000000000E+01
 p    1 1.00
 0.10056823671000E+00 0.10000000000000E+01
 d    1 1.00
 0.10970000000000E+01 0.10000000000000E+01
 d    1 1.00
 0.31800000000000E+00 0.10000000000000E+01
 d    1 1.00
 0.90985336424000E-01 0.10000000000000E+01
 f    1 1.00
 0.76100000000000E+00 0.10000000000000E+01
 
    3 0
 s    6 1.00
 0.13575349682000E+05 0.60645503603591E-03
 0.20352333680000E+04 0.46979088884982E-02
 0.46322562359000E+03 0.24332477647552E-01
 0.13120019598000E+03 0.97399968307759E-01
 0.42853015891000E+02 0.30195584253780E+00
 0.15584185766000E+02 0.66233609137875E+00
 s    2 1.00
 0.62067138508000E+01 0.65595308539952E+00
 0.25764896527000E+01 0.37585633285142E+00
 s    1 1.00
 0.57696339419000E+00 0.10000000000000E+01
 s    1 1.00
 0.22972831358000E+00 0.10000000000000E+01
 s    1 1.00
 0.95164440028000E-01 0.10000000000000E+01
 s    1 1.00
 0.48475401370000E-01 0.10000000000000E+01
 p    4 1.00
 0.34697232244000E+02 0.11327220003114E-01
 0.79582622826000E+01 0.76169659202087E-01
 0.23780826883000E+01 0.30192252202676E+00
 0.81433208183000E+00 0.72785027349547E+00
 p    1 1.00
 0.28887547253000E+00 0.10000000000000E+01
 p    1 1.00
 0.10056823671000E+00 0.10000000000000E+01
 d    1 1.00
 0.10970000000000E+01 0.10000000000000E+01
 d    1 1.00
 0.31800000000000E+00 0.10000000000000E+01
 d    1 1.00
 0.90985336424000E-01 0.10000000000000E+01
 f    1 1.00
 0.76100000000000E+00 0.10000000000000E+01
 
    4 0
 s    6 1.00
 0.13575349682000E+05 0.60645503603591E-03
 0.20352333680000E+04 0.46979088884982E-02
 0.46322562359000E+03 0.24332477647552E-01
 0.13120019598000E+03 0.97399968307759E-01
 0.42853015891000E+02 0.30195584253780E+00
 0.15584185766000E+02 0.66233609137875E+00
 s    2 1.00
 0.62067138508000E+01 0.65595308539952E+00
 0.25764896527000E+01 0.37585633285142E+00
 s    1 1.00
 0.57696339419000E+00 0.10000000000000E+01
 s    1 1.00
 0.22972831358000E+00 0.10000000000000E+01
 s    1 1.00
 0.95164440028000E-01 0.10000000000000E+01
 s    1 1.00
 0.48475401370000E-01 0.10000000000000E+01
 p    4 1.00
 0.34697232244000E+02 0.11327220003114E-01
 0.79582622826000E+01 0.76169659202087E-01
 0.23780826883000E+01 0.30192252202676E+00
 0.81433208183000E+00 0.72785027349547E+00
 p    1 1.00
 0.28887547253000E+00 0.10000000000000E+01
 p    1 1.00
 0.10056823671000E+00 0.10000000000000E+01
 d    1 1.00
 0.10970000000000E+01 0.10000000000000E+01
 d    1 1.00
 0.31800000000000E+00 0.10000000000000E+01
 d    1 1.00
 0.90985336424000E-01 0.10000000000000E+01
 f    1 1.00
 0.76100000000000E+00 0.10000000000000E+01
 
    5 0
 s    6 1.00
 0.13575349682000E+05 0.60645503603591E-03
 0.20352333680000E+04 0.46979088884982E-02
 0.46322562359000E+03 0.24332477647552E-01
 0.13120019598000E+03 0.97399968307759E-01
 0.42853015891000E+02 0.30195584253780E+00
 0.15584185766000E+02 0.66233609137875E+00
 s    2 1.00
 0.62067138508000E+01 0.65595308539952E+00
 0.25764896527000E+01 0.37585633285142E+00
 s    1 1.00
 0.57696339419000E+00 0.10000000000000E+01
 s    1 1.00
 0.22972831358000E+00 0.10000000000000E+01
 s    1 1.00
 0.95164440028000E-01 0.10000000000000E+01
 s    1 1.00
 0.48475401370000E-01 0.10000000000000E+01
 p    4 1.00
 0.34697232244000E+02 0.11327220003114E-01
 0.79582622826000E+01 0.76169659202087E-01
 0.23780826883000E+01 0.30192252202676E+00
 0.81433208183000E+00 0.72785027349547E+00
 p    1 1.00
 0.28887547253000E+00 0.10000000000000E+01
 p    1 1.00
 0.10056823671000E+00 0.10000000000000E+01
 d    1 1.00
 0.10970000000000E+01 0.10000000000000E+01
 d    1 1.00
 0.31800000000000E+00 0.10000000000000E+01
 d    1 1.00
 0.90985336424000E-01 0.10000000000000E+01
 f    1 1.00
 0.76100000000000E+00 0.10000000000000E+01
 
    6 0
 s    6 1.00
 0.13575349682000E+05 0.60645503603591E-03
 0.20352333680000E+04 0.46979088884982E-02
 0.46322562359000E+03 0.24332477647552E-01
 0.13120019598000E+03 0.97399968307759E-01
 0.42853015891000E+02 0.30195584253780E+00
 0.15584185766000E+02 0.66233609137875E+00
 s    2 1.00
 0.62067138508000E+01 0.65595308539952E+00
 0.25764896527000E+01 0.37585633285142E+00
 s    1 1.00
 0.57696339419000E+00 0.10000000000000E+01
 s    1 1.00
 0.22972831358000E+00 0.10000000000000E+01
 s    1 1.00
 0.95164440028000E-01 0.10000000000000E+01
 s    1 1.00
 0.48475401370000E-01 0.10000000000000E+01
 p    4 1.00
 0.34697232244000E+02 0.11327220003114E-01
 0.79582622826000E+01 0.76169659202087E-01
 0.23780826883000E+01 0.30192252202676E+00
 0.81433208183000E+00 0.72785027349547E+00
 p    1 1.00
 0.28887547253000E+00 0.10000000000000E+01
 p    1 1.00
 0.10056823671000E+00 0.10000000000000E+01
 d    1 1.00
 0.10970000000000E+01 0.10000000000000E+01
 d    1 1.00
 0.31800000000000E+00 0.10000000000000E+01
 d    1 1.00
 0.90985336424000E-01 0.10000000000000E+01
 f    1 1.00
 0.76100000000000E+00 0.10000000000000E+01
 
    7 0
 s    3 1.00
 0.34061341000000E+02 0.25439307208879E-01
 0.51235746000000E+01 0.19008594890375E+00
 0.11646626000000E+01 0.85244113011042E+00
 s    1 1.00
 0.32723041000000E+00 0.10000000000000E+01
 s    1 1.00
 0.10307241000000E+00 0.10000000000000E+01
 p    1 1.00
 0.80000000000000E+00 0.10000000000000E+01
 p    1 1.00
 0.95774129632000E-01 0.10000000000000E+01
 
    8 0
 s    3 1.00
 0.34061341000000E+02 0.25439307208879E-01
 0.51235746000000E+01 0.19008594890375E+00
 0.11646626000000E+01 0.85244113011042E+00
 s    1 1.00
 0.32723041000000E+00 0.10000000000000E+01
 s    1 1.00
 0.10307241000000E+00 0.10000000000000E+01
 p    1 1.00
 0.80000000000000E+00 0.10000000000000E+01
 p    1 1.00
 0.95774129632000E-01 0.10000000000000E+01
 
    9 0
 s    3 1.00
 0.34061341000000E+02 0.25439307208879E-01
 0.51235746000000E+01 0.19008594890375E+00
 0.11646626000000E+01 0.85244113011042E+00
 s    1 1.00
 0.32723041000000E+00 0.10000000000000E+01
 s    1 1.00
 0.10307241000000E+00 0.10000000000000E+01
 p    1 1.00
 0.80000000000000E+00 0.10000000000000E+01
 p    1 1.00
 0.95774129632000E-01 0.10000000000000E+01
 
   10 0
 s    3 1.00
 0.34061341000000E+02 0.25439307208879E-01
 0.51235746000000E+01 0.19008594890375E+00
 0.11646626000000E+01 0.85244113011042E+00
 s    1 1.00
 0.32723041000000E+00 0.10000000000000E+01
 s    1 1.00
 0.10307241000000E+00 0.10000000000000E+01
 p    1 1.00
 0.80000000000000E+00 0.10000000000000E+01
 p    1 1.00
 0.95774129632000E-01 0.10000000000000E+01
 
   11 0
 s    6 1.00
 0.19730800647000E+05 0.58626402628763E-03
 0.29578958745000E+04 0.45428820586397E-02
 0.67322133595000E+03 0.23558413450084E-01
 0.19068249494000E+03 0.94709193292923E-01
 0.62295441898000E+02 0.29719784913376E+00
 0.22654161182000E+02 0.66916246895232E+00
 s    2 1.00
 0.89791477428000E+01 0.64596683630063E+00
 0.36863002370000E+01 0.38700574393705E+00
 s    1 1.00
 0.84660076805000E+00 0.10000000000000E+01
 s    1 1.00
 0.33647133771000E+00 0.10000000000000E+01
 s    1 1.00
 0.13647653675000E+00 0.10000000000000E+01
 s    1 1.00
 0.68441605847000E-01 0.10000000000000E+01
 p    4 1.00
 0.49200380510000E+02 0.11448825101764E-01
 0.11346790537000E+02 0.78422337970864E-01
 0.34273972411000E+01 0.30818094738830E+00
 0.11785525134000E+01 0.72027196368413E+00
 p    1 1.00
 0.41642204972000E+00 0.10000000000000E+01
 p    1 1.00
 0.14260826011000E+00 0.10000000000000E+01
 d    1 1.00
 0.16540000000000E+01 0.10000000000000E+01
 d    1 1.00
 0.46900000000000E+00 0.10000000000000E+01
 d    1 1.00
 0.12829642058000E+00 0.10000000000000E+01
 f    1 1.00
 0.10930000000000E+01 0.10000000000000E+01
 
   12 0
 s    6 1.00
 0.27032382631000E+05 0.57227335211155E-03
 0.40523871392000E+04 0.44353233492995E-02
 0.92232722710000E+03 0.23020107706038E-01
 0.26124070989000E+03 0.92822490667928E-01
 0.85354641351000E+02 0.29378500009671E+00
 0.31035035245000E+02 0.67401604501641E+00
 s    2 1.00
 0.12260860728000E+02 0.63839937025506E+00
 0.49987076005000E+01 0.39534587125718E+00
 s    1 1.00
 0.11703108158000E+01 0.10000000000000E+01
 s    1 1.00
 0.46474740994000E+00 0.10000000000000E+01
 s    1 1.00
 0.18504536357000E+00 0.10000000000000E+01
 s    1 1.00
 0.70288026270000E-01 0.10000000000000E+01
 p    4 1.00
 0.63274954801000E+02 0.12018332222616E-01
 0.14627049379000E+02 0.83005421790056E-01
 0.44501223456000E+01 0.31991743925964E+00
 0.15275799647000E+01 0.70715542916104E+00
 p    1 1.00
 0.52935117943000E+00 0.10000000000000E+01
 p    1 1.00
 0.17478421270000E+00 0.10000000000000E+01
 p    1 1.00
 0.51112745706000E-01 0.10000000000000E+01
 d    1 1.00
 0.23140000000000E+01 0.10000000000000E+01
 d    1 1.00
 0.64500000000000E+00 0.10000000000000E+01
 d    1 1.00
 0.14696477366000E+00 0.10000000000000E+01
 f    1 1.00
 0.14280000000000E+01 0.10000000000000E+01
 
   13 0
 s    6 1.00
 0.27032382631000E+05 0.57227335211155E-03
 0.40523871392000E+04 0.44353233492995E-02
 0.92232722710000E+03 0.23020107706038E-01
 0.26124070989000E+03 0.92822490667928E-01
 0.85354641351000E+02 0.29378500009671E+00
 0.31035035245000E+02 0.67401604501641E+00
 s    2 1.00
 0.12260860728000E+02 0.63839937025506E+00
 0.49987076005000E+01 0.39534587125718E+00
 s    1 1.00
 0.11703108158000E+01 0.10000000000000E+01
 s    1 1.00
 0.46474740994000E+00 0.10000000000000E+01
 s    1 1.00
 0.18504536357000E+00 0.10000000000000E+01
 s    1 1.00
 0.70288026270000E-01 0.10000000000000E+01
 p    4 1.00
 0.63274954801000E+02 0.12018332222616E-01
 0.14627049379000E+02 0.83005421790056E-01
 0.44501223456000E+01 0.31991743925964E+00
 0.15275799647000E+01 0.70715542916104E+00
 p    1 1.00
 0.52935117943000E+00 0.10000000000000E+01
 p    1 1.00
 0.17478421270000E+00 0.10000000000000E+01
 p    1 1.00
 0.51112745706000E-01 0.10000000000000E+01
 d    1 1.00
 0.23140000000000E+01 0.10000000000000E+01
 d    1 1.00
 0.64500000000000E+00 0.10000000000000E+01
 d    1 1.00
 0.14696477366000E+00 0.10000000000000E+01
 f    1 1.00
 0.14280000000000E+01 0.10000000000000E+01
 
   14 0
 s    6 1.00
 0.19730800647000E+05 0.58626402628763E-03
 0.29578958745000E+04 0.45428820586397E-02
 0.67322133595000E+03 0.23558413450084E-01
 0.19068249494000E+03 0.94709193292923E-01
 0.62295441898000E+02 0.29719784913376E+00
 0.22654161182000E+02 0.66916246895232E+00
 s    2 1.00
 0.89791477428000E+01 0.64596683630063E+00
 0.36863002370000E+01 0.38700574393705E+00
 s    1 1.00
 0.84660076805000E+00 0.10000000000000E+01
 s    1 1.00
 0.33647133771000E+00 0.10000000000000E+01
 s    1 1.00
 0.13647653675000E+00 0.10000000000000E+01
 s    1 1.00
 0.68441605847000E-01 0.10000000000000E+01
 p    4 1.00
 0.49200380510000E+02 0.11448825101764E-01
 0.11346790537000E+02 0.78422337970864E-01
 0.34273972411000E+01 0.30818094738830E+00
 0.11785525134000E+01 0.72027196368413E+00
 p    1 1.00
 0.41642204972000E+00 0.10000000000000E+01
 p    1 1.00
 0.14260826011000E+00 0.10000000000000E+01
 d    1 1.00
 0.16540000000000E+01 0.10000000000000E+01
 d    1 1.00
 0.46900000000000E+00 0.10000000000000E+01
 d    1 1.00
 0.12829642058000E+00 0.10000000000000E+01
 f    1 1.00
 0.10930000000000E+01 0.10000000000000E+01
 
   15 0
 s    3 1.00
 0.34061341000000E+02 0.25439307208879E-01
 0.51235746000000E+01 0.19008594890375E+00
 0.11646626000000E+01 0.85244113011042E+00
 s    1 1.00
 0.32723041000000E+00 0.10000000000000E+01
 s    1 1.00
 0.10307241000000E+00 0.10000000000000E+01
 p    1 1.00
 0.80000000000000E+00 0.10000000000000E+01
 p    1 1.00
 0.95774129632000E-01 0.10000000000000E+01
 
   16 0
 s    3 1.00
 0.34061341000000E+02 0.25439307208879E-01
 0.51235746000000E+01 0.19008594890375E+00
 0.11646626000000E+01 0.85244113011042E+00
 s    1 1.00
 0.32723041000000E+00 0.10000000000000E+01
 s    1 1.00
 0.10307241000000E+00 0.10000000000000E+01
 p    1 1.00
 0.80000000000000E+00 0.10000000000000E+01
 p    1 1.00
 0.95774129632000E-01 0.10000000000000E+01
 
[MO]
 Sym= X
 Ene= -0.946272
 Spin= Alpha
 Occup= -0.946272
         1    3.980207E-04
         2    9.201877E-04
         3   -2.589328E-03
         4    6.482819E-03
         5   -6.743290E-02
         6    2.096259E-02
         7   -8.513556E-03
         8    1.385754E-04
         9   -2.478020E-02
        10    1.536212E-03
        11   -7.586696E-04
        12   -2.288971E-02
        13    4.660597E-02
        14   -2.177706E-02
        15   -1.693939E-02
        16   -2.082047E-04
        17    2.300315E-04
        18   -2.182681E-05
        19    3.973421E-05
        20    5.865003E-03
        21   -3.435686E-03
        22    1.148885E-03
        23   -6.095079E-04
        24   -5.393774E-04
        25    1.400707E-03
        26    1.335818E-02
        27   -6.522556E-03
        28    2.005835E-03
        29   -1.370650E-03
        30   -6.351845E-04
        31   -3.291722E-03
        32   -5.239629E-03
        33    9.805146E-03
        34    3.248967E-05
        35   -2.330633E-06
        36    5.172499E-05
        37   -2.332106E-05
        38   -4.928962E-06
        39    7.167765E-04
        40   -2.026841E-05
        41    8.055835E-06
        42   -7.861728E-04
        43    6.211339E-04
        44   -8.259265E-07
        45    8.675091E-06
        46   -6.323254E-04
        47    6.806052E-03
        48    8.365712E-02
        49   -1.174244E-02
        50    4.617045E-03
        51   -1.745133E-06
        52   -1.784146E-01
        53    5.123582E-03
        54   -2.025306E-06
        55   -1.848729E-01
        56    1.410424E-02
        57    1.521444E-05
        58   -1.787023E-01
        59   -4.061766E-04
        60    3.857284E-04
        61    2.044822E-05
        62   -8.631299E-08
        63    2.676886E-04
        64    4.696731E-08
        65   -1.019802E-03
        66    1.584855E-03
        67   -5.650534E-04
        68    2.551211E-07
        69    2.077590E-03
        70    1.065209E-07
        71   -2.846671E-02
        72    3.124809E-02
        73   -2.781378E-03
        74    2.575436E-06
        75   -2.186059E-03
        76   -5.994854E-07
        77    1.750364E-05
        78   -4.386980E-08
        79    9.749775E-04
        80   -3.187727E-06
        81    3.767283E-08
        82   -5.338912E-04
        83   -2.029587E-05
        84    2.118468E-08
        85   -7.741784E-04
        86    5.433364E-09
        87    3.986761E-04
        88    9.216868E-04
        89   -2.592271E-03
        90    6.482704E-03
        91   -6.746255E-02
        92    2.096105E-02
        93   -8.507419E-03
        94   -1.412249E-04
        95   -2.477808E-02
        96    1.543527E-03
        97    7.566626E-04
        98   -2.288767E-02
        99    4.661956E-02
       100    2.179004E-02
       101   -1.693841E-02
       102   -2.079865E-04
       103    2.298354E-04
       104   -2.184898E-05
       105   -3.959088E-05
       106    5.865020E-03
       107    3.435665E-03
       108    1.150105E-03
       109   -6.103321E-04
       110   -5.397724E-04
       111   -1.400432E-03
       112    1.335813E-02
       113    6.522546E-03
       114    2.006503E-03
       115   -1.371806E-03
       116   -6.346966E-04
       117    3.290421E-03
       118   -5.240389E-03
       119   -9.805748E-03
       120    3.249638E-05
       121    2.329273E-06
       122    5.171939E-05
       123   -2.331758E-05
       124    4.909847E-06
       125    7.167790E-04
       126   -2.028088E-05
       127   -8.034894E-06
       128   -7.861678E-04
       129   -6.211326E-04
       130   -1.851888E-04
       131   -4.005673E-04
       132   -9.250779E-04
       133    1.757492E-02
       134    2.685471E-02
       135   -2.528891E-02
       136    7.961688E-03
       137   -1.450179E-03
       138    1.520136E-01
       139    2.220935E-02
       140   -1.170987E-02
       141    1.543679E-01
       142    1.278599E-02
       143    1.539711E-02
       144    9.769141E-02
       145   -4.543529E-04
       146    5.081722E-04
       147   -5.381928E-05
       148    3.021987E-06
       149    1.072575E-03
       150   -3.161664E-03
       151   -1.682305E-03
       152    1.747083E-03
       153   -6.477837E-05
       154   -3.042555E-03
       155    5.022351E-03
       156   -5.019286E-03
       157   -1.171736E-02
       158    7.943504E-03
       159    3.773861E-03
       160    2.329045E-02
       161   -5.870754E-03
       162    1.132240E-02
       163    5.253046E-05
       164   -1.737143E-05
       165   -8.799099E-04
       166    2.976518E-05
       167   -3.263345E-05
       168    2.001549E-04
       169   -1.002422E-04
       170    5.593966E-05
       171    9.803681E-04
       172   -3.466347E-04
       173    1.703309E-03
       174    3.882997E-03
       175   -3.375827E-03
       176   -3.964657E-02
       177    1.137512E-01
       178   -1.155448E-02
       179   -1.975229E-02
       180   -1.673795E-06
       181    1.211488E-01
       182   -2.910798E-03
       183   -1.628762E-06
       184    1.247621E-01
       185    9.509934E-02
       186   -1.984799E-06
       187    1.382380E-01
       188   -1.165461E-03
       189    7.982833E-04
       190    3.671777E-04
       191    1.805978E-08
       192   -9.939436E-03
       193   -1.026345E-07
       194    3.072655E-03
       195   -7.049725E-03
       196    3.977070E-03
       197    2.883516E-07
       198   -2.455930E-02
       199   -1.477010E-07
       200    2.229817E-02
       201   -2.313316E-02
       202    8.349890E-04
       203   -2.381451E-07
       204   -1.084241E-02
       205    4.173928E-07
       206   -2.219616E-04
       207   -4.140385E-09
       208   -3.254328E-04
       209    1.581677E-04
       210    1.125231E-08
       211   -1.098670E-03
       212    1.396251E-04
       213   -5.697401E-09
       214    1.535284E-03
       215    3.412876E-09
       216   -1.848535E-04
       217   -3.998076E-04
       218   -9.264857E-04
       219    1.757644E-02
       220    2.686051E-02
       221   -2.529021E-02
       222    7.966264E-03
       223    1.453339E-03
       224    1.520152E-01
       225    2.220999E-02
       226    1.171197E-02
       227    1.543697E-01
       228    1.277949E-02
       229   -1.539810E-02
       230    9.769288E-02
       231   -4.544690E-04
       232    5.083254E-04
       233   -5.385634E-05
       234   -2.891971E-06
       235    1.072643E-03
       236    3.161700E-03
       237   -1.681794E-03
       238    1.746793E-03
       239   -6.499954E-05
       240    3.042682E-03
       241    5.022357E-03
       242    5.019275E-03
       243   -1.171682E-02
       244    7.942652E-03
       245    3.774172E-03
       246   -2.329061E-02
       247   -5.869737E-03
       248   -1.132201E-02
       249    5.253469E-05
       250    1.739486E-05
       251   -8.799161E-04
       252    2.977227E-05
       253    3.263563E-05
       254    2.001461E-04
       255   -1.002550E-04
       256   -5.597328E-05
       257    9.803853E-04
       258    3.466233E-04
       259    2.028966E-03
       260    2.282750E-03
       261    2.925070E-02
       262   -1.357790E-05
       263    1.849700E-04
       264   -1.062253E-03
       265    8.223469E-03
       266    2.715978E-03
       267    4.636403E-03
       268    2.025803E-03
       269    2.278195E-03
       270    2.924792E-02
       271   -1.388516E-05
       272   -1.845244E-04
       273   -1.062170E-03
       274    8.222319E-03
       275   -2.716074E-03
       276    4.636552E-03
       277    2.079129E-03
       278    6.516379E-03
       279   -6.641464E-02
       280    8.451208E-05
       281   -4.006612E-04
       282    6.182194E-03
       283    1.492266E-03
       284    6.179724E-03
       285    1.395428E-03
       286    2.079036E-03
       287    6.516388E-03
       288   -6.641475E-02
       289    8.461618E-05
       290    4.007639E-04
       291    6.182339E-03
       292    1.492448E-03
       293   -6.179373E-03
       294    1.395581E-03
       295    3.097466E-04
       296    7.284485E-04
       297   -8.839781E-04
       298   -2.335551E-03
       299    1.431130E-02
       300    8.145213E-03
       301   -6.297034E-03
       302   -2.408183E-06
       303   -1.174690E-02
       304   -5.285563E-03
       305   -1.759060E-06
       306   -1.389107E-02
       307    2.319691E-03
       308    4.222308E-07
       309    8.774717E-04
       310   -3.291768E-04
       311    3.597875E-04
       312   -3.061066E-05
       313    6.045325E-07
       314   -3.515413E-03
       315    5.279601E-09
       316   -9.053903E-04
       317    8.553278E-04
       318    5.006251E-05
       319    1.602072E-06
       320   -1.055446E-02
       321    1.286504E-08
       322    2.825743E-04
       323   -4.726134E-03
       324    4.443560E-03
       325   -4.382200E-07
       326   -2.666868E-03
       327    7.717848E-08
       328   -1.643040E-05
       329    1.207805E-07
       330    2.833676E-05
       331   -2.171366E-06
       332   -1.874782E-07
       333   -5.979956E-04
       334    2.421506E-05
       335    2.543420E-08
       336    5.599778E-04
       337    1.329169E-09
       338    1.002532E-04
       339    2.374205E-04
       340   -3.026524E-04
       341   -1.875971E-03
       342    1.109299E-02
       343    1.456537E-03
       344    7.720927E-03
       345   -5.330789E-05
       346    5.837694E-02
       347    7.071669E-03
       348   -9.945309E-05
       349    5.418440E-02
       350    6.524931E-03
       351   -7.228620E-04
       352    4.248737E-02
       353    1.037666E-03
       354   -3.838948E-05
       355    4.772117E-03
       356   -1.902491E-06
       357    3.558563E-05
       358   -3.368314E-05
       359   -6.524983E-05
       360   -3.285148E-06
       361   -4.002394E-04
       362    7.082183E-05
       363    5.258264E-05
       364   -1.234045E-04
       365   -1.407586E-04
       366    4.385236E-04
       367   -1.293488E-03
       368    2.236916E-04
       369   -3.009217E-05
       370   -1.935994E-04
       371    1.737088E-06
       372    6.935718E-04
       373   -2.758936E-04
       374   -1.064616E-05
       375   -1.311829E-06
       376   -4.658841E-05
       377    2.027998E-05
       378   -1.196561E-05
       379   -7.614969E-05
       380   -5.996649E-06
       381    1.372561E-05
       382    1.386546E-04
       383   -1.045855E-04
       384    1.002672E-04
       385    2.374443E-04
       386   -3.027504E-04
       387   -1.876994E-03
       388    1.109340E-02
       389    1.454509E-03
       390    7.689155E-03
       391    7.896571E-05
       392    5.837710E-02
       393    7.042819E-03
       394    1.218732E-04
       395    5.418453E-02
       396    6.503341E-03
       397    7.387821E-04
       398    4.248786E-02
       399    1.034417E-03
       400    3.966314E-05
       401    4.772147E-03
       402   -2.157831E-06
       403    3.590627E-05
       404   -3.374844E-05
       405    6.525445E-05
       406   -3.283704E-06
       407    4.002411E-04
       408    7.001464E-05
       409    5.342212E-05
       410   -1.234368E-04
       411    1.406169E-04
       412    4.385310E-04
       413    1.293503E-03
       414    2.226175E-04
       415   -2.916500E-05
       416   -1.934525E-04
       417   -1.884320E-06
       418    6.936131E-04
       419    2.759037E-04
       420   -1.067099E-05
       421    1.399006E-06
       422   -4.658913E-05
       423    2.032627E-05
       424    1.185967E-05
       425   -7.614950E-05
       426   -6.009626E-06
       427   -1.373663E-05
       428    1.386554E-04
       429    1.045868E-04
       430   -8.328339E-03
       431   -1.979086E-02
       432    3.077628E-02
       433    5.239914E-02
       434   -4.891416E-04
       435    1.057068E-01
       436    3.606769E-02
       437    3.425532E-07
       438   -2.761661E-01
       439    4.044247E-02
       440    7.310878E-08
       441   -2.709956E-01
       442    5.012711E-02
       443   -5.409345E-07
       444   -2.175142E-01
       445    1.927868E-04
       446    1.787919E-04
       447   -3.715787E-04
       448    2.196386E-08
       449   -9.237463E-04
       450    2.143849E-08
       451    3.128904E-04
       452    3.264929E-03
       453   -3.577819E-03
       454    9.265042E-08
       455   -3.693397E-03
       456    1.444494E-09
       457    4.111878E-03
       458    9.241956E-03
       459   -1.335383E-02
       460    3.572568E-08
       461   -2.278798E-03
       462   -1.443311E-07
       463    2.606839E-04
       464    1.715739E-09
       465    1.025119E-03
       466    1.680325E-04
       467   -6.844384E-09
       468   -5.269856E-04
       469   -5.177766E-04
       470    4.542478E-09
       471   -8.483559E-04
       472    4.792394E-10
       473   -1.535123E-02
       474   -3.202511E-02
       475   -7.002353E-02
       476    4.017427E-03
       477    3.252227E-03
       478   -1.371090E-02
       479    1.951013E-03
       480    7.879358E-03
       481   -1.533950E-02
       482   -1.535180E-02
       483   -3.202615E-02
       484   -7.002540E-02
       485    4.017490E-03
       486   -3.252356E-03
       487   -1.371092E-02
       488    1.951301E-03
       489   -7.879600E-03
       490   -1.533949E-02
 Sym= X
 Ene= 0.946272
 Spin= Alpha
 Occup= 0.946272
         1    2.371583E-03
         2    5.499283E-03
         3   -2.192615E-02
         4    1.192764E-01
         5    3.999641E+00
         6   -2.336286E+00
         7    1.772495E-02
         8    5.416984E-03
         9   -2.872215E-03
        10    1.329671E-01
        11    4.002090E-02
        12   -6.545577E-03
        13   -2.624630E-01
        14   -6.731471E-01
        15   -1.402856E-01
        16   -7.360971E-04
        17    1.042110E-04
        18    6.318861E-04
        19    1.405279E-03
        20    1.689711E-04
        21   -1.900106E-05
        22    2.685513E-02
        23   -2.391107E-02
        24   -2.944064E-03
        25   -9.904427E-03
        26   -2.126724E-03
        27    1.182440E-04
        28    4.881643E-01
        29   -4.054565E-01
        30   -8.270784E-02
        31    1.099512E+00
        32    1.486928E-02
        33   -4.200939E-02
        34    4.502115E-04
        35    2.105111E-04
        36   -5.053938E-05
        37    2.441194E-04
        38    1.160994E-04
        39    4.444292E-06
        40   -8.481415E-04
        41   -3.985297E-04
        42    6.336141E-05
        43   -3.972263E-05
        44    4.150180E-03
        45    9.488875E-03
        46   -1.107788E-02
        47   -4.370396E-02
        48    5.400613E+00
        49    1.764133E+00
        50    3.201280E-03
        51   -1.009954E-07
        52    7.434210E-04
        53    2.694584E-02
        54    5.809167E-07
        55   -5.915196E-03
        56    9.061807E-01
        57    3.754424E-05
        58    2.011734E-01
        59    1.766835E-03
        60   -2.366719E-03
        61    5.998836E-04
        62   -1.959632E-09