[Molden Format]
[Title]
ADC(2) - opt by CAM-B3LYP gaussian                                              
[Atoms] AU
 c     1    6 -.12594776649128E+01 -.22773101438193E+01 -.39940542897370E-01
 c     2    6 -.25470425655544E+01 -.11810788300000E-05 -.37653974276580E-01
 c     3    6 -.12594776649128E+01 0.22773077816617E+01 -.39959440158700E-01
 c     4    6 0.13393870965995E+01 0.22758904870620E+01 -.43795584208460E-01
 c     5    6 0.26846831306008E+01 -.11810788300000E-05 -.44211323957690E-01
 c     6    6 0.13394059938609E+01 -.22758928492196E+01 -.43776686947130E-01
 h     7    1 -.23144739703802E+01 -.40231336316857E+01 -.37313823572660E-01
 h     8    1 -.23144739703802E+01 0.40231312695281E+01 -.37332720833990E-01
 h     9    1 0.23577983041343E+01 0.40499086888311E+01 -.52469427158400E-01
 h    10    1 0.23577983041343E+01 -.40498921537274E+01 -.52431632635740E-01
 n    11    7 -.52968964450843E+01 -.11810788300000E-05 -.29906097131750E-01
 o    12    8 -.63725096626615E+01 0.20302827815708E+01 -.26599076399200E-01
 o    13    8 -.63725096626615E+01 -.20302851437285E+01 -.26655768183180E-01
 n    14    7 0.52734000627795E+01 -.11810788300000E-05 -.11796733492422E+00
 h    15    1 0.61922038058499E+01 0.16034881344586E+01 0.31500671664254E+00
 h    16    1 0.61921849085885E+01 -.16034904966163E+01 0.31500671664254E+00
[GTO]
    1 0
 s    6 1.00
 0.13575349682000E+05 0.60645503603591E-03
 0.20352333680000E+04 0.46979088884982E-02
 0.46322562359000E+03 0.24332477647552E-01
 0.13120019598000E+03 0.97399968307759E-01
 0.42853015891000E+02 0.30195584253780E+00
 0.15584185766000E+02 0.66233609137875E+00
 s    2 1.00
 0.62067138508000E+01 0.65595308539952E+00
 0.25764896527000E+01 0.37585633285142E+00
 s    1 1.00
 0.57696339419000E+00 0.10000000000000E+01
 s    1 1.00
 0.22972831358000E+00 0.10000000000000E+01
 s    1 1.00
 0.95164440028000E-01 0.10000000000000E+01
 s    1 1.00
 0.48475401370000E-01 0.10000000000000E+01
 p    4 1.00
 0.34697232244000E+02 0.11327220003114E-01
 0.79582622826000E+01 0.76169659202087E-01
 0.23780826883000E+01 0.30192252202676E+00
 0.81433208183000E+00 0.72785027349547E+00
 p    1 1.00
 0.28887547253000E+00 0.10000000000000E+01
 p    1 1.00
 0.10056823671000E+00 0.10000000000000E+01
 d    1 1.00
 0.10970000000000E+01 0.10000000000000E+01
 d    1 1.00
 0.31800000000000E+00 0.10000000000000E+01
 d    1 1.00
 0.90985336424000E-01 0.10000000000000E+01
 f    1 1.00
 0.76100000000000E+00 0.10000000000000E+01
 
    2 0
 s    6 1.00
 0.13575349682000E+05 0.60645503603591E-03
 0.20352333680000E+04 0.46979088884982E-02
 0.46322562359000E+03 0.24332477647552E-01
 0.13120019598000E+03 0.97399968307759E-01
 0.42853015891000E+02 0.30195584253780E+00
 0.15584185766000E+02 0.66233609137875E+00
 s    2 1.00
 0.62067138508000E+01 0.65595308539952E+00
 0.25764896527000E+01 0.37585633285142E+00
 s    1 1.00
 0.57696339419000E+00 0.10000000000000E+01
 s    1 1.00
 0.22972831358000E+00 0.10000000000000E+01
 s    1 1.00
 0.95164440028000E-01 0.10000000000000E+01
 s    1 1.00
 0.48475401370000E-01 0.10000000000000E+01
 p    4 1.00
 0.34697232244000E+02 0.11327220003114E-01
 0.79582622826000E+01 0.76169659202087E-01
 0.23780826883000E+01 0.30192252202676E+00
 0.81433208183000E+00 0.72785027349547E+00
 p    1 1.00
 0.28887547253000E+00 0.10000000000000E+01
 p    1 1.00
 0.10056823671000E+00 0.10000000000000E+01
 d    1 1.00
 0.10970000000000E+01 0.10000000000000E+01
 d    1 1.00
 0.31800000000000E+00 0.10000000000000E+01
 d    1 1.00
 0.90985336424000E-01 0.10000000000000E+01
 f    1 1.00
 0.76100000000000E+00 0.10000000000000E+01
 
    3 0
 s    6 1.00
 0.13575349682000E+05 0.60645503603591E-03
 0.20352333680000E+04 0.46979088884982E-02
 0.46322562359000E+03 0.24332477647552E-01
 0.13120019598000E+03 0.97399968307759E-01
 0.42853015891000E+02 0.30195584253780E+00
 0.15584185766000E+02 0.66233609137875E+00
 s    2 1.00
 0.62067138508000E+01 0.65595308539952E+00
 0.25764896527000E+01 0.37585633285142E+00
 s    1 1.00
 0.57696339419000E+00 0.10000000000000E+01
 s    1 1.00
 0.22972831358000E+00 0.10000000000000E+01
 s    1 1.00
 0.95164440028000E-01 0.10000000000000E+01
 s    1 1.00
 0.48475401370000E-01 0.10000000000000E+01
 p    4 1.00
 0.34697232244000E+02 0.11327220003114E-01
 0.79582622826000E+01 0.76169659202087E-01
 0.23780826883000E+01 0.30192252202676E+00
 0.81433208183000E+00 0.72785027349547E+00
 p    1 1.00
 0.28887547253000E+00 0.10000000000000E+01
 p    1 1.00
 0.10056823671000E+00 0.10000000000000E+01
 d    1 1.00
 0.10970000000000E+01 0.10000000000000E+01
 d    1 1.00
 0.31800000000000E+00 0.10000000000000E+01
 d    1 1.00
 0.90985336424000E-01 0.10000000000000E+01
 f    1 1.00
 0.76100000000000E+00 0.10000000000000E+01
 
    4 0
 s    6 1.00
 0.13575349682000E+05 0.60645503603591E-03
 0.20352333680000E+04 0.46979088884982E-02
 0.46322562359000E+03 0.24332477647552E-01
 0.13120019598000E+03 0.97399968307759E-01
 0.42853015891000E+02 0.30195584253780E+00
 0.15584185766000E+02 0.66233609137875E+00
 s    2 1.00
 0.62067138508000E+01 0.65595308539952E+00
 0.25764896527000E+01 0.37585633285142E+00
 s    1 1.00
 0.57696339419000E+00 0.10000000000000E+01
 s    1 1.00
 0.22972831358000E+00 0.10000000000000E+01
 s    1 1.00
 0.95164440028000E-01 0.10000000000000E+01
 s    1 1.00
 0.48475401370000E-01 0.10000000000000E+01
 p    4 1.00
 0.34697232244000E+02 0.11327220003114E-01
 0.79582622826000E+01 0.76169659202087E-01
 0.23780826883000E+01 0.30192252202676E+00
 0.81433208183000E+00 0.72785027349547E+00
 p    1 1.00
 0.28887547253000E+00 0.10000000000000E+01
 p    1 1.00
 0.10056823671000E+00 0.10000000000000E+01
 d    1 1.00
 0.10970000000000E+01 0.10000000000000E+01
 d    1 1.00
 0.31800000000000E+00 0.10000000000000E+01
 d    1 1.00
 0.90985336424000E-01 0.10000000000000E+01
 f    1 1.00
 0.76100000000000E+00 0.10000000000000E+01
 
    5 0
 s    6 1.00
 0.13575349682000E+05 0.60645503603591E-03
 0.20352333680000E+04 0.46979088884982E-02
 0.46322562359000E+03 0.24332477647552E-01
 0.13120019598000E+03 0.97399968307759E-01
 0.42853015891000E+02 0.30195584253780E+00
 0.15584185766000E+02 0.66233609137875E+00
 s    2 1.00
 0.62067138508000E+01 0.65595308539952E+00
 0.25764896527000E+01 0.37585633285142E+00
 s    1 1.00
 0.57696339419000E+00 0.10000000000000E+01
 s    1 1.00
 0.22972831358000E+00 0.10000000000000E+01
 s    1 1.00
 0.95164440028000E-01 0.10000000000000E+01
 s    1 1.00
 0.48475401370000E-01 0.10000000000000E+01
 p    4 1.00
 0.34697232244000E+02 0.11327220003114E-01
 0.79582622826000E+01 0.76169659202087E-01
 0.23780826883000E+01 0.30192252202676E+00
 0.81433208183000E+00 0.72785027349547E+00
 p    1 1.00
 0.28887547253000E+00 0.10000000000000E+01
 p    1 1.00
 0.10056823671000E+00 0.10000000000000E+01
 d    1 1.00
 0.10970000000000E+01 0.10000000000000E+01
 d    1 1.00
 0.31800000000000E+00 0.10000000000000E+01
 d    1 1.00
 0.90985336424000E-01 0.10000000000000E+01
 f    1 1.00
 0.76100000000000E+00 0.10000000000000E+01
 
    6 0
 s    6 1.00
 0.13575349682000E+05 0.60645503603591E-03
 0.20352333680000E+04 0.46979088884982E-02
 0.46322562359000E+03 0.24332477647552E-01
 0.13120019598000E+03 0.97399968307759E-01
 0.42853015891000E+02 0.30195584253780E+00
 0.15584185766000E+02 0.66233609137875E+00
 s    2 1.00
 0.62067138508000E+01 0.65595308539952E+00
 0.25764896527000E+01 0.37585633285142E+00
 s    1 1.00
 0.57696339419000E+00 0.10000000000000E+01
 s    1 1.00
 0.22972831358000E+00 0.10000000000000E+01
 s    1 1.00
 0.95164440028000E-01 0.10000000000000E+01
 s    1 1.00
 0.48475401370000E-01 0.10000000000000E+01
 p    4 1.00
 0.34697232244000E+02 0.11327220003114E-01
 0.79582622826000E+01 0.76169659202087E-01
 0.23780826883000E+01 0.30192252202676E+00
 0.81433208183000E+00 0.72785027349547E+00
 p    1 1.00
 0.28887547253000E+00 0.10000000000000E+01
 p    1 1.00
 0.10056823671000E+00 0.10000000000000E+01
 d    1 1.00
 0.10970000000000E+01 0.10000000000000E+01
 d    1 1.00
 0.31800000000000E+00 0.10000000000000E+01
 d    1 1.00
 0.90985336424000E-01 0.10000000000000E+01
 f    1 1.00
 0.76100000000000E+00 0.10000000000000E+01
 
    7 0
 s    3 1.00
 0.34061341000000E+02 0.25439307208879E-01
 0.51235746000000E+01 0.19008594890375E+00
 0.11646626000000E+01 0.85244113011042E+00
 s    1 1.00
 0.32723041000000E+00 0.10000000000000E+01
 s    1 1.00
 0.10307241000000E+00 0.10000000000000E+01
 p    1 1.00
 0.80000000000000E+00 0.10000000000000E+01
 p    1 1.00
 0.95774129632000E-01 0.10000000000000E+01
 
    8 0
 s    3 1.00
 0.34061341000000E+02 0.25439307208879E-01
 0.51235746000000E+01 0.19008594890375E+00
 0.11646626000000E+01 0.85244113011042E+00
 s    1 1.00
 0.32723041000000E+00 0.10000000000000E+01
 s    1 1.00
 0.10307241000000E+00 0.10000000000000E+01
 p    1 1.00
 0.80000000000000E+00 0.10000000000000E+01
 p    1 1.00
 0.95774129632000E-01 0.10000000000000E+01
 
    9 0
 s    3 1.00
 0.34061341000000E+02 0.25439307208879E-01
 0.51235746000000E+01 0.19008594890375E+00
 0.11646626000000E+01 0.85244113011042E+00
 s    1 1.00
 0.32723041000000E+00 0.10000000000000E+01
 s    1 1.00
 0.10307241000000E+00 0.10000000000000E+01
 p    1 1.00
 0.80000000000000E+00 0.10000000000000E+01
 p    1 1.00
 0.95774129632000E-01 0.10000000000000E+01
 
   10 0
 s    3 1.00
 0.34061341000000E+02 0.25439307208879E-01
 0.51235746000000E+01 0.19008594890375E+00
 0.11646626000000E+01 0.85244113011042E+00
 s    1 1.00
 0.32723041000000E+00 0.10000000000000E+01
 s    1 1.00
 0.10307241000000E+00 0.10000000000000E+01
 p    1 1.00
 0.80000000000000E+00 0.10000000000000E+01
 p    1 1.00
 0.95774129632000E-01 0.10000000000000E+01
 
   11 0
 s    6 1.00
 0.19730800647000E+05 0.58626402628763E-03
 0.29578958745000E+04 0.45428820586397E-02
 0.67322133595000E+03 0.23558413450084E-01
 0.19068249494000E+03 0.94709193292923E-01
 0.62295441898000E+02 0.29719784913376E+00
 0.22654161182000E+02 0.66916246895232E+00
 s    2 1.00
 0.89791477428000E+01 0.64596683630063E+00
 0.36863002370000E+01 0.38700574393705E+00
 s    1 1.00
 0.84660076805000E+00 0.10000000000000E+01
 s    1 1.00
 0.33647133771000E+00 0.10000000000000E+01
 s    1 1.00
 0.13647653675000E+00 0.10000000000000E+01
 s    1 1.00
 0.68441605847000E-01 0.10000000000000E+01
 p    4 1.00
 0.49200380510000E+02 0.11448825101764E-01
 0.11346790537000E+02 0.78422337970864E-01
 0.34273972411000E+01 0.30818094738830E+00
 0.11785525134000E+01 0.72027196368413E+00
 p    1 1.00
 0.41642204972000E+00 0.10000000000000E+01
 p    1 1.00
 0.14260826011000E+00 0.10000000000000E+01
 d    1 1.00
 0.16540000000000E+01 0.10000000000000E+01
 d    1 1.00
 0.46900000000000E+00 0.10000000000000E+01
 d    1 1.00
 0.12829642058000E+00 0.10000000000000E+01
 f    1 1.00
 0.10930000000000E+01 0.10000000000000E+01
 
   12 0
 s    6 1.00
 0.27032382631000E+05 0.57227335211155E-03
 0.40523871392000E+04 0.44353233492995E-02
 0.92232722710000E+03 0.23020107706038E-01
 0.26124070989000E+03 0.92822490667928E-01
 0.85354641351000E+02 0.29378500009671E+00
 0.31035035245000E+02 0.67401604501641E+00
 s    2 1.00
 0.12260860728000E+02 0.63839937025506E+00
 0.49987076005000E+01 0.39534587125718E+00
 s    1 1.00
 0.11703108158000E+01 0.10000000000000E+01
 s    1 1.00
 0.46474740994000E+00 0.10000000000000E+01
 s    1 1.00
 0.18504536357000E+00 0.10000000000000E+01
 s    1 1.00
 0.70288026270000E-01 0.10000000000000E+01
 p    4 1.00
 0.63274954801000E+02 0.12018332222616E-01
 0.14627049379000E+02 0.83005421790056E-01
 0.44501223456000E+01 0.31991743925964E+00
 0.15275799647000E+01 0.70715542916104E+00
 p    1 1.00
 0.52935117943000E+00 0.10000000000000E+01
 p    1 1.00
 0.17478421270000E+00 0.10000000000000E+01
 p    1 1.00
 0.51112745706000E-01 0.10000000000000E+01
 d    1 1.00
 0.23140000000000E+01 0.10000000000000E+01
 d    1 1.00
 0.64500000000000E+00 0.10000000000000E+01
 d    1 1.00
 0.14696477366000E+00 0.10000000000000E+01
 f    1 1.00
 0.14280000000000E+01 0.10000000000000E+01
 
   13 0
 s    6 1.00
 0.27032382631000E+05 0.57227335211155E-03
 0.40523871392000E+04 0.44353233492995E-02
 0.92232722710000E+03 0.23020107706038E-01
 0.26124070989000E+03 0.92822490667928E-01
 0.85354641351000E+02 0.29378500009671E+00
 0.31035035245000E+02 0.67401604501641E+00
 s    2 1.00
 0.12260860728000E+02 0.63839937025506E+00
 0.49987076005000E+01 0.39534587125718E+00
 s    1 1.00
 0.11703108158000E+01 0.10000000000000E+01
 s    1 1.00
 0.46474740994000E+00 0.10000000000000E+01
 s    1 1.00
 0.18504536357000E+00 0.10000000000000E+01
 s    1 1.00
 0.70288026270000E-01 0.10000000000000E+01
 p    4 1.00
 0.63274954801000E+02 0.12018332222616E-01
 0.14627049379000E+02 0.83005421790056E-01
 0.44501223456000E+01 0.31991743925964E+00
 0.15275799647000E+01 0.70715542916104E+00
 p    1 1.00
 0.52935117943000E+00 0.10000000000000E+01
 p    1 1.00
 0.17478421270000E+00 0.10000000000000E+01
 p    1 1.00
 0.51112745706000E-01 0.10000000000000E+01
 d    1 1.00
 0.23140000000000E+01 0.10000000000000E+01
 d    1 1.00
 0.64500000000000E+00 0.10000000000000E+01
 d    1 1.00
 0.14696477366000E+00 0.10000000000000E+01
 f    1 1.00
 0.14280000000000E+01 0.10000000000000E+01
 
   14 0
 s    6 1.00
 0.19730800647000E+05 0.58626402628763E-03
 0.29578958745000E+04 0.45428820586397E-02
 0.67322133595000E+03 0.23558413450084E-01
 0.19068249494000E+03 0.94709193292923E-01
 0.62295441898000E+02 0.29719784913376E+00
 0.22654161182000E+02 0.66916246895232E+00
 s    2 1.00
 0.89791477428000E+01 0.64596683630063E+00
 0.36863002370000E+01 0.38700574393705E+00
 s    1 1.00
 0.84660076805000E+00 0.10000000000000E+01
 s    1 1.00
 0.33647133771000E+00 0.10000000000000E+01
 s    1 1.00
 0.13647653675000E+00 0.10000000000000E+01
 s    1 1.00
 0.68441605847000E-01 0.10000000000000E+01
 p    4 1.00
 0.49200380510000E+02 0.11448825101764E-01
 0.11346790537000E+02 0.78422337970864E-01
 0.34273972411000E+01 0.30818094738830E+00
 0.11785525134000E+01 0.72027196368413E+00
 p    1 1.00
 0.41642204972000E+00 0.10000000000000E+01
 p    1 1.00
 0.14260826011000E+00 0.10000000000000E+01
 d    1 1.00
 0.16540000000000E+01 0.10000000000000E+01
 d    1 1.00
 0.46900000000000E+00 0.10000000000000E+01
 d    1 1.00
 0.12829642058000E+00 0.10000000000000E+01
 f    1 1.00
 0.10930000000000E+01 0.10000000000000E+01
 
   15 0
 s    3 1.00
 0.34061341000000E+02 0.25439307208879E-01
 0.51235746000000E+01 0.19008594890375E+00
 0.11646626000000E+01 0.85244113011042E+00
 s    1 1.00
 0.32723041000000E+00 0.10000000000000E+01
 s    1 1.00
 0.10307241000000E+00 0.10000000000000E+01
 p    1 1.00
 0.80000000000000E+00 0.10000000000000E+01
 p    1 1.00
 0.95774129632000E-01 0.10000000000000E+01
 
   16 0
 s    3 1.00
 0.34061341000000E+02 0.25439307208879E-01
 0.51235746000000E+01 0.19008594890375E+00
 0.11646626000000E+01 0.85244113011042E+00
 s    1 1.00
 0.32723041000000E+00 0.10000000000000E+01
 s    1 1.00
 0.10307241000000E+00 0.10000000000000E+01
 p    1 1.00
 0.80000000000000E+00 0.10000000000000E+01
 p    1 1.00
 0.95774129632000E-01 0.10000000000000E+01
 
[MO]
 Sym= X
 Ene= -0.950255
 Spin= Alpha
 Occup= -0.950255
         1   -7.921063E-04
         2   -1.841049E-03
         3   -1.534885E-04
         4    2.448485E-02
         5    2.870661E-01
         6   -3.362555E-02
         7   -4.269539E-02
         8    4.973059E-02
         9   -1.817828E-02
        10   -2.202367E-02
        11    4.125785E-02
        12   -1.796741E-02
        13   -4.786824E-02
        14    9.588541E-02
        15   -5.533177E-03
        16   -2.955441E-03
        17    3.163001E-03
        18   -2.075605E-04
        19   -5.381736E-04
        20    4.183056E-07
        21   -5.463066E-04
        22    5.747418E-04
        23    1.726986E-03
        24   -2.301728E-03
        25   -9.108692E-04
        26    6.980303E-05
        27   -8.713894E-04
        28    2.803280E-03
        29   -2.367881E-03
        30   -4.353987E-04
        31    9.845197E-03
        32    9.979352E-04
        33   -7.641054E-04
        34    9.594652E-05
        35    5.247255E-04
        36    1.530570E-04
        37   -1.664025E-04
        38   -5.753612E-04
        39   -8.949427E-05
        40    3.767676E-05
        41   -1.286319E-04
        42   -1.158533E-04
        43    5.805496E-05
        44    9.902976E-03
        45    2.241936E-02
        46   -3.337276E-02
        47   -6.541214E-02
        48   -2.742639E-01
        49    1.869897E-02
        50    1.623972E-01
        51    1.270269E-06
        52   -2.549528E-02
        53    1.252277E-01
        54    1.463938E-06
        55   -2.563964E-02
        56   -6.117880E-02
        57   -3.613054E-06
        58   -6.831642E-03
        59   -6.352474E-03
        60    5.761447E-03
        61    5.910272E-04
        62    5.919922E-08
        63   -4.008308E-04
        64    1.452722E-08
        65   -3.049687E-03
        66    3.480829E-03
        67   -4.311421E-04
        68    9.590062E-08
        69   -7.329574E-04
        70    7.996336E-08
        71    5.722176E-02
        72   -5.968484E-02
        73    2.463077E-03
        74   -7.091530E-07
        75   -1.151081E-03
        76   -1.060246E-07
        77    1.078074E-03
        78    9.780810E-09
        79    2.056202E-04
        80   -7.313960E-04
        81   -7.789708E-09
        82   -1.043486E-04
        83   -7.149916E-04
        84   -5.332625E-09
        85   -1.715199E-04
        86   -1.097224E-08
        87   -7.922433E-04
        88   -1.841368E-03
        89   -1.529663E-04
        90    2.448570E-02
        91    2.870680E-01
        92   -3.362488E-02
        93   -4.269667E-02
        94   -4.973220E-02
        95   -1.817743E-02
        96   -2.202386E-02
        97   -4.125871E-02
        98   -1.796667E-02
        99   -4.787378E-02
       100   -9.589009E-02
       101   -5.531426E-03
       102   -2.955472E-03
       103    3.163047E-03
       104   -2.075755E-04
       105    5.382993E-04
       106    3.890236E-07
       107    5.462636E-04
       108    5.747156E-04
       109    1.727031E-03
       110   -2.301747E-03
       111    9.109685E-04
       112    6.971359E-05
       113    8.713471E-04
       114    2.802608E-03
       115   -2.367130E-03
       116   -4.354777E-04
       117   -9.844168E-03
       118    9.976304E-04
       119    7.637942E-04
       120    9.595223E-05
       121   -5.247389E-04
       122    1.530476E-04
       123   -1.664084E-04
       124    5.753731E-04
       125   -8.949154E-05
       126    3.767497E-05
       127    1.286380E-04
       128   -1.158434E-04
       129   -5.805158E-05
       130    2.256767E-03
       131    5.130347E-03
       132   -5.315109E-03
       133   -3.150556E-02
       134   -1.094912E-01
       135    3.830209E-02
       136    4.500837E-02
       137    1.588549E-02
       138   -8.893097E-03
       139    4.679042E-02
       140    1.451411E-02
       141   -8.861044E-03
       142    3.813180E-02
       143    3.978753E-02
       144   -3.966244E-03
       145   -1.288330E-03
       146    1.147914E-03
       147    1.404159E-04
       148    1.871226E-03
       149    5.072962E-04
       150   -5.800531E-06
       151   -3.550434E-03
       152    1.611726E-03
       153    1.938708E-03
       154    2.895640E-03
       155    8.937564E-04
       156   -9.206517E-05
       157   -2.426735E-03
       158    4.061579E-03
       159   -1.634844E-03
       160   -2.534916E-02
       161    1.034193E-03
       162   -1.401449E-03
       163    3.126288E-04
       164    3.034814E-04
       165    7.183124E-05
       166   -1.644640E-04
       167   -3.757249E-04
       168   -8.573326E-05
       169   -2.549715E-04
       170   -3.143810E-05
       171   -1.063846E-05
       172   -3.799701E-05
       173    1.675258E-03
       174    3.866576E-03
       175   -8.547131E-03
       176    4.274138E-03
       177   -9.035308E-02
       178   -4.117750E-02
       179    3.817307E-03
       180   -1.464549E-06
       181    6.624403E-03
       182   -9.665999E-04
       183   -1.238044E-06
       184    6.194129E-03
       185   -3.708430E-02
       186    2.763061E-06
       187   -5.525903E-03
       188   -1.074979E-03
       189    1.075278E-03
       190   -2.984727E-07
       191    5.753775E-08
       192    1.008016E-03
       193   -3.080615E-09
       194   -1.080169E-03
       195    2.354361E-03
       196   -1.274192E-03
       197    6.882350E-08
       198    2.189894E-03
       199   -1.279639E-08
       200   -1.938368E-02
       201    1.858160E-02
       202    8.020790E-04
       203   -6.651958E-07
       204   -3.191376E-04
       205    9.675127E-08
       206   -3.860319E-05
       207   -2.136922E-09
       208   -8.561859E-05
       209    4.636550E-05
       210   -2.216467E-09
       211    1.797263E-04
       212    5.426123E-06
       213    5.083450E-09
       214   -6.485691E-05
       215   -9.456553E-11
       216    2.256629E-03
       217    5.130038E-03
       218   -5.314473E-03
       219   -3.150524E-02
       220   -1.094891E-01
       221    3.830178E-02
       222    4.500783E-02
       223   -1.588290E-02
       224   -8.892866E-03
       225    4.678983E-02
       226   -1.451190E-02
       227   -8.860896E-03
       228    3.813702E-02
       229   -3.978295E-02
       230   -3.965893E-03
       231   -1.288281E-03
       232    1.147876E-03
       233    1.404050E-04
       234   -1.871055E-03
       235    5.073094E-04
       236    5.790510E-06
       237   -3.550412E-03
       238    1.611711E-03
       239    1.938701E-03
       240   -2.895428E-03
       241    8.938030E-04
       242    9.207298E-05
       243   -2.427903E-03
       244    4.062748E-03
       245   -1.634844E-03
       246    2.534993E-02
       247    1.034251E-03
       248    1.401543E-03
       249    3.126267E-04
       250   -3.034748E-04
       251    7.183043E-05
       252   -1.644575E-04
       253    3.757248E-04
       254   -8.573659E-05
       255   -2.549753E-04
       256    3.142938E-05
       257   -1.063405E-05
       258    3.799652E-05
       259   -2.430633E-03
       260   -2.509142E-03
       261   -6.604034E-03
       262   -2.510957E-03
       263   -6.693951E-05
       264   -6.469694E-04
       265   -7.660718E-03
       266    2.596991E-04
       267   -4.719566E-04
       268   -2.431149E-03
       269   -2.510102E-03
       270   -6.603558E-03
       271   -2.510977E-03
       272    6.697010E-05
       273   -6.469195E-04
       274   -7.661228E-03
       275   -2.599806E-04
       276   -4.716651E-04
       277    2.014645E-02
       278    3.232379E-02
       279    4.382011E-02
       280   -7.790259E-05
       281   -2.947238E-03
       282   -2.434282E-04
       283    7.690968E-03
       284   -5.989131E-03
       285    8.191809E-04
       286    2.014491E-02
       287    3.232103E-02
       288    4.381839E-02
       289   -7.772990E-05
       290    2.947083E-03
       291   -2.434673E-04
       292    7.691960E-03
       293    5.989334E-03
       294    8.190516E-04
       295    2.974987E-03
       296    6.857020E-03
       297   -4.963372E-03
       298   -4.016999E-02
       299   -1.579223E-01
       300    2.069395E-02
       301   -1.399845E-01
       302    4.549496E-07
       303    4.623940E-03
       304   -1.306084E-01
       305    3.565106E-07
       306    4.468021E-03
       307   -9.672168E-02
       308   -2.480782E-07
       309    2.680267E-04
       310   -1.167242E-02
       311    1.304194E-02
       312   -1.369519E-03
       313   -1.178107E-07
       314   -4.235320E-04
       315    2.406873E-07
       316   -3.394187E-02
       317    3.486149E-02
       318   -9.196180E-04
       319   -3.031674E-07
       320   -1.165026E-03
       321    6.046608E-07
       322    1.257655E-02
       323   -6.909572E-04
       324   -1.188560E-02
       325    2.473444E-08
       326   -8.099497E-04
       327    5.870385E-08
       328   -6.791361E-05
       329   -3.138500E-08
       330   -2.250746E-05
       331   -2.994004E-04
       332    4.116878E-08
       333   -6.359838E-05
       334    3.905160E-04
       335    9.386254E-10
       336    9.379530E-05
       337   -1.422942E-08
       338    8.621181E-04
       339    2.056584E-03
       340   -4.171423E-03
       341   -1.972443E-02
       342   -1.573081E-02
       343   -1.861021E-02
       344    2.962169E-01
       345    3.586207E-02
       346    7.879869E-03
       347    2.603223E-01
       348    3.757533E-02
       349    7.274571E-03
       350    1.924373E-01
       351    3.797082E-02
       352    4.694799E-03
       353    1.544087E-02
       354    8.258491E-03
       355    3.807722E-04
       356    6.421887E-04
       357    2.945201E-04
       358   -9.367087E-04
       359   -2.616804E-03
       360    3.400409E-05
       361   -1.075024E-04
       362    3.276258E-03
       363   -5.738172E-04
       364   -2.702441E-03
       365   -5.745372E-03
       366    1.457004E-04
       367   -3.276857E-04
       368    5.543670E-03
       369   -3.950275E-03
       370   -1.593395E-03
       371   -5.512613E-03
       372    2.768516E-04
       373   -2.876340E-05
       374   -3.465190E-04
       375    3.525304E-04
       376   -1.608447E-05
       377    6.756872E-04
       378   -7.909910E-04
       379   -9.404629E-06
       380   -2.107832E-04
       381    3.180219E-04
       382    3.098421E-05
       383   -2.458895E-05
       384    8.621549E-04
       385    2.056677E-03
       386   -4.171558E-03
       387   -1.972444E-02
       388   -1.573106E-02
       389   -1.860961E-02
       390    2.962235E-01
       391   -3.586799E-02
       392    7.878187E-03
       393    2.603283E-01
       394   -3.758054E-02
       395    7.272918E-03
       396    1.924417E-01
       397   -3.797453E-02
       398    4.693245E-03
       399    1.544163E-02
       400   -8.258886E-03
       401    3.804555E-04
       402    6.422448E-04
       403    2.944420E-04
       404   -9.366869E-04
       405    2.616801E-03
       406    3.407616E-05
       407    1.075372E-04
       408    3.276437E-03
       409   -5.740261E-04
       410   -2.702411E-03
       411    5.745387E-03
       412    1.458717E-04
       413    3.277358E-04
       414    5.543908E-03
       415   -3.950478E-03
       416   -1.593429E-03
       417    5.512594E-03
       418    2.770356E-04
       419    2.866985E-05
       420   -3.465129E-04
       421   -3.525523E-04
       422   -1.610566E-05
       423    6.756749E-04
       424    7.910135E-04
       425   -9.379274E-06
       426   -2.107790E-04
       427   -3.180150E-04
       428    3.098728E-05
       429    2.461539E-05
       430    2.522956E-03
       431    5.984672E-03
       432   -8.701983E-03
       433   -1.892133E-02
       434    2.370861E-02
       435    1.914640E-02
       436    3.865442E-03
       437    2.513115E-07
       438    3.487125E-02
       439    3.396383E-03
       440    2.168413E-07
       441    3.352693E-02
       442   -6.056073E-03
       443    2.239426E-07
       444    2.404681E-02
       445   -2.478022E-04
       446    1.519928E-04
       447    9.580940E-05
       448    2.067778E-08
       449   -1.305813E-04
       450    1.649700E-09
       451   -4.106704E-04
       452    2.589084E-05
       453    3.847795E-04
       454    4.173037E-08
       455   -2.123184E-04
       456    2.909969E-09
       457   -3.179244E-04
       458   -1.177803E-03
       459    1.495727E-03
       460   -3.031181E-08
       461   -1.808105E-04
       462   -1.767484E-09
       463    2.003021E-05
       464    3.438872E-09
       465   -1.715809E-04
       466   -6.167886E-05
       467   -3.307732E-09
       468    1.376665E-04
       469    3.480550E-05
       470   -1.305999E-09
       471    9.253349E-05
       472    1.421760E-09
       473    2.885239E-03
       474    5.370128E-03
       475    9.798047E-03
       476   -4.715442E-04
       477   -4.215307E-04
       478    1.553340E-03
       479   -2.788239E-03
       480   -1.640346E-03
       481    1.520869E-03
       482    2.884913E-03
       483    5.369620E-03
       484    9.797294E-03
       485   -4.715233E-04
       486    4.215138E-04
       487    1.553362E-03
       488   -2.788185E-03
       489    1.640334E-03
       490    1.520891E-03
 Sym= X
 Ene= 0.950255
 Spin= Alpha
 Occup= 0.950255
         1   -5.159394E-05
         2   -3.453070E-06
         3   -1.244319E-03
         4    1.772749E-02
         5   -5.751590E-01
         6   -2.917291E-02
         7   -1.480746E-03
         8   -1.783996E-03
         9   -1.834499E-01
        10   -1.035991E-02
        11   -7.039765E-03
        12   -2.157708E-01
        13    1.987798E-02
        14   -1.304029E-01
        15    3.304079E-01
        16    1.705594E-05
        17    5.793338E-05
        18   -7.498932E-05
        19    2.378617E-05
        20    5.628498E-03
        21   -5.436484E-04
        22   -2.011738E-03
        23    5.614066E-04
        24    1.450332E-03
        25    1.815602E-04
        26    1.639590E-02
        27    4.825881E-03
        28   -3.127451E-02
        29    6.304527E-03
        30    2.496998E-02
        31   -4.015553E-02
        32   -1.159240E-01
        33    1.453758E-01
        34   -6.174051E-05
        35   -2.341634E-05
        36    2.129446E-04
        37   -1.301679E-05
        38   -3.356840E-05
        39    2.811702E-04
        40    9.585038E-05
        41    6.498472E-05
        42   -5.668654E-04
        43   -5.293188E-06
        44   -1.474065E-07
        45   -2.964710E-07
        46   -1.056372E-07
        47    8.973938E-06
        48    3.466599E-04
        49   -2.691380E-04
        50    3.830197E-07
        51    7.646372E-04
        52    1.056018E-07
        53   -2.005857E-06
        54   -1.531021E-03
        55   -4.773322E-08
        56    1.563737E-04
        57   -2.594212E-01
        58   -5.595807E-06
        59    1.131051E-07
        60    6.105038E-08
        61   -1.741555E-07
        62    1.087771E-04