[Molden Format]
[Title]
ADC(2) - opt by CAM-B3LYP gaussian                                              
[Atoms] AU
 c     1    6 -.12594776649128E+01 -.22773101438193E+01 -.39940542897370E-01
 c     2    6 -.25470425655544E+01 -.11810788300000E-05 -.37653974276580E-01
 c     3    6 -.12594776649128E+01 0.22773077816617E+01 -.39959440158700E-01
 c     4    6 0.13393870965995E+01 0.22758904870620E+01 -.43795584208460E-01
 c     5    6 0.26846831306008E+01 -.11810788300000E-05 -.44211323957690E-01
 c     6    6 0.13394059938609E+01 -.22758928492196E+01 -.43776686947130E-01
 h     7    1 -.23144739703802E+01 -.40231336316857E+01 -.37313823572660E-01
 h     8    1 -.23144739703802E+01 0.40231312695281E+01 -.37332720833990E-01
 h     9    1 0.23577983041343E+01 0.40499086888311E+01 -.52469427158400E-01
 h    10    1 0.23577983041343E+01 -.40498921537274E+01 -.52431632635740E-01
 n    11    7 -.52968964450843E+01 -.11810788300000E-05 -.29906097131750E-01
 o    12    8 -.63725096626615E+01 0.20302827815708E+01 -.26599076399200E-01
 o    13    8 -.63725096626615E+01 -.20302851437285E+01 -.26655768183180E-01
 n    14    7 0.52734000627795E+01 -.11810788300000E-05 -.11796733492422E+00
 h    15    1 0.61922038058499E+01 0.16034881344586E+01 0.31500671664254E+00
 h    16    1 0.61921849085885E+01 -.16034904966163E+01 0.31500671664254E+00
[GTO]
    1 0
 s    6 1.00
 0.13575349682000E+05 0.60645503603591E-03
 0.20352333680000E+04 0.46979088884982E-02
 0.46322562359000E+03 0.24332477647552E-01
 0.13120019598000E+03 0.97399968307759E-01
 0.42853015891000E+02 0.30195584253780E+00
 0.15584185766000E+02 0.66233609137875E+00
 s    2 1.00
 0.62067138508000E+01 0.65595308539952E+00
 0.25764896527000E+01 0.37585633285142E+00
 s    1 1.00
 0.57696339419000E+00 0.10000000000000E+01
 s    1 1.00
 0.22972831358000E+00 0.10000000000000E+01
 s    1 1.00
 0.95164440028000E-01 0.10000000000000E+01
 s    1 1.00
 0.48475401370000E-01 0.10000000000000E+01
 p    4 1.00
 0.34697232244000E+02 0.11327220003114E-01
 0.79582622826000E+01 0.76169659202087E-01
 0.23780826883000E+01 0.30192252202676E+00
 0.81433208183000E+00 0.72785027349547E+00
 p    1 1.00
 0.28887547253000E+00 0.10000000000000E+01
 p    1 1.00
 0.10056823671000E+00 0.10000000000000E+01
 d    1 1.00
 0.10970000000000E+01 0.10000000000000E+01
 d    1 1.00
 0.31800000000000E+00 0.10000000000000E+01
 d    1 1.00
 0.90985336424000E-01 0.10000000000000E+01
 f    1 1.00
 0.76100000000000E+00 0.10000000000000E+01
 
    2 0
 s    6 1.00
 0.13575349682000E+05 0.60645503603591E-03
 0.20352333680000E+04 0.46979088884982E-02
 0.46322562359000E+03 0.24332477647552E-01
 0.13120019598000E+03 0.97399968307759E-01
 0.42853015891000E+02 0.30195584253780E+00
 0.15584185766000E+02 0.66233609137875E+00
 s    2 1.00
 0.62067138508000E+01 0.65595308539952E+00
 0.25764896527000E+01 0.37585633285142E+00
 s    1 1.00
 0.57696339419000E+00 0.10000000000000E+01
 s    1 1.00
 0.22972831358000E+00 0.10000000000000E+01
 s    1 1.00
 0.95164440028000E-01 0.10000000000000E+01
 s    1 1.00
 0.48475401370000E-01 0.10000000000000E+01
 p    4 1.00
 0.34697232244000E+02 0.11327220003114E-01
 0.79582622826000E+01 0.76169659202087E-01
 0.23780826883000E+01 0.30192252202676E+00
 0.81433208183000E+00 0.72785027349547E+00
 p    1 1.00
 0.28887547253000E+00 0.10000000000000E+01
 p    1 1.00
 0.10056823671000E+00 0.10000000000000E+01
 d    1 1.00
 0.10970000000000E+01 0.10000000000000E+01
 d    1 1.00
 0.31800000000000E+00 0.10000000000000E+01
 d    1 1.00
 0.90985336424000E-01 0.10000000000000E+01
 f    1 1.00
 0.76100000000000E+00 0.10000000000000E+01
 
    3 0
 s    6 1.00
 0.13575349682000E+05 0.60645503603591E-03
 0.20352333680000E+04 0.46979088884982E-02
 0.46322562359000E+03 0.24332477647552E-01
 0.13120019598000E+03 0.97399968307759E-01
 0.42853015891000E+02 0.30195584253780E+00
 0.15584185766000E+02 0.66233609137875E+00
 s    2 1.00
 0.62067138508000E+01 0.65595308539952E+00
 0.25764896527000E+01 0.37585633285142E+00
 s    1 1.00
 0.57696339419000E+00 0.10000000000000E+01
 s    1 1.00
 0.22972831358000E+00 0.10000000000000E+01
 s    1 1.00
 0.95164440028000E-01 0.10000000000000E+01
 s    1 1.00
 0.48475401370000E-01 0.10000000000000E+01
 p    4 1.00
 0.34697232244000E+02 0.11327220003114E-01
 0.79582622826000E+01 0.76169659202087E-01
 0.23780826883000E+01 0.30192252202676E+00
 0.81433208183000E+00 0.72785027349547E+00
 p    1 1.00
 0.28887547253000E+00 0.10000000000000E+01
 p    1 1.00
 0.10056823671000E+00 0.10000000000000E+01
 d    1 1.00
 0.10970000000000E+01 0.10000000000000E+01
 d    1 1.00
 0.31800000000000E+00 0.10000000000000E+01
 d    1 1.00
 0.90985336424000E-01 0.10000000000000E+01
 f    1 1.00
 0.76100000000000E+00 0.10000000000000E+01
 
    4 0
 s    6 1.00
 0.13575349682000E+05 0.60645503603591E-03
 0.20352333680000E+04 0.46979088884982E-02
 0.46322562359000E+03 0.24332477647552E-01
 0.13120019598000E+03 0.97399968307759E-01
 0.42853015891000E+02 0.30195584253780E+00
 0.15584185766000E+02 0.66233609137875E+00
 s    2 1.00
 0.62067138508000E+01 0.65595308539952E+00
 0.25764896527000E+01 0.37585633285142E+00
 s    1 1.00
 0.57696339419000E+00 0.10000000000000E+01
 s    1 1.00
 0.22972831358000E+00 0.10000000000000E+01
 s    1 1.00
 0.95164440028000E-01 0.10000000000000E+01
 s    1 1.00
 0.48475401370000E-01 0.10000000000000E+01
 p    4 1.00
 0.34697232244000E+02 0.11327220003114E-01
 0.79582622826000E+01 0.76169659202087E-01
 0.23780826883000E+01 0.30192252202676E+00
 0.81433208183000E+00 0.72785027349547E+00
 p    1 1.00
 0.28887547253000E+00 0.10000000000000E+01
 p    1 1.00
 0.10056823671000E+00 0.10000000000000E+01
 d    1 1.00
 0.10970000000000E+01 0.10000000000000E+01
 d    1 1.00
 0.31800000000000E+00 0.10000000000000E+01
 d    1 1.00
 0.90985336424000E-01 0.10000000000000E+01
 f    1 1.00
 0.76100000000000E+00 0.10000000000000E+01
 
    5 0
 s    6 1.00
 0.13575349682000E+05 0.60645503603591E-03
 0.20352333680000E+04 0.46979088884982E-02
 0.46322562359000E+03 0.24332477647552E-01
 0.13120019598000E+03 0.97399968307759E-01
 0.42853015891000E+02 0.30195584253780E+00
 0.15584185766000E+02 0.66233609137875E+00
 s    2 1.00
 0.62067138508000E+01 0.65595308539952E+00
 0.25764896527000E+01 0.37585633285142E+00
 s    1 1.00
 0.57696339419000E+00 0.10000000000000E+01
 s    1 1.00
 0.22972831358000E+00 0.10000000000000E+01
 s    1 1.00
 0.95164440028000E-01 0.10000000000000E+01
 s    1 1.00
 0.48475401370000E-01 0.10000000000000E+01
 p    4 1.00
 0.34697232244000E+02 0.11327220003114E-01
 0.79582622826000E+01 0.76169659202087E-01
 0.23780826883000E+01 0.30192252202676E+00
 0.81433208183000E+00 0.72785027349547E+00
 p    1 1.00
 0.28887547253000E+00 0.10000000000000E+01
 p    1 1.00
 0.10056823671000E+00 0.10000000000000E+01
 d    1 1.00
 0.10970000000000E+01 0.10000000000000E+01
 d    1 1.00
 0.31800000000000E+00 0.10000000000000E+01
 d    1 1.00
 0.90985336424000E-01 0.10000000000000E+01
 f    1 1.00
 0.76100000000000E+00 0.10000000000000E+01
 
    6 0
 s    6 1.00
 0.13575349682000E+05 0.60645503603591E-03
 0.20352333680000E+04 0.46979088884982E-02
 0.46322562359000E+03 0.24332477647552E-01
 0.13120019598000E+03 0.97399968307759E-01
 0.42853015891000E+02 0.30195584253780E+00
 0.15584185766000E+02 0.66233609137875E+00
 s    2 1.00
 0.62067138508000E+01 0.65595308539952E+00
 0.25764896527000E+01 0.37585633285142E+00
 s    1 1.00
 0.57696339419000E+00 0.10000000000000E+01
 s    1 1.00
 0.22972831358000E+00 0.10000000000000E+01
 s    1 1.00
 0.95164440028000E-01 0.10000000000000E+01
 s    1 1.00
 0.48475401370000E-01 0.10000000000000E+01
 p    4 1.00
 0.34697232244000E+02 0.11327220003114E-01
 0.79582622826000E+01 0.76169659202087E-01
 0.23780826883000E+01 0.30192252202676E+00
 0.81433208183000E+00 0.72785027349547E+00
 p    1 1.00
 0.28887547253000E+00 0.10000000000000E+01
 p    1 1.00
 0.10056823671000E+00 0.10000000000000E+01
 d    1 1.00
 0.10970000000000E+01 0.10000000000000E+01
 d    1 1.00
 0.31800000000000E+00 0.10000000000000E+01
 d    1 1.00
 0.90985336424000E-01 0.10000000000000E+01
 f    1 1.00
 0.76100000000000E+00 0.10000000000000E+01
 
    7 0
 s    3 1.00
 0.34061341000000E+02 0.25439307208879E-01
 0.51235746000000E+01 0.19008594890375E+00
 0.11646626000000E+01 0.85244113011042E+00
 s    1 1.00
 0.32723041000000E+00 0.10000000000000E+01
 s    1 1.00
 0.10307241000000E+00 0.10000000000000E+01
 p    1 1.00
 0.80000000000000E+00 0.10000000000000E+01
 p    1 1.00
 0.95774129632000E-01 0.10000000000000E+01
 
    8 0
 s    3 1.00
 0.34061341000000E+02 0.25439307208879E-01
 0.51235746000000E+01 0.19008594890375E+00
 0.11646626000000E+01 0.85244113011042E+00
 s    1 1.00
 0.32723041000000E+00 0.10000000000000E+01
 s    1 1.00
 0.10307241000000E+00 0.10000000000000E+01
 p    1 1.00
 0.80000000000000E+00 0.10000000000000E+01
 p    1 1.00
 0.95774129632000E-01 0.10000000000000E+01
 
    9 0
 s    3 1.00
 0.34061341000000E+02 0.25439307208879E-01
 0.51235746000000E+01 0.19008594890375E+00
 0.11646626000000E+01 0.85244113011042E+00
 s    1 1.00
 0.32723041000000E+00 0.10000000000000E+01
 s    1 1.00
 0.10307241000000E+00 0.10000000000000E+01
 p    1 1.00
 0.80000000000000E+00 0.10000000000000E+01
 p    1 1.00
 0.95774129632000E-01 0.10000000000000E+01
 
   10 0
 s    3 1.00
 0.34061341000000E+02 0.25439307208879E-01
 0.51235746000000E+01 0.19008594890375E+00
 0.11646626000000E+01 0.85244113011042E+00
 s    1 1.00
 0.32723041000000E+00 0.10000000000000E+01
 s    1 1.00
 0.10307241000000E+00 0.10000000000000E+01
 p    1 1.00
 0.80000000000000E+00 0.10000000000000E+01
 p    1 1.00
 0.95774129632000E-01 0.10000000000000E+01
 
   11 0
 s    6 1.00
 0.19730800647000E+05 0.58626402628763E-03
 0.29578958745000E+04 0.45428820586397E-02
 0.67322133595000E+03 0.23558413450084E-01
 0.19068249494000E+03 0.94709193292923E-01
 0.62295441898000E+02 0.29719784913376E+00
 0.22654161182000E+02 0.66916246895232E+00
 s    2 1.00
 0.89791477428000E+01 0.64596683630063E+00
 0.36863002370000E+01 0.38700574393705E+00
 s    1 1.00
 0.84660076805000E+00 0.10000000000000E+01
 s    1 1.00
 0.33647133771000E+00 0.10000000000000E+01
 s    1 1.00
 0.13647653675000E+00 0.10000000000000E+01
 s    1 1.00
 0.68441605847000E-01 0.10000000000000E+01
 p    4 1.00
 0.49200380510000E+02 0.11448825101764E-01
 0.11346790537000E+02 0.78422337970864E-01
 0.34273972411000E+01 0.30818094738830E+00
 0.11785525134000E+01 0.72027196368413E+00
 p    1 1.00
 0.41642204972000E+00 0.10000000000000E+01
 p    1 1.00
 0.14260826011000E+00 0.10000000000000E+01
 d    1 1.00
 0.16540000000000E+01 0.10000000000000E+01
 d    1 1.00
 0.46900000000000E+00 0.10000000000000E+01
 d    1 1.00
 0.12829642058000E+00 0.10000000000000E+01
 f    1 1.00
 0.10930000000000E+01 0.10000000000000E+01
 
   12 0
 s    6 1.00
 0.27032382631000E+05 0.57227335211155E-03
 0.40523871392000E+04 0.44353233492995E-02
 0.92232722710000E+03 0.23020107706038E-01
 0.26124070989000E+03 0.92822490667928E-01
 0.85354641351000E+02 0.29378500009671E+00
 0.31035035245000E+02 0.67401604501641E+00
 s    2 1.00
 0.12260860728000E+02 0.63839937025506E+00
 0.49987076005000E+01 0.39534587125718E+00
 s    1 1.00
 0.11703108158000E+01 0.10000000000000E+01
 s    1 1.00
 0.46474740994000E+00 0.10000000000000E+01
 s    1 1.00
 0.18504536357000E+00 0.10000000000000E+01
 s    1 1.00
 0.70288026270000E-01 0.10000000000000E+01
 p    4 1.00
 0.63274954801000E+02 0.12018332222616E-01
 0.14627049379000E+02 0.83005421790056E-01
 0.44501223456000E+01 0.31991743925964E+00
 0.15275799647000E+01 0.70715542916104E+00
 p    1 1.00
 0.52935117943000E+00 0.10000000000000E+01
 p    1 1.00
 0.17478421270000E+00 0.10000000000000E+01
 p    1 1.00
 0.51112745706000E-01 0.10000000000000E+01
 d    1 1.00
 0.23140000000000E+01 0.10000000000000E+01
 d    1 1.00
 0.64500000000000E+00 0.10000000000000E+01
 d    1 1.00
 0.14696477366000E+00 0.10000000000000E+01
 f    1 1.00
 0.14280000000000E+01 0.10000000000000E+01
 
   13 0
 s    6 1.00
 0.27032382631000E+05 0.57227335211155E-03
 0.40523871392000E+04 0.44353233492995E-02
 0.92232722710000E+03 0.23020107706038E-01
 0.26124070989000E+03 0.92822490667928E-01
 0.85354641351000E+02 0.29378500009671E+00
 0.31035035245000E+02 0.67401604501641E+00
 s    2 1.00
 0.12260860728000E+02 0.63839937025506E+00
 0.49987076005000E+01 0.39534587125718E+00
 s    1 1.00
 0.11703108158000E+01 0.10000000000000E+01
 s    1 1.00
 0.46474740994000E+00 0.10000000000000E+01
 s    1 1.00
 0.18504536357000E+00 0.10000000000000E+01
 s    1 1.00
 0.70288026270000E-01 0.10000000000000E+01
 p    4 1.00
 0.63274954801000E+02 0.12018332222616E-01
 0.14627049379000E+02 0.83005421790056E-01
 0.44501223456000E+01 0.31991743925964E+00
 0.15275799647000E+01 0.70715542916104E+00
 p    1 1.00
 0.52935117943000E+00 0.10000000000000E+01
 p    1 1.00
 0.17478421270000E+00 0.10000000000000E+01
 p    1 1.00
 0.51112745706000E-01 0.10000000000000E+01
 d    1 1.00
 0.23140000000000E+01 0.10000000000000E+01
 d    1 1.00
 0.64500000000000E+00 0.10000000000000E+01
 d    1 1.00
 0.14696477366000E+00 0.10000000000000E+01
 f    1 1.00
 0.14280000000000E+01 0.10000000000000E+01
 
   14 0
 s    6 1.00
 0.19730800647000E+05 0.58626402628763E-03
 0.29578958745000E+04 0.45428820586397E-02
 0.67322133595000E+03 0.23558413450084E-01
 0.19068249494000E+03 0.94709193292923E-01
 0.62295441898000E+02 0.29719784913376E+00
 0.22654161182000E+02 0.66916246895232E+00
 s    2 1.00
 0.89791477428000E+01 0.64596683630063E+00
 0.36863002370000E+01 0.38700574393705E+00
 s    1 1.00
 0.84660076805000E+00 0.10000000000000E+01
 s    1 1.00
 0.33647133771000E+00 0.10000000000000E+01
 s    1 1.00
 0.13647653675000E+00 0.10000000000000E+01
 s    1 1.00
 0.68441605847000E-01 0.10000000000000E+01
 p    4 1.00
 0.49200380510000E+02 0.11448825101764E-01
 0.11346790537000E+02 0.78422337970864E-01
 0.34273972411000E+01 0.30818094738830E+00
 0.11785525134000E+01 0.72027196368413E+00
 p    1 1.00
 0.41642204972000E+00 0.10000000000000E+01
 p    1 1.00
 0.14260826011000E+00 0.10000000000000E+01
 d    1 1.00
 0.16540000000000E+01 0.10000000000000E+01
 d    1 1.00
 0.46900000000000E+00 0.10000000000000E+01
 d    1 1.00
 0.12829642058000E+00 0.10000000000000E+01
 f    1 1.00
 0.10930000000000E+01 0.10000000000000E+01
 
   15 0
 s    3 1.00
 0.34061341000000E+02 0.25439307208879E-01
 0.51235746000000E+01 0.19008594890375E+00
 0.11646626000000E+01 0.85244113011042E+00
 s    1 1.00
 0.32723041000000E+00 0.10000000000000E+01
 s    1 1.00
 0.10307241000000E+00 0.10000000000000E+01
 p    1 1.00
 0.80000000000000E+00 0.10000000000000E+01
 p    1 1.00
 0.95774129632000E-01 0.10000000000000E+01
 
   16 0
 s    3 1.00
 0.34061341000000E+02 0.25439307208879E-01
 0.51235746000000E+01 0.19008594890375E+00
 0.11646626000000E+01 0.85244113011042E+00
 s    1 1.00
 0.32723041000000E+00 0.10000000000000E+01
 s    1 1.00
 0.10307241000000E+00 0.10000000000000E+01
 p    1 1.00
 0.80000000000000E+00 0.10000000000000E+01
 p    1 1.00
 0.95774129632000E-01 0.10000000000000E+01
 
[MO]
 Sym= X
 Ene= -0.935262
 Spin= Alpha
 Occup= -0.935262
         1   -2.779416E-04
         2   -6.468870E-04
         3    2.109523E-03
         4   -6.600749E-03
         5    6.720660E-02
         6   -1.948337E-02
         7    4.252718E-03
         8   -7.415958E-04
         9    2.602582E-02
        10   -4.221061E-03
        11    1.059085E-04
        12    2.419123E-02
        13   -3.994866E-02
        14    2.141853E-02
        15    1.836312E-02
        16    7.788524E-05
        17   -1.064829E-04
        18    2.859762E-05
        19   -2.492119E-06
        20   -6.106797E-03
        21    3.563805E-03
        22   -1.193947E-03
        23    6.565452E-04
        24    5.374019E-04
        25   -1.228196E-03
        26   -1.387108E-02
        27    6.754354E-03
        28   -1.744903E-03
        29    1.415707E-03
        30    3.291954E-04
        31    2.970869E-03
        32    4.899477E-03
        33   -8.765581E-03
        34   -4.092194E-05
        35   -2.805210E-06
        36   -5.264200E-05
        37    2.293627E-05
        38    7.972318E-06
        39   -7.444978E-04
        40    3.196628E-05
        41   -4.208734E-06
        42    8.151244E-04
        43   -6.510780E-04
        44   -1.412241E-04
        45   -3.263168E-04
        46    9.803648E-04
        47   -5.147986E-03
        48   -8.001095E-02
        49    1.055462E-02
        50   -3.306170E-03
        51    1.570891E-06
        52    1.853161E-01
        53   -3.975571E-03
        54    1.695742E-06
        55    1.921356E-01
        56   -1.418176E-02
        57   -1.517224E-05
        58    1.795730E-01
        59    2.350449E-04
        60   -2.166990E-04
        61   -1.834596E-05
        62    7.266981E-08
        63   -2.688666E-04
        64   -4.715636E-08
        65    7.739560E-04
        66   -1.245254E-03
        67    4.712978E-04
        68   -1.930334E-07
        69   -2.110090E-03
        70   -1.076374E-07
        71    2.498172E-02
        72   -2.771479E-02
        73    2.733072E-03
        74   -2.458602E-06
        75    2.326402E-03
        76    5.839141E-07
        77   -1.206970E-05
        78    3.616740E-08
        79   -1.013365E-03
        80    2.597874E-06
        81   -2.901378E-08
        82    5.558031E-04
        83    1.359533E-05
        84   -1.950988E-08
        85    8.037689E-04
        86   -5.452035E-09
        87   -2.784612E-04
        88   -6.480745E-04
        89    2.111802E-03
        90   -6.600389E-03
        91    6.723328E-02
        92   -1.948286E-02
        93    4.248049E-03
        94    7.435664E-04
        95    2.602374E-02
        96   -4.226688E-03
        97   -1.044939E-04
        98    2.418924E-02
        99   -3.996334E-02
       100   -2.143182E-02
       101    1.836207E-02
       102    7.771707E-05
       103   -1.063439E-04
       104    2.862686E-05
       105    2.369446E-06
       106   -6.106811E-03
       107   -3.563784E-03
       108   -1.194881E-03
       109    6.571681E-04
       110    5.377134E-04
       111    1.227986E-03
       112   -1.387102E-02
       113   -6.754343E-03
       114   -1.746114E-03
       115    1.417311E-03
       116    3.288030E-04
       117   -2.969503E-03
       118    4.900228E-03
       119    8.766169E-03
       120   -4.092567E-05
       121    2.809054E-06
       122   -5.263714E-05
       123    2.293440E-05
       124   -7.958991E-06
       125   -7.444991E-04
       126    3.197315E-05
       127    4.190249E-06
       128    8.151192E-04
       129    6.510768E-04
       130    1.483125E-04
       131    3.190728E-04
       132    8.441508E-04
       133   -1.539025E-02
       134   -2.425219E-02
       135    2.436042E-02
       136   -3.834495E-03
       137    6.490266E-04
       138   -1.599615E-01
       139   -1.772248E-02
       140    1.013557E-02
       141   -1.621019E-01
       142   -5.332313E-03
       143   -1.530658E-02
       144   -1.024429E-01
       145    2.689124E-04
       146   -3.113290E-04
       147    4.241666E-05
       148   -2.298386E-05
       149   -1.271418E-03
       150    3.471945E-03
       151    1.425285E-03
       152   -1.436895E-03
       153    1.160957E-05
       154    2.706307E-03
       155   -5.411557E-03
       156    5.585462E-03
       157    1.071931E-02
       158   -7.387375E-03
       159   -3.331932E-03
       160   -2.206028E-02
       161    5.256456E-03
       162   -9.978998E-03
       163   -4.288462E-05
       164    6.387050E-06
       165    9.535736E-04
       166   -2.016423E-05
       167    3.950226E-05
       168   -2.322873E-04
       169    7.769998E-05
       170   -4.807139E-05
       171   -1.047066E-03
       172    3.945449E-04
       173   -1.661041E-03
       174   -3.785742E-03
       175    3.491069E-03
       176    3.718768E-02
       177   -1.133751E-01
       178    8.419553E-03
       179    1.379214E-02
       180    1.037441E-06
       181   -1.397793E-01
       182   -2.784845E-04
       183    1.003356E-06
       184   -1.427919E-01
       185   -8.710688E-02
       186    3.179908E-06
       187   -1.366440E-01
       188    8.295413E-04
       189   -5.057920E-04
       190   -3.237493E-04
       191   -8.369860E-09
       192    9.558326E-03
       193    1.099244E-07
       194   -3.020705E-03
       195    6.653307E-03
       196   -3.632603E-03
       197   -2.225511E-07
       198    2.394367E-02
       199    1.617676E-07
       200   -1.815114E-02
       201    1.886338E-02
       202   -7.122464E-04
       203   -6.637731E-08
       204    1.123028E-02
       205   -4.143398E-07
       206    1.813281E-04
       207   -1.056703E-09
       208    5.142669E-04
       209   -1.395925E-04
       210   -8.003119E-09
       211    9.104799E-04
       212   -1.036846E-04
       213    9.420835E-09
       214   -1.600441E-03
       215   -3.746438E-09
       216    1.480535E-04
       217    3.184866E-04
       218    8.452291E-04
       219   -1.539147E-02
       220   -2.425806E-02
       221    2.436126E-02
       222   -3.837947E-03
       223   -6.518222E-04
       224   -1.599633E-01
       225   -1.772290E-02
       226   -1.013758E-02
       227   -1.621039E-01
       228   -5.323900E-03
       229    1.530916E-02
       230   -1.024446E-01
       231    2.689999E-04
       232   -3.114602E-04
       233    4.246030E-05
       234    2.288346E-05
       235   -1.271488E-03
       236   -3.471988E-03
       237    1.424894E-03
       238   -1.436689E-03
       239    1.179488E-05
       240   -2.706404E-03
       241   -5.411569E-03
       242   -5.585462E-03
       243    1.071844E-02
       244   -7.386234E-03
       245   -3.332207E-03
       246    2.206073E-02
       247    5.255468E-03
       248    9.978582E-03
       249   -4.288761E-05
       250   -6.410240E-06
       251    9.535817E-04
       252   -2.017126E-05
       253   -3.950544E-05
       254   -2.322789E-04
       255    7.771102E-05
       256    4.810568E-05
       257   -1.047085E-03
       258   -3.945341E-04
       259   -7.043014E-04
       260   -3.257195E-04
       261   -2.537235E-02
       262    3.629241E-05
       263    7.838012E-06
       264    1.132495E-03
       265   -7.623675E-03
       266   -2.175146E-03
       267   -3.954857E-03
       268   -7.018905E-04
       269   -3.222386E-04
       270   -2.537050E-02
       271    3.652514E-05
       272   -8.178713E-06
       273    1.132414E-03
       274   -7.622949E-03
       275    2.175131E-03
       276   -3.954996E-03
       277   -1.143939E-03
       278   -4.809342E-03
       279    6.284874E-02
       280   -4.892021E-05
       281    2.387736E-04
       282   -6.503791E-03
       283   -9.766054E-04
       284   -5.953378E-03
       285   -2.483222E-03
       286   -1.143885E-03
       287   -4.809406E-03
       288    6.284917E-02
       289   -4.899514E-05
       290   -2.388729E-04
       291   -6.503950E-03
       292   -9.765601E-04
       293    5.953184E-03
       294   -2.483416E-03
       295   -1.571310E-04
       296   -3.670848E-04
       297    3.784611E-04
       298    1.147039E-03
       299   -1.277585E-02
       300   -5.647266E-03
       301    4.066531E-03
       302    1.772182E-06
       303    1.252701E-02
       304    3.226328E-03
       305    1.293045E-06
       306    1.463067E-02
       307   -2.716161E-03
       308   -3.013502E-07
       309   -3.825407E-05
       310    2.844513E-04
       311   -3.019002E-04
       312    1.744886E-05
       313   -4.692826E-07
       314    3.637665E-03
       315   -4.629793E-09
       316    7.493913E-04
       317   -6.910422E-04
       318   -5.834906E-05
       319   -1.241479E-06
       320    1.092798E-02
       321   -1.172249E-08
       322   -1.842326E-04
       323    4.268146E-03
       324   -4.083913E-03
       325    4.136704E-07
       326    2.971436E-03
       327   -7.550900E-08
       328    1.242927E-05
       329   -9.186810E-08
       330   -3.335803E-05
       331   -1.418747E-07
       332    1.466962E-07
       333    6.212710E-04
       334   -1.653374E-05
       335   -2.344226E-08
       336   -5.765165E-04
       337   -1.397891E-09
       338   -4.348585E-05
       339   -9.879147E-05
       340    9.146871E-05
       341    1.364883E-03
       342   -1.038781E-02
       343   -1.870595E-03
       344   -6.825769E-03
       345   -5.285561E-04
       346   -6.008801E-02
       347   -6.272982E-03
       348   -3.779755E-04
       349   -5.576753E-02
       350   -5.677245E-03
       351    4.890323E-04
       352   -4.386187E-02
       353   -9.448134E-04
       354    1.137079E-04
       355   -4.930822E-03
       356   -8.118987E-06
       357   -1.601874E-05
       358    2.413773E-05
       359    5.859053E-05
       360    5.827519E-06
       361    4.085976E-04
       362   -8.165096E-05
       363   -1.053085E-05
       364    9.218181E-05
       365    1.385677E-04
       366   -4.423059E-04
       367    1.327399E-03
       368   -1.868519E-04
       369    8.756409E-06
       370    1.780955E-04
       371   -3.463115E-05
       372   -7.780609E-04
       373    2.703457E-04
       374    8.770513E-06
       375   -3.930947E-06
       376    4.706610E-05
       377   -1.662475E-05
       378    1.554580E-05
       379    7.869541E-05
       380    4.857870E-06
       381   -1.027188E-05
       382   -1.418412E-04
       383    1.067747E-04
       384   -4.351399E-05
       385   -9.885285E-05
       386    9.161050E-05
       387    1.365756E-03
       388   -1.038815E-02
       389   -1.869171E-03
       390   -6.800842E-03
       391    5.091287E-04
       392   -6.008813E-02
       393   -6.250346E-03
       394    3.610111E-04
       395   -5.576763E-02
       396   -5.660213E-03
       397   -5.011224E-04
       398   -4.386231E-02
       399   -9.423599E-04
       400   -1.145853E-04
       401   -4.930851E-03
       402   -7.923336E-06
       403   -1.625944E-05
       404    2.418278E-05
       405   -5.859083E-05
       406    5.826452E-06
       407   -4.085984E-04
       408   -8.102655E-05
       409   -1.116180E-05
       410    9.218835E-05
       411   -1.384424E-04
       412   -4.423120E-04
       413   -1.327411E-03
       414   -1.860184E-04
       415    8.033228E-06
       416    1.779851E-04
       417    3.477418E-05
       418   -7.780976E-04
       419   -2.703544E-04
       420    8.788619E-06
       421    3.865639E-06
       422    4.706660E-05
       423   -1.665778E-05
       424   -1.546367E-05
       425    7.869520E-05
       426    4.866608E-06
       427    1.027737E-05
       428   -1.418417E-04
       429   -1.067758E-04
       430    7.670732E-03
       431    1.823271E-02
       432   -2.832230E-02
       433   -4.830772E-02
       434   -1.081254E-03
       435   -9.881580E-02
       436   -2.890139E-02
       437   -1.645627E-07
       438    2.497353E-01
       439   -3.326116E-02
       440    5.257410E-08
       441    2.456023E-01
       442   -4.319943E-02
       443    5.461781E-07
       444    2.006772E-01
       445   -2.372161E-04
       446   -7.545476E-05
       447    3.126708E-04
       448   -1.011899E-08
       449    1.230548E-03
       450   -1.638972E-08
       451   -4.166109E-04
       452   -2.769563E-03
       453    3.186174E-03
       454   -5.773641E-08
       455    4.448550E-03
       456    4.662560E-09
       457   -3.946983E-03
       458   -8.040090E-03
       459    1.198707E-02
       460   -3.292182E-08
       461    2.692269E-03
       462    1.317427E-07
       463   -2.362805E-04
       464   -3.690573E-10
       465   -8.834533E-04
       466   -1.462231E-04
       467    4.834830E-09
       468    3.965145E-04
       469    4.632266E-04
       470   -4.339687E-09
       471    7.887625E-04
       472   -1.446787E-10
       473    1.515526E-02
       474    3.066708E-02
       475    6.410919E-02
       476   -3.553770E-03
       477   -3.062523E-03
       478    1.252014E-02
       479   -1.357839E-03
       480   -7.010741E-03
       481    1.510243E-02
       482    1.515558E-02
       483    3.066773E-02
       484    6.411038E-02
       485   -3.553812E-03
       486    3.062624E-03
       487    1.252016E-02
       488   -1.358034E-03
       489    7.010915E-03
       490    1.510243E-02
 Sym= X
 Ene= 0.935262
 Spin= Alpha
 Occup= 0.935262
         1    2.904926E-03
         2    6.600945E-03
         3   -1.158845E-02
         4   -2.512358E-02
         5   -8.158890E+00
         6   -3.420643E+00
         7    1.482843E-02
         8    2.759111E-02
         9    7.843129E-03
        10    9.355249E-02
        11    1.709313E-02
        12    7.102477E-03
        13    5.919769E+00
        14   -5.453242E+00
        15   -7.111277E-03
        16   -3.051556E-04
        17    2.524691E-05
        18    2.799087E-04
        19    1.041998E-03
        20   -3.537968E-04
        21    6.524462E-05
        22    2.446445E-02
        23   -2.804340E-02
        24    3.578953E-03
        25    1.180968E-02
        26   -1.385017E-03
        27   -7.840566E-04
        28    1.463637E+00
        29   -1.630011E+00
        30    1.663734E-01
        31    2.152473E+00
        32    1.766190E-02
        33    9.539504E-03
        34    4.151460E-04
        35   -1.784955E-04
        36    4.311031E-05
        37    5.502203E-04
        38    6.142932E-04
        39   -9.937269E-05
        40   -1.107197E-03
        41   -3.748163E-04
        42    4.153415E-05
        43   -9.095661E-07
        44   -1.579898E-07
        45   -3.717817E-07
        46    9.952001E-07
        47   -3.326896E-06
        48   -2.331791E-04
        49    3.653629E-05
        50    2.050083E-07
        51    1.160780E-02
        52    1.880012E-06
        53   -1.435473E-07
        54   -5.505998E-02
        55    2.232983E-06
        56   -7.377146E-05
        57   -1.287342E+01
        58    6.391592E-05
        59   -5.899583E-09
        60   -3.478193E-09
        61    9.377776E-09
        62   -1.074053E-03