[Molden Format]
[Title]
ADC(2) - opt by CAM-B3LYP gaussian                                              
[Atoms] AU
 c     1    6 -.12594776649128E+01 -.22773101438193E+01 -.39940542897370E-01
 c     2    6 -.25470425655544E+01 -.11810788300000E-05 -.37653974276580E-01
 c     3    6 -.12594776649128E+01 0.22773077816617E+01 -.39959440158700E-01
 c     4    6 0.13393870965995E+01 0.22758904870620E+01 -.43795584208460E-01
 c     5    6 0.26846831306008E+01 -.11810788300000E-05 -.44211323957690E-01
 c     6    6 0.13394059938609E+01 -.22758928492196E+01 -.43776686947130E-01
 h     7    1 -.23144739703802E+01 -.40231336316857E+01 -.37313823572660E-01
 h     8    1 -.23144739703802E+01 0.40231312695281E+01 -.37332720833990E-01
 h     9    1 0.23577983041343E+01 0.40499086888311E+01 -.52469427158400E-01
 h    10    1 0.23577983041343E+01 -.40498921537274E+01 -.52431632635740E-01
 n    11    7 -.52968964450843E+01 -.11810788300000E-05 -.29906097131750E-01
 o    12    8 -.63725096626615E+01 0.20302827815708E+01 -.26599076399200E-01
 o    13    8 -.63725096626615E+01 -.20302851437285E+01 -.26655768183180E-01
 n    14    7 0.52734000627795E+01 -.11810788300000E-05 -.11796733492422E+00
 h    15    1 0.61922038058499E+01 0.16034881344586E+01 0.31500671664254E+00
 h    16    1 0.61921849085885E+01 -.16034904966163E+01 0.31500671664254E+00
[GTO]
    1 0
 s    6 1.00
 0.13575349682000E+05 0.60645503603591E-03
 0.20352333680000E+04 0.46979088884982E-02
 0.46322562359000E+03 0.24332477647552E-01
 0.13120019598000E+03 0.97399968307759E-01
 0.42853015891000E+02 0.30195584253780E+00
 0.15584185766000E+02 0.66233609137875E+00
 s    2 1.00
 0.62067138508000E+01 0.65595308539952E+00
 0.25764896527000E+01 0.37585633285142E+00
 s    1 1.00
 0.57696339419000E+00 0.10000000000000E+01
 s    1 1.00
 0.22972831358000E+00 0.10000000000000E+01
 s    1 1.00
 0.95164440028000E-01 0.10000000000000E+01
 s    1 1.00
 0.48475401370000E-01 0.10000000000000E+01
 p    4 1.00
 0.34697232244000E+02 0.11327220003114E-01
 0.79582622826000E+01 0.76169659202087E-01
 0.23780826883000E+01 0.30192252202676E+00
 0.81433208183000E+00 0.72785027349547E+00
 p    1 1.00
 0.28887547253000E+00 0.10000000000000E+01
 p    1 1.00
 0.10056823671000E+00 0.10000000000000E+01
 d    1 1.00
 0.10970000000000E+01 0.10000000000000E+01
 d    1 1.00
 0.31800000000000E+00 0.10000000000000E+01
 d    1 1.00
 0.90985336424000E-01 0.10000000000000E+01
 f    1 1.00
 0.76100000000000E+00 0.10000000000000E+01
 
    2 0
 s    6 1.00
 0.13575349682000E+05 0.60645503603591E-03
 0.20352333680000E+04 0.46979088884982E-02
 0.46322562359000E+03 0.24332477647552E-01
 0.13120019598000E+03 0.97399968307759E-01
 0.42853015891000E+02 0.30195584253780E+00
 0.15584185766000E+02 0.66233609137875E+00
 s    2 1.00
 0.62067138508000E+01 0.65595308539952E+00
 0.25764896527000E+01 0.37585633285142E+00
 s    1 1.00
 0.57696339419000E+00 0.10000000000000E+01
 s    1 1.00
 0.22972831358000E+00 0.10000000000000E+01
 s    1 1.00
 0.95164440028000E-01 0.10000000000000E+01
 s    1 1.00
 0.48475401370000E-01 0.10000000000000E+01
 p    4 1.00
 0.34697232244000E+02 0.11327220003114E-01
 0.79582622826000E+01 0.76169659202087E-01
 0.23780826883000E+01 0.30192252202676E+00
 0.81433208183000E+00 0.72785027349547E+00
 p    1 1.00
 0.28887547253000E+00 0.10000000000000E+01
 p    1 1.00
 0.10056823671000E+00 0.10000000000000E+01
 d    1 1.00
 0.10970000000000E+01 0.10000000000000E+01
 d    1 1.00
 0.31800000000000E+00 0.10000000000000E+01
 d    1 1.00
 0.90985336424000E-01 0.10000000000000E+01
 f    1 1.00
 0.76100000000000E+00 0.10000000000000E+01
 
    3 0
 s    6 1.00
 0.13575349682000E+05 0.60645503603591E-03
 0.20352333680000E+04 0.46979088884982E-02
 0.46322562359000E+03 0.24332477647552E-01
 0.13120019598000E+03 0.97399968307759E-01
 0.42853015891000E+02 0.30195584253780E+00
 0.15584185766000E+02 0.66233609137875E+00
 s    2 1.00
 0.62067138508000E+01 0.65595308539952E+00
 0.25764896527000E+01 0.37585633285142E+00
 s    1 1.00
 0.57696339419000E+00 0.10000000000000E+01
 s    1 1.00
 0.22972831358000E+00 0.10000000000000E+01
 s    1 1.00
 0.95164440028000E-01 0.10000000000000E+01
 s    1 1.00
 0.48475401370000E-01 0.10000000000000E+01
 p    4 1.00
 0.34697232244000E+02 0.11327220003114E-01
 0.79582622826000E+01 0.76169659202087E-01
 0.23780826883000E+01 0.30192252202676E+00
 0.81433208183000E+00 0.72785027349547E+00
 p    1 1.00
 0.28887547253000E+00 0.10000000000000E+01
 p    1 1.00
 0.10056823671000E+00 0.10000000000000E+01
 d    1 1.00
 0.10970000000000E+01 0.10000000000000E+01
 d    1 1.00
 0.31800000000000E+00 0.10000000000000E+01
 d    1 1.00
 0.90985336424000E-01 0.10000000000000E+01
 f    1 1.00
 0.76100000000000E+00 0.10000000000000E+01
 
    4 0
 s    6 1.00
 0.13575349682000E+05 0.60645503603591E-03
 0.20352333680000E+04 0.46979088884982E-02
 0.46322562359000E+03 0.24332477647552E-01
 0.13120019598000E+03 0.97399968307759E-01
 0.42853015891000E+02 0.30195584253780E+00
 0.15584185766000E+02 0.66233609137875E+00
 s    2 1.00
 0.62067138508000E+01 0.65595308539952E+00
 0.25764896527000E+01 0.37585633285142E+00
 s    1 1.00
 0.57696339419000E+00 0.10000000000000E+01
 s    1 1.00
 0.22972831358000E+00 0.10000000000000E+01
 s    1 1.00
 0.95164440028000E-01 0.10000000000000E+01
 s    1 1.00
 0.48475401370000E-01 0.10000000000000E+01
 p    4 1.00
 0.34697232244000E+02 0.11327220003114E-01
 0.79582622826000E+01 0.76169659202087E-01
 0.23780826883000E+01 0.30192252202676E+00
 0.81433208183000E+00 0.72785027349547E+00
 p    1 1.00
 0.28887547253000E+00 0.10000000000000E+01
 p    1 1.00
 0.10056823671000E+00 0.10000000000000E+01
 d    1 1.00
 0.10970000000000E+01 0.10000000000000E+01
 d    1 1.00
 0.31800000000000E+00 0.10000000000000E+01
 d    1 1.00
 0.90985336424000E-01 0.10000000000000E+01
 f    1 1.00
 0.76100000000000E+00 0.10000000000000E+01
 
    5 0
 s    6 1.00
 0.13575349682000E+05 0.60645503603591E-03
 0.20352333680000E+04 0.46979088884982E-02
 0.46322562359000E+03 0.24332477647552E-01
 0.13120019598000E+03 0.97399968307759E-01
 0.42853015891000E+02 0.30195584253780E+00
 0.15584185766000E+02 0.66233609137875E+00
 s    2 1.00
 0.62067138508000E+01 0.65595308539952E+00
 0.25764896527000E+01 0.37585633285142E+00
 s    1 1.00
 0.57696339419000E+00 0.10000000000000E+01
 s    1 1.00
 0.22972831358000E+00 0.10000000000000E+01
 s    1 1.00
 0.95164440028000E-01 0.10000000000000E+01
 s    1 1.00
 0.48475401370000E-01 0.10000000000000E+01
 p    4 1.00
 0.34697232244000E+02 0.11327220003114E-01
 0.79582622826000E+01 0.76169659202087E-01
 0.23780826883000E+01 0.30192252202676E+00
 0.81433208183000E+00 0.72785027349547E+00
 p    1 1.00
 0.28887547253000E+00 0.10000000000000E+01
 p    1 1.00
 0.10056823671000E+00 0.10000000000000E+01
 d    1 1.00
 0.10970000000000E+01 0.10000000000000E+01
 d    1 1.00
 0.31800000000000E+00 0.10000000000000E+01
 d    1 1.00
 0.90985336424000E-01 0.10000000000000E+01
 f    1 1.00
 0.76100000000000E+00 0.10000000000000E+01
 
    6 0
 s    6 1.00
 0.13575349682000E+05 0.60645503603591E-03
 0.20352333680000E+04 0.46979088884982E-02
 0.46322562359000E+03 0.24332477647552E-01
 0.13120019598000E+03 0.97399968307759E-01
 0.42853015891000E+02 0.30195584253780E+00
 0.15584185766000E+02 0.66233609137875E+00
 s    2 1.00
 0.62067138508000E+01 0.65595308539952E+00
 0.25764896527000E+01 0.37585633285142E+00
 s    1 1.00
 0.57696339419000E+00 0.10000000000000E+01
 s    1 1.00
 0.22972831358000E+00 0.10000000000000E+01
 s    1 1.00
 0.95164440028000E-01 0.10000000000000E+01
 s    1 1.00
 0.48475401370000E-01 0.10000000000000E+01
 p    4 1.00
 0.34697232244000E+02 0.11327220003114E-01
 0.79582622826000E+01 0.76169659202087E-01
 0.23780826883000E+01 0.30192252202676E+00
 0.81433208183000E+00 0.72785027349547E+00
 p    1 1.00
 0.28887547253000E+00 0.10000000000000E+01
 p    1 1.00
 0.10056823671000E+00 0.10000000000000E+01
 d    1 1.00
 0.10970000000000E+01 0.10000000000000E+01
 d    1 1.00
 0.31800000000000E+00 0.10000000000000E+01
 d    1 1.00
 0.90985336424000E-01 0.10000000000000E+01
 f    1 1.00
 0.76100000000000E+00 0.10000000000000E+01
 
    7 0
 s    3 1.00
 0.34061341000000E+02 0.25439307208879E-01
 0.51235746000000E+01 0.19008594890375E+00
 0.11646626000000E+01 0.85244113011042E+00
 s    1 1.00
 0.32723041000000E+00 0.10000000000000E+01
 s    1 1.00
 0.10307241000000E+00 0.10000000000000E+01
 p    1 1.00
 0.80000000000000E+00 0.10000000000000E+01
 p    1 1.00
 0.95774129632000E-01 0.10000000000000E+01
 
    8 0
 s    3 1.00
 0.34061341000000E+02 0.25439307208879E-01
 0.51235746000000E+01 0.19008594890375E+00
 0.11646626000000E+01 0.85244113011042E+00
 s    1 1.00
 0.32723041000000E+00 0.10000000000000E+01
 s    1 1.00
 0.10307241000000E+00 0.10000000000000E+01
 p    1 1.00
 0.80000000000000E+00 0.10000000000000E+01
 p    1 1.00
 0.95774129632000E-01 0.10000000000000E+01
 
    9 0
 s    3 1.00
 0.34061341000000E+02 0.25439307208879E-01
 0.51235746000000E+01 0.19008594890375E+00
 0.11646626000000E+01 0.85244113011042E+00
 s    1 1.00
 0.32723041000000E+00 0.10000000000000E+01
 s    1 1.00
 0.10307241000000E+00 0.10000000000000E+01
 p    1 1.00
 0.80000000000000E+00 0.10000000000000E+01
 p    1 1.00
 0.95774129632000E-01 0.10000000000000E+01
 
   10 0
 s    3 1.00
 0.34061341000000E+02 0.25439307208879E-01
 0.51235746000000E+01 0.19008594890375E+00
 0.11646626000000E+01 0.85244113011042E+00
 s    1 1.00
 0.32723041000000E+00 0.10000000000000E+01
 s    1 1.00
 0.10307241000000E+00 0.10000000000000E+01
 p    1 1.00
 0.80000000000000E+00 0.10000000000000E+01
 p    1 1.00
 0.95774129632000E-01 0.10000000000000E+01
 
   11 0
 s    6 1.00
 0.19730800647000E+05 0.58626402628763E-03
 0.29578958745000E+04 0.45428820586397E-02
 0.67322133595000E+03 0.23558413450084E-01
 0.19068249494000E+03 0.94709193292923E-01
 0.62295441898000E+02 0.29719784913376E+00
 0.22654161182000E+02 0.66916246895232E+00
 s    2 1.00
 0.89791477428000E+01 0.64596683630063E+00
 0.36863002370000E+01 0.38700574393705E+00
 s    1 1.00
 0.84660076805000E+00 0.10000000000000E+01
 s    1 1.00
 0.33647133771000E+00 0.10000000000000E+01
 s    1 1.00
 0.13647653675000E+00 0.10000000000000E+01
 s    1 1.00
 0.68441605847000E-01 0.10000000000000E+01
 p    4 1.00
 0.49200380510000E+02 0.11448825101764E-01
 0.11346790537000E+02 0.78422337970864E-01
 0.34273972411000E+01 0.30818094738830E+00
 0.11785525134000E+01 0.72027196368413E+00
 p    1 1.00
 0.41642204972000E+00 0.10000000000000E+01
 p    1 1.00
 0.14260826011000E+00 0.10000000000000E+01
 d    1 1.00
 0.16540000000000E+01 0.10000000000000E+01
 d    1 1.00
 0.46900000000000E+00 0.10000000000000E+01
 d    1 1.00
 0.12829642058000E+00 0.10000000000000E+01
 f    1 1.00
 0.10930000000000E+01 0.10000000000000E+01
 
   12 0
 s    6 1.00
 0.27032382631000E+05 0.57227335211155E-03
 0.40523871392000E+04 0.44353233492995E-02
 0.92232722710000E+03 0.23020107706038E-01
 0.26124070989000E+03 0.92822490667928E-01
 0.85354641351000E+02 0.29378500009671E+00
 0.31035035245000E+02 0.67401604501641E+00
 s    2 1.00
 0.12260860728000E+02 0.63839937025506E+00
 0.49987076005000E+01 0.39534587125718E+00
 s    1 1.00
 0.11703108158000E+01 0.10000000000000E+01
 s    1 1.00
 0.46474740994000E+00 0.10000000000000E+01
 s    1 1.00
 0.18504536357000E+00 0.10000000000000E+01
 s    1 1.00
 0.70288026270000E-01 0.10000000000000E+01
 p    4 1.00
 0.63274954801000E+02 0.12018332222616E-01
 0.14627049379000E+02 0.83005421790056E-01
 0.44501223456000E+01 0.31991743925964E+00
 0.15275799647000E+01 0.70715542916104E+00
 p    1 1.00
 0.52935117943000E+00 0.10000000000000E+01
 p    1 1.00
 0.17478421270000E+00 0.10000000000000E+01
 p    1 1.00
 0.51112745706000E-01 0.10000000000000E+01
 d    1 1.00
 0.23140000000000E+01 0.10000000000000E+01
 d    1 1.00
 0.64500000000000E+00 0.10000000000000E+01
 d    1 1.00
 0.14696477366000E+00 0.10000000000000E+01
 f    1 1.00
 0.14280000000000E+01 0.10000000000000E+01
 
   13 0
 s    6 1.00
 0.27032382631000E+05 0.57227335211155E-03
 0.40523871392000E+04 0.44353233492995E-02
 0.92232722710000E+03 0.23020107706038E-01
 0.26124070989000E+03 0.92822490667928E-01
 0.85354641351000E+02 0.29378500009671E+00
 0.31035035245000E+02 0.67401604501641E+00
 s    2 1.00
 0.12260860728000E+02 0.63839937025506E+00
 0.49987076005000E+01 0.39534587125718E+00
 s    1 1.00
 0.11703108158000E+01 0.10000000000000E+01
 s    1 1.00
 0.46474740994000E+00 0.10000000000000E+01
 s    1 1.00
 0.18504536357000E+00 0.10000000000000E+01
 s    1 1.00
 0.70288026270000E-01 0.10000000000000E+01
 p    4 1.00
 0.63274954801000E+02 0.12018332222616E-01
 0.14627049379000E+02 0.83005421790056E-01
 0.44501223456000E+01 0.31991743925964E+00
 0.15275799647000E+01 0.70715542916104E+00
 p    1 1.00
 0.52935117943000E+00 0.10000000000000E+01
 p    1 1.00
 0.17478421270000E+00 0.10000000000000E+01
 p    1 1.00
 0.51112745706000E-01 0.10000000000000E+01
 d    1 1.00
 0.23140000000000E+01 0.10000000000000E+01
 d    1 1.00
 0.64500000000000E+00 0.10000000000000E+01
 d    1 1.00
 0.14696477366000E+00 0.10000000000000E+01
 f    1 1.00
 0.14280000000000E+01 0.10000000000000E+01
 
   14 0
 s    6 1.00
 0.19730800647000E+05 0.58626402628763E-03
 0.29578958745000E+04 0.45428820586397E-02
 0.67322133595000E+03 0.23558413450084E-01
 0.19068249494000E+03 0.94709193292923E-01
 0.62295441898000E+02 0.29719784913376E+00
 0.22654161182000E+02 0.66916246895232E+00
 s    2 1.00
 0.89791477428000E+01 0.64596683630063E+00
 0.36863002370000E+01 0.38700574393705E+00
 s    1 1.00
 0.84660076805000E+00 0.10000000000000E+01
 s    1 1.00
 0.33647133771000E+00 0.10000000000000E+01
 s    1 1.00
 0.13647653675000E+00 0.10000000000000E+01
 s    1 1.00
 0.68441605847000E-01 0.10000000000000E+01
 p    4 1.00
 0.49200380510000E+02 0.11448825101764E-01
 0.11346790537000E+02 0.78422337970864E-01
 0.34273972411000E+01 0.30818094738830E+00
 0.11785525134000E+01 0.72027196368413E+00
 p    1 1.00
 0.41642204972000E+00 0.10000000000000E+01
 p    1 1.00
 0.14260826011000E+00 0.10000000000000E+01
 d    1 1.00
 0.16540000000000E+01 0.10000000000000E+01
 d    1 1.00
 0.46900000000000E+00 0.10000000000000E+01
 d    1 1.00
 0.12829642058000E+00 0.10000000000000E+01
 f    1 1.00
 0.10930000000000E+01 0.10000000000000E+01
 
   15 0
 s    3 1.00
 0.34061341000000E+02 0.25439307208879E-01
 0.51235746000000E+01 0.19008594890375E+00
 0.11646626000000E+01 0.85244113011042E+00
 s    1 1.00
 0.32723041000000E+00 0.10000000000000E+01
 s    1 1.00
 0.10307241000000E+00 0.10000000000000E+01
 p    1 1.00
 0.80000000000000E+00 0.10000000000000E+01
 p    1 1.00
 0.95774129632000E-01 0.10000000000000E+01
 
   16 0
 s    3 1.00
 0.34061341000000E+02 0.25439307208879E-01
 0.51235746000000E+01 0.19008594890375E+00
 0.11646626000000E+01 0.85244113011042E+00
 s    1 1.00
 0.32723041000000E+00 0.10000000000000E+01
 s    1 1.00
 0.10307241000000E+00 0.10000000000000E+01
 p    1 1.00
 0.80000000000000E+00 0.10000000000000E+01
 p    1 1.00
 0.95774129632000E-01 0.10000000000000E+01
 
[MO]
 Sym= X
 Ene= -0.251465
 Spin= Alpha
 Occup= -0.251465
         1   -5.189681E-05
         2   -1.198100E-04
         3    3.440943E-04
         4   -7.780333E-04
         5   -5.752353E-04
         6   -5.455584E-04
         7   -9.194219E-05
         8   -1.614761E-04
         9   -1.876129E-01
        10   -1.444943E-03
        11    3.261378E-04
        12   -1.886052E-01
        13    4.524824E-03
        14   -2.716547E-03
        15   -1.113036E-01
        16   -9.922007E-06
        17    4.907538E-06
        18    5.014469E-06
        19    7.116546E-06
        20   -4.935282E-03
        21   -5.604710E-04
        22   -2.868578E-04
        23    2.150605E-04
        24    7.179735E-05
        25   -6.130756E-07
        26   -9.788914E-03
        27    5.006950E-04
        28    5.941398E-04
        29   -4.708414E-04
        30   -1.232984E-04
        31    3.930739E-05
        32   -5.918708E-03
        33    2.826934E-03
        34   -9.476567E-06
        35   -3.269551E-07
        36    1.184524E-03
        37    2.600999E-06
        38    1.215271E-06
        39   -1.427788E-03
        40    1.011315E-05
        41   -7.766149E-07
        42   -1.614175E-04
        43   -7.825412E-06
        44   -7.377496E-08
        45   -1.682384E-07
        46    2.620254E-07
        47    3.978153E-07
        48    7.340025E-06
        49    1.089127E-06
        50   -1.979753E-07
        51    1.677076E-04
        52   -2.966298E-06
        53   -3.190921E-07
        54    7.802752E-04
        55   -3.132029E-06
        56   -1.974873E-06
        57   -5.807109E-03
        58   -2.073823E-06
        59    2.369952E-08
        60    3.497594E-08
        61   -5.867547E-08
        62    1.039625E-05
        63   -7.048872E-09
        64    7.112214E-03
        65    1.754716E-07
        66   -6.596994E-08
        67   -1.095017E-07
        68    2.456128E-04
        69    2.699584E-09
        70    1.630068E-02
        71   -1.025020E-06
        72    9.899081E-07
        73    3.511175E-08
        74   -4.385003E-04
        75   -1.595018E-07
        76    4.878668E-03
        77   -4.138648E-09
        78    1.936079E-06
        79    1.829614E-08
        80    1.068874E-08
        81    2.412135E-06
        82   -1.052257E-08
        83   -5.136159E-09
        84   -5.009657E-06
        85   -1.402428E-08
        86    1.039685E-03
        87    5.202625E-05
        88    1.201033E-04
        89   -3.445304E-04
        90    7.777308E-04
        91    5.805827E-04
        92    5.412621E-04
        93    9.260280E-05
        94   -1.604923E-04
        95    1.876123E-01
        96    1.445339E-03
        97    3.269693E-04
        98    1.886042E-01
        99   -4.516579E-03
       100   -2.716219E-03
       101    1.113039E-01
       102    9.935670E-06
       103   -4.916173E-06
       104   -5.019497E-06
       105    7.169262E-06
       106    4.935496E-03
       107   -5.603457E-04
       108    2.869645E-04
       109   -2.151566E-04
       110   -7.180790E-05
       111   -3.095975E-07
       112    9.789156E-03
       113    5.009237E-04
       114   -5.943473E-04
       115    4.712914E-04
       116    1.230560E-04
       117    3.739170E-05
       118    5.918964E-03
       119    2.826899E-03
       120    9.476460E-06
       121   -3.274517E-07
       122   -1.184515E-03
       123   -2.597509E-06
       124    1.222489E-06
       125    1.427798E-03
       126   -1.011650E-05
       127   -7.831663E-07
       128    1.613954E-04
       129   -7.840459E-06
       130   -3.759020E-07
       131   -3.930928E-06
       132    2.369485E-04
       133   -2.384251E-03
       134   -1.428096E-02
       135   -4.897627E-05
       136    3.973535E-04
       137    3.392665E-04
       138    2.024164E-01
       139    1.276374E-03
       140    6.577709E-04
       141    2.054584E-01
       142   -1.100558E-02
       143    9.383099E-03
       144    1.334619E-01
       145   -2.914512E-05
       146   -1.164318E-05
       147    4.078829E-05
       148    1.148104E-05
       149   -4.526207E-03
       150   -4.771172E-04
       151   -4.126910E-04
       152    1.349990E-04
       153    2.776920E-04
       154    1.724435E-04
       155   -7.861171E-03
       156   -2.406994E-04
       157   -7.543268E-04
       158    2.572356E-04
       159    4.970912E-04
       160    2.140796E-03
       161    7.183858E-03
       162   -3.839405E-03
       163    1.290320E-05
       164    2.524150E-06
       165   -1.335699E-03
       166   -9.057390E-06
       167    4.309402E-06
       168    1.466472E-03
       169   -8.254072E-06
       170   -7.695904E-06
       171    3.255562E-04
       172   -4.558696E-05
       173    2.545175E-08
       174    5.773319E-08
       175   -7.467621E-08
       176   -1.767622E-07
       177   -3.250989E-06
       178   -1.492297E-06
       179    2.462986E-07
       180   -5.015793E-04
       181   -1.093816E-06
       182    1.726877E-07
       183   -2.024670E-04
       184   -1.015236E-06
       185   -2.182688E-06
       186    2.906921E-02
       187   -1.100645E-06
       188    1.141896E-08
       189    4.562870E-08
       190   -5.704766E-08
       191   -2.039471E-05
       192    5.910759E-08
       193    7.720982E-03
       194   -7.115886E-08
       195    2.028911E-07
       196   -1.317323E-07
       197   -8.586143E-05
       198    1.230451E-07
       199    1.635664E-02
       200    4.737658E-07
       201   -4.621995E-07
       202   -1.156630E-08
       203    9.158054E-04
       204    1.577884E-07
       205   -1.225864E-02
       206    2.576335E-10
       207    7.988505E-06
       208    1.159251E-09
       209   -7.487785E-09
       210   -1.128444E-05
       211    1.482380E-08
       212    7.142133E-09
       213    5.667395E-07
       214   -1.637910E-08
       215   -1.195172E-03
       216    2.962177E-07
       217    3.750106E-06
       218   -2.366845E-04
       219    2.384487E-03
       220    1.426982E-02
       221    5.310476E-05
       222   -3.976031E-04
       223    3.372638E-04
       224   -2.024158E-01
       225   -1.276573E-03
       226    6.557577E-04
       227   -2.054582E-01
       228    1.101062E-02
       229    9.381094E-03
       230   -1.334623E-01
       231    2.916132E-05
       232    1.162173E-05
       233   -4.078304E-05
       234    1.150124E-05
       235    4.526050E-03
       236   -4.771610E-04
       237    4.126381E-04
       238   -1.349247E-04
       239   -2.777133E-04
       240    1.723209E-04
       241    7.861084E-03
       242   -2.407805E-04
       243    7.543433E-04
       244   -2.575940E-04
       245   -4.967493E-04
       246    2.142423E-03
       247   -7.183705E-03
       248   -3.839285E-03
       249   -1.290517E-05
       250    2.514468E-06
       251    1.335705E-03
       252    9.058537E-06
       253    4.298550E-06
       254   -1.466458E-03
       255    8.255570E-06
       256   -7.672062E-06
       257   -3.255790E-04
       258   -4.558579E-05
       259    6.826130E-05
       260    9.857561E-05
       261   -4.510535E-04
       262   -1.312580E-05
       263    1.104070E-05
       264   -7.724483E-03
       265   -4.732442E-04
       266   -8.758619E-06
       267   -6.548528E-03
       268   -6.829967E-05
       269   -9.823808E-05
       270    4.462941E-04
       271    1.318266E-05
       272    1.104631E-05
       273    7.724446E-03
       274    4.729143E-04
       275   -8.241035E-06
       276    6.548607E-03
       277   -8.679403E-05
       278   -3.213191E-04
       279   -3.885663E-03
       280    5.843911E-05
       281    5.489575E-05
       282    8.889920E-03
       283    4.291324E-04
       284   -1.119905E-04
       285    1.015171E-02
       286    8.681729E-05
       287    3.210390E-04
       288    3.891261E-03
       289   -5.842289E-05
       290    5.478289E-05
       291   -8.890026E-03
       292   -4.293619E-04
       293   -1.113659E-04
       294   -1.015173E-02
       295   -2.952499E-08
       296   -7.062141E-08
       297    9.571092E-08
       298    2.260572E-07
       299    5.166117E-07
       300    1.683444E-06
       301    3.072240E-07
       302   -1.728907E-05
       303   -2.637242E-08
       304    1.313889E-07
       305    2.864921E-05
       306   -3.398083E-08
       307   -8.808026E-07
       308    1.035884E-03
       309   -9.466164E-08
       310    2.929237E-08
       311   -3.320195E-09
       312   -2.597218E-08
       313   -2.743397E-06
       314   -5.799724E-08
       315   -8.584703E-04
       316    4.936528E-08
       317    3.956285E-08
       318   -8.892813E-08
       319    2.102723E-05
       320   -1.679340E-07
       321   -2.198182E-03
       322    5.514830E-08
       323    1.747398E-08
       324   -7.262228E-08
       325    1.496984E-04
       326   -9.224651E-08
       327   -1.936112E-03
       328    9.655259E-10
       329   -1.470210E-06
       330   -2.801637E-10
       331   -5.504629E-09
       332    3.707466E-06
       333   -9.283955E-09
       334    4.209240E-09
       335   -1.734971E-06
       336    9.659834E-09
       337    2.985892E-04
       338    1.062549E-06
       339    2.927989E-06
       340   -9.945144E-06
       341    4.517804E-05
       342   -3.892730E-04
       343    9.418572E-05
       344   -1.653450E-04
       345   -2.074059E-05
       346   -2.890673E-02
       347   -1.492517E-04
       348   -2.156461E-05
       349   -2.698333E-02
       350   -3.184799E-04
       351    1.026172E-04
       352   -1.921405E-02
       353   -2.337530E-05
       354   -1.584256E-05
       355   -1.003469E-03
       356   -3.329093E-07
       357    6.639387E-08
       358    2.665155E-07
       359    7.407783E-07
       360   -8.140955E-05
       361    2.295346E-04
       362   -4.706569E-06
       363    1.175966E-06
       364    3.530603E-06
       365    7.804937E-06
       366   -3.075167E-04
       367    9.266103E-04
       368   -3.496982E-05
       369    3.185312E-05
       370    3.116699E-06
       371    4.535224E-05
       372   -8.638582E-05
       373   -6.547252E-05
       374    2.728428E-07
       375   -2.147859E-07
       376    2.672188E-05
       377   -4.323964E-07
       378    8.389581E-07
       379    3.060108E-05
       380    6.633938E-08
       381   -5.507925E-07
       382   -6.645225E-05
       383    7.523606E-05
       384   -1.020534E-06
       385   -2.825634E-06
       386    9.819727E-06
       387   -4.552616E-05
       388    3.885294E-04
       389   -9.524751E-05
       390    1.640987E-04
       391   -2.118203E-05
       392    2.890870E-02
       393    1.480276E-04
       394   -2.204605E-05
       395    2.698516E-02
       396    3.179962E-04
       397    1.018778E-04
       398    1.921541E-02
       399    2.323204E-05
       400   -1.617833E-05
       401    1.003579E-03
       402    3.320024E-07
       403   -7.528386E-08
       404   -2.567185E-07
       405    7.289025E-07
       406    8.141209E-05
       407    2.295513E-04
       408    4.707035E-06
       409   -1.225049E-06
       410   -3.481986E-06
       411    7.747960E-06
       412    3.075409E-04
       413    9.266642E-04
       414    3.508582E-05
       415   -3.198086E-05
       416   -3.104963E-06
       417    4.539748E-05
       418    8.643600E-05
       419   -6.547660E-05
       420   -2.703223E-07
       421   -2.158885E-07
       422   -2.672417E-05
       423    4.254321E-07
       424    8.346349E-07
       425   -3.060335E-05
       426   -6.275669E-08
       427   -5.449900E-07
       428    6.645759E-05
       429    7.524032E-05
       430    6.054736E-08
       431    1.439754E-07
       432   -2.326008E-07
       433   -3.176459E-07
       434   -5.221582E-08
       435   -6.397356E-07
       436   -3.047013E-07
       437   -1.739416E-03
       438    2.054707E-06
       439   -3.698633E-07
       440   -1.780809E-03
       441    2.041762E-06
       442   -5.067352E-07
       443   -2.046147E-03
       444    1.646099E-06
       445   -1.370623E-09
       446    1.779993E-09
       447   -4.093697E-10
       448    2.288932E-05
       449    9.699885E-09
       450    3.069190E-04
       451    1.167819E-09
       452   -2.016411E-08
       453    1.899629E-08
       454    7.248489E-05
       455    3.153407E-08
       456    6.349910E-04
       457   -9.553593E-09
       458   -6.714690E-08
       459    7.670049E-08
       460    8.770318E-04
       461    2.258459E-08
       462    4.342919E-04
       463   -2.304489E-09
       464   -5.640848E-06
       465   -6.848079E-09
       466   -2.093316E-09
       467   -2.079552E-05
       468    2.652830E-09
       469    5.185112E-09
       470    2.836351E-05
       471    6.534831E-09
       472   -1.289413E-04
       473    6.096229E-05
       474   -1.663164E-04
       475   -4.158341E-03
       476   -7.632034E-05
       477    1.123584E-05
       478    3.807365E-04
       479    6.631049E-04
       480    5.964989E-04
       481    1.752073E-03
       482   -6.072426E-05
       483    1.667876E-04
       484    4.159233E-03
       485    7.625629E-05
       486    1.127690E-05
       487   -3.805403E-04
       488   -6.631495E-04
       489    5.965126E-04
       490   -1.751838E-03
 Sym= X
 Ene= -0.705271
 Spin= Alpha
 Occup= -0.705271
         1   -1.945918E-04
         2   -4.560330E-04
         3    1.605158E-03
         4   -5.601248E-03
         5    6.458557E-02
         6   -1.683992E-02
         7    1.800605E-03
         8    1.358281E-04
         9    4.989477E-02
        10   -4.739969E-03
        11    6.826307E-04
        12    4.777871E-02
        13   -3.443743E-02
        14    2.264770E-02
        15    2.655866E-02
        16   -2.398031E-05
        17   -3.064119E-06
        18    2.704443E-05
        19    5.674744E-06
        20   -6.223791E-03
        21    4.330514E-03
        22   -1.057286E-03
        23    6.149577E-04
        24    4.423284E-04
        25   -9.964053E-04
        26   -1.420103E-02
        27    8.009146E-03
        28   -1.584115E-03
        29    1.426628E-03
        30    1.574872E-04
        31    2.527518E-03
        32    3.765901E-03
        33   -8.066799E-03
        34   -3.699161E-05
        35    4.957755E-06
        36   -2.507400E-04
        37    1.903159E-05
        38   -1.747761E-06
        39   -6.428123E-04
        40    3.059786E-05
        41   -4.903765E-06
        42    9.792153E-04
        43   -7.359278E-04
        44    4.097509E-05
        45    8.822706E-05
        46    2.396364E-04
        47   -5.054164E-03
        48   -8.104186E-02
        49    8.182475E-03
        50    5.395396E-04
        51    1.060848E-06
        52    2.210002E-01
        53   -6.747074E-04
        54    6.488547E-07
        55    2.282173E-01
        56   -1.448065E-02
        57   -1.312688E-05
        58    1.922060E-01
        59    4.750389E-05
        60   -4.125286E-05
        61   -6.251027E-06
        62    2.551425E-08