 operating system is UNIX !
 hostname is         dlt13.abaxnet

 dscf (dlt13.abaxnet) : TURBOMOLE V6.6( 19103 ) 21 May 2014 at 15:45:05
 Copyright (C) 2014 TURBOMOLE GmbH, Karlsruhe


    2023-02-14 23:16:23.582 



                             d s c f - program

                   idea & directorship : reinhart ahlrichs
                   program development : marco haeser
                                         michael baer
                           dft version : oliver treutler


                          quantum chemistry group
                          universitaet  karlsruhe
                                  germany




                          References             
                                                 
          TURBOMOLE:                             
              R. Ahlrichs, M. Baer, M. Haeser, H. Horn, and
              C. Koelmel
              Electronic structure calculations on workstation
              computers: the program system TURBOMOLE
              Chem. Phys. Lett. 162: 165 (1989)
          Density Functional:                              
              O. Treutler and R. Ahlrichs                      
              Efficient Molecular Numerical Integration Schemes
              J. Chem. Phys. 102: 346 (1995)                   
          Parallel Version:                                
              Performance of parallel TURBOMOLE for Density    
              Functional Calculations                          
              M. v. Arnim and R. Ahlrichs                      
              J. Comp. Chem. 19: 1746 (1998)                   
                                         




              +--------------------------------------------------+
              | Atomic coordinate, charge and isotop information |
              +--------------------------------------------------+

                    atomic coordinates            atom    charge  isotop
          1.25932306    2.27956908   -0.03627861    c      6.000     0
          2.55042364    0.00000189   -0.03451171    c      6.000     0
          1.25932684   -2.27956530   -0.03628995    c      6.000     0
         -1.33696600   -2.27916089   -0.03958374    c      6.000     0
         -2.68560685   -0.00000189   -0.04011097    c      6.000     0
         -1.33696789    2.27915900   -0.03957051    c      6.000     0
          2.30680960    4.02960665   -0.03324371    h      1.000     0
          2.30681526   -4.02960287   -0.03326261    h      1.000     0
         -2.35532052   -4.05256682   -0.04520001    h      1.000     0
         -2.35532808    4.05256305   -0.04517355    h      1.000     0
          5.28781478    0.00000000   -0.02747248    n      7.000     0
          6.37645765   -2.02834888   -0.02448294    o      8.000     0
          6.37646143    2.02834699   -0.02451506    o      8.000     0
         -5.26366762    0.00000000   -0.10786332    n      7.000     0
         -6.19479049   -1.60767317    0.28377486    h      1.000     0
         -6.19478482    1.60767317    0.28378431    h      1.000     0
 
       center of nuclear mass  :    1.36325572   -0.00000005   -0.03608467
       center of nuclear charge:    1.22170806   -0.00000005   -0.03176012

   *************************************************************************
   ADC(2) - opt by CAM-B3LYP gaussian                                       
   *************************************************************************



              +--------------------------------------------------+
              |               basis set information              |
              +--------------------------------------------------+

              we will work with the 1s 3p 5d 7f 9g ... basis set
              ...i.e. with spherical basis functions...

   type   atoms  prim   cont   basis
   ---------------------------------------------------------------------------
    c        6     52     37   def2-TZVPD   [6s3p3d1f|12s6p3d1f]
    h        6     11      9   def2-TZVPD   [3s2p|5s2p]
    n        2     52     37   def2-TZVPD   [6s3p3d1f|12s6p3d1f]
    o        2     55     40   def2-TZVPD   [6s4p3d1f|12s7p3d1f]
   ---------------------------------------------------------------------------
   total:   16    592    430
   ---------------------------------------------------------------------------

   total number of primitive shells          :   74
   total number of contracted shells         :  162
   total number of cartesian basis functions :  490
   total number of SCF-basis functions       :  430

 ==============================================================================
                      COSMO switched on
 ==============================================================================
 COSMO: skip init. and read data from file
 This run uses frozen charges (from previous solvent iteration)
 Work to create reaction field =   6.883885123654609E-003

 integral neglect threshold       :  0.68E-11
 integral storage threshold THIZE :  0.10E-04
 integral storage threshold THIME :         5


 DENSITY CONVERGENCE CHECK SWITCHED ON !
 SCF CONVERGENCE IF RMS(delta[D]) <     0.1000000000E-07


 symmetry group of the molecule :   c1 

 the group has the following generators :
   c1(z)

    1 symmetry operations found

 there are 1 real representations :   a   

 maximum number of shells which are related by symmetry :  1


    mo occupation :
   irrep   mo's   occupied
    a      430       36
 
 number of basis functions   :          430
 number of occupied orbitals :           36
 

          ------------------------
          nuclear repulsion energy  :   498.644801451    
          ------------------------

 
          -----------------
          -S,T+V- integrals
          -----------------

 1e-integrals will be neglected if expon. factor < 0.682033E-12
 
   Difference densities algorithm switched on.
   The maximal number of linear combinations of
   difference densities is          20 .

 automatic virtual orbital shift switched on 
      shift if e(lumo)-e(homo) < 0.10000000    


 DIIS switched on: error vector is FDS-SDF
 Max. Iterations for DIIS is     :   5
 DIIS matrix (see manual) 
    Scaling factor of diagonals  :  1.200
    threshold for scaling factor :  0.000

 scf convergence criterion : increment of total energy < .1000000D-06
                  and increment of one-electron energy < .1000000D-03

  MOs are in ASCII format !


 reading orbital data $scfmo  from file mos . 

 orbital characterization : scfconv=7
 

 DSCF restart information will be dumped onto file mos

 COSMO: use frozen qcos
 
                                              current damping :  0.300
 ITERATION  ENERGY          1e-ENERGY        2e-ENERGY     RMS[dD(SAO)]   TOL
   1  -489.41021759516    -1655.6655310     667.61051193    0.000D+00 0.680D-11
                          Ediel =    -0.007949627900
          max. resid. norm for Fia-block=  6.447D-05 for orbital     31a         
          max. resid. fock norm         =  1.466D-04 for orbital    122a         
          Delta Eig. =     0.0032050282 eV 
 COSMO: use frozen qcos
 
                                              current damping :  0.300
 ITERATION  ENERGY          1e-ENERGY        2e-ENERGY     RMS[dD(SAO)]   TOL
   2  -489.41021763910    -1655.6659825     667.61096338    0.804D-05 0.431D-11
                          Ediel =    -0.007945706597
          Norm of current diis error: 0.30385E-03
          max. resid. norm for Fia-block=  2.525D-05 for orbital     31a         
          max. resid. fock norm         =  2.929D-05 for orbital     31a         
          Delta Eig. =     0.0012764233 eV 
 COSMO: use frozen qcos
 
                                              current damping :  0.350
 ITERATION  ENERGY          1e-ENERGY        2e-ENERGY     RMS[dD(SAO)]   TOL
   3  -489.41021764659    -1655.6658698     667.61085073    0.280D-05 0.341D-11
                          Ediel =    -0.007944337180
          Norm of current diis error: 0.13663E-03
          max. resid. norm for Fia-block=  1.331D-05 for orbital     36a         
          max. resid. fock norm         =  1.680D-05 for orbital     37a         
          Delta Eig. =     0.0003502282 eV 
 COSMO: use frozen qcos
 
                                              current damping :  0.400
 ITERATION  ENERGY          1e-ENERGY        2e-ENERGY     RMS[dD(SAO)]   TOL
   4  -489.41021764841    -1655.6659168     667.61089769    0.105D-05 0.296D-11
                          Ediel =    -0.007943601757
          Norm of current diis error: 0.74715E-04
          max. resid. norm for Fia-block=  8.897D-06 for orbital     36a         
          max. resid. fock norm         =  1.455D-05 for orbital    186a         
          Delta Eig. =     0.0001784484 eV 
 COSMO: use frozen qcos
 
                                              current damping :  0.450
 ITERATION  ENERGY          1e-ENERGY        2e-ENERGY     RMS[dD(SAO)]   TOL
   5  -489.41021764824    -1655.6659051     667.61088604    0.502D-06 0.265D-11
                          Ediel =    -0.007943265439
          Norm of current diis error: 0.42851E-04
          max. resid. norm for Fia-block=  5.109D-06 for orbital     36a         
          max. resid. fock norm         =  1.758D-05 for orbital    186a         
 mo-orthogonalization: Cholesky decomposition
          Delta Eig. =     0.0001375775 eV 
 COSMO: use frozen qcos

 ENERGY & DENSITY CONVERGED !

 
                                              current damping :  0.500
 ITERATION  ENERGY          1e-ENERGY        2e-ENERGY     RMS[dD(SAO)]   TOL
   6  -489.41021764583    -1655.6659052     667.61088607    0.421D-06 0.238D-11
                          Ediel =    -0.007943107320
          max. resid. norm for Fia-block=  2.315D-06 for orbital     36a         
          max. resid. fock norm         =  1.813D-05 for orbital    186a         
 COSMO: write data to file cosmotransfer

 convergence criteria satisfied after  6 iterations


   *************************************************************************
   ADC(2) - opt by CAM-B3LYP gaussian                                       
   *************************************************************************


                  ------------------------------------------ 
                 |  total energy      =   -489.41021764583  |
                  ------------------------------------------ 
                 :  kinetic energy    =    488.91962342830  :
                 :  potential energy  =   -978.32984107413  :
                 :  virial theorem    =      1.99899758076  :
                 :  wavefunction norm =      1.00000000000  :
                  .......................................... 


 orbitals $scfmo  will be written to file mos

    irrep                 32a         33a         34a         35a         36a   
 eigenvalues H         -0.48462    -0.47939    -0.45121    -0.36980    -0.32266
            eV         -13.1873    -13.0451    -12.2780    -10.0627     -8.7801
 occupation              2.0000      2.0000      2.0000      2.0000      2.0000 

    irrep                 37a         38a         39a         40a         41a   
 eigenvalues H          0.05287     0.06313     0.07974     0.08003     0.10015
            eV           1.4388      1.7179      2.1699      2.1777      2.7252
 
 ==============================================================================
                                  COSMO RESULTS
 ==============================================================================
  PARAMETER:
    nppa:      1082
    nspa:        92
    nsph:        32
    nps:        663
    npspher:    311
    disex:   10.0000    
    disex2:  4392.58    
    rsolv [A]: 1.3000
    routf:     0.8500
    phsran:    0.0    
    ampran:   0.10E-04
    cavity:  closed
    epsilon:     2.017
    refind:     1.300
    fepsi:      0.4040524
  CAVITY VOLUME/AREA [a.u.]:
    surface: V1.0, A matrix: V1.0
    area:   573.11
    volume:  1037.69
  SCREENING CHARGE:
    cosmo      :  -0.029829
    correction :   0.029187
    total      :  -0.000642
  ENERGIES [a.u.]:
    Total energy            =     -489.4102176458
    Total energy + OC corr. =     -489.4100246005
    Dielectric energy       =       -0.0079431073
    Diel. energy + OC corr. =       -0.0077500620
  ELEMENT RADIUS [A]: ATOM LIST
    c  2.00: 1-6
    h  1.30: 7-10,15,16
    n  1.83: 11,14
    o  1.72: 12,13
 ==============================================================================
 
 
 
 ==============================================================================
                           electrostatic moments
 ==============================================================================
 
              nuc           elec       ->  total
 ------------------------------------------------------------------------------
                          charge      
 ------------------------------------------------------------------------------
          72.000000     -72.000000      -0.000000
 
 ------------------------------------------------------------------------------
                       dipole moment  
 ------------------------------------------------------------------------------
   x      87.962981     -91.162517      -3.199537
   y      -0.000004       0.000073       0.000069
   z      -2.286728       2.549098       0.262370
 
   | dipole moment | =     3.2103 a.u. =     8.1597 debye 
 
 ------------------------------------------------------------------------------
                     quadrupole moment
 ------------------------------------------------------------------------------
  xx    1261.490144   -1313.128807     -51.638663
  yy     261.010306    -299.959142     -38.948836
  zz       0.315079     -45.581116     -45.266036
  xy      -0.000036      -0.000551      -0.000588
  xz      -2.793674       1.023426      -1.770248
  yz       0.000013       0.000076       0.000089
 
     1/3  trace=     -45.284512
     anisotropy=      11.409465
 
 ==============================================================================
 


    ------------------------------------------------------------------------
         total  cpu-time :  6 minutes and 27 seconds
         total wall-time :  6 minutes and 28 seconds
    ------------------------------------------------------------------------


   ****  dscf : all done  ****


    2023-02-14 23:22:51.979 

