 operating system is UNIX !
 hostname is         dlt13.abaxnet

 dscf (dlt13.abaxnet) : TURBOMOLE V6.6( 19103 ) 21 May 2014 at 15:45:05
 Copyright (C) 2014 TURBOMOLE GmbH, Karlsruhe


    2023-02-14 04:33:00.450 



                             d s c f - program

                   idea & directorship : reinhart ahlrichs
                   program development : marco haeser
                                         michael baer
                           dft version : oliver treutler


                          quantum chemistry group
                          universitaet  karlsruhe
                                  germany




                          References             
                                                 
          TURBOMOLE:                             
              R. Ahlrichs, M. Baer, M. Haeser, H. Horn, and
              C. Koelmel
              Electronic structure calculations on workstation
              computers: the program system TURBOMOLE
              Chem. Phys. Lett. 162: 165 (1989)
          Density Functional:                              
              O. Treutler and R. Ahlrichs                      
              Efficient Molecular Numerical Integration Schemes
              J. Chem. Phys. 102: 346 (1995)                   
          Parallel Version:                                
              Performance of parallel TURBOMOLE for Density    
              Functional Calculations                          
              M. v. Arnim and R. Ahlrichs                      
              J. Comp. Chem. 19: 1746 (1998)                   
                                         




              +--------------------------------------------------+
              | Atomic coordinate, charge and isotop information |
              +--------------------------------------------------+

                    atomic coordinates            atom    charge  isotop
          1.25932306    2.27956908   -0.03627861    c      6.000     0
          2.55042364    0.00000189   -0.03451171    c      6.000     0
          1.25932684   -2.27956530   -0.03628995    c      6.000     0
         -1.33696600   -2.27916089   -0.03958374    c      6.000     0
         -2.68560685   -0.00000189   -0.04011097    c      6.000     0
         -1.33696789    2.27915900   -0.03957051    c      6.000     0
          2.30680960    4.02960665   -0.03324371    h      1.000     0
          2.30681526   -4.02960287   -0.03326261    h      1.000     0
         -2.35532052   -4.05256682   -0.04520001    h      1.000     0
         -2.35532808    4.05256305   -0.04517355    h      1.000     0
          5.28781478    0.00000000   -0.02747248    n      7.000     0
          6.37645765   -2.02834888   -0.02448294    o      8.000     0
          6.37646143    2.02834699   -0.02451506    o      8.000     0
         -5.26366762    0.00000000   -0.10786332    n      7.000     0
         -6.19479049   -1.60767317    0.28377486    h      1.000     0
         -6.19478482    1.60767317    0.28378431    h      1.000     0
 
       center of nuclear mass  :    1.36325572   -0.00000005   -0.03608467
       center of nuclear charge:    1.22170806   -0.00000005   -0.03176012

   *************************************************************************
   ADC(2) - opt by CAM-B3LYP gaussian                                       
   *************************************************************************



              +--------------------------------------------------+
              |               basis set information              |
              +--------------------------------------------------+

              we will work with the 1s 3p 5d 7f 9g ... basis set
              ...i.e. with spherical basis functions...

   type   atoms  prim   cont   basis
   ---------------------------------------------------------------------------
    c        6     52     37   def2-TZVPD   [6s3p3d1f|12s6p3d1f]
    h        6     11      9   def2-TZVPD   [3s2p|5s2p]
    n        2     52     37   def2-TZVPD   [6s3p3d1f|12s6p3d1f]
    o        2     55     40   def2-TZVPD   [6s4p3d1f|12s7p3d1f]
   ---------------------------------------------------------------------------
   total:   16    592    430
   ---------------------------------------------------------------------------

   total number of primitive shells          :   74
   total number of contracted shells         :  162
   total number of cartesian basis functions :  490
   total number of SCF-basis functions       :  430

 ==============================================================================
                      COSMO switched on
 ==============================================================================
 COSMO stati: segments per atom: H   32 other atoms   92

 symmetry group of the molecule :   c1 

 the group has the following generators :
   c1(z)

    1 symmetry operations found
 COSMO statistics: nps    663 npspher:    311

 symmetry group of the molecule :   c1 

 the group has the following generators :
   c1(z)

    1 symmetry operations found
 COSMO surface:
   number of segments:  663
   area (bohr**2):      573.107744
   volume (bohr**3):   1037.690917
 COSMO: check number of disjunct cavities:

       ... OK contiguous cavity found

 integral neglect threshold       :  0.68E-11
 integral storage threshold THIZE :  0.10E-04
 integral storage threshold THIME :         5


 DENSITY CONVERGENCE CHECK SWITCHED ON !
 SCF CONVERGENCE IF RMS(delta[D]) <     0.1000000000E-07


 symmetry group of the molecule :   c1 

 the group has the following generators :
   c1(z)

    1 symmetry operations found

 there are 1 real representations :   a   

 maximum number of shells which are related by symmetry :  1


    mo occupation :
   irrep   mo's   occupied
    a      430       36
 
 number of basis functions   :          430
 number of occupied orbitals :           36
 

          ------------------------
          nuclear repulsion energy  :   498.644801451    
          ------------------------

 
          -----------------
          -S,T+V- integrals
          -----------------

 1e-integrals will be neglected if expon. factor < 0.682033E-12
 
   Difference densities algorithm switched on.
   The maximal number of linear combinations of
   difference densities is          20 .

 automatic virtual orbital shift switched on 
      shift if e(lumo)-e(homo) < 0.10000000    


 DIIS switched on: error vector is FDS-SDF
 Max. Iterations for DIIS is     :   5
 DIIS matrix (see manual) 
    Scaling factor of diagonals  :  1.200
    threshold for scaling factor :  0.000

 scf convergence criterion : increment of total energy < .1000000D-06
                  and increment of one-electron energy < .1000000D-03


 <geterg> : there is no data group $energy 

  MOs are in ASCII format !


 reading orbital data $scfmo  from file mos . 

 orbital characterization : expanded
 
 mo provided and orthogonalized by Cholesky decomposition

 DSCF restart information will be dumped onto file mos

 
                                              current damping :  0.300
 ITERATION  ENERGY          1e-ENERGY        2e-ENERGY     RMS[dD(SAO)]   TOL
   1  -487.41695000623    -1642.0119462     655.95019472    0.000D+00 0.680D-11
                          Ediel =    -0.031293569238
          max. resid. norm for Fia-block=  4.161D-01 for orbital     22a         
          max. resid. fock norm         =  9.185D+00 for orbital    168a         
          Delta Eig. =   933.9373226718 eV 
 
                                              current damping :  0.250
 ITERATION  ENERGY          1e-ENERGY        2e-ENERGY     RMS[dD(SAO)]   TOL
   2  -489.19931349956    -1654.4848811     666.64076617    0.512D-01 0.675D-11
                          Ediel =    -0.012327168642
          Norm of current diis error:  2.5534    
          max. resid. norm for Fia-block=  1.508D-01 for orbital     11a         
          max. resid. fock norm         =  3.332D-01 for orbital    415a         
          Delta Eig. =   212.6333351148 eV 
 
                                              current damping :  0.150
 ITERATION  ENERGY          1e-ENERGY        2e-ENERGY     RMS[dD(SAO)]   TOL
   3  -489.36598660421    -1655.1572017     667.14641361    0.103D-01 0.422D-11
                          Ediel =    -0.010289541327
          Norm of current diis error:  1.0081    
          max. resid. norm for Fia-block=  6.171D-02 for orbital     24a         
          max. resid. fock norm         =  7.079D-02 for orbital     24a         
          Delta Eig. =    49.9952130156 eV 
 
                                              current damping :  0.100
 ITERATION  ENERGY          1e-ENERGY        2e-ENERGY     RMS[dD(SAO)]   TOL
   4  -489.40545301506    -1655.4967988     667.44654436    0.312D-02 0.340D-11
                          Ediel =    -0.008512905492
          Norm of current diis error: 0.28438    
          max. resid. norm for Fia-block=  1.693D-02 for orbital     23a         
          max. resid. fock norm         =  2.016D-02 for orbital     11a         
          Delta Eig. =     5.8254824855 eV 
 
                                              current damping :  0.100
 ITERATION  ENERGY          1e-ENERGY        2e-ENERGY     RMS[dD(SAO)]   TOL
   5  -489.40964110254    -1655.7028980     667.64845545    0.903D-03 0.311D-11
                          Ediel =    -0.008366643068
          Norm of current diis error: 0.86820E-01
          max. resid. norm for Fia-block=  6.204D-03 for orbital     36a         
          max. resid. fock norm         =  1.115D-02 for orbital    425a         
 mo-orthogonalization: Cholesky decomposition
          Delta Eig. =     0.5633308917 eV 
 
                                              current damping :  0.150
 ITERATION  ENERGY          1e-ENERGY        2e-ENERGY     RMS[dD(SAO)]   TOL
   6  -489.41021666993    -1655.6643009     667.60928280    0.297D-03 0.292D-11
                          Ediel =    -0.008279873917
          Norm of current diis error: 0.34681E-01
          max. resid. norm for Fia-block=  3.405D-03 for orbital     36a         
          max. resid. fock norm         =  3.566D-03 for orbital     36a         
          Delta Eig. =     0.1169269214 eV 
 
                                              current damping :  0.100
 ITERATION  ENERGY          1e-ENERGY        2e-ENERGY     RMS[dD(SAO)]   TOL
   7  -489.41034281199    -1655.6601060     667.60496174    0.163D-03 0.275D-11
                          Ediel =    -0.008231704698
          Norm of current diis error: 0.15959E-01
          max. resid. norm for Fia-block=  1.796D-03 for orbital     36a         
          max. resid. fock norm         =  1.936D-03 for orbital     36a         
          Delta Eig. =     0.0501078197 eV 
 
                                              current damping :  0.150
 ITERATION  ENERGY          1e-ENERGY        2e-ENERGY     RMS[dD(SAO)]   TOL
   8  -489.41037240252    -1655.6627581     667.60758429    0.802D-04 0.260D-11
                          Ediel =    -0.008214428918
          Norm of current diis error: 0.53355E-02
          max. resid. norm for Fia-block=  6.653D-04 for orbital     36a         
          max. resid. fock norm         =  6.771D-04 for orbital     36a         
          Delta Eig. =     0.0136219987 eV 
 
                                              current damping :  0.200
 ITERATION  ENERGY          1e-ENERGY        2e-ENERGY     RMS[dD(SAO)]   TOL
   9  -489.41037587575    -1655.6593284     667.60415111    0.248D-04 0.251D-11
                          Ediel =    -0.008198743175
          Norm of current diis error: 0.19983E-02
          max. resid. norm for Fia-block=  2.420D-04 for orbital     36a         
          max. resid. fock norm         =  2.597D-04 for orbital     36a         
          Delta Eig. =     0.0060069494 eV 
 
                                              current damping :  0.250
 ITERATION  ENERGY          1e-ENERGY        2e-ENERGY     RMS[dD(SAO)]   TOL
  10  -489.41037632495    -1655.6594677     667.60428989    0.749D-05 0.243D-11
                          Ediel =    -0.008193455210
          Norm of current diis error: 0.83824E-03
          max. resid. norm for Fia-block=  1.136D-04 for orbital     36a         
          max. resid. fock norm         =  1.154D-04 for orbital     36a         
 mo-orthogonalization: Cholesky decomposition
          Delta Eig. =     0.0025203099 eV 
 
                                              current damping :  0.300
 ITERATION  ENERGY          1e-ENERGY        2e-ENERGY     RMS[dD(SAO)]   TOL
  11  -489.41037641553    -1655.6592833     667.60410542    0.346D-05 0.236D-11
                          Ediel =    -0.008190486463
          Norm of current diis error: 0.45010E-03
          max. resid. norm for Fia-block=  5.519D-05 for orbital     36a         
          max. resid. fock norm         =  5.855D-05 for orbital     37a         
          Delta Eig. =     0.0014956016 eV 
 
                                              current damping :  0.150
 ITERATION  ENERGY          1e-ENERGY        2e-ENERGY     RMS[dD(SAO)]   TOL
  12  -489.41037644147    -1655.6592317     667.60405382    0.185D-05 0.227D-11
                          Ediel =    -0.008188710621
          Norm of current diis error: 0.23379E-03
          max. resid. norm for Fia-block=  3.521D-05 for orbital     36a         
          max. resid. fock norm         =  3.543D-05 for orbital     36a         
          Delta Eig. =     0.0005620395 eV 
 
                                              current damping :  0.100
 ITERATION  ENERGY          1e-ENERGY        2e-ENERGY     RMS[dD(SAO)]   TOL
  13  -489.41037645101    -1655.6591649     667.60398698    0.118D-05 0.217D-11
                          Ediel =    -0.008187749110
          Norm of current diis error: 0.12500E-03
          max. resid. norm for Fia-block=  1.746D-05 for orbital     36a         
          max. resid. fock norm         =  2.809D-05 for orbital    186a         
          Delta Eig. =     0.0005173658 eV 
 
                                              current damping :  0.150
 ITERATION  ENERGY          1e-ENERGY        2e-ENERGY     RMS[dD(SAO)]   TOL
  14  -489.41037645435    -1655.6591741     667.60399616    0.820D-06 0.204D-11
                          Ediel =    -0.008187201446
          Norm of current diis error: 0.60187E-04
          max. resid. norm for Fia-block=  8.379D-06 for orbital     36a         
          max. resid. fock norm         =  2.986D-05 for orbital    186a         
          Delta Eig. =     0.0002647125 eV 
 
                                              current damping :  0.200
 ITERATION  ENERGY          1e-ENERGY        2e-ENERGY     RMS[dD(SAO)]   TOL
  15  -489.41037645512    -1655.6591537     667.60397576    0.526D-06 0.194D-11
                          Ediel =    -0.008187047422
          Norm of current diis error: 0.27250E-04
          max. resid. norm for Fia-block=  4.445D-06 for orbital     35a         
          max. resid. fock norm         =  2.480D-05 for orbital    186a         
 mo-orthogonalization: Cholesky decomposition
          Delta Eig. =     0.0002810292 eV 

 ENERGY & DENSITY CONVERGED !

 
                                              current damping :  0.250
 ITERATION  ENERGY          1e-ENERGY        2e-ENERGY     RMS[dD(SAO)]   TOL
  16  -489.41037645577    -1655.6591551     667.60397720    0.423D-06 0.194D-11
                          Ediel =    -0.008186988989
          max. resid. norm for Fia-block=  7.932D-07 for orbital     35a         
          max. resid. fock norm         =  6.764D-06 for orbital    186a         
 COSMO: write data to file cosmo_transfer.tmp

 convergence criteria satisfied after 16 iterations


   *************************************************************************
   ADC(2) - opt by CAM-B3LYP gaussian                                       
   *************************************************************************


                  ------------------------------------------ 
                 |  total energy      =   -489.41037645577  |
                  ------------------------------------------ 
                 :  kinetic energy    =    488.91951741202  :
                 :  potential energy  =   -978.32989386779  :
                 :  virial theorem    =      1.99899703997  :
                 :  wavefunction norm =      1.00000000000  :
                  .......................................... 


 <geterg> : there is no data group $energy 


 <skperg> : $end is missing 


 orbitals $scfmo  will be written to file mos

    irrep                 32a         33a         34a         35a         36a   
 eigenvalues H         -0.48566    -0.47893    -0.45270    -0.36927    -0.32235
            eV         -13.2156    -13.0325    -12.3186    -10.0483     -8.7716
 occupation              2.0000      2.0000      2.0000      2.0000      2.0000 

    irrep                 37a         38a         39a         40a         41a   
 eigenvalues H          0.05242     0.06348     0.07983     0.08000     0.10033
            eV           1.4263      1.7273      2.1722      2.1769      2.7301
 
 ==============================================================================
                                  COSMO RESULTS
 ==============================================================================
  PARAMETER:
    nppa:      1082
    nspa:        92
    nsph:        32
    nps:        663
    npspher:    311
    disex:   10.0000    
    disex2:  4392.58    
    rsolv [A]: 1.3000
    routf:     0.8500
    phsran:    0.0    
    ampran:   0.10E-04
    cavity:  closed
    epsilon:     2.017
    refind:     1.300
    fepsi:      0.4040524
  CAVITY VOLUME/AREA [a.u.]:
    surface: V1.0, A matrix: V1.0
    area:   573.11
    volume:  1037.69
  SCREENING CHARGE:
    cosmo      :  -0.025671
    correction :   0.024928
    total      :  -0.000743
  ENERGIES [a.u.]:
    Total energy            =     -489.4103764558
    Total energy + OC corr. =     -489.4104424691
    Dielectric energy       =       -0.0081869890
    Diel. energy + OC corr. =       -0.0082530023
  ELEMENT RADIUS [A]: ATOM LIST
    c  2.00: 1-6
    h  1.30: 7-10,15,16
    n  1.83: 11,14
    o  1.72: 12,13
 ==============================================================================
 
 
 
 ==============================================================================
                           electrostatic moments
 ==============================================================================
 
              nuc           elec       ->  total
 ------------------------------------------------------------------------------
                          charge      
 ------------------------------------------------------------------------------
          72.000000     -72.000000      -0.000000
 
 ------------------------------------------------------------------------------
                       dipole moment  
 ------------------------------------------------------------------------------
   x      87.962981     -91.188011      -3.225031
   y      -0.000004       0.000139       0.000135
   z      -2.286728       2.550405       0.263677
 
   | dipole moment | =     3.2358 a.u. =     8.2246 debye 
 
 ------------------------------------------------------------------------------
                     quadrupole moment
 ------------------------------------------------------------------------------
  xx    1261.490144   -1313.335241     -51.845097
  yy     261.010306    -299.947237     -38.936932
  zz       0.315079     -45.577200     -45.262121
  xy      -0.000036      -0.000476      -0.000512
  xz      -2.793674       1.017821      -1.775853
  yz       0.000013       0.000214       0.000227
 
     1/3  trace=     -45.348050
     anisotropy=      11.594961
 
 ==============================================================================
 


    ------------------------------------------------------------------------
         total  cpu-time : 18 minutes and 56 seconds
         total wall-time : 19 minutes and  3 seconds
    ------------------------------------------------------------------------


   ****  dscf : all done  ****


    2023-02-14 04:52:03.540 

