 operating system is UNIX !
 hostname is         dlt13.abaxnet

 dscf (dlt13.abaxnet) : TURBOMOLE V6.6( 19103 ) 21 May 2014 at 15:45:05
 Copyright (C) 2014 TURBOMOLE GmbH, Karlsruhe


    2023-02-14 13:58:44.138 



                             d s c f - program

                   idea & directorship : reinhart ahlrichs
                   program development : marco haeser
                                         michael baer
                           dft version : oliver treutler


                          quantum chemistry group
                          universitaet  karlsruhe
                                  germany




                          References             
                                                 
          TURBOMOLE:                             
              R. Ahlrichs, M. Baer, M. Haeser, H. Horn, and
              C. Koelmel
              Electronic structure calculations on workstation
              computers: the program system TURBOMOLE
              Chem. Phys. Lett. 162: 165 (1989)
          Density Functional:                              
              O. Treutler and R. Ahlrichs                      
              Efficient Molecular Numerical Integration Schemes
              J. Chem. Phys. 102: 346 (1995)                   
          Parallel Version:                                
              Performance of parallel TURBOMOLE for Density    
              Functional Calculations                          
              M. v. Arnim and R. Ahlrichs                      
              J. Comp. Chem. 19: 1746 (1998)                   
                                         




              +--------------------------------------------------+
              | Atomic coordinate, charge and isotop information |
              +--------------------------------------------------+

                    atomic coordinates            atom    charge  isotop
          1.25932306    2.27956908   -0.03627861    c      6.000     0
          2.55042364    0.00000189   -0.03451171    c      6.000     0
          1.25932684   -2.27956530   -0.03628995    c      6.000     0
         -1.33696600   -2.27916089   -0.03958374    c      6.000     0
         -2.68560685   -0.00000189   -0.04011097    c      6.000     0
         -1.33696789    2.27915900   -0.03957051    c      6.000     0
          2.30680960    4.02960665   -0.03324371    h      1.000     0
          2.30681526   -4.02960287   -0.03326261    h      1.000     0
         -2.35532052   -4.05256682   -0.04520001    h      1.000     0
         -2.35532808    4.05256305   -0.04517355    h      1.000     0
          5.28781478    0.00000000   -0.02747248    n      7.000     0
          6.37645765   -2.02834888   -0.02448294    o      8.000     0
          6.37646143    2.02834699   -0.02451506    o      8.000     0
         -5.26366762    0.00000000   -0.10786332    n      7.000     0
         -6.19479049   -1.60767317    0.28377486    h      1.000     0
         -6.19478482    1.60767317    0.28378431    h      1.000     0
 
       center of nuclear mass  :    1.36325572   -0.00000005   -0.03608467
       center of nuclear charge:    1.22170806   -0.00000005   -0.03176012

   *************************************************************************
   ADC(2) - opt by CAM-B3LYP gaussian                                       
   *************************************************************************



              +--------------------------------------------------+
              |               basis set information              |
              +--------------------------------------------------+

              we will work with the 1s 3p 5d 7f 9g ... basis set
              ...i.e. with spherical basis functions...

   type   atoms  prim   cont   basis
   ---------------------------------------------------------------------------
    c        6     52     37   def2-TZVPD   [6s3p3d1f|12s6p3d1f]
    h        6     11      9   def2-TZVPD   [3s2p|5s2p]
    n        2     52     37   def2-TZVPD   [6s3p3d1f|12s6p3d1f]
    o        2     55     40   def2-TZVPD   [6s4p3d1f|12s7p3d1f]
   ---------------------------------------------------------------------------
   total:   16    592    430
   ---------------------------------------------------------------------------

   total number of primitive shells          :   74
   total number of contracted shells         :  162
   total number of cartesian basis functions :  490
   total number of SCF-basis functions       :  430

 ==============================================================================
                      COSMO switched on
 ==============================================================================
 COSMO: skip init. and read data from file
 This run uses frozen charges (from previous solvent iteration)
 Work to create reaction field =   6.963163886531091E-003

 integral neglect threshold       :  0.68E-11
 integral storage threshold THIZE :  0.10E-04
 integral storage threshold THIME :         5


 DENSITY CONVERGENCE CHECK SWITCHED ON !
 SCF CONVERGENCE IF RMS(delta[D]) <     0.1000000000E-07


 symmetry group of the molecule :   c1 

 the group has the following generators :
   c1(z)

    1 symmetry operations found

 there are 1 real representations :   a   

 maximum number of shells which are related by symmetry :  1


    mo occupation :
   irrep   mo's   occupied
    a      430       36
 
 number of basis functions   :          430
 number of occupied orbitals :           36
 

          ------------------------
          nuclear repulsion energy  :   498.644801451    
          ------------------------

 
          -----------------
          -S,T+V- integrals
          -----------------

 1e-integrals will be neglected if expon. factor < 0.682033E-12
 
   Difference densities algorithm switched on.
   The maximal number of linear combinations of
   difference densities is          20 .

 automatic virtual orbital shift switched on 
      shift if e(lumo)-e(homo) < 0.10000000    


 DIIS switched on: error vector is FDS-SDF
 Max. Iterations for DIIS is     :   5
 DIIS matrix (see manual) 
    Scaling factor of diagonals  :  1.200
    threshold for scaling factor :  0.000

 scf convergence criterion : increment of total energy < .1000000D-06
                  and increment of one-electron energy < .1000000D-03

  MOs are in ASCII format !


 reading orbital data $scfmo  from file mos . 

 orbital characterization : scfconv=7
 

 DSCF restart information will be dumped onto file mos

 COSMO: use frozen qcos
 
                                              current damping :  0.300
 ITERATION  ENERGY          1e-ENERGY        2e-ENERGY     RMS[dD(SAO)]   TOL
   1  -489.41022590389    -1655.6590048     667.60397740    0.000D+00 0.680D-11
                          Ediel =    -0.008036448617
          max. resid. norm for Fia-block=  6.875D-04 for orbital     31a         
          max. resid. fock norm         =  1.570D-03 for orbital    107a         
          Delta Eig. =     0.0387547377 eV 
 COSMO: use frozen qcos
 
                                              current damping :  0.250
 ITERATION  ENERGY          1e-ENERGY        2e-ENERGY     RMS[dD(SAO)]   TOL
   2  -489.41023198002    -1655.6664195     667.61138605    0.145D-03 0.431D-11
                          Ediel =    -0.007996927681
          Norm of current diis error: 0.39643E-02
          max. resid. norm for Fia-block=  2.502D-04 for orbital     31a         
          max. resid. fock norm         =  3.252D-04 for orbital     31a         
          Delta Eig. =     0.0126727138 eV 
 COSMO: use frozen qcos
 
                                              current damping :  0.200
 ITERATION  ENERGY          1e-ENERGY        2e-ENERGY     RMS[dD(SAO)]   TOL
   3  -489.41023322862    -1655.6649532     667.60991847    0.534D-04 0.338D-11
                          Ediel =    -0.007981641700
          Norm of current diis error: 0.19401E-02
          max. resid. norm for Fia-block=  1.484D-04 for orbital     36a         
          max. resid. fock norm         =  2.163D-04 for orbital     37a         
          Delta Eig. =     0.0076002522 eV 
 COSMO: use frozen qcos
 
                                              current damping :  0.250
 ITERATION  ENERGY          1e-ENERGY        2e-ENERGY     RMS[dD(SAO)]   TOL
   4  -489.41023365047    -1655.6657436     667.61070848    0.206D-04 0.291D-11
                          Ediel =    -0.007972774357
          Norm of current diis error: 0.10408E-02
          max. resid. norm for Fia-block=  1.140D-04 for orbital     36a         
          max. resid. fock norm         =  1.281D-04 for orbital     37a         
          Delta Eig. =     0.0023437068 eV 
 COSMO: use frozen qcos
 
                                              current damping :  0.300
 ITERATION  ENERGY          1e-ENERGY        2e-ENERGY     RMS[dD(SAO)]   TOL
   5  -489.41023378400    -1655.6656585     667.61062323    0.530D-05 0.267D-11
                          Ediel =    -0.007969041588
          Norm of current diis error: 0.58549E-03
          max. resid. norm for Fia-block=  7.057D-05 for orbital     36a         
          max. resid. fock norm         =  8.211D-05 for orbital     37a         
 mo-orthogonalization: Cholesky decomposition
          Delta Eig. =     0.0015127030 eV 
 COSMO: use frozen qcos
 
                                              current damping :  0.150
 ITERATION  ENERGY          1e-ENERGY        2e-ENERGY     RMS[dD(SAO)]   TOL
   6  -489.41023383302    -1655.6655974     667.61056207    0.282D-05 0.247D-11
                          Ediel =    -0.007967198362
          Norm of current diis error: 0.31323E-03
          max. resid. norm for Fia-block=  5.168D-05 for orbital     36a         
          max. resid. fock norm         =  5.215D-05 for orbital     37a         
          Delta Eig. =     0.0004490940 eV 
 COSMO: use frozen qcos
 
                                              current damping :  0.100
 ITERATION  ENERGY          1e-ENERGY        2e-ENERGY     RMS[dD(SAO)]   TOL
   7  -489.41023385127    -1655.6655759     667.61054058    0.218D-05 0.230D-11
                          Ediel =    -0.007966215641
          Norm of current diis error: 0.13623E-03
          max. resid. norm for Fia-block=  2.245D-05 for orbital     36a         
          max. resid. fock norm         =  2.263D-05 for orbital     36a         
          Delta Eig. =     0.0004677738 eV 
 COSMO: use frozen qcos
 
                                              current damping :  0.100
 ITERATION  ENERGY          1e-ENERGY        2e-ENERGY     RMS[dD(SAO)]   TOL
   8  -489.41023385499    -1655.6655508     667.61051550    0.981D-06 0.219D-11
                          Ediel =    -0.007965920529
          Norm of current diis error: 0.47988E-04
          max. resid. norm for Fia-block=  7.943D-06 for orbital     36a         
          max. resid. fock norm         =  8.078D-06 for orbital     36a         
          Delta Eig. =     0.0001471480 eV 
 COSMO: use frozen qcos

 ENERGY & DENSITY CONVERGED !

 
                                              current damping :  0.100
 ITERATION  ENERGY          1e-ENERGY        2e-ENERGY     RMS[dD(SAO)]   TOL
   9  -489.41023385537    -1655.6655472     667.61051193    0.344D-06 0.214D-11
                          Ediel =    -0.007965887206
          max. resid. norm for Fia-block=  1.542D-06 for orbital     35a         
          max. resid. fock norm         =  5.918D-06 for orbital    186a         
 COSMO: write data to file cosmotransfer

 convergence criteria satisfied after  9 iterations


   *************************************************************************
   ADC(2) - opt by CAM-B3LYP gaussian                                       
   *************************************************************************


                  ------------------------------------------ 
                 |  total energy      =   -489.41023385537  |
                  ------------------------------------------ 
                 :  kinetic energy    =    488.91962822359  :
                 :  potential energy  =   -978.32986207895  :
                 :  virial theorem    =      1.99899755747  :
                 :  wavefunction norm =      1.00000000000  :
                  .......................................... 


 orbitals $scfmo  will be written to file mos

    irrep                 32a         33a         34a         35a         36a   
 eigenvalues H         -0.48469    -0.47934    -0.45130    -0.36973    -0.32261
            eV         -13.1892    -13.0436    -12.2807    -10.0610     -8.7788
 occupation              2.0000      2.0000      2.0000      2.0000      2.0000 

    irrep                 37a         38a         39a         40a         41a   
 eigenvalues H          0.05285     0.06318     0.07978     0.08003     0.10019
            eV           1.4382      1.7192      2.1709      2.1776      2.7263
 
 ==============================================================================
                                  COSMO RESULTS
 ==============================================================================
  PARAMETER:
    nppa:      1082
    nspa:        92
    nsph:        32
    nps:        663
    npspher:    311
    disex:   10.0000    
    disex2:  4392.58    
    rsolv [A]: 1.3000
    routf:     0.8500
    phsran:    0.0    
    ampran:   0.10E-04
    cavity:  closed
    epsilon:     2.017
    refind:     1.300
    fepsi:      0.4040524
  CAVITY VOLUME/AREA [a.u.]:
    surface: V1.0, A matrix: V1.0
    area:   573.11
    volume:  1037.69
  SCREENING CHARGE:
    cosmo      :  -0.029850
    correction :   0.029202
    total      :  -0.000648
  ENERGIES [a.u.]:
    Total energy            =     -489.4102338554
    Total energy + OC corr. =     -489.4100413186
    Dielectric energy       =       -0.0079658872
    Diel. energy + OC corr. =       -0.0077733504
  ELEMENT RADIUS [A]: ATOM LIST
    c  2.00: 1-6
    h  1.30: 7-10,15,16
    n  1.83: 11,14
    o  1.72: 12,13
 ==============================================================================
 
 
 
 ==============================================================================
                           electrostatic moments
 ==============================================================================
 
              nuc           elec       ->  total
 ------------------------------------------------------------------------------
                          charge      
 ------------------------------------------------------------------------------
          72.000000     -72.000000      -0.000000
 
 ------------------------------------------------------------------------------
                       dipole moment  
 ------------------------------------------------------------------------------
   x      87.962981     -91.165057      -3.202076
   y      -0.000004       0.000084       0.000081
   z      -2.286728       2.549237       0.262509
 
   | dipole moment | =     3.2128 a.u. =     8.1662 debye 
 
 ------------------------------------------------------------------------------
                     quadrupole moment
 ------------------------------------------------------------------------------
  xx    1261.490144   -1313.145448     -51.655305
  yy     261.010306    -299.958108     -38.947802
  zz       0.315079     -45.580582     -45.265503
  xy      -0.000036      -0.000536      -0.000572
  xz      -2.793674       1.023046      -1.770628
  yz       0.000013       0.000087       0.000101
 
     1/3  trace=     -45.289536
     anisotropy=      11.424410
 
 ==============================================================================
 


    ------------------------------------------------------------------------
         total  cpu-time : 10 minutes and  4 seconds
         total wall-time : 10 minutes and  7 seconds
    ------------------------------------------------------------------------


   ****  dscf : all done  ****


    2023-02-14 14:08:50.793 

