 hostname is         dlt13.abaxnet
 this is node-proc. number 0 running on node dlt13.abaxnet
 the total number of node-proc. spawned is   1

 ricc2 (dlt13.abaxnet) : TURBOMOLE V6.6( 19125 ) 27 May 2014 at 14:24:19
 Copyright (C) 2014 TURBOMOLE GmbH, Karlsruhe


    2023-02-15 07:47:12.091 



                              R I C C 2 - PROGRAM

                          the quantum chemistry groups
                             at the universities in
                           Karlsruhe, Bochum & Mainz
                                   Germany



   *-----------------------------------------------------------------------*
   |                     program will use  1 thread(s)                     |
   *-----------------------------------------------------------------------*


              +--------------------------------------------------+
              | Atomic coordinate, charge and isotop information |
              +--------------------------------------------------+

                    atomic coordinates            atom    charge  isotop
          1.25932306    2.27956908   -0.03627861    c      6.000     0
          2.55042364    0.00000189   -0.03451171    c      6.000     0
          1.25932684   -2.27956530   -0.03628995    c      6.000     0
         -1.33696600   -2.27916089   -0.03958374    c      6.000     0
         -2.68560685   -0.00000189   -0.04011097    c      6.000     0
         -1.33696789    2.27915900   -0.03957051    c      6.000     0
          2.30680960    4.02960665   -0.03324371    h      1.000     0
          2.30681526   -4.02960287   -0.03326261    h      1.000     0
         -2.35532052   -4.05256682   -0.04520001    h      1.000     0
         -2.35532808    4.05256305   -0.04517355    h      1.000     0
          5.28781478    0.00000000   -0.02747248    n      7.000     0
          6.37645765   -2.02834888   -0.02448294    o      8.000     0
          6.37646143    2.02834699   -0.02451506    o      8.000     0
         -5.26366762    0.00000000   -0.10786332    n      7.000     0
         -6.19479049   -1.60767317    0.28377486    h      1.000     0
         -6.19478482    1.60767317    0.28378431    h      1.000     0
 
       center of nuclear mass  :    1.36325572   -0.00000005   -0.03608467
       center of nuclear charge:    1.22170806   -0.00000005   -0.03176012

              +--------------------------------------------------+
              |               basis set information              |
              +--------------------------------------------------+

              we will work with the 1s 3p 5d 7f 9g ... basis set
              ...i.e. with spherical basis functions...

   type   atoms  prim   cont   basis
   ---------------------------------------------------------------------------
    c        6     52     37   def2-TZVPD   [6s3p3d1f|12s6p3d1f]
    h        6     11      9   def2-TZVPD   [3s2p|5s2p]
    n        2     52     37   def2-TZVPD   [6s3p3d1f|12s6p3d1f]
    o        2     55     40   def2-TZVPD   [6s4p3d1f|12s7p3d1f]
   ---------------------------------------------------------------------------
   total:   16    592    430
   ---------------------------------------------------------------------------

   total number of primitive shells          :   74
   total number of contracted shells         :  162
   total number of cartesian basis functions :  490
   total number of SCF-basis functions       :  430



   =========================================================================


     restricted closed shell calculation for the wavefunction models:
               ADC(2)     - Algebraic Diagrammatic Construction to 2. Order (strict)


     global parameters for ricc2 program:

        hard restart (reuse of interm.) :  enabled 
        soft restart (reuse of vectors) :  disabled
        threshold for vector function   :    0.100000E-06
        convergence threshold energy    :    0.100000E-07
        linear dependence threshold     :    0.100000E-13
        global print level              :      1
        maximum number of iterations    :   500
        maximum number DIIS vectors     :    10
        max. dim. of reduced space      :   100
        core memory limit (MB)          :   500
        disk space limit (MB)           :   none


   =========================================================================
     "cartesian on" in $drvopt is ignored by $ricc2

    der. integral neglect threshold  :  0.10E-08
    integral neglect threshold       :  0.68E-12
    integral storage threshold THIZE :  0.10E-04
    integral storage threshold THIME :         5


                  +------------------------------------------+
                  |     Auxiliary basis set information      |
                  +------------------------------------------+

              we will work with the 1s 3p 5d 7f 9g ... basis set
              ...i.e. with spherical basis functions...

   type   atoms  prim   cont   basis
   ---------------------------------------------------------------------------
    c        6     97     92   def2-TZVPD   [9s7p5d4f1g|9s7p6d4f1g]
    h        6     32     24   def2-TZVPD   [5s3p2d|5s4p3d]
    n        2     97     92   def2-TZVPD   [9s7p5d4f1g|9s7p6d4f1g]
    o        2     97     92   def2-TZVPD   [9s7p5d4f1g|9s7p6d4f1g]
   ---------------------------------------------------------------------------
   total:   16   1162   1064
   ---------------------------------------------------------------------------

   total number of primitive shells          :   93
   total number of contracted shells         :  320
   total number of cartesian basis functions : 1306
   total number of SCF-basis functions       : 1064


 symmetry group of the molecule :   c1 

 the group has the following generators :
   c1(z)

    1 symmetry operations found

 there are 1 real representations :   a   

 maximum number of shells which are related by symmetry :  1


 The symmetry information takes   1 MB

*---------------------------------------------------------------------*
|               simplified C1 algorithm will be applied               |
*---------------------------------------------------------------------*
 ==============================================================================
                      COSMO switched on
 ==============================================================================
            ======================================================
                      COSMO settings in RICC2
                   --------------------------
             Solvent charges are equilibrated for ground state
             "cycle" indicates frozen COSMO charges,
             hence no COSMO CPHF contribution included
             COSMO linear response (LR) contribution included
             Outlying Charge Correction (OCC) is performed
             Using epsilon          =     2.017
             Using refractive index =     1.300
            ======================================================
        IMPORTANT NOTICE: The calculation of the solvent contributions will
         need the relaxed densities in general. Therefore the actual COSMO
         energies will be output only at the end of the run. Any energies
         or excitation energies quoted before that are only intermediate
         quantities and should be ignored unless you know what you are doing!

  MOs are in ASCII format !


 reading orbital data $scfmo  from file mos . 

 orbital characterization : scfconv=7
 

         --------------------------------------------------------------
                   checking mo's by calculating trace(D*S)

              number of electrons : 
                 from trace(D*S)         :   71.999999999999
                 from occupation numbers :   72.000000000000

              molecular charge           :    0.000000000000
         --------------------------------------------------------------

 time elapsed for calculating density matrices :   0.014 sec
 all orbitals will be active in the correlation treatment

  ----------------------------------------------------------------------------
  hard_restart flag is disabled because the check sum for the
  molecular orbitals "$chkmos" differs from the reference value:
  reference value:     5002391.88842456    
  computed value :     5002391.88855458    
  relative error :    0.259912102553637E-10
  tolerance      :    0.100000000000000E-11
  the calculation will proceed...
  ----------------------------------------------------------------------------


   Molecular Orbital Statistic:
   ============================

   -----------------------------
   orbitals in total:
   -----------------------------
    frozen occupied :      0
    active occupied :     36
    active virtual  :    394
    frozen virtual  :      0
    all together    :    430
   -----------------------------


     time in riccmos       cpu:  0.19 sec    wall:  0.33 sec    ratio:  0.6

     total memory allocated for calculation of (Q|P)**(-1/2) : 13 MiB


     calculation of (P|Q) ...
     time in lp2sym        cpu:  0.04 sec    wall:  0.04 sec    ratio:  1.0


     calculation of the Cholesky decomposition of (P|Q)**(-1) ...
     time in invmetri      cpu:  0.14 sec    wall:  0.23 sec    ratio:  0.6

   threshold for RMS(d[D]) in SCF was     :  0.10E-07
   integral neglect threshold             :  0.68E-12
   derivative integral neglect threshold  :  0.10E-08


 setting up bound for integral derivative estimation

 increment for numerical differentiation : 0.00050000

   =========================================================================

     Energy of reference wave function is  -489.4102163489000
     Maximum orbital residual is           0.1770821221355E-04


     Number of symmetry-nonredundant auxiliary basis functions:     1064

     Block lengths for integral files:
        frozen occupied (BOI):        0 MiB
        active occupied (BJI):        1 MiB
        active virtual  (BAI):        4 MiB
        frozen virtual  (BGI):        0 MiB
               general  (BTI):        4 MiB

   =========================================================================




   **************************************************************************
   *                                                                        *
   *          OPTIMIZATION OF THE GROUND STATE CLUSTER AMPLITUDES           *
   *                                                                        *
   **************************************************************************


   Iter.   MP2 energy       Norm(Omega)    Norm(t1)  Norm(t2)     cpu    wall
   ...........................................................................
    1   -491.4155895638    0.1618118972     0.00000   0.44626    0.55    0.67
   ...........................................................................


     time in total         cpu: 33.40 sec    wall: 40.38 sec    ratio:  0.8


     **********************************************************************
     *                                                                    *
     *   RHF  energy                             :   -489.4102163489      *
     *   MP2 correlation energy                  :     -2.0053732149      *
     *                                                                    *
     *   Final MP2 energy                        :   -491.4155895638      *
     *                                                                    *
     *   Norm of MP1 T2 amplitudes               :      0.4462611814      *
     *                                                                    *
     *   D1 diagnostic                           :      0.0580            *
     *                                                                    *
     **********************************************************************

 Using refractive index n                   =    1.30000000000000     
 Screening function (n**2-1)/(n**2+0.5)     =   0.315068493150685     


 **************************************************************
 *                                                            *
 *    OPTIMIZATION OF THE EXCITED STATE CLUSTER AMPLITUDES    *
 *                                                            *
 **************************************************************


  preoptimize excitation energies/vectors using CCS:

  ==================================================


 ======== LINEAR CC RESPONSE SOLVER ========

    threshold for convergence: 0.10E-02
    maximum number of simultaneous jacoby matrix transformations: 15
                                                
     summary of start vectors generation:
     -------------------------------------------
     type of solution vectors      : RE0
     symmetry                      : a  
     number of vectors requested   :    15
     number of vectors generated   :    15
       -- guessed as rhs/(e_a-e_i) :    15
     -------------------------------------------
                                                

    Iter  #Vectors  time (min)    max. residual 
    --------------------------------------------
 COSMO cphf update
 COSMO cphf update
 COSMO cphf update
 COSMO cphf update
 COSMO cphf update
 COSMO cphf update
 COSMO cphf update
 COSMO cphf update
 COSMO cphf update
 COSMO cphf update
 COSMO cphf update
 COSMO cphf update
 COSMO cphf update
 COSMO cphf update
 COSMO cphf update
      1      15         2.26     0.14E+00  (  1)
 COSMO cphf update
 COSMO cphf update
 COSMO cphf update
 COSMO cphf update
 COSMO cphf update
 COSMO cphf update
 COSMO cphf update
 COSMO cphf update
 COSMO cphf update
 COSMO cphf update
 COSMO cphf update
 COSMO cphf update
 COSMO cphf update
 COSMO cphf update
 COSMO cphf update
      2      15         2.29     0.63E-01  (  9)
 COSMO cphf update
 COSMO cphf update
 COSMO cphf update
 COSMO cphf update
 COSMO cphf update
 COSMO cphf update
 COSMO cphf update
 COSMO cphf update
 COSMO cphf update
 COSMO cphf update
 COSMO cphf update
 COSMO cphf update
 COSMO cphf update
 COSMO cphf update
 COSMO cphf update
      3      15         2.30     0.66E-01  (  7)
 COSMO cphf update
 COSMO cphf update
 COSMO cphf update
 COSMO cphf update
 COSMO cphf update
 COSMO cphf update
 COSMO cphf update
 COSMO cphf update
 COSMO cphf update
 COSMO cphf update
 COSMO cphf update
 COSMO cphf update
 COSMO cphf update
 COSMO cphf update
 COSMO cphf update
      4      15         2.29     0.15E+00  ( 13)
 COSMO cphf update
 COSMO cphf update
 COSMO cphf update
 COSMO cphf update
 COSMO cphf update
 COSMO cphf update
 COSMO cphf update
 COSMO cphf update
 COSMO cphf update
 COSMO cphf update
 COSMO cphf update
 COSMO cphf update
 COSMO cphf update
 COSMO cphf update
 COSMO cphf update
      5      15         2.27     0.15E+00  (  4)
 COSMO cphf update
 COSMO cphf update
 COSMO cphf update
 COSMO cphf update
 COSMO cphf update
 COSMO cphf update
 COSMO cphf update
 COSMO cphf update
 COSMO cphf update
 COSMO cphf update
 COSMO cphf update
 COSMO cphf update
 COSMO cphf update
 COSMO cphf update
  dimension of red. space became too large.
  try internal restart...
      6      14         2.15     0.88E-01  (  2)
                                                
     summary of start vectors generation:
     -------------------------------------------
     type of solution vectors      : RE0
     symmetry                      : a  
     number of vectors requested   :    15
     number of vectors generated   :    15
       -- restarted from file      :    15
     -------------------------------------------
                                                

    Iter  #Vectors  time (min)    max. residual 
    --------------------------------------------
 COSMO cphf update
 COSMO cphf update
 COSMO cphf update
 COSMO cphf update
 COSMO cphf update
 COSMO cphf update
 COSMO cphf update
 COSMO cphf update
 COSMO cphf update
 COSMO cphf update
 COSMO cphf update
 COSMO cphf update
 COSMO cphf update
 COSMO cphf update
 COSMO cphf update
      7      15         2.29     0.88E-01  (  2)
 COSMO cphf update
 COSMO cphf update
 COSMO cphf update
 COSMO cphf update
 COSMO cphf update
 COSMO cphf update
 COSMO cphf update
 COSMO cphf update
 COSMO cphf update
 COSMO cphf update
 COSMO cphf update
 COSMO cphf update
      8      12         1.90     0.29E-01  (  2)
 COSMO cphf update
 COSMO cphf update
 COSMO cphf update
 COSMO cphf update
 COSMO cphf update
 COSMO cphf update
 COSMO cphf update
 COSMO cphf update
 COSMO cphf update
      9       9         1.44     0.73E-02  (  2)
 COSMO cphf update
 COSMO cphf update
 COSMO cphf update
 COSMO cphf update
 COSMO cphf update
 COSMO cphf update
     10       6         0.93     0.25E-02  (  2)
 COSMO cphf update
 COSMO cphf update
 COSMO cphf update
     11       3         0.51     0.97E-03  ( 10)
    --------------------------------------------
    converged in 11 iterations

         Total time         20.65 minutes


 ===========================================




 Note that this is the intermediate result of a preoptimization!
 The convergence threshold was  0.1E-02 only!
 COSMO: note that the excitation energies below do not include
        the nonequilibrium contributions yet. These require the
        computation of the relaxed densities. See end of output
        for a final list of corrected excitations.


 +==================================================================+
 | sym | multi | state |          CCS excitation energies           |
 |     |       |       +--------------------------------------------+
 |     |       |       |   Hartree    |     eV       |     cm-1     |
 +==================================================================+
 | a   |   1   |   1   |    0.1909334 |      5.19556 |    41905.038 |
 | a   |   1   |   2   |    0.1945660 |      5.29441 |    42702.301 |
 | a   |   1   |   3   |    0.2067351 |      5.62555 |    45373.112 |
 | a   |   1   |   4   |    0.2079333 |      5.65815 |    45636.086 |
 | a   |   1   |   5   |    0.2290921 |      6.23391 |    50279.912 |
 | a   |   1   |   6   |    0.2495852 |      6.79156 |    54777.617 |
 | a   |   1   |   7   |    0.2584617 |      7.03310 |    56725.781 |
 | a   |   1   |   8   |    0.2598772 |      7.07162 |    57036.456 |
 | a   |   1   |   9   |    0.2615777 |      7.11789 |    57409.674 |
 | a   |   1   |  10   |    0.2673917 |      7.27610 |    58685.703 |
 | a   |   1   |  11   |    0.2792606 |      7.59907 |    61290.609 |
 | a   |   1   |  12   |    0.2824899 |      7.68694 |    61999.360 |
 | a   |   1   |  13   |    0.2879793 |      7.83632 |    63204.150 |
 | a   |   1   |  14   |    0.2989035 |      8.13358 |    65601.731 |
 | a   |   1   |  15   |    0.3018508 |      8.21378 |    66248.601 |
 +==================================================================+




  preoptimize ADC(2) excitation energies/vectors using a quasi linear algorithm:
  ==============================================================================


 ======== LINEAR CC RESPONSE SOLVER ========

    threshold for convergence: 0.10E-02
    maximum number of simultaneous jacoby matrix transformations: 15
                                                
     summary of start vectors generation:
     -------------------------------------------
     type of solution vectors      : RE0
     symmetry                      : a  
     number of vectors requested   :    15
     number of vectors generated   :    15
       -- restarted from file      :    15
     -------------------------------------------
                                                

    Iter  #Vectors  time (min)    max. residual 
    --------------------------------------------
 COSMO cphf update
 COSMO cphf update
 COSMO cphf update
 COSMO cphf update
 COSMO cphf update
 COSMO cphf update
 COSMO cphf update
 COSMO cphf update
 COSMO cphf update
 COSMO cphf update
 COSMO cphf update
 COSMO cphf update
 COSMO cphf update
 COSMO cphf update
 COSMO cphf update
 COSMO cphf update
 COSMO cphf update
 COSMO cphf update
 COSMO cphf update
 COSMO cphf update
 COSMO cphf update
 COSMO cphf update
 COSMO cphf update
 COSMO cphf update
 COSMO cphf update
 COSMO cphf update
 COSMO cphf update
 COSMO cphf update
 COSMO cphf update
 COSMO cphf update
 threshold for this macro iteration:  4.709388527039177E-002
      1      15        13.41     0.94E-01  (  1)
 COSMO cphf update
 COSMO cphf update
 COSMO cphf update
 COSMO cphf update
 COSMO cphf update
 COSMO cphf update
 COSMO cphf update
 COSMO cphf update
 COSMO cphf update
 COSMO cphf update
 COSMO cphf update
 COSMO cphf update
 COSMO cphf update
 COSMO cphf update
 COSMO cphf update
 COSMO cphf update
 ...adapted threshold to:  5.827655590817207E-002
      2       8         6.82     0.37E-01  ( 12)
                                                
     summary of start vectors generation:
     -------------------------------------------
     type of solution vectors      : RE0
     symmetry                      : a  
     number of vectors requested   :    15
     number of vectors generated   :    15
       -- restarted from file      :    15
     -------------------------------------------
                                                

    Iter  #Vectors  time (min)    max. residual 
    --------------------------------------------
 COSMO cphf update
 COSMO cphf update
 COSMO cphf update
 COSMO cphf update
 COSMO cphf update
 COSMO cphf update
 COSMO cphf update
 COSMO cphf update
 COSMO cphf update
 COSMO cphf update
 COSMO cphf update
 COSMO cphf update
 COSMO cphf update
 COSMO cphf update
 COSMO cphf update
 COSMO cphf update
 COSMO cphf update
 COSMO cphf update
 COSMO cphf update
 COSMO cphf update
 COSMO cphf update
 COSMO cphf update
 COSMO cphf update
 COSMO cphf update
 COSMO cphf update
 COSMO cphf update
 COSMO cphf update
 COSMO cphf update
 COSMO cphf update
 COSMO cphf update
 threshold for this macro iteration:  6.589047943121540E-003
      3      15        13.36     0.36E-01  ( 12)
 COSMO cphf update
 COSMO cphf update
 COSMO cphf update
 COSMO cphf update
 COSMO cphf update
 COSMO cphf update
 COSMO cphf update
 COSMO cphf update
 COSMO cphf update
 COSMO cphf update
 COSMO cphf update
 COSMO cphf update
 COSMO cphf update
 COSMO cphf update
 COSMO cphf update
 COSMO cphf update
 COSMO cphf update
 COSMO cphf update
 COSMO cphf update
 COSMO cphf update
 COSMO cphf update
 COSMO cphf update
 COSMO cphf update
 COSMO cphf update
 COSMO cphf update
 COSMO cphf update
 COSMO cphf update
 COSMO cphf update
 COSMO cphf update
 COSMO cphf update
      4      15        13.27     0.16E-01  ( 15)
 COSMO cphf update
 COSMO cphf update
 COSMO cphf update
 COSMO cphf update
 COSMO cphf update
 COSMO cphf update
 COSMO cphf update
 COSMO cphf update
 COSMO cphf update
 COSMO cphf update
 COSMO cphf update
 COSMO cphf update
 COSMO cphf update
 COSMO cphf update
 COSMO cphf update
 COSMO cphf update
 COSMO cphf update
 COSMO cphf update
 COSMO cphf update
 COSMO cphf update
 COSMO cphf update
 COSMO cphf update
 COSMO cphf update
 COSMO cphf update
 COSMO cphf update
 COSMO cphf update
 COSMO cphf update
 COSMO cphf update
      5      14        12.52     0.19E-01  ( 15)
 COSMO cphf update
 COSMO cphf update
 COSMO cphf update
 COSMO cphf update
 COSMO cphf update
 COSMO cphf update
 COSMO cphf update
 COSMO cphf update
      6       4         3.56     0.14E-01  ( 15)
 COSMO cphf update
 COSMO cphf update
      7       1         1.11     0.10E-01  ( 15)
 COSMO cphf update
 COSMO cphf update
      8       1         1.09     0.14E-01  ( 15)
 COSMO cphf update
 COSMO cphf update
 ...adapted threshold to:  6.982610228974340E-003
      9       1         1.10     0.17E-01  ( 15)
 COSMO cphf update
 COSMO cphf update
 ...adapted threshold to:  7.796293441775459E-003
     10       1         1.09     0.20E-01  ( 15)
 COSMO cphf update
 COSMO cphf update
 ...adapted threshold to:  9.805700576738574E-003
     11       1         1.08     0.37E-01  ( 15)
 COSMO cphf update
 COSMO cphf update
 ...adapted threshold to:  1.005494910760968E-002
     12       1         1.09     0.83E-01  ( 13)
 COSMO cphf update
 COSMO cphf update
 ...adapted threshold to:  1.572157740178731E-002
     13       1         1.08     0.54E-01  ( 11)
 COSMO cphf update
 COSMO cphf update
 ...adapted threshold to:  1.572232227006448E-002
     14       1         1.09     0.23E-01  ( 11)
 COSMO cphf update
 COSMO cphf update
     15       1         1.09     0.90E-02  ( 11)
                                                
     summary of start vectors generation:
     -------------------------------------------
     type of solution vectors      : RE0
     symmetry                      : a  
     number of vectors requested   :    15
     number of vectors generated   :    15
       -- restarted from file      :    15
     -------------------------------------------
                                                

    Iter  #Vectors  time (min)    max. residual 
    --------------------------------------------
 COSMO cphf update
 COSMO cphf update
 COSMO cphf update
 COSMO cphf update
 COSMO cphf update
 COSMO cphf update
 COSMO cphf update
 COSMO cphf update
 COSMO cphf update
 COSMO cphf update
 COSMO cphf update
 COSMO cphf update
 COSMO cphf update
 COSMO cphf update
 COSMO cphf update
 COSMO cphf update
 COSMO cphf update
 COSMO cphf update
 COSMO cphf update
 COSMO cphf update
 COSMO cphf update
 COSMO cphf update
 COSMO cphf update
 COSMO cphf update
 COSMO cphf update
 COSMO cphf update
 COSMO cphf update
 COSMO cphf update
 COSMO cphf update
 COSMO cphf update
 threshold for this macro iteration:  4.597969648323402E-003
     16      15        13.34     0.55E-02  ( 15)
 COSMO cphf update
 COSMO cphf update
     17       1         1.08     0.39E-02  ( 11)
                                                
     summary of start vectors generation:
     -------------------------------------------
     type of solution vectors      : RE0
     symmetry                      : a  
     number of vectors requested   :    15
     number of vectors generated   :    15
       -- restarted from file      :    15
     -------------------------------------------
                                                

    Iter  #Vectors  time (min)    max. residual 
    --------------------------------------------
 COSMO cphf update
 COSMO cphf update
 COSMO cphf update
 COSMO cphf update
 COSMO cphf update
 COSMO cphf update
 COSMO cphf update
 COSMO cphf update
 COSMO cphf update
 COSMO cphf update
 COSMO cphf update
 COSMO cphf update
 COSMO cphf update
 COSMO cphf update
 COSMO cphf update
 COSMO cphf update
 COSMO cphf update
 COSMO cphf update
 COSMO cphf update
 COSMO cphf update
 COSMO cphf update
 COSMO cphf update
 COSMO cphf update
 COSMO cphf update
 COSMO cphf update
 COSMO cphf update
 COSMO cphf update
 COSMO cphf update
 COSMO cphf update
 COSMO cphf update
 threshold for this macro iteration:  1.000000000000000E-003
     18      15        13.23     0.34E-02  ( 11)
 COSMO cphf update
 COSMO cphf update
 COSMO cphf update
 COSMO cphf update
 COSMO cphf update
 COSMO cphf update
 ...adapted threshold to:  1.052078660602113E-003
     19       3         2.69     0.23E-02  ( 11)
 COSMO cphf update
 COSMO cphf update
 COSMO cphf update
 COSMO cphf update
 COSMO cphf update
 COSMO cphf update
 ...adapted threshold to:  1.065629295682519E-003
     20       3         2.70     0.25E-02  ( 12)
 COSMO cphf update
 COSMO cphf update
 COSMO cphf update
 COSMO cphf update
 COSMO cphf update
 COSMO cphf update
 ...adapted threshold to:  5.192217616475814E-003
     21       3         2.70     0.32E-01  ( 14)
 COSMO cphf update
 COSMO cphf update
 ...adapted threshold to:  5.192251226978806E-003
     22       1         1.08     0.23E-01  ( 14)
 COSMO cphf update
 COSMO cphf update
 ...adapted threshold to:  5.192257002798240E-003
     23       1         1.09     0.11E-01  ( 14)
 COSMO cphf update
 COSMO cphf update
 ...adapted threshold to:  5.192259958478052E-003
     24       1         1.09     0.78E-02  ( 14)
 COSMO cphf update
 COSMO cphf update
 ...adapted threshold to:  5.192260129191661E-003
     25       1         1.10     0.48E-02  ( 14)
                                                
     summary of start vectors generation:
     -------------------------------------------
     type of solution vectors      : RE0
     symmetry                      : a  
     number of vectors requested   :    15
     number of vectors generated   :    15
       -- restarted from file      :    15
     -------------------------------------------
                                                

    Iter  #Vectors  time (min)    max. residual 
    --------------------------------------------
 COSMO cphf update
 COSMO cphf update
 COSMO cphf update
 COSMO cphf update
 COSMO cphf update
 COSMO cphf update
 COSMO cphf update
 COSMO cphf update
 COSMO cphf update
 COSMO cphf update
 COSMO cphf update
 COSMO cphf update
 COSMO cphf update
 COSMO cphf update
 COSMO cphf update
 COSMO cphf update
 COSMO cphf update
 COSMO cphf update
 COSMO cphf update
 COSMO cphf update
 COSMO cphf update
 COSMO cphf update
 COSMO cphf update
 COSMO cphf update
 COSMO cphf update
 COSMO cphf update
 COSMO cphf update
 COSMO cphf update
 COSMO cphf update
 COSMO cphf update
 dabs(Rj-Ri):           1          14  0.132146244209418     
 dabs(Ij+Ii):           1          14  6.702250394576999E-004
 dabs(Rj-Ri):           2          14  0.118465386807806     
 dabs(Ij+Ii):           2          14  6.702250394576999E-004
 dabs(Rj-Ri):           3          14  0.105368873350136     
 dabs(Ij+Ii):           3          14  6.702250394576999E-004
 dabs(Rj-Ri):           4          14  9.875050907451849E-002
 dabs(Ij+Ii):           4          14  6.702250394576999E-004
 dabs(Rj-Ri):           5          14  6.843491370273530E-002
 dabs(Ij+Ii):           5          14  6.702250394576999E-004
 dabs(Rj-Ri):           6          14  6.101991189153985E-002
 dabs(Ij+Ii):           6          14  6.702250394576999E-004
 dabs(Rj-Ri):           7          14  5.337597628443927E-002
 dabs(Ij+Ii):           7          14  6.702250394576999E-004
 dabs(Rj-Ri):           8          14  4.167245031180641E-002
 dabs(Ij+Ii):           8          14  6.702250394576999E-004
 dabs(Rj-Ri):           9          14  3.225992850012321E-002
 dabs(Ij+Ii):           9          14  6.702250394576999E-004
 dabs(Rj-Ri):          10          14  2.853256906398835E-002
 dabs(Ij+Ii):          10          14  6.702250394576999E-004
 dabs(Rj-Ri):          11          14  2.039062399157890E-002
 dabs(Ij+Ii):          11          14  6.702250394576999E-004
 dabs(Rj-Ri):          12          14  1.490549872004288E-002
 dabs(Ij+Ii):          12          14  6.702250394576999E-004
 dabs(Rj-Ri):          13          14  1.300350375624265E-002
 dabs(Ij+Ii):          13          14  6.702250394576999E-004
 dabs(Rj-Ri):          15          14  0.000000000000000E+000
 dabs(Ij+Ii):          15          14  0.000000000000000E+000
 overlap matrix for complex pair:

              1             2
 
    1     0.03416034    0.01531901
    2     0.01531901    1.92687815
 real eigenvalues of metric:

              1
 
    1     0.03403636
    2     1.92700213
 eigenvectors of metric:

              1             2
 
    1     0.99996725    0.00809286
    2    -0.00809286    0.99996725
 inverse square root of overlap matrix:

              1             2
 
    1     5.42005636   -0.03803512
    2    -0.03803512    0.72068327
 recalculated overlap matrix for complex pair:

              1             2
 
    1     1.00000000   -0.00000000
    2    -0.00000000    1.00000000
 dabs(Rj-Ri):           1          15  0.132146244209418     
 dabs(Ij+Ii):           1          15  6.702250394576999E-004
 dabs(Rj-Ri):           2          15  0.118465386807806     
 dabs(Ij+Ii):           2          15  6.702250394576999E-004
 dabs(Rj-Ri):           3          15  0.105368873350136     
 dabs(Ij+Ii):           3          15  6.702250394576999E-004
 dabs(Rj-Ri):           4          15  9.875050907451849E-002
 dabs(Ij+Ii):           4          15  6.702250394576999E-004
 dabs(Rj-Ri):           5          15  6.843491370273530E-002
 dabs(Ij+Ii):           5          15  6.702250394576999E-004
 dabs(Rj-Ri):           6          15  6.101991189153985E-002
 dabs(Ij+Ii):           6          15  6.702250394576999E-004
 dabs(Rj-Ri):           7          15  5.337597628443927E-002
 dabs(Ij+Ii):           7          15  6.702250394576999E-004
 dabs(Rj-Ri):           8          15  4.167245031180641E-002
 dabs(Ij+Ii):           8          15  6.702250394576999E-004
 dabs(Rj-Ri):           9          15  3.225992850012321E-002
 dabs(Ij+Ii):           9          15  6.702250394576999E-004
 dabs(Rj-Ri):          10          15  2.853256906398835E-002
 dabs(Ij+Ii):          10          15  6.702250394576999E-004
 dabs(Rj-Ri):          11          15  2.039062399157890E-002
 dabs(Ij+Ii):          11          15  6.702250394576999E-004
 dabs(Rj-Ri):          12          15  1.490549872004288E-002
 dabs(Ij+Ii):          12          15  6.702250394576999E-004
 dabs(Rj-Ri):          13          15  1.300350375624265E-002
 dabs(Ij+Ii):          13          15  6.702250394576999E-004
 dabs(Rj-Ri):          14          15  0.000000000000000E+000
 dabs(Ij+Ii):          14          15  0.000000000000000E+000
 overlap matrix for complex pair:

              1             2
 
    1     1.00000000   -0.00000000
    2    -0.00000000    1.00000000
 real eigenvalues of metric:

              1
 
    1     1.00000000
    2     1.00000000
 eigenvectors of metric:

              1             2
 
    1     0.70710678    0.70710678
    2    -0.70710678    0.70710678
 inverse square root of overlap matrix:

              1             2
 
    1     1.00000000    0.00000000
    2     0.00000000    1.00000000
 recalculated overlap matrix for complex pair:

              1             2
 
    1     1.00000000    0.00000000
    2     0.00000000    1.00000000
 warning> found low lying complex root...
 eigenvalues (imaginary parts) in redeig:

              1
 
    1     0.00000000
    2     0.00000000
    3     0.00000000
    4     0.00000000
    5     0.00000000
    6     0.00000000
    7     0.00000000
    8     0.00000000
    9     0.00000000
   10     0.00000000
   11     0.00000000
   12     0.00000000
   13     0.00000000
   14    -0.00067023
   15     0.00067023
 eigenvalues (real parts) in redeig:

              1
 
    1     0.13775158
    2     0.15143244
    3     0.16452895
    4     0.17114732
    5     0.20146291
    6     0.20887791
    7     0.21652185
    8     0.22822538
    9     0.23763790
   10     0.24136526
   11     0.24950720
   12     0.25499233
   13     0.25689432
   14     0.26989783
   15     0.26989783
 threshold for this macro iteration:  4.406599960488145E-003
     26      15        13.59     0.61E-02  ( 14)
 COSMO cphf update
 COSMO cphf update
     27       1         1.12     0.27E-01  ( 14)
 COSMO cphf update
 COSMO cphf update
 COSMO cphf update
 COSMO cphf update
     28       2         1.91     0.20E-01  ( 14)
 COSMO cphf update
 COSMO cphf update
     29       1         1.08     0.71E-02  ( 14)
 COSMO cphf update
 COSMO cphf update
     30       1         1.08     0.42E-02  ( 14)
                                                
     summary of start vectors generation:
     -------------------------------------------
     type of solution vectors      : RE0
     symmetry                      : a  
     number of vectors requested   :    15
     number of vectors generated   :    15
       -- restarted from file      :    15
     -------------------------------------------
                                                

    Iter  #Vectors  time (min)    max. residual 
    --------------------------------------------
 COSMO cphf update
 COSMO cphf update
 COSMO cphf update
 COSMO cphf update
 COSMO cphf update
 COSMO cphf update
 COSMO cphf update
 COSMO cphf update
 COSMO cphf update
 COSMO cphf update
 COSMO cphf update
 COSMO cphf update
 COSMO cphf update
 COSMO cphf update
 COSMO cphf update
 COSMO cphf update
 COSMO cphf update
 COSMO cphf update
 COSMO cphf update
 COSMO cphf update
 COSMO cphf update
 COSMO cphf update
 COSMO cphf update
 COSMO cphf update
 COSMO cphf update
 COSMO cphf update
 COSMO cphf update
 COSMO cphf update
 COSMO cphf update
 COSMO cphf update
 threshold for this macro iteration:  1.000000000000000E-003
     31      15        13.19     0.14E-02  ( 14)
 COSMO cphf update
 COSMO cphf update
     32       1         1.08     0.18E-02  ( 14)
 COSMO cphf update
 COSMO cphf update
     33       1         1.08     0.26E-02  ( 14)
 COSMO cphf update
 COSMO cphf update
     34       1         1.11     0.14E-02  ( 14)
 COSMO cphf update
 COSMO cphf update
     35       1         1.10     0.86E-03  ( 14)
    --------------------------------------------
    converged in 35 iterations

         Total time        149.26 minutes


 ===========================================




 Note that this is the intermediate result of a preoptimization!
 The convergence threshold was  0.1E-02 only!
 COSMO: note that the excitation energies below do not include
        the nonequilibrium contributions yet. These require the
        computation of the relaxed densities. See end of output
        for a final list of corrected excitations.


 +==================================================================+
 | sym | multi | state |          ADC(2) excitation energies        |
 |     |       |       +--------------------------------------------+
 |     |       |       |   Hartree    |     eV       |     cm-1     |
 +==================================================================+
 | a   |   1   |   1   |    0.1377525 |      3.74844 |    30233.179 |
 | a   |   1   |   2   |    0.1514351 |      4.12076 |    33236.165 |
 | a   |   1   |   3   |    0.1645287 |      4.47705 |    36109.865 |
 | a   |   1   |   4   |    0.1711467 |      4.65714 |    37562.359 |
 | a   |   1   |   5   |    0.2014640 |      5.48211 |    44216.240 |
 | a   |   1   |   6   |    0.2088775 |      5.68385 |    45843.319 |
 | a   |   1   |   7   |    0.2165227 |      5.89188 |    47521.230 |
 | a   |   1   |   8   |    0.2282273 |      6.21038 |    50090.111 |
 | a   |   1   |   9   |    0.2376370 |      6.46643 |    52155.298 |
 | a   |   1   |  10   |    0.2413643 |      6.56786 |    52973.340 |
 | a   |   1   |  11   |    0.2494642 |      6.78827 |    54751.065 |
 | a   |   1   |  12   |    0.2549912 |      6.93866 |    55964.102 |
 | a   |   1   |  13   |    0.2568921 |      6.99039 |    56381.302 |
 | a   |   1   |  14   |    0.2643926 |      7.19449 |    58027.471 |
 | a   |   1   |  15   |    0.2696323 |      7.33707 |    59177.448 |
 +==================================================================+





  solve for ADC(2) excitation energies/vectors using a DIIS algorithm:
  =================================================================
                                                
     summary of start vectors generation:
     -------------------------------------------
     type of solution vectors      : RE0
     symmetry                      : a  
     number of vectors requested   :    15
     number of vectors generated   :    15
       -- restarted from file      :    15
     -------------------------------------------
                                                


 ========= DIIS CC RESPONSE SOLVER =========

    threshold for convergence:0.10E-05
    max. nb. of DIIS vectors :      10
    maximum number of simultaneous jacoby matrix transformations: 15

    Iter  #Vectors  time (min)   residual
    --------------------------------------
 COSMO cphf update
 COSMO cphf update
 COSMO cphf update
 COSMO cphf update
 COSMO cphf update
 COSMO cphf update
 COSMO cphf update
 COSMO cphf update
 COSMO cphf update
 COSMO cphf update
 COSMO cphf update
 COSMO cphf update
 COSMO cphf update
 COSMO cphf update
 COSMO cphf update
 COSMO cphf update
 COSMO cphf update
 COSMO cphf update
 COSMO cphf update
 COSMO cphf update
 COSMO cphf update
 COSMO cphf update
 COSMO cphf update
 COSMO cphf update
 COSMO cphf update
 COSMO cphf update
 COSMO cphf update
 COSMO cphf update
 COSMO cphf update
 COSMO cphf update
      1      15        13.31     0.35E-03  ( 15)    0.11E-01
 COSMO cphf update
 COSMO cphf update
 COSMO cphf update
 COSMO cphf update
 COSMO cphf update
 COSMO cphf update
 COSMO cphf update
 COSMO cphf update
 COSMO cphf update
 COSMO cphf update
 COSMO cphf update
 COSMO cphf update
 COSMO cphf update
 COSMO cphf update
 COSMO cphf update
 COSMO cphf update
 COSMO cphf update
 COSMO cphf update
 COSMO cphf update
 COSMO cphf update
 COSMO cphf update
 COSMO cphf update
 COSMO cphf update
 COSMO cphf update
 COSMO cphf update
 COSMO cphf update
 COSMO cphf update
 COSMO cphf update
 COSMO cphf update
 COSMO cphf update
      2      15        13.42     0.34E-03  ( 15)    0.34E-02
 COSMO cphf update
 COSMO cphf update
 COSMO cphf update
 COSMO cphf update
 COSMO cphf update
 COSMO cphf update
 COSMO cphf update
 COSMO cphf update
 COSMO cphf update
 COSMO cphf update
 COSMO cphf update
 COSMO cphf update
 COSMO cphf update
 COSMO cphf update
 COSMO cphf update
 COSMO cphf update
 COSMO cphf update
 COSMO cphf update
 COSMO cphf update
 COSMO cphf update
 COSMO cphf update
 COSMO cphf update
 COSMO cphf update
 COSMO cphf update
 COSMO cphf update
 COSMO cphf update
 COSMO cphf update
 COSMO cphf update
 COSMO cphf update
 COSMO cphf update
      3      15        13.39     0.32E-03  ( 15)    0.35E-02
 COSMO cphf update
 COSMO cphf update
 COSMO cphf update
 COSMO cphf update
 COSMO cphf update
 COSMO cphf update
 COSMO cphf update
 COSMO cphf update
 COSMO cphf update
 COSMO cphf update
 COSMO cphf update
 COSMO cphf update
 COSMO cphf update
 COSMO cphf update
 COSMO cphf update
 COSMO cphf update
 COSMO cphf update
 COSMO cphf update
 COSMO cphf update
 COSMO cphf update
 COSMO cphf update
 COSMO cphf update
 COSMO cphf update
 COSMO cphf update
 COSMO cphf update
 COSMO cphf update
      4      13        11.53     0.26E-03  ( 15)    0.40E-02
 COSMO cphf update
 COSMO cphf update
 COSMO cphf update
 COSMO cphf update
 COSMO cphf update
 COSMO cphf update
 COSMO cphf update
 COSMO cphf update
 COSMO cphf update
 COSMO cphf update
 COSMO cphf update
 COSMO cphf update
 COSMO cphf update
 COSMO cphf update
 COSMO cphf update
 COSMO cphf update
 COSMO cphf update
 COSMO cphf update
 COSMO cphf update
 COSMO cphf update
 COSMO cphf update
 COSMO cphf update
      5      11         9.86     0.24E-03  ( 15)    0.33E-02
 COSMO cphf update
 COSMO cphf update
 COSMO cphf update
 COSMO cphf update
 COSMO cphf update
 COSMO cphf update
 COSMO cphf update
 COSMO cphf update
 COSMO cphf update
 COSMO cphf update
 COSMO cphf update
 COSMO cphf update
 COSMO cphf update
 COSMO cphf update
 COSMO cphf update
 COSMO cphf update
 COSMO cphf update
 COSMO cphf update
 COSMO cphf update
 COSMO cphf update
      6      10         9.02     0.24E-03  ( 15)    0.35E-02
 COSMO cphf update
 COSMO cphf update
 COSMO cphf update
 COSMO cphf update
 COSMO cphf update
 COSMO cphf update
 COSMO cphf update
 COSMO cphf update
 COSMO cphf update
 COSMO cphf update
 COSMO cphf update
 COSMO cphf update
 COSMO cphf update
 COSMO cphf update
      7       7         6.06     0.24E-03  ( 15)    0.33E-02
 COSMO cphf update
 COSMO cphf update
 COSMO cphf update
 COSMO cphf update
 COSMO cphf update
 COSMO cphf update
 COSMO cphf update
 COSMO cphf update
 COSMO cphf update
 COSMO cphf update
      8       5         4.34     0.24E-03  ( 15)    0.33E-02
 COSMO cphf update
 COSMO cphf update
 COSMO cphf update
 COSMO cphf update
 COSMO cphf update
 COSMO cphf update
 COSMO cphf update
 COSMO cphf update
      9       4         3.53     0.24E-03  ( 15)    0.35E-02
 COSMO cphf update
 COSMO cphf update
 COSMO cphf update
 COSMO cphf update
 COSMO cphf update
 COSMO cphf update
 COSMO cphf update
 COSMO cphf update
     10       4         3.56     0.22E-03  ( 15)    0.33E-02
 COSMO cphf update
 COSMO cphf update
 COSMO cphf update
 COSMO cphf update
 COSMO cphf update
 COSMO cphf update
     11       3         2.68     0.19E-03  ( 15)    0.33E-02
 COSMO cphf update
 COSMO cphf update
 COSMO cphf update
 COSMO cphf update
     12       2         1.88     0.17E-03  ( 15)    0.34E-02
 COSMO cphf update
 COSMO cphf update
 COSMO cphf update
 COSMO cphf update
     13       2         1.88     0.15E-03  ( 15)    0.33E-02
 COSMO cphf update
 COSMO cphf update
 COSMO cphf update
 COSMO cphf update
     14       2         1.88     0.12E-03  ( 15)    0.33E-02
 COSMO cphf update
 COSMO cphf update
 COSMO cphf update
 COSMO cphf update
     15       2         1.88     0.10E-03  ( 15)    0.33E-02
 COSMO cphf update
 COSMO cphf update
 COSMO cphf update
 COSMO cphf update
     16       2         1.89     0.86E-04  ( 15)    0.33E-02
 COSMO cphf update
 COSMO cphf update
 COSMO cphf update
 COSMO cphf update
     17       2         1.90     0.72E-04  ( 15)    0.33E-02
 COSMO cphf update
 COSMO cphf update
 COSMO cphf update
 COSMO cphf update
     18       2         1.90     0.60E-04  ( 15)    0.33E-02
 COSMO cphf update
 COSMO cphf update
 COSMO cphf update
 COSMO cphf update
     19       2         1.88     0.53E-04  ( 15)    0.33E-02
 COSMO cphf update
 COSMO cphf update
 COSMO cphf update
 COSMO cphf update
     20       2         1.90     0.44E-04  ( 15)    0.33E-02
 COSMO cphf update
 COSMO cphf update
 COSMO cphf update
 COSMO cphf update
     21       2         1.89     0.39E-04  ( 15)    0.33E-02
 COSMO cphf update
 COSMO cphf update
 COSMO cphf update
 COSMO cphf update
     22       2         1.90     0.35E-04  ( 15)    0.33E-02
 COSMO cphf update
 COSMO cphf update
 COSMO cphf update
 COSMO cphf update
     23       2         1.89     0.33E-04  ( 15)    0.33E-02
 COSMO cphf update
 COSMO cphf update
 COSMO cphf update
 COSMO cphf update
     24       2         1.88     0.30E-04  ( 15)    0.33E-02
 COSMO cphf update
 COSMO cphf update
 COSMO cphf update
 COSMO cphf update
     25       2         1.89     0.26E-04  ( 15)    0.33E-02
 COSMO cphf update
 COSMO cphf update
     26       1         1.08     0.23E-04  ( 15)    0.33E-02
 COSMO cphf update
 COSMO cphf update
     27       1         1.09     0.21E-04  ( 15)    0.33E-02
 COSMO cphf update
 COSMO cphf update
     28       1         1.08     0.19E-04  ( 15)    0.33E-02
 COSMO cphf update
 COSMO cphf update
     29       1         1.08     0.17E-04  ( 15)    0.33E-02
 COSMO cphf update
 COSMO cphf update
     30       1         1.08     0.16E-04  ( 15)    0.33E-02
 COSMO cphf update
 COSMO cphf update
     31       1         1.09     0.14E-04  ( 15)    0.33E-02
 COSMO cphf update
 COSMO cphf update
     32       1         1.08     0.11E-04  ( 15)    0.33E-02
 COSMO cphf update
 COSMO cphf update
     33       1         1.09     0.95E-05  ( 15)    0.33E-02
 COSMO cphf update
 COSMO cphf update
     34       1         1.11     0.78E-05  ( 15)    0.33E-02
 COSMO cphf update
 COSMO cphf update
     35       1         1.09     0.68E-05  ( 15)    0.33E-02
 COSMO cphf update
 COSMO cphf update
     36       1         1.08     0.57E-05  ( 15)    0.33E-02
 COSMO cphf update
 COSMO cphf update
     37       1         1.08     0.49E-05  ( 15)    0.33E-02
 COSMO cphf update
 COSMO cphf update
     38       1         1.08     0.44E-05  ( 15)    0.33E-02
 COSMO cphf update
 COSMO cphf update
     39       1         1.08     0.39E-05  ( 15)    0.33E-02
 COSMO cphf update
 COSMO cphf update
     40       1         1.09     0.35E-05  ( 15)    0.33E-02
 COSMO cphf update
 COSMO cphf update
     41       1         1.09     0.33E-05  ( 15)    0.33E-02
 COSMO cphf update
 COSMO cphf update
     42       1         1.10     0.32E-05  ( 15)    0.33E-02
 COSMO cphf update
 COSMO cphf update
     43       1         1.09     0.30E-05  ( 15)    0.33E-02
 COSMO cphf update
 COSMO cphf update
     44       1         1.09     0.29E-05  ( 15)    0.33E-02
 COSMO cphf update
 COSMO cphf update
     45       1         1.10     0.29E-05  ( 15)    0.33E-02
 COSMO cphf update
 COSMO cphf update
     46       1         1.08     0.29E-05  ( 15)    0.33E-02
 COSMO cphf update
 COSMO cphf update
     47       1         1.09     0.29E-05  ( 15)    0.33E-02
 COSMO cphf update
 COSMO cphf update
     48       1         1.08     0.28E-05  ( 15)    0.33E-02
 COSMO cphf update
 COSMO cphf update
     49       1         1.09     0.28E-05  ( 15)    0.33E-02
 COSMO cphf update
 COSMO cphf update
     50       1         1.10     0.28E-05  ( 15)    0.33E-02
 COSMO cphf update
 COSMO cphf update
     51       1         1.09     0.28E-05  ( 15)    0.33E-02
 COSMO cphf update
 COSMO cphf update
     52       1         1.09     0.27E-05  ( 15)    0.33E-02
 COSMO cphf update
 COSMO cphf update
     53       1         1.09     0.24E-05  ( 15)    0.33E-02
 COSMO cphf update
 COSMO cphf update
     54       1         1.10     0.20E-05  ( 15)    0.33E-02
 COSMO cphf update
 COSMO cphf update
     55       1         1.12     0.14E-05  ( 15)    0.33E-02
 COSMO cphf update
 COSMO cphf update
     56       1         1.10     0.97E-06  ( 15)    0.33E-02
    --------------------------------------
    converged in  56 iterations

   Total time        150.92 minutes


 ===========================================


 COSMO: note that the excitation energies below do not include
        the nonequilibrium contributions yet. These require the
        computation of the relaxed densities. See end of output
        for a final list of corrected excitations.



 +================================================================================+
 | sym | multi | state |          ADC(2) excitation energies    |  %t1   |  %t2   |
 |     |       |       +----------------------------------------+--------+--------+
 |     |       |       |   Hartree    |    eV      |    cm-1    |    %   |    %   |
 +================================================================================+
 | a   |   1   |   1   |    0.1377524 |    3.74843 |  30233.157 |  89.72 |  10.28 |
 | a   |   1   |   2   |    0.1514346 |    4.12074 |  33236.050 |  88.13 |  11.87 |
 | a   |   1   |   3   |    0.1645288 |    4.47706 |  36109.908 |  90.14 |   9.86 |
 | a   |   1   |   4   |    0.1711467 |    4.65714 |  37562.352 |  89.84 |  10.16 |
 | a   |   1   |   5   |    0.2014639 |    5.48211 |  44216.213 |  88.73 |  11.27 |
 | a   |   1   |   6   |    0.2088777 |    5.68385 |  45843.346 |  92.05 |   7.95 |
 | a   |   1   |   7   |    0.2165221 |    5.89187 |  47521.104 |  88.86 |  11.14 |
 | a   |   1   |   8   |    0.2282265 |    6.21036 |  50089.936 |  89.75 |  10.25 |
 | a   |   1   |   9   |    0.2376373 |    6.46644 |  52155.349 |  91.50 |   8.50 |
 | a   |   1   |  10   |    0.2413642 |    6.56785 |  52973.321 |  91.62 |   8.38 |
 | a   |   1   |  11   |    0.2494712 |    6.78846 |  54752.608 |  83.49 |  16.51 |
 | a   |   1   |  12   |    0.2549915 |    6.93867 |  55964.156 |  91.58 |   8.42 |
 | a   |   1   |  13   |    0.2568920 |    6.99039 |  56381.279 |  91.41 |   8.59 |
 | a   |   1   |  14   |    0.2642483 |    7.19056 |  57995.804 |  85.75 |  14.25 |
 | a   |   1   |  15   |    0.2696649 |    7.33796 |  59184.607 |  91.99 |   8.01 |
 +================================================================================+


       Energy:     0.1377524 H      3.74843 eV    30233.157 cm-1

     +=======================================================================+
     | type: RE0                    symmetry: a               state:    1    |
     +-----------------------+-----------------------+-----------------------+
     | occ. orb.  index spin | vir. orb.  index spin |  coeff/|amp|     %    |
     +=======================+=======================+=======================+
     |   32 a       32       |   37 a       37       |   0.90694      82.3   |
     |   32 a       32       |   49 a       49       |  -0.32936      10.8   |
     |   32 a       32       |   54 a       54       |   0.18159       3.3   |
     +=======================+=======================+=======================+
     norm of printed elements:  0.96399


       Energy:     0.1514346 H      4.12074 eV    33236.050 cm-1

     +=======================================================================+
     | type: RE0                    symmetry: a               state:    2    |
     +-----------------------+-----------------------+-----------------------+
     | occ. orb.  index spin | vir. orb.  index spin |  coeff/|amp|     %    |
     +=======================+=======================+=======================+
     |   36 a       36       |   37 a       37       |   0.96594      93.3   |
     |   36 a       36       |   45 a       45       |   0.10939       1.2   |
     |   36 a       36       |   49 a       49       |  -0.08920       0.8   |
     +=======================+=======================+=======================+
     norm of printed elements:  0.95297


       Energy:     0.1645288 H      4.47706 eV    36109.908 cm-1

     +=======================================================================+
     | type: RE0                    symmetry: a               state:    3    |
     +-----------------------+-----------------------+-----------------------+
     | occ. orb.  index spin | vir. orb.  index spin |  coeff/|amp|     %    |
     +=======================+=======================+=======================+
     |   31 a       31       |   37 a       37       |   0.90340      81.6   |
     |   31 a       31       |   49 a       49       |  -0.31426       9.9   |
     |   31 a       31       |   54 a       54       |   0.17095       2.9   |
     |   28 a       28       |   37 a       37       |   0.11327       1.3   |
     +=======================+=======================+=======================+
     norm of printed elements:  0.95694


       Energy:     0.1711467 H      4.65714 eV    37562.352 cm-1

     +=======================================================================+
     | type: RE0                    symmetry: a               state:    4    |
     +-----------------------+-----------------------+-----------------------+
     | occ. orb.  index spin | vir. orb.  index spin |  coeff/|amp|     %    |
     +=======================+=======================+=======================+
     |   36 a       36       |   41 a       41       |   0.68549      47.0   |
     |   35 a       35       |   37 a       37       |   0.47598      22.7   |
     |   36 a       36       |   43 a       43       |  -0.47109      22.2   |
     |   35 a       35       |   45 a       45       |   0.14482       2.1   |
     |   36 a       36       |   55 a       55       |   0.09777       1.0   |
     |   36 a       36       |   50 a       50       |  -0.09197       0.8   |
     +=======================+=======================+=======================+
     norm of printed elements:  0.95737


       Energy:     0.2014639 H      5.48211 eV    44216.213 cm-1

     +=======================================================================+
     | type: RE0                    symmetry: a               state:    5    |
     +-----------------------+-----------------------+-----------------------+
     | occ. orb.  index spin | vir. orb.  index spin |  coeff/|amp|     %    |
     +=======================+=======================+=======================+
     |   35 a       35       |   37 a       37       |   0.69726      48.6   |
     |   34 a       34       |   37 a       37       |  -0.53977      29.1   |
     |   36 a       36       |   41 a       41       |  -0.31568      10.0   |
     |   36 a       36       |   43 a       43       |   0.21227       4.5   |
     |   34 a       34       |   49 a       49       |   0.13977       2.0   |
     |   34 a       34       |   54 a       54       |  -0.07564       0.6   |
     |   33 a       33       |   41 a       41       |  -0.07314       0.5   |
     +=======================+=======================+=======================+
     norm of printed elements:  0.95283


       Energy:     0.2088777 H      5.68385 eV    45843.346 cm-1

     +=======================================================================+
     | type: RE0                    symmetry: a               state:    6    |
     +-----------------------+-----------------------+-----------------------+
     | occ. orb.  index spin | vir. orb.  index spin |  coeff/|amp|     %    |
     +=======================+=======================+=======================+
     |   36 a       36       |   38 a       38       |   0.90352      81.6   |
     |   36 a       36       |   40 a       40       |   0.21250       4.5   |
     |   33 a       33       |   38 a       38       |   0.18434       3.4   |
     |   36 a       36       |   65 a       65       |  -0.12924       1.7   |
     |   33 a       33       |   40 a       40       |   0.10492       1.1   |
     |   36 a       36       |   44 a       44       |   0.09692       0.9   |
     |   36 a       36       |   58 a       58       |  -0.08980       0.8   |
     |   36 a       36       |   42 a       42       |   0.08740       0.8   |
     |   29 a       29       |   38 a       38       |   0.08419       0.7   |
     +=======================+=======================+=======================+
     norm of printed elements:  0.95537


       Energy:     0.2165221 H      5.89187 eV    47521.104 cm-1

     +=======================================================================+
     | type: RE0                    symmetry: a               state:    7    |
     +-----------------------+-----------------------+-----------------------+
     | occ. orb.  index spin | vir. orb.  index spin |  coeff/|amp|     %    |
     +=======================+=======================+=======================+
     |   34 a       34       |   37 a       37       |   0.76182      58.0   |
     |   35 a       35       |   37 a       37       |   0.47562      22.6   |
     |   36 a       36       |   41 a       41       |  -0.23130       5.3   |
     |   34 a       34       |   49 a       49       |  -0.18268       3.3   |
     |   36 a       36       |   43 a       43       |   0.15031       2.3   |
     |   33 a       33       |   41 a       41       |  -0.11484       1.3   |
     |   34 a       34       |   54 a       54       |   0.09756       1.0   |
     |   33 a       33       |   43 a       43       |   0.07712       0.6   |
     |   35 a       35       |   45 a       45       |   0.06319       0.4   |
     |   34 a       34       |   45 a       45       |  -0.05818       0.3   |
     +=======================+=======================+=======================+
     norm of printed elements:  0.95207


       Energy:     0.2282265 H      6.21036 eV    50089.936 cm-1

     +=======================================================================+
     | type: RE0                    symmetry: a               state:    8    |
     +-----------------------+-----------------------+-----------------------+
     | occ. orb.  index spin | vir. orb.  index spin |  coeff/|amp|     %    |
     +=======================+=======================+=======================+
     |   36 a       36       |   49 a       49       |   0.68408      46.8   |
     |   36 a       36       |   45 a       45       |   0.48071      23.1   |
     |   33 a       33       |   37 a       37       |   0.27634       7.6   |
     |   36 a       36       |   54 a       54       |  -0.24788       6.1   |
     |   36 a       36       |   60 a       60       |  -0.17846       3.2   |
     |   35 a       35       |   41 a       41       |  -0.17440       3.0   |
     |   35 a       35       |   43 a       43       |   0.11989       1.4   |
     |   36 a       36       |   40 a       40       |  -0.09807       1.0   |
     |   36 a       36       |   38 a       38       |   0.07520       0.6   |
     |   33 a       33       |   45 a       45       |   0.07492       0.6   |
     |   36 a       36       |   44 a       44       |   0.07394       0.5   |
     |   33 a       33       |   49 a       49       |   0.06849       0.5   |
     |   29 a       29       |   49 a       49       |   0.06326       0.4   |
     |   36 a       36       |   42 a       42       |  -0.05835       0.3   |
     +=======================+=======================+=======================+
     norm of printed elements:  0.95194


       Energy:     0.2376373 H      6.46644 eV    52155.349 cm-1

     +=======================================================================+
     | type: RE0                    symmetry: a               state:    9    |
     +-----------------------+-----------------------+-----------------------+
     | occ. orb.  index spin | vir. orb.  index spin |  coeff/|amp|     %    |
     +=======================+=======================+=======================+
     |   36 a       36       |   40 a       40       |   0.78942      62.3   |
     |   36 a       36       |   42 a       42       |   0.32731      10.7   |
     |   36 a       36       |   44 a       44       |  -0.32031      10.3   |
     |   36 a       36       |   38 a       38       |  -0.21971       4.8   |
     |   36 a       36       |   65 a       65       |   0.11434       1.3   |
     |   33 a       33       |   40 a       40       |   0.10068       1.0   |
     |   36 a       36       |   58 a       58       |  -0.09399       0.9   |
     |   36 a       36       |   64 a       64       |  -0.09105       0.8   |
     |   33 a       33       |   38 a       38       |   0.08812       0.8   |
     |   36 a       36       |   49 a       49       |   0.08797       0.8   |
     |   36 a       36       |   69 a       69       |  -0.08733       0.8   |
     |   33 a       33       |   42 a       42       |   0.08718       0.8   |
     +=======================+=======================+=======================+
     norm of printed elements:  0.95225


       Energy:     0.2413642 H      6.56785 eV    52973.321 cm-1

     +=======================================================================+
     | type: RE0                    symmetry: a               state:   10    |
     +-----------------------+-----------------------+-----------------------+
     | occ. orb.  index spin | vir. orb.  index spin |  coeff/|amp|     %    |
     +=======================+=======================+=======================+
     |   36 a       36       |   39 a       39       |   0.89646      80.4   |
     |   36 a       36       |   43 a       43       |   0.25969       6.7   |
     |   33 a       33       |   39 a       39       |   0.13418       1.8   |
     |   36 a       36       |   66 a       66       |   0.13287       1.8   |
     |   36 a       36       |   41 a       41       |   0.13137       1.7   |
     |   35 a       35       |   38 a       38       |   0.11747       1.4   |
     |   36 a       36       |   68 a       68       |  -0.10764       1.2   |
     |   36 a       36       |   51 a       51       |  -0.08147       0.7   |
     +=======================+=======================+=======================+
     norm of printed elements:  0.95603


       Energy:     0.2494712 H      6.78846 eV    54752.608 cm-1

     +=======================================================================+
     | type: RE0                    symmetry: a               state:   11    |
     +-----------------------+-----------------------+-----------------------+
     | occ. orb.  index spin | vir. orb.  index spin |  coeff/|amp|     %    |
     +=======================+=======================+=======================+
     |   32 a       32       |   41 a       41       |   0.80263      64.4   |
     |   32 a       32       |   43 a       43       |  -0.55600      30.9   |
     +=======================+=======================+=======================+
     norm of printed elements:  0.95334


       Energy:     0.2549915 H      6.93867 eV    55964.156 cm-1

     +=======================================================================+
     | type: RE0                    symmetry: a               state:   12    |
     +-----------------------+-----------------------+-----------------------+
     | occ. orb.  index spin | vir. orb.  index spin |  coeff/|amp|     %    |
     +=======================+=======================+=======================+
     |   35 a       35       |   41 a       41       |   0.76546      58.6   |
     |   35 a       35       |   43 a       43       |  -0.52553      27.6   |
     |   36 a       36       |   49 a       49       |   0.13569       1.8   |
     |   36 a       36       |   45 a       45       |   0.11054       1.2   |
     |   35 a       35       |   55 a       55       |   0.10609       1.1   |
     |   29 a       29       |   37 a       37       |   0.09487       0.9   |
     |   34 a       34       |   41 a       41       |  -0.07929       0.6   |
     |   35 a       35       |   50 a       50       |  -0.07185       0.5   |
     |   33 a       33       |   49 a       49       |   0.07157       0.5   |
     |   36 a       36       |   37 a       37       |   0.06975       0.5   |
     |   33 a       33       |   37 a       37       |   0.06737       0.5   |
     |   35 a       35       |   61 a       61       |   0.06178       0.4   |
     |   36 a       36       |   44 a       44       |   0.05953       0.4   |
     |   35 a       35       |   75 a       75       |  -0.05792       0.3   |
     |   34 a       34       |   43 a       43       |   0.05558       0.3   |
     +=======================+=======================+=======================+
     norm of printed elements:  0.95277


       Energy:     0.2568920 H      6.99039 eV    56381.279 cm-1

     +=======================================================================+
     | type: RE0                    symmetry: a               state:   13    |
     +-----------------------+-----------------------+-----------------------+
     | occ. orb.  index spin | vir. orb.  index spin |  coeff/|amp|     %    |
     +=======================+=======================+=======================+
     |   36 a       36       |   44 a       44       |   0.83224      69.3   |
     |   36 a       36       |   42 a       42       |   0.33065      10.9   |
     |   36 a       36       |   56 a       56       |  -0.21429       4.6   |
     |   36 a       36       |   63 a       63       |  -0.17769       3.2   |
     |   36 a       36       |   38 a       38       |  -0.13902       1.9   |
     |   36 a       36       |   40 a       40       |   0.13014       1.7   |
     |   36 a       36       |   67 a       67       |   0.11348       1.3   |
     |   36 a       36       |   48 a       48       |   0.08973       0.8   |
     |   33 a       33       |   44 a       44       |   0.07294       0.5   |
     |   36 a       36       |   72 a       72       |  -0.07009       0.5   |
     |   35 a       35       |   39 a       39       |  -0.06736       0.5   |
     +=======================+=======================+=======================+
     norm of printed elements:  0.95141


       Energy:     0.2642483 H      7.19056 eV    57995.804 cm-1

     +=======================================================================+
     | type: RE0                    symmetry: a               state:   14    |
     +-----------------------+-----------------------+-----------------------+
     | occ. orb.  index spin | vir. orb.  index spin |  coeff/|amp|     %    |
     +=======================+=======================+=======================+
     |   33 a       33       |   37 a       37       |   0.92126      84.9   |
     |   36 a       36       |   49 a       49       |  -0.21578       4.7   |
     |   36 a       36       |   45 a       45       |  -0.17878       3.2   |
     |   33 a       33       |   45 a       45       |   0.12596       1.6   |
     |   29 a       29       |   37 a       37       |  -0.08945       0.8   |
     +=======================+=======================+=======================+
     norm of printed elements:  0.95111


       Energy:     0.2696649 H      7.33796 eV    59184.607 cm-1

     +=======================================================================+
     | type: RE0                    symmetry: a               state:   15    |
     +-----------------------+-----------------------+-----------------------+
     | occ. orb.  index spin | vir. orb.  index spin |  coeff/|amp|     %    |
     +=======================+=======================+=======================+
     |   35 a       35       |   38 a       38       |   0.91419      83.6   |
     |   35 a       35       |   44 a       44       |   0.21042       4.4   |
     |   35 a       35       |   65 a       65       |  -0.17904       3.2   |
     |   35 a       35       |   40 a       40       |  -0.15687       2.5   |
     |   35 a       35       |   42 a       42       |  -0.11157       1.2   |
     |   36 a       36       |   39 a       39       |  -0.10488       1.1   |
     +=======================+=======================+=======================+
     norm of printed elements:  0.96014



     Info: copy ADC(2) right eigenvectors into left eigenvector files.


                    ========   CC DENSITY MODULE   ========

                      current wave-function model: ADC(2)  

  calculating overlap between   15 left and right vector(s)
    density nr.      cpu/min        wall/min    L     R
   ------------------------------------------------------
         1             0.71            0.74    LE0    RE0 
         2             0.70            0.74    LE0    RE0 
         3             0.71            0.75    LE0    RE0 
         4             0.70            0.74    LE0    RE0 
         5             0.71            0.74    LE0    RE0 
         6             0.71            0.74    LE0    RE0 
         7             0.71            0.76    LE0    RE0 
         8             0.70            0.76    LE0    RE0 
         9             0.70            0.74    LE0    RE0 
        10             0.71            0.74    LE0    RE0 
        11             0.71            0.75    LE0    RE0 
        12             0.70            0.77    LE0    RE0 
        13             0.71            0.75    LE0    RE0 
        14             0.71            0.74    LE0    RE0 
        15             0.71            0.74    LE0    RE0 
   ------------------------------------------------------
     time in cc_1den       cpu: 10 min 35 s  wall: 11 min 13 s  ratio:  0.9



     +==========================================================+
     |   contributions of excitation levels to excited states   |
     |     wavefunctions as computed from the <L|R> overlap     |
     +----------------------------------------------------------+
     | sym | multi | state |    E / eV  | % singles | % doubles |
     +==========================================================+
     | a   |   1   |   1   |    3.74843 |   89.72   |   10.28   |
     | a   |   1   |   2   |    4.12074 |   88.13   |   11.87   |
     | a   |   1   |   3   |    4.47706 |   90.14   |    9.86   |
     | a   |   1   |   4   |    4.65714 |   89.84   |   10.16   |
     | a   |   1   |   5   |    5.48211 |   88.73   |   11.27   |
     | a   |   1   |   6   |    5.68385 |   92.05   |    7.95   |
     | a   |   1   |   7   |    5.89187 |   88.86   |   11.14   |
     | a   |   1   |   8   |    6.21036 |   89.75   |   10.25   |
     | a   |   1   |   9   |    6.46644 |   91.50   |    8.50   |
     | a   |   1   |  10   |    6.56785 |   91.62   |    8.38   |
     | a   |   1   |  11   |    6.78846 |   83.49   |   16.51   |
     | a   |   1   |  12   |    6.93867 |   91.58   |    8.42   |
     | a   |   1   |  13   |    6.99039 |   91.41   |    8.59   |
     | a   |   1   |  14   |    7.19056 |   85.75   |   14.25   |
     | a   |   1   |  15   |    7.33796 |   91.99   |    8.01   |
     +==========================================================+




   **************************************************************************
   **************************************************************************
   **                                                                      **
   **          CALCULATION OF COUPLED CLUSTER RESPONSE PROPERTIES          **
   **                                                                      **
   **************************************************************************
   **************************************************************************

      The semi-canonical algorithm will be used for densities

  === B matrix transformation for   15 state(s) ===


                   ======== (gen.) F MATRIX MODULE  ========
               calculating    15 L * B * R transformations


                    ========   CC DENSITY MODULE   ========

                      current wave-function model: MP2     

  calculating CC ground state density

   a semicanonical algorithm will be used

    density nr.      cpu/min        wall/min    L     R
   ------------------------------------------------------
         1             0.70            0.81    L0     R0  
   ------------------------------------------------------
     time in cc_1den       cpu: 41.87 sec    wall: 48.86 sec    ratio:  0.9

 reading orbital data $scfmo  from file mos . 

 orbital characterization : scfconv=7
 
 all orbitals will be active in the correlation treatment

   EMP2            :     -491.415589563791
   EMP2 from traces:     -491.415589563791
   Delta           :        0.000000000000

   --------------------------------------------------------------------------

        Solving 4-Index ERI based CPHF equations using a RI-CPHF
        preoptimization with a "cbas" type auxiliary basis


 ======== LINEAR CC RESPONSE SOLVER ========

    threshold for convergence: 0.10E-01
    maximum number of simultaneous jacoby matrix transformations:  1
                                                
     summary of start vectors generation:
     -------------------------------------------
     type of solution vectors      : l0o
     symmetry                      : a  
     number of vectors requested   :     1
     number of vectors generated   :     1
     -------------------------------------------
                                                

    Iter  #Vectors  time (min)    max. residual 
    --------------------------------------------
      1       1         0.28     0.59E+00  (  1)
      2       1         0.29     0.25E+00  (  1)
      3       1         0.28     0.10E+00  (  1)
      4       1         0.28     0.45E-01  (  1)
      5       1         0.27     0.14E-01  (  1)
      6       1         0.30     0.62E-02  (  1)
    --------------------------------------------
    converged in  6 iterations

         Total time          1.70 minutes


 ===========================================




 ======== LINEAR CC RESPONSE SOLVER ========

    threshold for convergence: 0.10E-03
    maximum number of simultaneous jacoby matrix transformations:  1
                                                
     summary of start vectors generation:
     -------------------------------------------
     type of solution vectors      : l0o
     symmetry                      : a  
     number of vectors requested   :     1
     number of vectors generated   :     1
     -------------------------------------------
                                                

    Iter  #Vectors  time (min)    max. residual 
    --------------------------------------------
      1       1         1.46     0.62E-02  (  1)
      2       1         1.46     0.23E-02  (  1)
      3       1         1.45     0.16E-02  (  1)
      4       1         1.48     0.54E-03  (  1)
      5       1         1.47     0.19E-03  (  1)
      6       1         1.48     0.79E-04  (  1)
    --------------------------------------------
    converged in  6 iterations

         Total time          8.80 minutes


 ===========================================


   --------------------------------------------------------------------------
 COSMO: write data to file cosmotransfer


                    ========   CC DENSITY MODULE   ========

                      current wave-function model: ADC(2)  

  calculating    30 xi densities
     and    15 xi type intermediate(s) for excited state gradient

   a semicanonical algorithm will be used

    density nr.      cpu/min        wall/min    L     R
   ------------------------------------------------------
         1             1.19            1.36    LE0    R0  
         2             1.19            1.36    LE0    R0  
         3             1.19            1.38    LE0    R0  
         4             1.18            1.40    LE0    R0  
         5             1.17            1.34    LE0    R0  
         6             1.18            1.38    LE0    R0  
         7             1.19            1.35    LE0    R0  
         8             1.20            1.36    LE0    R0  
         9             1.18            1.34    LE0    R0  
        10             1.19            1.36    LE0    R0  
        11             1.18            1.34    LE0    R0  
        12             1.18            1.35    LE0    R0  
        13             1.21            1.38    LE0    R0  
        14             1.18            1.38    LE0    R0  
        15             1.19            1.37    LE0    R0  
        16             1.93            2.56    NL0    R0  
        17             1.93            2.61    NL0    R0  
        18             1.94            2.85    NL0    R0  
        19             1.93            2.47    NL0    R0  
        20             1.93            2.46    NL0    R0  
        21             1.94            2.49    NL0    R0  
        22             1.93            2.48    NL0    R0  
        23             1.94            3.28    NL0    R0  
        24             1.93            2.60    NL0    R0  
        25             1.93            2.51    NL0    R0  
        26             1.93            2.46    NL0    R0  
        27             1.93            2.47    NL0    R0  
        28             1.93            2.49    NL0    R0  
        29             1.93            2.57    NL0    R0  
        30             1.93            2.52    NL0    R0  
   ------------------------------------------------------
     time in cc_1den       cpu: 46 min 47 s  wall: 59 min 19 s  ratio:  0.8


                    ========   CC DENSITY MODULE   ========

                      current wave-function model: ADC(2)  

  calculating    15 A densities
     and    15 set of A type intermediate(s) for excited state gradient

   a semicanonical algorithm will be used

    density nr.      cpu/min        wall/min    L     R
   ------------------------------------------------------
 COSMO cphf update
 COSMO cphf update
         1             2.87            3.66    LE0    RE0 
 COSMO cphf update
 COSMO cphf update
         2             2.88            4.01    LE0    RE0 
 COSMO cphf update
 COSMO cphf update
         3             2.87            3.76    LE0    RE0 
 COSMO cphf update
 COSMO cphf update
         4             2.87            3.60    LE0    RE0 
 COSMO cphf update
 COSMO cphf update
         5             2.86            3.74    LE0    RE0 
 COSMO cphf update
 COSMO cphf update
         6             2.87            3.92    LE0    RE0 
 COSMO cphf update
 COSMO cphf update
         7             2.87            3.72    LE0    RE0 
 COSMO cphf update
 COSMO cphf update
         8             2.90            4.14    LE0    RE0 
 COSMO cphf update
 COSMO cphf update
         9             2.90            3.77    LE0    RE0 
 COSMO cphf update
 COSMO cphf update
[...]
 | E_exci (ground to x state)      |     0.23763725  |
 | Correction for fast part of RF  |    -0.00121853  |
 | Correction for update of eq. RF |     0.00000023  |
 +---------------------------------+-----------------+


  +=========================================================================+
  |  Excited state reached by transition:                   model: ADC(2)   |
  |    number, symmetry, multiplicity:   10 a    1                          |
  |    frequency :   0.2413642100 a.u.     6.56785 e.V.     52973.3 rcm     |
  +=========================================================================+

      Total energy of excited state:    -491.1742253538

   +-----------------+-----------------+-----------------+-----------------+
   | operator        | expect. value   | electr. contrib.| diff to gr.st.  |
   +-----------------+-----------------+-----------------+-----------------+
   | xdiplen (unrel) |     -1.58985090 |    -89.55283144 |      1.57349049 |
   | xdiplen (relax) |     -1.26282353 |    -89.22580407 |       ---       |
   | ydiplen (unrel) |     -0.00063023 |     -0.00062645 |     -0.00069923 |
   | ydiplen (relax) |     -0.00056040 |     -0.00055662 |       ---       |
   | zdiplen (unrel) |      0.06589509 |      2.35262339 |     -0.19280437 |
   | zdiplen (relax) |      0.08727134 |      2.37399964 |       ---       |
   +-----------------+-----------------+-----------------+-----------------+


     Analysis of relaxed properties:
     ===============================


     dipole moment:
     --------------

     x     -1.26282353
     y     -0.00056040
     z      0.08727134

     | dipole moment | =      1.26583564 a.u. =      3.21743297 debye
 


     Analysis of unrelaxed properties:
     =================================


     dipole moment:
     --------------

     x     -1.58985090
     y     -0.00063023
     z      0.06589509

     | dipole moment | =      1.59121603 a.u. =      4.04446734 debye
 

 +---------------------------------+-----------------+
 |   Nonequilibrium solvation      |                 |
 +---------------------------------+-----------------+
 |   E_x_(y) is the total free energy of target      |
 |   state x in the reaction field (RF)              |
 |   equilibrated for state y                        |
 +---------------------------------+-----------------+
 | E_x_(y)                         |  -491.17693959  |
 | E_x_(y) (+OCC)                  |  -491.17969506  |
 | Outlying charge correction(OCC) |    -0.00275547  |
 | E_SCF with RF of state y        |  -489.41021635  |
 | E_corr (ground state)           |    -2.00537321  |
 | E_exci (ground to x state)      |     0.24136421  |
 | Correction for fast part of RF  |    -0.00271417  |
 | Correction for update of eq. RF |    -0.00000006  |
 +---------------------------------+-----------------+


  +=========================================================================+
  |  Excited state reached by transition:                   model: ADC(2)   |
  |    number, symmetry, multiplicity:   11 a    1                          |
  |    frequency :   0.2494712375 a.u.     6.78846 e.V.     54752.6 rcm     |
  +=========================================================================+

      Total energy of excited state:    -491.1661183263

   +-----------------+-----------------+-----------------+-----------------+
   | operator        | expect. value   | electr. contrib.| diff to gr.st.  |
   +-----------------+-----------------+-----------------+-----------------+
   | xdiplen (unrel) |      2.10623340 |    -85.85674714 |      5.26957480 |
   | xdiplen (relax) |      0.29260885 |    -87.67037169 |       ---       |
   | ydiplen (unrel) |     -0.00000199 |      0.00000179 |     -0.00007099 |
   | ydiplen (relax) |      0.00005745 |      0.00006123 |       ---       |
   | zdiplen (unrel) |      0.25919824 |      2.54592654 |      0.00049878 |
   | zdiplen (relax) |      0.24781587 |      2.53454418 |       ---       |
   +-----------------+-----------------+-----------------+-----------------+


     Analysis of relaxed properties:
     ===============================


     dipole moment:
     --------------

     x      0.29260885
     y      0.00005745
     z      0.24781587

     | dipole moment | =      0.38344836 a.u. =      0.97462843 debye
 


     Analysis of unrelaxed properties:
     =================================


     dipole moment:
     --------------

     x      2.10623340
     y     -0.00000199
     z      0.25919824

     | dipole moment | =      2.12212225 a.u. =      5.39389624 debye
 

 +---------------------------------+-----------------+
 |   Nonequilibrium solvation      |                 |
 +---------------------------------+-----------------+
 |   E_x_(y) is the total free energy of target      |
 |   state x in the reaction field (RF)              |
 |   equilibrated for state y                        |
 +---------------------------------+-----------------+
 | E_x_(y)                         |  -491.17234970  |
 | E_x_(y) (+OCC)                  |  -491.17268084  |
 | Outlying charge correction(OCC) |    -0.00033114  |
 | E_SCF with RF of state y        |  -489.41021635  |
 | E_corr (ground state)           |    -2.00537321  |
 | E_exci (ground to x state)      |     0.24947124  |
 | Correction for fast part of RF  |    -0.00622994  |
 | Correction for update of eq. RF |    -0.00000144  |
 +---------------------------------+-----------------+


  +=========================================================================+
  |  Excited state reached by transition:                   model: ADC(2)   |
  |    number, symmetry, multiplicity:   12 a    1                          |
  |    frequency :   0.2549914582 a.u.     6.93867 e.V.     55964.2 rcm     |
  +=========================================================================+

      Total energy of excited state:    -491.1605981056

   +-----------------+-----------------+-----------------+-----------------+
   | operator        | expect. value   | electr. contrib.| diff to gr.st.  |
   +-----------------+-----------------+-----------------+-----------------+
   | xdiplen (unrel) |     -3.14068026 |    -91.10366080 |      0.02266113 |
   | xdiplen (relax) |     -2.75508660 |    -90.71806714 |       ---       |
   | ydiplen (unrel) |      0.00083198 |      0.00083576 |      0.00076297 |
   | ydiplen (relax) |      0.00054289 |      0.00054667 |       ---       |
   | zdiplen (unrel) |      0.24517113 |      2.53189943 |     -0.01352833 |
   | zdiplen (relax) |      0.24401174 |      2.53074004 |       ---       |
   +-----------------+-----------------+-----------------+-----------------+


     Analysis of relaxed properties:
     ===============================


     dipole moment:
     --------------

     x     -2.75508660
     y      0.00054289
     z      0.24401174

     | dipole moment | =      2.76587133 a.u. =      7.03014301 debye
 


     Analysis of unrelaxed properties:
     =================================


     dipole moment:
     --------------

     x     -3.14068026
     y      0.00083198
     z      0.24517113

     | dipole moment | =      3.15023524 a.u. =      8.00709855 debye
 

 +---------------------------------+-----------------+
 |   Nonequilibrium solvation      |                 |
 +---------------------------------+-----------------+
 |   E_x_(y) is the total free energy of target      |
 |   state x in the reaction field (RF)              |
 |   equilibrated for state y                        |
 +---------------------------------+-----------------+
 | E_x_(y)                         |  -491.16071348  |
 | E_x_(y) (+OCC)                  |  -491.16081098  |
 | Outlying charge correction(OCC) |    -0.00009750  |
 | E_SCF with RF of state y        |  -489.41021635  |
 | E_corr (ground state)           |    -2.00537321  |
 | E_exci (ground to x state)      |     0.25499146  |
 | Correction for fast part of RF  |    -0.00011534  |
 | Correction for update of eq. RF |    -0.00000004  |
 +---------------------------------+-----------------+


  +=========================================================================+
  |  Excited state reached by transition:                   model: ADC(2)   |
  |    number, symmetry, multiplicity:   13 a    1                          |
  |    frequency :   0.2568920084 a.u.     6.99039 e.V.     56381.3 rcm     |
  +=========================================================================+

      Total energy of excited state:    -491.1586975554

   +-----------------+-----------------+-----------------+-----------------+
   | operator        | expect. value   | electr. contrib.| diff to gr.st.  |
   +-----------------+-----------------+-----------------+-----------------+
   | xdiplen (unrel) |     -3.67833032 |    -91.64131086 |     -0.51498892 |
   | xdiplen (relax) |     -3.18327661 |    -91.14625715 |       ---       |
   | ydiplen (unrel) |      0.00049046 |      0.00049424 |      0.00042145 |
   | ydiplen (relax) |      0.00044716 |      0.00045094 |       ---       |
   | zdiplen (unrel) |      0.15729274 |      2.44402104 |     -0.10140672 |
   | zdiplen (relax) |      0.16986677 |      2.45659507 |       ---       |
   +-----------------+-----------------+-----------------+-----------------+


     Analysis of relaxed properties:
     ===============================


     dipole moment:
     --------------

     x     -3.18327661
     y      0.00044716
     z      0.16986677

     | dipole moment | =      3.18780566 a.u. =      8.10259301 debye
 


     Analysis of unrelaxed properties:
     =================================


     dipole moment:
     --------------

     x     -3.67833032
     y      0.00049046
     z      0.15729274

     | dipole moment | =      3.68169189 a.u. =      9.35792648 debye
 

 +---------------------------------+-----------------+
 |   Nonequilibrium solvation      |                 |
 +---------------------------------+-----------------+
 |   E_x_(y) is the total free energy of target      |
 |   state x in the reaction field (RF)              |
 |   equilibrated for state y                        |
 +---------------------------------+-----------------+
 | E_x_(y)                         |  -491.16055493  |
 | E_x_(y) (+OCC)                  |  -491.16231145  |
 | Outlying charge correction(OCC) |    -0.00175652  |
 | E_SCF with RF of state y        |  -489.41021635  |
 | E_corr (ground state)           |    -2.00537321  |
 | E_exci (ground to x state)      |     0.25689201  |
 | Correction for fast part of RF  |    -0.00185744  |
 | Correction for update of eq. RF |     0.00000007  |
 +---------------------------------+-----------------+


  +=========================================================================+
  |  Excited state reached by transition:                   model: ADC(2)   |
  |    number, symmetry, multiplicity:   14 a    1                          |
  |    frequency :   0.2642483285 a.u.     7.19056 e.V.     57995.8 rcm     |
  +=========================================================================+

      Total energy of excited state:    -491.1513412353

   +-----------------+-----------------+-----------------+-----------------+
   | operator        | expect. value   | electr. contrib.| diff to gr.st.  |
   +-----------------+-----------------+-----------------+-----------------+
   | xdiplen (unrel) |     -5.94067931 |    -93.90365985 |     -2.77733792 |
   | xdiplen (relax) |     -5.46318425 |    -93.42616479 |       ---       |
   | ydiplen (unrel) |     -0.00007064 |     -0.00006686 |     -0.00013965 |
   | ydiplen (relax) |      0.00001037 |      0.00001415 |       ---       |
   | zdiplen (unrel) |      0.23410318 |      2.52083148 |     -0.02459627 |
   | zdiplen (relax) |      0.24214979 |      2.52887809 |       ---       |
   +-----------------+-----------------+-----------------+-----------------+


     Analysis of relaxed properties:
     ===============================


     dipole moment:
     --------------

     x     -5.46318425
     y      0.00001037
     z      0.24214979

     | dipole moment | =      5.46854813 a.u. =     13.89966160 debye
 


     Analysis of unrelaxed properties:
     =================================


     dipole moment:
     --------------

     x     -5.94067931
     y     -0.00007064
     z      0.23410318

     | dipole moment | =      5.94529015 a.u. =     15.11141883 debye
 

 +---------------------------------+-----------------+
 |   Nonequilibrium solvation      |                 |
 +---------------------------------+-----------------+
 |   E_x_(y) is the total free energy of target      |
 |   state x in the reaction field (RF)              |
 |   equilibrated for state y                        |
 +---------------------------------+-----------------+
 | E_x_(y)                         |  -491.15389055  |
 | E_x_(y) (+OCC)                  |  -491.15410128  |
 | Outlying charge correction(OCC) |    -0.00021073  |
 | E_SCF with RF of state y        |  -489.41021635  |
 | E_corr (ground state)           |    -2.00537321  |
 | E_exci (ground to x state)      |     0.26424833  |
 | Correction for fast part of RF  |    -0.00255022  |
 | Correction for update of eq. RF |     0.00000090  |
 +---------------------------------+-----------------+


  +=========================================================================+
  |  Excited state reached by transition:                   model: ADC(2)   |
  |    number, symmetry, multiplicity:   15 a    1                          |
  |    frequency :   0.2696649122 a.u.     7.33796 e.V.     59184.6 rcm     |
  +=========================================================================+

      Total energy of excited state:    -491.1459246516

   +-----------------+-----------------+-----------------+-----------------+
   | operator        | expect. value   | electr. contrib.| diff to gr.st.  |
   +-----------------+-----------------+-----------------+-----------------+
   | xdiplen (unrel) |     -1.83162700 |    -89.79460753 |      1.33171440 |
   | xdiplen (relax) |     -1.69238919 |    -89.65536973 |       ---       |
   | ydiplen (unrel) |      0.00042239 |      0.00042617 |      0.00035339 |
   | ydiplen (relax) |      0.00038751 |      0.00039129 |       ---       |
   | zdiplen (unrel) |      0.09817234 |      2.38490064 |     -0.16052711 |
   | zdiplen (relax) |      0.10346530 |      2.39019360 |       ---       |
   +-----------------+-----------------+-----------------+-----------------+


     Analysis of relaxed properties:
     ===============================


     dipole moment:
     --------------

     x     -1.69238919
     y      0.00038751
     z      0.10346530

     | dipole moment | =      1.69554899 a.u. =      4.30965526 debye
 


     Analysis of unrelaxed properties:
     =================================


     dipole moment:
     --------------

     x     -1.83162700
     y      0.00042239
     z      0.09817234

     | dipole moment | =      1.83425610 a.u. =      4.66221353 debye
 

 +---------------------------------+-----------------+
 |   Nonequilibrium solvation      |                 |
 +---------------------------------+-----------------+
 |   E_x_(y) is the total free energy of target      |
 |   state x in the reaction field (RF)              |
 |   equilibrated for state y                        |
 +---------------------------------+-----------------+
 | E_x_(y)                         |  -491.14685536  |
 | E_x_(y) (+OCC)                  |  -491.14690323  |
 | Outlying charge correction(OCC) |    -0.00004787  |
 | E_SCF with RF of state y        |  -489.41021635  |
 | E_corr (ground state)           |    -2.00537321  |
 | E_exci (ground to x state)      |     0.26966491  |
 | Correction for fast part of RF  |    -0.00093062  |
 | Correction for update of eq. RF |    -0.00000009  |
 +---------------------------------+-----------------+
 Exporting excited state densities


 =============================================
 | SUMMARY OF RELAXED EXCITATIONS WITH COSMO |
 =============================================

 Explanation of the quantities below:

       E(diff)_x = E_x - E*_y
       E(exci)_x = E_x - E_gs

  E_x  : noneq.        energy of state x
  E*_y : eq.           energy of state y
  E_gs : noneq. or eq. energy of groundstate
  OCC  : outlying charge correction

 The * in column 'sym' marks the equilibrated state

 +=================================================================================+
 | sym | multi | state | COSMO-ADC(2) energy differences                           |
 |     |       |       +-----------------------------------------------------------+
 |     |       |       | E(Total)/au. |  E(diff)/eV  |  E(exci)/eV  |E(exc(OCC))/eV|
 +=================================================================================+
 |*a   |   1   |   0   | -491.4155896 |            - |            - |            - |
 +-----+-------+-------+--------------+--------------+--------------+--------------+
 | a   |   1   |   1   | -491.2782256 |      3.73786 |      3.73786 |      3.73786 |
 +-----+-------+-------+--------------+--------------+--------------+--------------+
 | a   |   1   |   2   | -491.2677897 |      4.02184 |      4.02184 |      4.01666 |
 +-----+-------+-------+--------------+--------------+--------------+--------------+
 | a   |   1   |   3   | -491.2515563 |      4.46357 |      4.46357 |      4.46308 |
 +-----+-------+-------+--------------+--------------+--------------+--------------+
 | a   |   1   |   4   | -491.2447242 |      4.64948 |      4.64948 |      4.64877 |
 +-----+-------+-------+--------------+--------------+--------------+--------------+
 | a   |   1   |   5   | -491.2147363 |      5.46550 |      5.46550 |      5.46355 |
 +-----+-------+-------+--------------+--------------+--------------+--------------+
 | a   |   1   |   6   | -491.2081869 |      5.64371 |      5.64371 |      5.60837 |
 +-----+-------+-------+--------------+--------------+--------------+--------------+
 | a   |   1   |   7   | -491.1992250 |      5.88758 |      5.88758 |      5.88641 |
 +-----+-------+-------+--------------+--------------+--------------+--------------+
 | a   |   1   |   8   | -491.1885365 |      6.17843 |      6.17843 |      6.17806 |
 +-----+-------+-------+--------------+--------------+--------------+--------------+
 | a   |   1   |   9   | -491.1791706 |      6.43329 |      6.43329 |      6.42350 |
 +-----+-------+-------+--------------+--------------+--------------+--------------+
 | a   |   1   |  10   | -491.1769396 |      6.49400 |      6.49400 |      6.42109 |
 +-----+-------+-------+--------------+--------------+--------------+--------------+
 | a   |   1   |  11   | -491.1723497 |      6.61889 |      6.61889 |      6.61196 |
 +-----+-------+-------+--------------+--------------+--------------+--------------+
 | a   |   1   |  12   | -491.1607135 |      6.93553 |      6.93553 |      6.93495 |
 +-----+-------+-------+--------------+--------------+--------------+--------------+
 | a   |   1   |  13   | -491.1605549 |      6.93985 |      6.93985 |      6.89412 |
 +-----+-------+-------+--------------+--------------+--------------+--------------+
 | a   |   1   |  14   | -491.1538906 |      7.12119 |      7.12119 |      7.11753 |
 +-----+-------+-------+--------------+--------------+--------------+--------------+
 | a   |   1   |  15   | -491.1468554 |      7.31263 |      7.31263 |      7.31340 |
 +=================================================================================+



    ------------------------------------------------------------------------
         total  cpu-time :  6 hours 39 minutes and 11 seconds
         total wall-time :  8 hours 26 minutes and 22 seconds
    ------------------------------------------------------------------------


   ****  ricc2 : all done  ****


    2023-02-15 16:13:34.360 

