[Molden Format]
[Title]
ADC(2) - opt by CAM-B3LYP gaussian                                              
[Atoms] AU
 c     1    6 -.12588699998532E+01 -.22834089986974E+01 -.24579904026210E-01
 c     2    6 -.25576598737242E+01 0.00000000000000E+00 -.23328905326240E-01
 c     3    6 -.12588681101271E+01 0.22834089986974E+01 -.24585573204610E-01
 c     4    6 0.13319747639512E+01 0.22851362083829E+01 -.26548998656670E-01
 c     5    6 0.26868460402678E+01 0.00000000000000E+00 -.25991529447470E-01
 c     6    6 0.13319728742250E+01 -.22851362083829E+01 -.26541439752140E-01
 h     7    1 -.22976467859220E+01 -.40383900994038E+01 -.22042001829740E-01
 h     8    1 -.22976448961959E+01 0.40383919891299E+01 -.22053340186540E-01
 h     9    1 0.23511286338561E+01 0.40572968093633E+01 -.28790213850280E-01
 h    10    1 0.23511267441300E+01 -.40572968093633E+01 -.28775096041210E-01
 n    11    7 -.52730224718766E+01 0.00000000000000E+00 -.17674844736640E-01
 o    12    8 -.63812882673039E+01 0.20269372576683E+01 -.15259774738810E-01
 o    13    8 -.63812844878516E+01 -.20269372576683E+01 -.15276782274010E-01
 n    14    7 0.52436643953234E+01 0.00000000000000E+00 -.69084844181800E-01
 h    15    1 0.62047866654136E+01 0.16174392738504E+01 0.18526851385235E+00
 h    16    1 0.62047847756874E+01 -.16174411635765E+01 0.18526473440008E+00
[GTO]
    1 0
 s    6 1.00
 0.13575349682000E+05 0.60645503603591E-03
 0.20352333680000E+04 0.46979088884982E-02
 0.46322562359000E+03 0.24332477647552E-01
 0.13120019598000E+03 0.97399968307759E-01
 0.42853015891000E+02 0.30195584253780E+00
 0.15584185766000E+02 0.66233609137875E+00
 s    2 1.00
 0.62067138508000E+01 0.65595308539952E+00
 0.25764896527000E+01 0.37585633285142E+00
 s    1 1.00
 0.57696339419000E+00 0.10000000000000E+01
 s    1 1.00
 0.22972831358000E+00 0.10000000000000E+01
 s    1 1.00
 0.95164440028000E-01 0.10000000000000E+01
 s    1 1.00
 0.48475401370000E-01 0.10000000000000E+01
 p    4 1.00
 0.34697232244000E+02 0.11327220003114E-01
 0.79582622826000E+01 0.76169659202087E-01
 0.23780826883000E+01 0.30192252202676E+00
 0.81433208183000E+00 0.72785027349547E+00
 p    1 1.00
 0.28887547253000E+00 0.10000000000000E+01
 p    1 1.00
 0.10056823671000E+00 0.10000000000000E+01
 d    1 1.00
 0.10970000000000E+01 0.10000000000000E+01
 d    1 1.00
 0.31800000000000E+00 0.10000000000000E+01
 d    1 1.00
 0.90985336424000E-01 0.10000000000000E+01
 f    1 1.00
 0.76100000000000E+00 0.10000000000000E+01
 
    2 0
 s    6 1.00
 0.13575349682000E+05 0.60645503603591E-03
 0.20352333680000E+04 0.46979088884982E-02
 0.46322562359000E+03 0.24332477647552E-01
 0.13120019598000E+03 0.97399968307759E-01
 0.42853015891000E+02 0.30195584253780E+00
 0.15584185766000E+02 0.66233609137875E+00
 s    2 1.00
 0.62067138508000E+01 0.65595308539952E+00
 0.25764896527000E+01 0.37585633285142E+00
 s    1 1.00
 0.57696339419000E+00 0.10000000000000E+01
 s    1 1.00
 0.22972831358000E+00 0.10000000000000E+01
 s    1 1.00
 0.95164440028000E-01 0.10000000000000E+01
 s    1 1.00
 0.48475401370000E-01 0.10000000000000E+01
 p    4 1.00
 0.34697232244000E+02 0.11327220003114E-01
 0.79582622826000E+01 0.76169659202087E-01
 0.23780826883000E+01 0.30192252202676E+00
 0.81433208183000E+00 0.72785027349547E+00
 p    1 1.00
 0.28887547253000E+00 0.10000000000000E+01
 p    1 1.00
 0.10056823671000E+00 0.10000000000000E+01
 d    1 1.00
 0.10970000000000E+01 0.10000000000000E+01
 d    1 1.00
 0.31800000000000E+00 0.10000000000000E+01
 d    1 1.00
 0.90985336424000E-01 0.10000000000000E+01
 f    1 1.00
 0.76100000000000E+00 0.10000000000000E+01
 
    3 0
 s    6 1.00
 0.13575349682000E+05 0.60645503603591E-03
 0.20352333680000E+04 0.46979088884982E-02
 0.46322562359000E+03 0.24332477647552E-01
 0.13120019598000E+03 0.97399968307759E-01
 0.42853015891000E+02 0.30195584253780E+00
 0.15584185766000E+02 0.66233609137875E+00
 s    2 1.00
 0.62067138508000E+01 0.65595308539952E+00
 0.25764896527000E+01 0.37585633285142E+00
 s    1 1.00
 0.57696339419000E+00 0.10000000000000E+01
 s    1 1.00
 0.22972831358000E+00 0.10000000000000E+01
 s    1 1.00
 0.95164440028000E-01 0.10000000000000E+01
 s    1 1.00
 0.48475401370000E-01 0.10000000000000E+01
 p    4 1.00
 0.34697232244000E+02 0.11327220003114E-01
 0.79582622826000E+01 0.76169659202087E-01
 0.23780826883000E+01 0.30192252202676E+00
 0.81433208183000E+00 0.72785027349547E+00
 p    1 1.00
 0.28887547253000E+00 0.10000000000000E+01
 p    1 1.00
 0.10056823671000E+00 0.10000000000000E+01
 d    1 1.00
 0.10970000000000E+01 0.10000000000000E+01
 d    1 1.00
 0.31800000000000E+00 0.10000000000000E+01
 d    1 1.00
 0.90985336424000E-01 0.10000000000000E+01
 f    1 1.00
 0.76100000000000E+00 0.10000000000000E+01
 
    4 0
 s    6 1.00
 0.13575349682000E+05 0.60645503603591E-03
 0.20352333680000E+04 0.46979088884982E-02
 0.46322562359000E+03 0.24332477647552E-01
 0.13120019598000E+03 0.97399968307759E-01
 0.42853015891000E+02 0.30195584253780E+00
 0.15584185766000E+02 0.66233609137875E+00
 s    2 1.00
 0.62067138508000E+01 0.65595308539952E+00
 0.25764896527000E+01 0.37585633285142E+00
 s    1 1.00
 0.57696339419000E+00 0.10000000000000E+01
 s    1 1.00
 0.22972831358000E+00 0.10000000000000E+01
 s    1 1.00
 0.95164440028000E-01 0.10000000000000E+01
 s    1 1.00
 0.48475401370000E-01 0.10000000000000E+01
 p    4 1.00
 0.34697232244000E+02 0.11327220003114E-01
 0.79582622826000E+01 0.76169659202087E-01
 0.23780826883000E+01 0.30192252202676E+00
 0.81433208183000E+00 0.72785027349547E+00
 p    1 1.00
 0.28887547253000E+00 0.10000000000000E+01
 p    1 1.00
 0.10056823671000E+00 0.10000000000000E+01
 d    1 1.00
 0.10970000000000E+01 0.10000000000000E+01
 d    1 1.00
 0.31800000000000E+00 0.10000000000000E+01
 d    1 1.00
 0.90985336424000E-01 0.10000000000000E+01
 f    1 1.00
 0.76100000000000E+00 0.10000000000000E+01
 
    5 0
 s    6 1.00
 0.13575349682000E+05 0.60645503603591E-03
 0.20352333680000E+04 0.46979088884982E-02
 0.46322562359000E+03 0.24332477647552E-01
 0.13120019598000E+03 0.97399968307759E-01
 0.42853015891000E+02 0.30195584253780E+00
 0.15584185766000E+02 0.66233609137875E+00
 s    2 1.00
 0.62067138508000E+01 0.65595308539952E+00
 0.25764896527000E+01 0.37585633285142E+00
 s    1 1.00
 0.57696339419000E+00 0.10000000000000E+01
 s    1 1.00
 0.22972831358000E+00 0.10000000000000E+01
 s    1 1.00
 0.95164440028000E-01 0.10000000000000E+01
 s    1 1.00
 0.48475401370000E-01 0.10000000000000E+01
 p    4 1.00
 0.34697232244000E+02 0.11327220003114E-01
 0.79582622826000E+01 0.76169659202087E-01
 0.23780826883000E+01 0.30192252202676E+00
 0.81433208183000E+00 0.72785027349547E+00
 p    1 1.00
 0.28887547253000E+00 0.10000000000000E+01
 p    1 1.00
 0.10056823671000E+00 0.10000000000000E+01
 d    1 1.00
 0.10970000000000E+01 0.10000000000000E+01
 d    1 1.00
 0.31800000000000E+00 0.10000000000000E+01
 d    1 1.00
 0.90985336424000E-01 0.10000000000000E+01
 f    1 1.00
 0.76100000000000E+00 0.10000000000000E+01
 
    6 0
 s    6 1.00
 0.13575349682000E+05 0.60645503603591E-03
 0.20352333680000E+04 0.46979088884982E-02
 0.46322562359000E+03 0.24332477647552E-01
 0.13120019598000E+03 0.97399968307759E-01
 0.42853015891000E+02 0.30195584253780E+00
 0.15584185766000E+02 0.66233609137875E+00
 s    2 1.00
 0.62067138508000E+01 0.65595308539952E+00
 0.25764896527000E+01 0.37585633285142E+00
 s    1 1.00
 0.57696339419000E+00 0.10000000000000E+01
 s    1 1.00
 0.22972831358000E+00 0.10000000000000E+01
 s    1 1.00
 0.95164440028000E-01 0.10000000000000E+01
 s    1 1.00
 0.48475401370000E-01 0.10000000000000E+01
 p    4 1.00
 0.34697232244000E+02 0.11327220003114E-01
 0.79582622826000E+01 0.76169659202087E-01
 0.23780826883000E+01 0.30192252202676E+00
 0.81433208183000E+00 0.72785027349547E+00
 p    1 1.00
 0.28887547253000E+00 0.10000000000000E+01
 p    1 1.00
 0.10056823671000E+00 0.10000000000000E+01
 d    1 1.00
 0.10970000000000E+01 0.10000000000000E+01
 d    1 1.00
 0.31800000000000E+00 0.10000000000000E+01
 d    1 1.00
 0.90985336424000E-01 0.10000000000000E+01
 f    1 1.00
 0.76100000000000E+00 0.10000000000000E+01
 
    7 0
 s    3 1.00
 0.34061341000000E+02 0.25439307208879E-01
 0.51235746000000E+01 0.19008594890375E+00
 0.11646626000000E+01 0.85244113011042E+00
 s    1 1.00
 0.32723041000000E+00 0.10000000000000E+01
 s    1 1.00
 0.10307241000000E+00 0.10000000000000E+01
 p    1 1.00
 0.80000000000000E+00 0.10000000000000E+01
 p    1 1.00
 0.95774129632000E-01 0.10000000000000E+01
 
    8 0
 s    3 1.00
 0.34061341000000E+02 0.25439307208879E-01
 0.51235746000000E+01 0.19008594890375E+00
 0.11646626000000E+01 0.85244113011042E+00
 s    1 1.00
 0.32723041000000E+00 0.10000000000000E+01
 s    1 1.00
 0.10307241000000E+00 0.10000000000000E+01
 p    1 1.00
 0.80000000000000E+00 0.10000000000000E+01
 p    1 1.00
 0.95774129632000E-01 0.10000000000000E+01
 
    9 0
 s    3 1.00
 0.34061341000000E+02 0.25439307208879E-01
 0.51235746000000E+01 0.19008594890375E+00
 0.11646626000000E+01 0.85244113011042E+00
 s    1 1.00
 0.32723041000000E+00 0.10000000000000E+01
 s    1 1.00
 0.10307241000000E+00 0.10000000000000E+01
 p    1 1.00
 0.80000000000000E+00 0.10000000000000E+01
 p    1 1.00
 0.95774129632000E-01 0.10000000000000E+01
 
   10 0
 s    3 1.00
 0.34061341000000E+02 0.25439307208879E-01
 0.51235746000000E+01 0.19008594890375E+00
 0.11646626000000E+01 0.85244113011042E+00
 s    1 1.00
 0.32723041000000E+00 0.10000000000000E+01
 s    1 1.00
 0.10307241000000E+00 0.10000000000000E+01
 p    1 1.00
 0.80000000000000E+00 0.10000000000000E+01
 p    1 1.00
 0.95774129632000E-01 0.10000000000000E+01
 
   11 0
 s    6 1.00
 0.19730800647000E+05 0.58626402628763E-03
 0.29578958745000E+04 0.45428820586397E-02
 0.67322133595000E+03 0.23558413450084E-01
 0.19068249494000E+03 0.94709193292923E-01
 0.62295441898000E+02 0.29719784913376E+00
 0.22654161182000E+02 0.66916246895232E+00
 s    2 1.00
 0.89791477428000E+01 0.64596683630063E+00
 0.36863002370000E+01 0.38700574393705E+00
 s    1 1.00
 0.84660076805000E+00 0.10000000000000E+01
 s    1 1.00
 0.33647133771000E+00 0.10000000000000E+01
 s    1 1.00
 0.13647653675000E+00 0.10000000000000E+01
 s    1 1.00
 0.68441605847000E-01 0.10000000000000E+01
 p    4 1.00
 0.49200380510000E+02 0.11448825101764E-01
 0.11346790537000E+02 0.78422337970864E-01
 0.34273972411000E+01 0.30818094738830E+00
 0.11785525134000E+01 0.72027196368413E+00
 p    1 1.00
 0.41642204972000E+00 0.10000000000000E+01
 p    1 1.00
 0.14260826011000E+00 0.10000000000000E+01
 d    1 1.00
 0.16540000000000E+01 0.10000000000000E+01
 d    1 1.00
 0.46900000000000E+00 0.10000000000000E+01
 d    1 1.00
 0.12829642058000E+00 0.10000000000000E+01
 f    1 1.00
 0.10930000000000E+01 0.10000000000000E+01
 
   12 0
 s    6 1.00
 0.27032382631000E+05 0.57227335211155E-03
 0.40523871392000E+04 0.44353233492995E-02
 0.92232722710000E+03 0.23020107706038E-01
 0.26124070989000E+03 0.92822490667928E-01
 0.85354641351000E+02 0.29378500009671E+00
 0.31035035245000E+02 0.67401604501641E+00
 s    2 1.00
 0.12260860728000E+02 0.63839937025506E+00
 0.49987076005000E+01 0.39534587125718E+00
 s    1 1.00
 0.11703108158000E+01 0.10000000000000E+01
 s    1 1.00
 0.46474740994000E+00 0.10000000000000E+01
 s    1 1.00
 0.18504536357000E+00 0.10000000000000E+01
 s    1 1.00
 0.70288026270000E-01 0.10000000000000E+01
 p    4 1.00
 0.63274954801000E+02 0.12018332222616E-01
 0.14627049379000E+02 0.83005421790056E-01
 0.44501223456000E+01 0.31991743925964E+00
 0.15275799647000E+01 0.70715542916104E+00
 p    1 1.00
 0.52935117943000E+00 0.10000000000000E+01
 p    1 1.00
 0.17478421270000E+00 0.10000000000000E+01
 p    1 1.00
 0.51112745706000E-01 0.10000000000000E+01
 d    1 1.00
 0.23140000000000E+01 0.10000000000000E+01
 d    1 1.00
 0.64500000000000E+00 0.10000000000000E+01
 d    1 1.00
 0.14696477366000E+00 0.10000000000000E+01
 f    1 1.00
 0.14280000000000E+01 0.10000000000000E+01
 
   13 0
 s    6 1.00
 0.27032382631000E+05 0.57227335211155E-03
 0.40523871392000E+04 0.44353233492995E-02
 0.92232722710000E+03 0.23020107706038E-01
 0.26124070989000E+03 0.92822490667928E-01
 0.85354641351000E+02 0.29378500009671E+00
 0.31035035245000E+02 0.67401604501641E+00
 s    2 1.00
 0.12260860728000E+02 0.63839937025506E+00
 0.49987076005000E+01 0.39534587125718E+00
 s    1 1.00
 0.11703108158000E+01 0.10000000000000E+01
 s    1 1.00
 0.46474740994000E+00 0.10000000000000E+01
 s    1 1.00
 0.18504536357000E+00 0.10000000000000E+01
 s    1 1.00
 0.70288026270000E-01 0.10000000000000E+01
 p    4 1.00
 0.63274954801000E+02 0.12018332222616E-01
 0.14627049379000E+02 0.83005421790056E-01
 0.44501223456000E+01 0.31991743925964E+00
 0.15275799647000E+01 0.70715542916104E+00
 p    1 1.00
 0.52935117943000E+00 0.10000000000000E+01
 p    1 1.00
 0.17478421270000E+00 0.10000000000000E+01
 p    1 1.00
 0.51112745706000E-01 0.10000000000000E+01
 d    1 1.00
 0.23140000000000E+01 0.10000000000000E+01
 d    1 1.00
 0.64500000000000E+00 0.10000000000000E+01
 d    1 1.00
 0.14696477366000E+00 0.10000000000000E+01
 f    1 1.00
 0.14280000000000E+01 0.10000000000000E+01
 
   14 0
 s    6 1.00
 0.19730800647000E+05 0.58626402628763E-03
 0.29578958745000E+04 0.45428820586397E-02
 0.67322133595000E+03 0.23558413450084E-01
 0.19068249494000E+03 0.94709193292923E-01
 0.62295441898000E+02 0.29719784913376E+00
 0.22654161182000E+02 0.66916246895232E+00
 s    2 1.00
 0.89791477428000E+01 0.64596683630063E+00
 0.36863002370000E+01 0.38700574393705E+00
 s    1 1.00
 0.84660076805000E+00 0.10000000000000E+01
 s    1 1.00
 0.33647133771000E+00 0.10000000000000E+01
 s    1 1.00
 0.13647653675000E+00 0.10000000000000E+01
 s    1 1.00
 0.68441605847000E-01 0.10000000000000E+01
 p    4 1.00
 0.49200380510000E+02 0.11448825101764E-01
 0.11346790537000E+02 0.78422337970864E-01
 0.34273972411000E+01 0.30818094738830E+00
 0.11785525134000E+01 0.72027196368413E+00
 p    1 1.00
 0.41642204972000E+00 0.10000000000000E+01
 p    1 1.00
 0.14260826011000E+00 0.10000000000000E+01
 d    1 1.00
 0.16540000000000E+01 0.10000000000000E+01
 d    1 1.00
 0.46900000000000E+00 0.10000000000000E+01
 d    1 1.00
 0.12829642058000E+00 0.10000000000000E+01
 f    1 1.00
 0.10930000000000E+01 0.10000000000000E+01
 
   15 0
 s    3 1.00
 0.34061341000000E+02 0.25439307208879E-01
 0.51235746000000E+01 0.19008594890375E+00
 0.11646626000000E+01 0.85244113011042E+00
 s    1 1.00
 0.32723041000000E+00 0.10000000000000E+01
 s    1 1.00
 0.10307241000000E+00 0.10000000000000E+01
 p    1 1.00
 0.80000000000000E+00 0.10000000000000E+01
 p    1 1.00
 0.95774129632000E-01 0.10000000000000E+01
 
   16 0
 s    3 1.00
 0.34061341000000E+02 0.25439307208879E-01
 0.51235746000000E+01 0.19008594890375E+00
 0.11646626000000E+01 0.85244113011042E+00
 s    1 1.00
 0.32723041000000E+00 0.10000000000000E+01
 s    1 1.00
 0.10307241000000E+00 0.10000000000000E+01
 p    1 1.00
 0.80000000000000E+00 0.10000000000000E+01
 p    1 1.00
 0.95774129632000E-01 0.10000000000000E+01
 
[MO]
 Sym= X
 Ene= -0.303840
 Spin= Alpha
 Occup= -0.303840
         1   -2.201314E-05
         2   -5.016093E-05
         3    1.239924E-04
         4   -1.704580E-04
         5   -9.583602E-03
         6   -4.598215E-04
         7   -1.368869E-04
         8   -1.542671E-04
         9   -1.896170E-01
        10   -5.523016E-04
        11   -3.420331E-05
        12   -1.900889E-01
        13    3.632513E-03
        14   -6.167728E-03
        15   -1.113983E-01
        16   -7.729618E-06
        17    2.401077E-06
        18    5.328540E-06
        19    1.634269E-06
        20   -4.981077E-03
        21   -5.487991E-04
        22   -9.625060E-05
        23    5.795363E-05
        24    3.829697E-05
        25    1.769222E-05
        26   -9.472906E-03
        27    3.907814E-04
        28    7.936714E-04
        29   -9.285520E-04
        30    1.348807E-04
        31    4.422829E-04
        32   -2.558394E-03
        33   -7.453073E-04
        34   -4.221629E-06
        35   -8.165986E-07
        36    1.174607E-03
        37    8.571135E-07
        38    1.644111E-07
        39   -1.419003E-03
        40    4.806796E-06
        41    9.311710E-07
        42   -1.568980E-04
        43    1.108222E-06
        44    1.674294E-07
        45    3.940753E-07
        46    5.121555E-07
        47   -3.336615E-05
        48    2.179136E-03
        49    1.173086E-04
        50   -1.336580E-06
        51    9.965899E-05
        52   -1.607270E-05
        53   -4.041072E-06
        54    1.960591E-04
        55   -8.952945E-06
        56    1.034433E-03
        57   -9.372751E-03
        58    4.799985E-05
        59   -3.119021E-08
        60   -1.105078E-07
        61    1.416980E-07
        62    9.962679E-06
        63   -2.116511E-07
        64    7.120803E-03
        65   -1.039389E-06
        66    2.644747E-06
        67   -1.605358E-06
        68    6.969445E-05
        69    2.492404E-06
        70    1.602479E-02
        71    2.223424E-05
        72    1.367603E-05
        73   -3.591027E-05
        74   -1.353146E-03
        75    9.826201E-06
        76    1.332015E-03
        77    4.823544E-08
        78    1.666941E-07
        79   -1.907476E-08
        80   -7.827809E-08
        81    1.669260E-06
        82    7.897734E-09
        83    1.356346E-08
        84   -1.892903E-06
        85    1.769374E-08
        86    1.012883E-03
        87    2.125901E-05
        88    4.861248E-05
        89   -1.208275E-04
        90    1.981168E-04
        91    5.820423E-03
        92    3.121983E-04
        93    1.372348E-04
        94   -1.503690E-04
        95    1.896085E-01
        96    5.097545E-04
        97   -2.667438E-05
        98    1.900784E-01
        99   -4.638356E-03
       100   -4.329100E-03
       101    1.112367E-01
       102    8.150100E-06
       103   -2.453978E-06
       104   -5.696122E-06
       105    1.357715E-06
       106    4.982575E-03
       107   -5.484729E-04
       108    8.221222E-05
       109   -4.901725E-05
       110   -3.319497E-05
       111    1.464331E-05
       112    9.475363E-03
       113    3.957658E-04
       114   -7.445735E-04
       115    8.260136E-04
       116   -8.144007E-05
       117    5.422814E-04
       118    2.528034E-03
       119   -7.081315E-04
       120    3.987455E-06
       121   -7.963794E-07
       122   -1.174599E-03
       123   -8.728193E-07
       124    3.128728E-07
       125    1.419265E-03
       126   -4.476913E-06
       127    7.555822E-07
       128    1.566246E-04
       129    8.720608E-07
       130   -1.405506E-05
       131   -3.334762E-05
       132    1.313503E-04
       133   -5.383405E-04
       134   -9.328641E-03
       135   -4.477159E-04
       136    1.369700E-04
       137    7.996637E-05
       138    2.002129E-01
       139    3.251758E-04
       140    1.598511E-04
       141    2.029151E-01
       142   -5.262079E-03
       143    6.543688E-03
       144    1.295193E-01
       145   -1.187276E-05
       146   -7.749390E-07
       147    1.264770E-05
       148    7.213411E-06
       149   -4.702755E-03
       150   -4.903005E-04
       151   -1.299352E-04
       152    3.979626E-05
       153    9.013895E-05
       154    6.838779E-05
       155   -8.410867E-03
       156   -7.636061E-04
       157    2.145295E-04
       158   -4.119751E-04
       159    1.974456E-04
       160    8.809973E-04
       161   -5.495739E-04
       162   -2.572896E-03
       163    4.961025E-06
       164    1.216209E-06
       165   -1.313465E-03
       166   -3.104995E-06
       167    5.175075E-07
       168    1.468148E-03
       169   -3.550919E-06
       170   -2.149223E-06
       171    2.940509E-04
       172   -4.669436E-05
       173    6.485522E-07
       174    1.339537E-06
       175    3.961572E-06
       176   -1.268224E-05
       177   -2.699083E-03
       178   -1.585093E-04
       179   -1.954417E-07
       180   -1.155789E-04
       181    1.046225E-05
       182    1.203139E-05
       183   -1.013609E-04
       184    3.126203E-06
       185    9.688839E-04
       186    1.388500E-02
       187   -1.357318E-05
       188    1.929895E-07
       189   -1.132966E-07
       190   -7.969290E-08
       191   -2.196856E-05
       192   -1.654249E-06
       193    7.482776E-03
       194   -1.691627E-07
       195   -6.139158E-06
       196    6.308321E-06
       197   -8.964445E-05
       198   -1.349006E-06
       199    1.556716E-02
       200   -2.455094E-05
       201   -3.553265E-05
       202    6.008360E-05
       203   -2.522288E-03
       204    2.425020E-06
       205   -2.913953E-03
       206   -1.160395E-07
       207    4.497582E-06
       208    9.352415E-08
       209    2.305374E-07
       210   -3.379967E-06
       211   -2.603333E-07
       212   -7.485408E-08
       213   -2.654173E-06
       214    1.348574E-07
       215   -1.182049E-03
       216    1.489309E-05
       217    3.518591E-05
       218   -1.425564E-04
       219    5.681160E-04
       220    1.369869E-02
       221    5.973806E-04
       222   -1.421425E-04
       223    8.219842E-05
       224   -2.001745E-01
       225   -3.662360E-04
       226    1.921596E-04
       227   -2.028734E-01
       228    4.604469E-03
       229    8.413104E-03
       230   -1.293384E-01
       231    1.196250E-05
       232    3.195765E-07
       233   -1.228207E-05
       234    7.489941E-06
       235    4.703291E-03
       236   -4.899438E-04
       237    1.401639E-04
       238   -4.306117E-05
       239   -9.710271E-05
       240    7.560853E-05
       241    8.412452E-03
       242   -7.586501E-04
       243   -2.772525E-04
       244    5.368189E-04
       245   -2.595664E-04
       246    7.918803E-04
       247    5.294018E-04
       248   -2.551965E-03
       249   -5.239089E-06
       250    1.381486E-06
       251    1.313324E-03
       252    3.284686E-06
       253    6.065554E-07
       254   -1.468242E-03
       255    3.744290E-06
       256   -2.460014E-06
       257   -2.937671E-04
       258   -4.647718E-05
       259    2.944593E-05
       260    2.334172E-05
       261   -7.707535E-04
       262   -9.760333E-06
       263   -1.598212E-06
       264   -7.768580E-03
       265    5.644273E-05
       266   -3.015629E-04
       267   -7.576586E-03
       268   -2.668475E-05
       269   -4.084916E-05
       270    1.670913E-04
       271    8.947471E-06
       272   -3.438235E-07
       273    7.767874E-03
       274   -9.208924E-05
       275   -1.469907E-04
       276    7.544151E-03
       277    1.299834E-05
       278    1.607974E-05
       279   -1.823145E-03
       280    1.350007E-05
       281    3.484459E-06
       282    8.593299E-03
       283    4.745017E-04
       284    1.468668E-04
       285    9.479220E-03
       286   -1.715998E-05
       287   -8.276082E-06
       288    2.220012E-03
       289   -1.425326E-05
       290    4.926509E-06
       291   -8.591742E-03
       292   -5.018798E-04
       293    2.856425E-04
       294   -9.472593E-03
       295   -6.950534E-09
       296    9.050994E-09
       297   -6.452374E-07
       298    2.630065E-06
       299    1.401303E-04
       300   -7.095882E-05
       301    5.633095E-08
       302   -1.016790E-05
       303    2.399818E-07
       304    1.498378E-06
       305    6.153697E-06
       306    2.219130E-07
       307    3.120188E-05
       308    2.451315E-04
       309   -1.657859E-06
       310    6.437882E-08
       311   -7.978975E-08
       312    1.541093E-08
       313   -5.173166E-07
       314   -3.118500E-07
       315   -5.808612E-04
       316    1.682632E-07
       317    1.067995E-07
       318   -2.750627E-07
       319    9.422496E-06
       320   -7.981297E-07
       321   -1.281046E-03
       322   -6.438953E-06
       323   -6.203562E-06
       324    1.264252E-05
       325    1.447754E-04
       326    4.134844E-07
       327   -2.065168E-03
       328    1.774080E-08
       329   -7.109781E-07
       330   -7.377673E-09
       331   -3.221215E-08
       332    1.993166E-06
       333   -4.134798E-08
       334    8.410370E-09
       335   -1.039289E-06
       336    5.124617E-08
       337    2.720813E-04
       338    8.145582E-07
       339    2.053558E-06
       340   -3.843935E-06
       341    4.802610E-06
       342   -1.635407E-05
       343   -2.258178E-05
       344   -8.767832E-05
       345   -5.948515E-06
       346   -2.266384E-02
       347   -7.726837E-05
       348   -2.411034E-06
       349   -2.136790E-02
       350   -1.500993E-04
       351   -4.361207E-05
       352   -1.484525E-02
       353   -1.877913E-05
       354   -9.012865E-06
       355    3.151058E-04
       356    8.892110E-08
       357   -1.715450E-07
       358    8.262389E-08
       359    5.312534E-07
       360   -3.717481E-05
       361    1.672961E-04
       362   -2.626835E-06
       363    6.389790E-07
       364    1.987856E-06
       365    3.391095E-06
       366   -1.686666E-04
       367    7.335620E-04
       368   -6.413057E-06
       369    1.613032E-05
       370   -9.717261E-06
       371    7.287344E-06
       372    4.278498E-04
       373   -3.477829E-04
       374    1.657212E-07
       375   -7.504083E-08
       376    1.826867E-05
       377   -2.404154E-07
       378    3.907999E-07
       379    2.647166E-05
       380    1.807708E-08
       381   -2.901220E-07
       382   -5.098165E-05
       383    5.847629E-05
       384   -7.303304E-07
       385   -1.866181E-06
       386    4.001107E-06
       387   -8.199155E-06
       388    5.353984E-05
       389    6.397355E-05
       390    8.491419E-05
       391   -5.250348E-06
       392    2.267445E-02
       393    7.565679E-05
       394   -2.620460E-06
       395    2.137753E-02
       396    1.457699E-04
       397   -3.422182E-05
       398    1.485395E-02
       399    2.344780E-05
       400   -3.852760E-06
       401   -3.152385E-04
       402   -7.441791E-08
       403    1.720658E-07
       404   -9.764790E-08
       405    4.911009E-07
       406    3.718657E-05
       407    1.673926E-04
       408    2.443281E-06
       409   -6.370555E-07
       410   -1.806226E-06
       411    3.295345E-06
       412    1.687749E-04
       413    7.338770E-04
       414    5.980803E-06
       415   -1.474771E-05
       416    8.766912E-06
       417    5.402111E-06
       418   -4.284661E-04
       419   -3.469296E-04
       420   -1.696273E-07
       421   -6.120706E-08
       422   -1.828280E-05
       423    2.201356E-07
       424    3.751029E-07
       425   -2.648738E-05
       426    7.443388E-09
       427   -2.929850E-07
       428    5.101633E-05
       429    5.850181E-05
       430   -1.019880E-06
       431   -2.460436E-06
       432    4.058323E-06
       433    6.216606E-07
       434   -1.640466E-05
       435    7.210851E-05
       436    1.365571E-06
       437   -8.344078E-04
       438   -4.262468E-05
       439    3.106511E-06
       440   -1.097791E-03
       441   -4.172589E-05
       442   -3.734039E-05
       443   -1.406244E-03
       444   -3.721772E-05
       445    3.702541E-08
       446   -2.724105E-08
       447   -9.784353E-09
       448    1.851772E-05
       449   -4.298946E-08
       450    2.982688E-04
       451    3.365608E-07
       452    4.121767E-07
       453   -7.487376E-07
       454   -5.165535E-05
       455   -3.084729E-08
       456    6.520244E-04
       457    1.231276E-05
       458   -3.212888E-06
       459   -9.099876E-06
       460   -6.433879E-04
       461    9.586010E-07
       462   -1.065314E-03
       463    8.049869E-09
       464   -3.871930E-06
       465    1.800733E-07
       466    1.640801E-08
       467   -1.390229E-05
       468   -1.267866E-07
       469   -2.720804E-08
       470    1.909703E-05
       471   -1.148071E-07
       472   -1.337155E-04
       473    5.980513E-05
       474    5.972176E-04
       475    4.001925E-03
       476   -6.394863E-05
       477   -8.174688E-05
       478    3.720814E-04
       479   -3.055978E-04
       480   -8.535361E-04
       481    1.919268E-03
       482   -6.299087E-05
       483   -6.051558E-04
       484   -3.993042E-03
       485    6.505451E-05
       486   -8.271296E-05
       487   -3.761849E-04
       488    2.870885E-04
       489   -8.631696E-04
       490   -1.921802E-03
 Sym= X
 Ene= -0.651209
 Spin= Alpha
 Occup= -0.651209
         1   -1.274631E-04
         2   -2.980320E-04
         3    8.939432E-04
         4   -2.196813E-03
         5   -1.167002E-02
         6   -9.042180E-03
         7    1.076272E-03
         8    1.290630E-04
         9    3.144828E-02
        10   -2.115281E-03
        11    2.775447E-04
        12    2.951551E-02
        13   -3.004518E-02
        14    8.730415E-03
        15    6.725463E-03
        16   -6.714910E-06
        17   -4.776969E-06
        18    1.149188E-05
        19   -4.446580E-06
        20   -6.525198E-03
        21    4.138301E-03
        22   -5.498007E-04
        23    3.273236E-04
        24    2.224771E-04
        25   -5.501650E-04
        26   -1.468667E-02
        27    7.754817E-03
        28   -4.498740E-03
        29    4.221397E-03
        30    2.773432E-04
        31    8.049307E-04
        32    8.831040E-04
        33   -9.398258E-03
        34   -1.672357E-05
        35    4.928558E-06
        36   -1.629942E-04
        37    7.200070E-06
        38   -5.130798E-06
        39   -6.873001E-04
        40    1.523695E-05
        41   -1.481556E-06
        42    9.059798E-04
        43   -7.453369E-04
        44    1.904893E-05
        45    4.178780E-05
        46    9.519324E-05
        47   -1.994205E-03
        48   -4.468937E-02
        49    3.974611E-03
        50    4.293867E-04
        51    1.154139E-06
        52    2.189146E-01
        53   -2.000540E-04
        54    2.247679E-05
        55    2.268436E-01
        56   -1.430340E-02
        57   -1.416382E-03
        58    2.057995E-01
        59    2.248692E-05
        60   -2.045186E-05
        61   -2.035065E-06
        62    1.171975E-07