[Molden Format]
[Title]
ADC(2) - opt by CAM-B3LYP gaussian                                              
[Atoms] AU
 c     1    6 -.12588699998532E+01 -.22834089986974E+01 -.24579904026210E-01
 c     2    6 -.25576598737242E+01 0.00000000000000E+00 -.23328905326240E-01
 c     3    6 -.12588681101271E+01 0.22834089986974E+01 -.24585573204610E-01
 c     4    6 0.13319747639512E+01 0.22851362083829E+01 -.26548998656670E-01
 c     5    6 0.26868460402678E+01 0.00000000000000E+00 -.25991529447470E-01
 c     6    6 0.13319728742250E+01 -.22851362083829E+01 -.26541439752140E-01
 h     7    1 -.22976467859220E+01 -.40383900994038E+01 -.22042001829740E-01
 h     8    1 -.22976448961959E+01 0.40383919891299E+01 -.22053340186540E-01
 h     9    1 0.23511286338561E+01 0.40572968093633E+01 -.28790213850280E-01
 h    10    1 0.23511267441300E+01 -.40572968093633E+01 -.28775096041210E-01
 n    11    7 -.52730224718766E+01 0.00000000000000E+00 -.17674844736640E-01
 o    12    8 -.63812882673039E+01 0.20269372576683E+01 -.15259774738810E-01
 o    13    8 -.63812844878516E+01 -.20269372576683E+01 -.15276782274010E-01
 n    14    7 0.52436643953234E+01 0.00000000000000E+00 -.69084844181800E-01
 h    15    1 0.62047866654136E+01 0.16174392738504E+01 0.18526851385235E+00
 h    16    1 0.62047847756874E+01 -.16174411635765E+01 0.18526473440008E+00
[GTO]
    1 0
 s    6 1.00
 0.13575349682000E+05 0.60645503603591E-03
 0.20352333680000E+04 0.46979088884982E-02
 0.46322562359000E+03 0.24332477647552E-01
 0.13120019598000E+03 0.97399968307759E-01
 0.42853015891000E+02 0.30195584253780E+00
 0.15584185766000E+02 0.66233609137875E+00
 s    2 1.00
 0.62067138508000E+01 0.65595308539952E+00
 0.25764896527000E+01 0.37585633285142E+00
 s    1 1.00
 0.57696339419000E+00 0.10000000000000E+01
 s    1 1.00
 0.22972831358000E+00 0.10000000000000E+01
 s    1 1.00
 0.95164440028000E-01 0.10000000000000E+01
 s    1 1.00
 0.48475401370000E-01 0.10000000000000E+01
 p    4 1.00
 0.34697232244000E+02 0.11327220003114E-01
 0.79582622826000E+01 0.76169659202087E-01
 0.23780826883000E+01 0.30192252202676E+00
 0.81433208183000E+00 0.72785027349547E+00
 p    1 1.00
 0.28887547253000E+00 0.10000000000000E+01
 p    1 1.00
 0.10056823671000E+00 0.10000000000000E+01
 d    1 1.00
 0.10970000000000E+01 0.10000000000000E+01
 d    1 1.00
 0.31800000000000E+00 0.10000000000000E+01
 d    1 1.00
 0.90985336424000E-01 0.10000000000000E+01
 f    1 1.00
 0.76100000000000E+00 0.10000000000000E+01
 
    2 0
 s    6 1.00
 0.13575349682000E+05 0.60645503603591E-03
 0.20352333680000E+04 0.46979088884982E-02
 0.46322562359000E+03 0.24332477647552E-01
 0.13120019598000E+03 0.97399968307759E-01
 0.42853015891000E+02 0.30195584253780E+00
 0.15584185766000E+02 0.66233609137875E+00
 s    2 1.00
 0.62067138508000E+01 0.65595308539952E+00
 0.25764896527000E+01 0.37585633285142E+00
 s    1 1.00
 0.57696339419000E+00 0.10000000000000E+01
 s    1 1.00
 0.22972831358000E+00 0.10000000000000E+01
 s    1 1.00
 0.95164440028000E-01 0.10000000000000E+01
 s    1 1.00
 0.48475401370000E-01 0.10000000000000E+01
 p    4 1.00
 0.34697232244000E+02 0.11327220003114E-01
 0.79582622826000E+01 0.76169659202087E-01
 0.23780826883000E+01 0.30192252202676E+00
 0.81433208183000E+00 0.72785027349547E+00
 p    1 1.00
 0.28887547253000E+00 0.10000000000000E+01
 p    1 1.00
 0.10056823671000E+00 0.10000000000000E+01
 d    1 1.00
 0.10970000000000E+01 0.10000000000000E+01
 d    1 1.00
 0.31800000000000E+00 0.10000000000000E+01
 d    1 1.00
 0.90985336424000E-01 0.10000000000000E+01
 f    1 1.00
 0.76100000000000E+00 0.10000000000000E+01
 
    3 0
 s    6 1.00
 0.13575349682000E+05 0.60645503603591E-03
 0.20352333680000E+04 0.46979088884982E-02
 0.46322562359000E+03 0.24332477647552E-01
 0.13120019598000E+03 0.97399968307759E-01
 0.42853015891000E+02 0.30195584253780E+00
 0.15584185766000E+02 0.66233609137875E+00
 s    2 1.00
 0.62067138508000E+01 0.65595308539952E+00
 0.25764896527000E+01 0.37585633285142E+00
 s    1 1.00
 0.57696339419000E+00 0.10000000000000E+01
 s    1 1.00
 0.22972831358000E+00 0.10000000000000E+01
 s    1 1.00
 0.95164440028000E-01 0.10000000000000E+01
 s    1 1.00
 0.48475401370000E-01 0.10000000000000E+01
 p    4 1.00
 0.34697232244000E+02 0.11327220003114E-01
 0.79582622826000E+01 0.76169659202087E-01
 0.23780826883000E+01 0.30192252202676E+00
 0.81433208183000E+00 0.72785027349547E+00
 p    1 1.00
 0.28887547253000E+00 0.10000000000000E+01
 p    1 1.00
 0.10056823671000E+00 0.10000000000000E+01
 d    1 1.00
 0.10970000000000E+01 0.10000000000000E+01
 d    1 1.00
 0.31800000000000E+00 0.10000000000000E+01
 d    1 1.00
 0.90985336424000E-01 0.10000000000000E+01
 f    1 1.00
 0.76100000000000E+00 0.10000000000000E+01
 
    4 0
 s    6 1.00
 0.13575349682000E+05 0.60645503603591E-03
 0.20352333680000E+04 0.46979088884982E-02
 0.46322562359000E+03 0.24332477647552E-01
 0.13120019598000E+03 0.97399968307759E-01
 0.42853015891000E+02 0.30195584253780E+00
 0.15584185766000E+02 0.66233609137875E+00
 s    2 1.00
 0.62067138508000E+01 0.65595308539952E+00
 0.25764896527000E+01 0.37585633285142E+00
 s    1 1.00
 0.57696339419000E+00 0.10000000000000E+01
 s    1 1.00
 0.22972831358000E+00 0.10000000000000E+01
 s    1 1.00
 0.95164440028000E-01 0.10000000000000E+01
 s    1 1.00
 0.48475401370000E-01 0.10000000000000E+01
 p    4 1.00
 0.34697232244000E+02 0.11327220003114E-01
 0.79582622826000E+01 0.76169659202087E-01
 0.23780826883000E+01 0.30192252202676E+00
 0.81433208183000E+00 0.72785027349547E+00
 p    1 1.00
 0.28887547253000E+00 0.10000000000000E+01
 p    1 1.00
 0.10056823671000E+00 0.10000000000000E+01
 d    1 1.00
 0.10970000000000E+01 0.10000000000000E+01
 d    1 1.00
 0.31800000000000E+00 0.10000000000000E+01
 d    1 1.00
 0.90985336424000E-01 0.10000000000000E+01
 f    1 1.00
 0.76100000000000E+00 0.10000000000000E+01
 
    5 0
 s    6 1.00
 0.13575349682000E+05 0.60645503603591E-03
 0.20352333680000E+04 0.46979088884982E-02
 0.46322562359000E+03 0.24332477647552E-01
 0.13120019598000E+03 0.97399968307759E-01
 0.42853015891000E+02 0.30195584253780E+00
 0.15584185766000E+02 0.66233609137875E+00
 s    2 1.00
 0.62067138508000E+01 0.65595308539952E+00
 0.25764896527000E+01 0.37585633285142E+00
 s    1 1.00
 0.57696339419000E+00 0.10000000000000E+01
 s    1 1.00
 0.22972831358000E+00 0.10000000000000E+01
 s    1 1.00
 0.95164440028000E-01 0.10000000000000E+01
 s    1 1.00
 0.48475401370000E-01 0.10000000000000E+01
 p    4 1.00
 0.34697232244000E+02 0.11327220003114E-01
 0.79582622826000E+01 0.76169659202087E-01
 0.23780826883000E+01 0.30192252202676E+00
 0.81433208183000E+00 0.72785027349547E+00
 p    1 1.00
 0.28887547253000E+00 0.10000000000000E+01
 p    1 1.00
 0.10056823671000E+00 0.10000000000000E+01
 d    1 1.00
 0.10970000000000E+01 0.10000000000000E+01
 d    1 1.00
 0.31800000000000E+00 0.10000000000000E+01
 d    1 1.00
 0.90985336424000E-01 0.10000000000000E+01
 f    1 1.00
 0.76100000000000E+00 0.10000000000000E+01
 
    6 0
 s    6 1.00
 0.13575349682000E+05 0.60645503603591E-03
 0.20352333680000E+04 0.46979088884982E-02
 0.46322562359000E+03 0.24332477647552E-01
 0.13120019598000E+03 0.97399968307759E-01
 0.42853015891000E+02 0.30195584253780E+00
 0.15584185766000E+02 0.66233609137875E+00
 s    2 1.00
 0.62067138508000E+01 0.65595308539952E+00
 0.25764896527000E+01 0.37585633285142E+00
 s    1 1.00
 0.57696339419000E+00 0.10000000000000E+01
 s    1 1.00
 0.22972831358000E+00 0.10000000000000E+01
 s    1 1.00
 0.95164440028000E-01 0.10000000000000E+01
 s    1 1.00
 0.48475401370000E-01 0.10000000000000E+01
 p    4 1.00
 0.34697232244000E+02 0.11327220003114E-01
 0.79582622826000E+01 0.76169659202087E-01
 0.23780826883000E+01 0.30192252202676E+00
 0.81433208183000E+00 0.72785027349547E+00
 p    1 1.00
 0.28887547253000E+00 0.10000000000000E+01
 p    1 1.00
 0.10056823671000E+00 0.10000000000000E+01
 d    1 1.00
 0.10970000000000E+01 0.10000000000000E+01
 d    1 1.00
 0.31800000000000E+00 0.10000000000000E+01
 d    1 1.00
 0.90985336424000E-01 0.10000000000000E+01
 f    1 1.00
 0.76100000000000E+00 0.10000000000000E+01
 
    7 0
 s    3 1.00
 0.34061341000000E+02 0.25439307208879E-01
 0.51235746000000E+01 0.19008594890375E+00
 0.11646626000000E+01 0.85244113011042E+00
 s    1 1.00
 0.32723041000000E+00 0.10000000000000E+01
 s    1 1.00
 0.10307241000000E+00 0.10000000000000E+01
 p    1 1.00
 0.80000000000000E+00 0.10000000000000E+01
 p    1 1.00
 0.95774129632000E-01 0.10000000000000E+01
 
    8 0
 s    3 1.00
 0.34061341000000E+02 0.25439307208879E-01
 0.51235746000000E+01 0.19008594890375E+00
 0.11646626000000E+01 0.85244113011042E+00
 s    1 1.00
 0.32723041000000E+00 0.10000000000000E+01
 s    1 1.00
 0.10307241000000E+00 0.10000000000000E+01
 p    1 1.00
 0.80000000000000E+00 0.10000000000000E+01
 p    1 1.00
 0.95774129632000E-01 0.10000000000000E+01
 
    9 0
 s    3 1.00
 0.34061341000000E+02 0.25439307208879E-01
 0.51235746000000E+01 0.19008594890375E+00
 0.11646626000000E+01 0.85244113011042E+00
 s    1 1.00
 0.32723041000000E+00 0.10000000000000E+01
 s    1 1.00
 0.10307241000000E+00 0.10000000000000E+01
 p    1 1.00
 0.80000000000000E+00 0.10000000000000E+01
 p    1 1.00
 0.95774129632000E-01 0.10000000000000E+01
 
   10 0
 s    3 1.00
 0.34061341000000E+02 0.25439307208879E-01
 0.51235746000000E+01 0.19008594890375E+00
 0.11646626000000E+01 0.85244113011042E+00
 s    1 1.00
 0.32723041000000E+00 0.10000000000000E+01
 s    1 1.00
 0.10307241000000E+00 0.10000000000000E+01
 p    1 1.00
 0.80000000000000E+00 0.10000000000000E+01
 p    1 1.00
 0.95774129632000E-01 0.10000000000000E+01
 
   11 0
 s    6 1.00
 0.19730800647000E+05 0.58626402628763E-03
 0.29578958745000E+04 0.45428820586397E-02
 0.67322133595000E+03 0.23558413450084E-01
 0.19068249494000E+03 0.94709193292923E-01
 0.62295441898000E+02 0.29719784913376E+00
 0.22654161182000E+02 0.66916246895232E+00
 s    2 1.00
 0.89791477428000E+01 0.64596683630063E+00
 0.36863002370000E+01 0.38700574393705E+00
 s    1 1.00
 0.84660076805000E+00 0.10000000000000E+01
 s    1 1.00
 0.33647133771000E+00 0.10000000000000E+01
 s    1 1.00
 0.13647653675000E+00 0.10000000000000E+01
 s    1 1.00
 0.68441605847000E-01 0.10000000000000E+01
 p    4 1.00
 0.49200380510000E+02 0.11448825101764E-01
 0.11346790537000E+02 0.78422337970864E-01
 0.34273972411000E+01 0.30818094738830E+00
 0.11785525134000E+01 0.72027196368413E+00
 p    1 1.00
 0.41642204972000E+00 0.10000000000000E+01
 p    1 1.00
 0.14260826011000E+00 0.10000000000000E+01
 d    1 1.00
 0.16540000000000E+01 0.10000000000000E+01
 d    1 1.00
 0.46900000000000E+00 0.10000000000000E+01
 d    1 1.00
 0.12829642058000E+00 0.10000000000000E+01
 f    1 1.00
 0.10930000000000E+01 0.10000000000000E+01
 
   12 0
 s    6 1.00
 0.27032382631000E+05 0.57227335211155E-03
 0.40523871392000E+04 0.44353233492995E-02
 0.92232722710000E+03 0.23020107706038E-01
 0.26124070989000E+03 0.92822490667928E-01
 0.85354641351000E+02 0.29378500009671E+00
 0.31035035245000E+02 0.67401604501641E+00
 s    2 1.00
 0.12260860728000E+02 0.63839937025506E+00
 0.49987076005000E+01 0.39534587125718E+00
 s    1 1.00
 0.11703108158000E+01 0.10000000000000E+01
 s    1 1.00
 0.46474740994000E+00 0.10000000000000E+01
 s    1 1.00
 0.18504536357000E+00 0.10000000000000E+01
 s    1 1.00
 0.70288026270000E-01 0.10000000000000E+01
 p    4 1.00
 0.63274954801000E+02 0.12018332222616E-01
 0.14627049379000E+02 0.83005421790056E-01
 0.44501223456000E+01 0.31991743925964E+00
 0.15275799647000E+01 0.70715542916104E+00
 p    1 1.00
 0.52935117943000E+00 0.10000000000000E+01
 p    1 1.00
 0.17478421270000E+00 0.10000000000000E+01
 p    1 1.00
 0.51112745706000E-01 0.10000000000000E+01
 d    1 1.00
 0.23140000000000E+01 0.10000000000000E+01
 d    1 1.00
 0.64500000000000E+00 0.10000000000000E+01
 d    1 1.00
 0.14696477366000E+00 0.10000000000000E+01
 f    1 1.00
 0.14280000000000E+01 0.10000000000000E+01
 
   13 0
 s    6 1.00
 0.27032382631000E+05 0.57227335211155E-03
 0.40523871392000E+04 0.44353233492995E-02
 0.92232722710000E+03 0.23020107706038E-01
 0.26124070989000E+03 0.92822490667928E-01
 0.85354641351000E+02 0.29378500009671E+00
 0.31035035245000E+02 0.67401604501641E+00
 s    2 1.00
 0.12260860728000E+02 0.63839937025506E+00
 0.49987076005000E+01 0.39534587125718E+00
 s    1 1.00
 0.11703108158000E+01 0.10000000000000E+01
 s    1 1.00
 0.46474740994000E+00 0.10000000000000E+01
 s    1 1.00
 0.18504536357000E+00 0.10000000000000E+01
 s    1 1.00
 0.70288026270000E-01 0.10000000000000E+01
 p    4 1.00
 0.63274954801000E+02 0.12018332222616E-01
 0.14627049379000E+02 0.83005421790056E-01
 0.44501223456000E+01 0.31991743925964E+00
 0.15275799647000E+01 0.70715542916104E+00
 p    1 1.00
 0.52935117943000E+00 0.10000000000000E+01
 p    1 1.00
 0.17478421270000E+00 0.10000000000000E+01
 p    1 1.00
 0.51112745706000E-01 0.10000000000000E+01
 d    1 1.00
 0.23140000000000E+01 0.10000000000000E+01
 d    1 1.00
 0.64500000000000E+00 0.10000000000000E+01
 d    1 1.00
 0.14696477366000E+00 0.10000000000000E+01
 f    1 1.00
 0.14280000000000E+01 0.10000000000000E+01
 
   14 0
 s    6 1.00
 0.19730800647000E+05 0.58626402628763E-03
 0.29578958745000E+04 0.45428820586397E-02
 0.67322133595000E+03 0.23558413450084E-01
 0.19068249494000E+03 0.94709193292923E-01
 0.62295441898000E+02 0.29719784913376E+00
 0.22654161182000E+02 0.66916246895232E+00
 s    2 1.00
 0.89791477428000E+01 0.64596683630063E+00
 0.36863002370000E+01 0.38700574393705E+00
 s    1 1.00
 0.84660076805000E+00 0.10000000000000E+01
 s    1 1.00
 0.33647133771000E+00 0.10000000000000E+01
 s    1 1.00
 0.13647653675000E+00 0.10000000000000E+01
 s    1 1.00
 0.68441605847000E-01 0.10000000000000E+01
 p    4 1.00
 0.49200380510000E+02 0.11448825101764E-01
 0.11346790537000E+02 0.78422337970864E-01
 0.34273972411000E+01 0.30818094738830E+00
 0.11785525134000E+01 0.72027196368413E+00
 p    1 1.00
 0.41642204972000E+00 0.10000000000000E+01
 p    1 1.00
 0.14260826011000E+00 0.10000000000000E+01
 d    1 1.00
 0.16540000000000E+01 0.10000000000000E+01
 d    1 1.00
 0.46900000000000E+00 0.10000000000000E+01
 d    1 1.00
 0.12829642058000E+00 0.10000000000000E+01
 f    1 1.00
 0.10930000000000E+01 0.10000000000000E+01
 
   15 0
 s    3 1.00
 0.34061341000000E+02 0.25439307208879E-01
 0.51235746000000E+01 0.19008594890375E+00
 0.11646626000000E+01 0.85244113011042E+00
 s    1 1.00
 0.32723041000000E+00 0.10000000000000E+01
 s    1 1.00
 0.10307241000000E+00 0.10000000000000E+01
 p    1 1.00
 0.80000000000000E+00 0.10000000000000E+01
 p    1 1.00
 0.95774129632000E-01 0.10000000000000E+01
 
   16 0
 s    3 1.00
 0.34061341000000E+02 0.25439307208879E-01
 0.51235746000000E+01 0.19008594890375E+00
 0.11646626000000E+01 0.85244113011042E+00
 s    1 1.00
 0.32723041000000E+00 0.10000000000000E+01
 s    1 1.00
 0.10307241000000E+00 0.10000000000000E+01
 p    1 1.00
 0.80000000000000E+00 0.10000000000000E+01
 p    1 1.00
 0.95774129632000E-01 0.10000000000000E+01
 
[MO]
 Sym= X
 Ene= -0.243847
 Spin= Alpha
 Occup= -0.243847
         1   -1.909804E-04
         2   -4.437070E-04
         3    1.199215E-03
         4   -2.391465E-03
         5   -1.062943E-02
         6   -1.091261E-02
         7    2.041962E-03
         8    1.974472E-04
         9    6.873727E-03
        10   -1.986277E-03
        11    4.033175E-04
        12    5.304714E-03
        13   -3.379309E-02
        14    8.842596E-03
        15   -2.725406E-03
        16    1.974823E-05
        17   -2.949705E-05
        18    9.748814E-06
        19   -1.568430E-05
        20   -6.330052E-03
        21    3.318441E-03
        22   -6.168500E-04
        23    3.677316E-04
        24    2.491185E-04
        25   -6.953383E-04
        26   -1.416687E-02
        27    6.376313E-03
        28   -4.835015E-03
        29    4.513594E-03
        30    3.214206E-04
        31    1.136996E-03
        32    2.169403E-03
        33   -1.044011E-02
        34   -1.748242E-05
        35    6.660600E-06
        36    4.049307E-05
        37    7.190750E-06
        38   -6.670490E-06
        39   -7.855352E-04
        40    1.626438E-05
        41   -2.265642E-06
        42    7.312081E-04
        43   -6.447614E-04
        44    3.286600E-05
        45    7.216077E-05
        46    1.160403E-04
        47   -2.767846E-03
        48   -4.685491E-02
        49    5.692857E-03
        50    8.615174E-05
        51    1.687759E-06
        52    1.792774E-01
        53   -6.489668E-04
        54    2.138605E-05
        55    1.867424E-01
        56   -1.575891E-02
        57   -1.621373E-03
        58    1.921452E-01
        59    5.788593E-05
        60   -5.571943E-05
        61   -2.166496E-06
        62    1.436911E-07
        63   -1.233072E-03
        64    1.292142E-06
        65    3.931432E-04
        66   -6.354637E-04
        67    2.423205E-04
        68    4.787503E-06
        69   -4.254679E-03
        70    2.034978E-06
        71    8.812170E-03
        72   -9.840496E-03
        73    1.028326E-03
        74   -2.673548E-04
        75    4.113680E-03
        76   -2.737255E-05
        77    5.641116E-06
        78    2.817983E-08
        79   -9.568343E-04
        80   -6.070742E-06
        81    5.490920E-08
        82    6.146668E-04
        83   -1.497610E-06
        84   -9.271641E-08
        85    6.690612E-04
        86    1.440166E-07
        87   -1.910675E-04
        88   -4.440420E-04
        89    1.208442E-03
        90   -2.476320E-03
        91   -7.849139E-03
        92   -1.084165E-02
        93    2.044216E-03
        94   -2.008539E-04
        95    6.934769E-03
        96   -1.971641E-03
        97   -3.910512E-04
        98    5.362949E-03
        99   -3.484576E-02
       100   -1.054962E-02
       101   -2.587815E-03
       102    1.954422E-05
       103   -2.950144E-05
       104    9.957214E-06
       105    1.606076E-05
       106   -6.329269E-03
       107   -3.318681E-03
       108   -6.127866E-04
       109    3.622431E-04
       110    2.505434E-04
       111    6.920385E-04
       112   -1.416297E-02
       113   -6.376098E-03
       114   -5.130894E-03
       115    4.841556E-03
       116    2.893386E-04
       117   -9.112881E-04
       118    2.162044E-03
       119    1.038984E-02
       120   -1.767181E-05
       121   -6.641567E-06
       122    4.017061E-05
       123    7.511618E-06
       124    6.663951E-06
       125   -7.851900E-04
       126    1.619760E-05
       127    2.246646E-06
       128    7.312955E-04
       129    6.447149E-04
       130    1.278054E-04
       131    2.770494E-04
       132    5.144815E-04
       133   -1.010943E-02
       134    2.746030E-02
       135    1.225343E-02
       136   -1.760464E-03
       137    7.003542E-04
       138   -1.626371E-01
       139   -9.162952E-03
       140    5.989152E-03
       141   -1.653055E-01
       142   -2.424124E-02
       143   -7.038145E-03
       144   -9.755855E-02
       145    1.620301E-04
       146   -1.918069E-04
       147    2.977682E-05
       148   -4.088095E-06
       149   -4.097433E-04
       150    3.046614E-03
       151    6.110167E-04
       152   -7.400362E-04
       153    1.290195E-04
       154    1.646641E-03
       155   -3.283161E-03
       156    5.103829E-03
       157    8.191344E-03
       158   -6.515975E-03
       159   -1.675369E-03
       160   -8.205807E-03
       161    3.610208E-03
       162   -1.277563E-02
       163   -1.533441E-05
       164    9.961453E-06
       165    9.457806E-04
       166   -1.929815E-05
       167    1.545478E-05
       168   -3.093580E-04
       169    3.987142E-05
       170   -2.881948E-05
       171   -9.595398E-04
       172    3.182858E-04
       173   -1.071409E-03
       174   -2.443309E-03
       175    2.557919E-03
       176    2.049105E-02
       177   -1.588903E-02
       178    8.449416E-03
       179    9.315406E-03
       180    2.491837E-07
       181   -1.124362E-01
       182    7.090885E-04
       183   -1.508334E-05
       184   -1.150322E-01
       185   -2.525679E-02
       186    1.657592E-03
       187   -1.326709E-01
       188    4.955167E-04
       189   -2.910167E-04
       190   -2.045000E-04
       191    1.290460E-07
       192    1.038931E-02
       193    1.108808E-06
       194   -1.806150E-03
       195    3.934353E-03
       196   -2.128202E-03
       197    3.970858E-06
       198    2.560300E-02
       199   -1.234267E-06
       200   -5.548728E-03
       201    6.703889E-03
       202   -1.155161E-03
       203   -3.180775E-04
       204    1.969446E-02
       205    1.215048E-05
       206    1.127890E-04
       207    3.294750E-08
       208    3.365173E-04
       209   -7.778964E-05
       210   -1.169351E-07
       211    1.075140E-03
       212   -7.353267E-05
       213    7.273142E-08
       214   -1.526626E-03
       215   -2.692294E-08
       216    1.285378E-04
       217    2.785128E-04
       218    5.194859E-04
       219   -1.019884E-02
       220    3.050342E-02
       221    1.228526E-02
       222   -1.761362E-03
       223   -6.928735E-04
       224   -1.626829E-01
       225   -9.166788E-03
       226   -6.003610E-03
       227   -1.653618E-01
       228   -2.308635E-02
       229    8.982169E-03
       230   -9.747448E-02
       231    1.617467E-04
       232   -1.923515E-04
       233    3.060482E-05
       234    4.226592E-06
       235   -4.083908E-04
       236   -3.046865E-03
       237    6.130098E-04
       238   -7.429980E-04
       239    1.299883E-04
       240   -1.648944E-03
       241   -3.279071E-03
       242   -5.103770E-03
       243    7.877176E-03
       244   -6.184365E-03
       245   -1.692811E-03
       246    8.460201E-03
       247    3.625345E-03
       248    1.283528E-02
       249   -1.523832E-05
       250   -1.002480E-05
       251    9.463470E-04
       252   -1.955943E-05
       253   -1.536923E-05
       254   -3.099573E-04
       255    4.000378E-05
       256    2.881892E-05
       257   -9.597005E-04
       258   -3.182888E-04
       259   -4.653630E-04
       260   -3.969231E-04
       261   -1.713931E-02
       262   -1.230844E-05
       263   -1.940580E-05
       264    3.337102E-04
       265   -5.083985E-03
       266   -3.624750E-04
       267   -6.587515E-03
       268   -4.680421E-04
       269   -3.914479E-04
       270   -1.689955E-02
       271   -1.115525E-05
       272    1.878721E-05
       273    3.365783E-04
       274   -5.240121E-03
       275    2.322417E-04
       276   -6.551871E-03
       277   -5.457735E-04
       278   -2.500612E-03
       279    3.316641E-02
       280   -9.804515E-06
       281    1.191843E-04
       282   -6.523715E-03
       283   -1.977684E-03
       284   -2.572444E-03
       285    2.221916E-03
       286   -5.507368E-04
       287   -2.502378E-03
       288    3.359517E-02
       289   -9.413935E-06
       290   -1.191699E-04
       291   -6.526139E-03
       292   -1.847957E-03
       293    2.730473E-03
       294    2.254331E-03
       295   -6.260055E-05
       296   -1.461573E-04
       297    1.496445E-04
       298    5.665400E-04
       299   -6.469482E-03
       300    5.597164E-04
       301    7.609853E-04
       302   -5.262866E-07
       303    2.936762E-02
       304    4.386571E-04
       305   -3.050988E-08
       306    3.133893E-02
       307   -2.874782E-03
       308    3.783988E-05
       309    1.098611E-02
       310    3.130053E-05
       311   -2.108157E-05
       312   -1.021896E-05
       313    9.838361E-08
       314    3.911237E-03
       315    1.129981E-07
       316    3.614567E-05
       317    2.037347E-05
       318   -5.651915E-05
       319   -2.025874E-07
       320    1.195365E-02
       321    1.444153E-07
       322   -9.906291E-04
       323    2.729868E-03
       324   -1.739239E-03
       325    4.733985E-05
       326    2.693126E-03
       327    3.747582E-06
       328    6.699407E-06
       329    3.025185E-08
       330   -4.815447E-05
       331   -3.935673E-06
       332   -1.896247E-08
       333    6.467376E-04
       334   -5.052525E-06
       335   -2.162465E-08
       336   -5.821316E-04
       337    1.458910E-08
       338   -1.485611E-05
       339   -3.286011E-05
       340    7.940766E-06
       341    5.261630E-04
       342   -5.607502E-03
       343   -8.187254E-04
       344   -4.969544E-04
       345    1.168236E-04
       346   -6.677633E-02
       347   -5.430612E-04
       348    2.346966E-04
       349   -6.208697E-02
       350   -1.613071E-03
       351    4.582128E-04
       352   -5.279328E-02
       353   -1.811666E-04
       354    1.842392E-04
       355   -6.963780E-03
       356    3.994401E-06
       357   -5.849428E-06
       358    1.855027E-06
       359    2.575602E-06
       360    8.714410E-05
       361    2.904987E-04
       362   -1.251071E-05
       363   -1.304657E-05
       364    2.555729E-05
       365    1.481474E-05
       366   -2.352771E-04
       367    1.042561E-03
       368   -7.859512E-05
       369    5.284046E-05
       370    2.575466E-05
       371    8.821174E-05
       372    7.129372E-05
       373    1.005169E-04
       374    1.110173E-06
       375    1.627326E-06
       376    3.285184E-05
       377   -2.096991E-06
       378   -9.111671E-08
       379    7.484551E-05
       380    6.075378E-07
       381   -2.092171E-06
       382   -1.189209E-04
       383    8.850251E-05
       384   -1.474948E-05
       385   -3.263677E-05
       386    8.066044E-06
       387    5.217583E-04
       388   -5.624167E-03
       389   -7.804172E-04
       390   -4.979144E-04
       391   -1.134497E-04
       392   -6.677856E-02
       393   -5.444841E-04
       394   -2.312373E-04
       395   -6.208906E-02
       396   -1.569581E-03
       397   -4.611458E-04
       398   -5.279078E-02
       399   -1.635691E-04
       400   -1.888696E-04
       401   -6.970426E-03
       402    3.914802E-06
       403   -5.791885E-06
       404    1.877082E-06
       405   -2.626079E-06
       406    8.707666E-05
       407   -2.905241E-04
       408   -1.209829E-05
       409   -1.303282E-05
       410    2.513111E-05
       411   -1.436625E-05
       412   -2.352812E-04
       413   -1.042607E-03
       414   -7.855462E-05
       415    5.408663E-05
       416    2.446798E-05
       417   -8.653501E-05
       418    6.994785E-05
       419   -1.003644E-04
       420    1.105501E-06
       421   -1.612962E-06
       422    3.286507E-05
       423   -2.077162E-06
       424    8.271793E-08
       425    7.483692E-05
       426    5.939766E-07
       427    2.081297E-06
       428   -1.189300E-04
       429   -8.851612E-05
       430    4.500272E-03
       431    1.070456E-02
       432   -1.675570E-02
       433   -2.596443E-02
       434   -2.057569E-02
       435   -6.558321E-02
       436   -1.687087E-02
       437    1.103852E-05
       438    2.620679E-01
       439   -1.934220E-02
       440   -1.497925E-06
       441    2.589724E-01
       442   -1.818611E-02
       443   -1.351712E-04
       444    2.111824E-01
       445   -8.794567E-05
       446   -1.011973E-05
       447    9.806540E-05
       448    2.641319E-07
       449    7.312652E-04
       450    3.832987E-07
       451   -1.699462E-04
       452   -1.502792E-03
       453    1.672738E-03
       454   -5.121893E-06
       455    3.592262E-03
       456    1.693091E-06
       457   -1.576842E-03
       458   -3.029571E-03
       459    4.606413E-03
       460   -1.616512E-05
       461    2.224094E-03
       462    1.380861E-05
       463   -1.388744E-04
       464    2.089571E-08
       465   -1.050322E-03
       466   -7.981038E-05
       467   -2.506733E-08
       468    5.731432E-04
       469    2.661300E-04
       470   -2.967210E-09
       471    8.360122E-04
       472    2.414941E-08
       473    9.208665E-03
       474    1.740766E-02
       475    2.896209E-02
       476   -2.222554E-03
       477   -1.859851E-03
       478    1.329030E-02
       479    1.137640E-03
       480   -3.339987E-03
       481    1.510739E-02
       482    9.201488E-03
       483    1.731146E-02
       484    2.854682E-02
       485   -2.217624E-03
       486    1.850624E-03
       487    1.329535E-02
       488    1.185847E-03
       489    3.277998E-03
       490    1.513229E-02
 Sym= X
 Ene= -0.714471
 Spin= Alpha
 Occup= -0.714471
         1    1.835370E-05
         2    4.180660E-05
         3   -1.054825E-04
         4    1.628266E-04
         5    8.966521E-03
         6    3.496581E-04
         7    1.094949E-04
         8    1.189157E-04
         9    1.649953E-01
        10    5.094286E-04
        11    5.684157E-06
        12    1.654115E-01
        13   -3.561123E-03
        14    5.772154E-03
        15    9.288282E-02
        16    6.616339E-06
        17   -1.714773E-06
        18   -4.901566E-06
        19   -6.264531E-07
        20    4.441414E-03
        21    4.581945E-04
        22    9.164868E-05
        23   -5.528289E-05
        24   -3.636579E-05
        25   -1.325998E-05
        26    8.985634E-03
        27   -4.990910E-04
        28   -8.533430E-04
        29    9.910626E-04
        30   -1.377196E-04
        31   -4.354768E-04
        32    3.704121E-03
        33   -6.891242E-04
        34    3.644452E-06
        35    7.137586E-07
        36   -9.915393E-04
        37   -7.665285E-07
        38   -1.960298E-07
        39    1.206921E-03
        40   -4.123017E-06
        41   -7.615779E-07
        42    1.233687E-04
        43    2.517637E-05
        44    1.168040E-07
        45    2.544155E-07
        46   -1.896632E-06
        47    2.831011E-05
        48   -1.892141E-03
        49   -7.988670E-05
        50    4.707779E-06
        51   -7.755105E-05
        52    1.889514E-05
        53    5.669555E-06
        54   -1.872850E-04
        55    1.308672E-05
        56   -9.267688E-04
        57    8.909660E-03
        58   -3.383543E-05
        59   -1.130006E-07
        60    2.084024E-07
        61   -9.540177E-08
        62   -7.658770E-06