[Molden Format]
[Title]
ADC(2) - opt by CAM-B3LYP gaussian                                              
[Atoms] AU
 c     1    6 -.12588699998532E+01 -.22834089986974E+01 -.24579904026210E-01
 c     2    6 -.25576598737242E+01 0.00000000000000E+00 -.23328905326240E-01
 c     3    6 -.12588681101271E+01 0.22834089986974E+01 -.24585573204610E-01
 c     4    6 0.13319747639512E+01 0.22851362083829E+01 -.26548998656670E-01
 c     5    6 0.26868460402678E+01 0.00000000000000E+00 -.25991529447470E-01
 c     6    6 0.13319728742250E+01 -.22851362083829E+01 -.26541439752140E-01
 h     7    1 -.22976467859220E+01 -.40383900994038E+01 -.22042001829740E-01
 h     8    1 -.22976448961959E+01 0.40383919891299E+01 -.22053340186540E-01
 h     9    1 0.23511286338561E+01 0.40572968093633E+01 -.28790213850280E-01
 h    10    1 0.23511267441300E+01 -.40572968093633E+01 -.28775096041210E-01
 n    11    7 -.52730224718766E+01 0.00000000000000E+00 -.17674844736640E-01
 o    12    8 -.63812882673039E+01 0.20269372576683E+01 -.15259774738810E-01
 o    13    8 -.63812844878516E+01 -.20269372576683E+01 -.15276782274010E-01
 n    14    7 0.52436643953234E+01 0.00000000000000E+00 -.69084844181800E-01
 h    15    1 0.62047866654136E+01 0.16174392738504E+01 0.18526851385235E+00
 h    16    1 0.62047847756874E+01 -.16174411635765E+01 0.18526473440008E+00
[GTO]
    1 0
 s    6 1.00
 0.13575349682000E+05 0.60645503603591E-03
 0.20352333680000E+04 0.46979088884982E-02
 0.46322562359000E+03 0.24332477647552E-01
 0.13120019598000E+03 0.97399968307759E-01
 0.42853015891000E+02 0.30195584253780E+00
 0.15584185766000E+02 0.66233609137875E+00
 s    2 1.00
 0.62067138508000E+01 0.65595308539952E+00
 0.25764896527000E+01 0.37585633285142E+00
 s    1 1.00
 0.57696339419000E+00 0.10000000000000E+01
 s    1 1.00
 0.22972831358000E+00 0.10000000000000E+01
 s    1 1.00
 0.95164440028000E-01 0.10000000000000E+01
 s    1 1.00
 0.48475401370000E-01 0.10000000000000E+01
 p    4 1.00
 0.34697232244000E+02 0.11327220003114E-01
 0.79582622826000E+01 0.76169659202087E-01
 0.23780826883000E+01 0.30192252202676E+00
 0.81433208183000E+00 0.72785027349547E+00
 p    1 1.00
 0.28887547253000E+00 0.10000000000000E+01
 p    1 1.00
 0.10056823671000E+00 0.10000000000000E+01
 d    1 1.00
 0.10970000000000E+01 0.10000000000000E+01
 d    1 1.00
 0.31800000000000E+00 0.10000000000000E+01
 d    1 1.00
 0.90985336424000E-01 0.10000000000000E+01
 f    1 1.00
 0.76100000000000E+00 0.10000000000000E+01
 
    2 0
 s    6 1.00
 0.13575349682000E+05 0.60645503603591E-03
 0.20352333680000E+04 0.46979088884982E-02
 0.46322562359000E+03 0.24332477647552E-01
 0.13120019598000E+03 0.97399968307759E-01
 0.42853015891000E+02 0.30195584253780E+00
 0.15584185766000E+02 0.66233609137875E+00
 s    2 1.00
 0.62067138508000E+01 0.65595308539952E+00
 0.25764896527000E+01 0.37585633285142E+00
 s    1 1.00
 0.57696339419000E+00 0.10000000000000E+01
 s    1 1.00
 0.22972831358000E+00 0.10000000000000E+01
 s    1 1.00
 0.95164440028000E-01 0.10000000000000E+01
 s    1 1.00
 0.48475401370000E-01 0.10000000000000E+01
 p    4 1.00
 0.34697232244000E+02 0.11327220003114E-01
 0.79582622826000E+01 0.76169659202087E-01
 0.23780826883000E+01 0.30192252202676E+00
 0.81433208183000E+00 0.72785027349547E+00
 p    1 1.00
 0.28887547253000E+00 0.10000000000000E+01
 p    1 1.00
 0.10056823671000E+00 0.10000000000000E+01
 d    1 1.00
 0.10970000000000E+01 0.10000000000000E+01
 d    1 1.00
 0.31800000000000E+00 0.10000000000000E+01
 d    1 1.00
 0.90985336424000E-01 0.10000000000000E+01
 f    1 1.00
 0.76100000000000E+00 0.10000000000000E+01
 
    3 0
 s    6 1.00
 0.13575349682000E+05 0.60645503603591E-03
 0.20352333680000E+04 0.46979088884982E-02
 0.46322562359000E+03 0.24332477647552E-01
 0.13120019598000E+03 0.97399968307759E-01
 0.42853015891000E+02 0.30195584253780E+00
 0.15584185766000E+02 0.66233609137875E+00
 s    2 1.00
 0.62067138508000E+01 0.65595308539952E+00
 0.25764896527000E+01 0.37585633285142E+00
 s    1 1.00
 0.57696339419000E+00 0.10000000000000E+01
 s    1 1.00
 0.22972831358000E+00 0.10000000000000E+01
 s    1 1.00
 0.95164440028000E-01 0.10000000000000E+01
 s    1 1.00
 0.48475401370000E-01 0.10000000000000E+01
 p    4 1.00
 0.34697232244000E+02 0.11327220003114E-01
 0.79582622826000E+01 0.76169659202087E-01
 0.23780826883000E+01 0.30192252202676E+00
 0.81433208183000E+00 0.72785027349547E+00
 p    1 1.00
 0.28887547253000E+00 0.10000000000000E+01
 p    1 1.00
 0.10056823671000E+00 0.10000000000000E+01
 d    1 1.00
 0.10970000000000E+01 0.10000000000000E+01
 d    1 1.00
 0.31800000000000E+00 0.10000000000000E+01
 d    1 1.00
 0.90985336424000E-01 0.10000000000000E+01
 f    1 1.00
 0.76100000000000E+00 0.10000000000000E+01
 
    4 0
 s    6 1.00
 0.13575349682000E+05 0.60645503603591E-03
 0.20352333680000E+04 0.46979088884982E-02
 0.46322562359000E+03 0.24332477647552E-01
 0.13120019598000E+03 0.97399968307759E-01
 0.42853015891000E+02 0.30195584253780E+00
 0.15584185766000E+02 0.66233609137875E+00
 s    2 1.00
 0.62067138508000E+01 0.65595308539952E+00
 0.25764896527000E+01 0.37585633285142E+00
 s    1 1.00
 0.57696339419000E+00 0.10000000000000E+01
 s    1 1.00
 0.22972831358000E+00 0.10000000000000E+01
 s    1 1.00
 0.95164440028000E-01 0.10000000000000E+01
 s    1 1.00
 0.48475401370000E-01 0.10000000000000E+01
 p    4 1.00
 0.34697232244000E+02 0.11327220003114E-01
 0.79582622826000E+01 0.76169659202087E-01
 0.23780826883000E+01 0.30192252202676E+00
 0.81433208183000E+00 0.72785027349547E+00
 p    1 1.00
 0.28887547253000E+00 0.10000000000000E+01
 p    1 1.00
 0.10056823671000E+00 0.10000000000000E+01
 d    1 1.00
 0.10970000000000E+01 0.10000000000000E+01
 d    1 1.00
 0.31800000000000E+00 0.10000000000000E+01
 d    1 1.00
 0.90985336424000E-01 0.10000000000000E+01
 f    1 1.00
 0.76100000000000E+00 0.10000000000000E+01
 
    5 0
 s    6 1.00
 0.13575349682000E+05 0.60645503603591E-03
 0.20352333680000E+04 0.46979088884982E-02
 0.46322562359000E+03 0.24332477647552E-01
 0.13120019598000E+03 0.97399968307759E-01
 0.42853015891000E+02 0.30195584253780E+00
 0.15584185766000E+02 0.66233609137875E+00
 s    2 1.00
 0.62067138508000E+01 0.65595308539952E+00
 0.25764896527000E+01 0.37585633285142E+00
 s    1 1.00
 0.57696339419000E+00 0.10000000000000E+01
 s    1 1.00
 0.22972831358000E+00 0.10000000000000E+01
 s    1 1.00
 0.95164440028000E-01 0.10000000000000E+01
 s    1 1.00
 0.48475401370000E-01 0.10000000000000E+01
 p    4 1.00
 0.34697232244000E+02 0.11327220003114E-01
 0.79582622826000E+01 0.76169659202087E-01
 0.23780826883000E+01 0.30192252202676E+00
 0.81433208183000E+00 0.72785027349547E+00
 p    1 1.00
 0.28887547253000E+00 0.10000000000000E+01
 p    1 1.00
 0.10056823671000E+00 0.10000000000000E+01
 d    1 1.00
 0.10970000000000E+01 0.10000000000000E+01
 d    1 1.00
 0.31800000000000E+00 0.10000000000000E+01
 d    1 1.00
 0.90985336424000E-01 0.10000000000000E+01
 f    1 1.00
 0.76100000000000E+00 0.10000000000000E+01
 
    6 0
 s    6 1.00
 0.13575349682000E+05 0.60645503603591E-03
 0.20352333680000E+04 0.46979088884982E-02
 0.46322562359000E+03 0.24332477647552E-01
 0.13120019598000E+03 0.97399968307759E-01
 0.42853015891000E+02 0.30195584253780E+00
 0.15584185766000E+02 0.66233609137875E+00
 s    2 1.00
 0.62067138508000E+01 0.65595308539952E+00
 0.25764896527000E+01 0.37585633285142E+00
 s    1 1.00
 0.57696339419000E+00 0.10000000000000E+01
 s    1 1.00
 0.22972831358000E+00 0.10000000000000E+01
 s    1 1.00
 0.95164440028000E-01 0.10000000000000E+01
 s    1 1.00
 0.48475401370000E-01 0.10000000000000E+01
 p    4 1.00
 0.34697232244000E+02 0.11327220003114E-01
 0.79582622826000E+01 0.76169659202087E-01
 0.23780826883000E+01 0.30192252202676E+00
 0.81433208183000E+00 0.72785027349547E+00
 p    1 1.00
 0.28887547253000E+00 0.10000000000000E+01
 p    1 1.00
 0.10056823671000E+00 0.10000000000000E+01
 d    1 1.00
 0.10970000000000E+01 0.10000000000000E+01
 d    1 1.00
 0.31800000000000E+00 0.10000000000000E+01
 d    1 1.00
 0.90985336424000E-01 0.10000000000000E+01
 f    1 1.00
 0.76100000000000E+00 0.10000000000000E+01
 
    7 0
 s    3 1.00
 0.34061341000000E+02 0.25439307208879E-01
 0.51235746000000E+01 0.19008594890375E+00
 0.11646626000000E+01 0.85244113011042E+00
 s    1 1.00
 0.32723041000000E+00 0.10000000000000E+01
 s    1 1.00
 0.10307241000000E+00 0.10000000000000E+01
 p    1 1.00
 0.80000000000000E+00 0.10000000000000E+01
 p    1 1.00
 0.95774129632000E-01 0.10000000000000E+01
 
    8 0
 s    3 1.00
 0.34061341000000E+02 0.25439307208879E-01
 0.51235746000000E+01 0.19008594890375E+00
 0.11646626000000E+01 0.85244113011042E+00
 s    1 1.00
 0.32723041000000E+00 0.10000000000000E+01
 s    1 1.00
 0.10307241000000E+00 0.10000000000000E+01
 p    1 1.00
 0.80000000000000E+00 0.10000000000000E+01
 p    1 1.00
 0.95774129632000E-01 0.10000000000000E+01
 
    9 0
 s    3 1.00
 0.34061341000000E+02 0.25439307208879E-01
 0.51235746000000E+01 0.19008594890375E+00
 0.11646626000000E+01 0.85244113011042E+00
 s    1 1.00
 0.32723041000000E+00 0.10000000000000E+01
 s    1 1.00
 0.10307241000000E+00 0.10000000000000E+01
 p    1 1.00
 0.80000000000000E+00 0.10000000000000E+01
 p    1 1.00
 0.95774129632000E-01 0.10000000000000E+01
 
   10 0
 s    3 1.00
 0.34061341000000E+02 0.25439307208879E-01
 0.51235746000000E+01 0.19008594890375E+00
 0.11646626000000E+01 0.85244113011042E+00
 s    1 1.00
 0.32723041000000E+00 0.10000000000000E+01
 s    1 1.00
 0.10307241000000E+00 0.10000000000000E+01
 p    1 1.00
 0.80000000000000E+00 0.10000000000000E+01
 p    1 1.00
 0.95774129632000E-01 0.10000000000000E+01
 
   11 0
 s    6 1.00
 0.19730800647000E+05 0.58626402628763E-03
 0.29578958745000E+04 0.45428820586397E-02
 0.67322133595000E+03 0.23558413450084E-01
 0.19068249494000E+03 0.94709193292923E-01
 0.62295441898000E+02 0.29719784913376E+00
 0.22654161182000E+02 0.66916246895232E+00
 s    2 1.00
 0.89791477428000E+01 0.64596683630063E+00
 0.36863002370000E+01 0.38700574393705E+00
 s    1 1.00
 0.84660076805000E+00 0.10000000000000E+01
 s    1 1.00
 0.33647133771000E+00 0.10000000000000E+01
 s    1 1.00
 0.13647653675000E+00 0.10000000000000E+01
 s    1 1.00
 0.68441605847000E-01 0.10000000000000E+01
 p    4 1.00
 0.49200380510000E+02 0.11448825101764E-01
 0.11346790537000E+02 0.78422337970864E-01
 0.34273972411000E+01 0.30818094738830E+00
 0.11785525134000E+01 0.72027196368413E+00
 p    1 1.00
 0.41642204972000E+00 0.10000000000000E+01
 p    1 1.00
 0.14260826011000E+00 0.10000000000000E+01
 d    1 1.00
 0.16540000000000E+01 0.10000000000000E+01
 d    1 1.00
 0.46900000000000E+00 0.10000000000000E+01
 d    1 1.00
 0.12829642058000E+00 0.10000000000000E+01
 f    1 1.00
 0.10930000000000E+01 0.10000000000000E+01
 
   12 0
 s    6 1.00
 0.27032382631000E+05 0.57227335211155E-03
 0.40523871392000E+04 0.44353233492995E-02
 0.92232722710000E+03 0.23020107706038E-01
 0.26124070989000E+03 0.92822490667928E-01
 0.85354641351000E+02 0.29378500009671E+00
 0.31035035245000E+02 0.67401604501641E+00
 s    2 1.00
 0.12260860728000E+02 0.63839937025506E+00
 0.49987076005000E+01 0.39534587125718E+00
 s    1 1.00
 0.11703108158000E+01 0.10000000000000E+01
 s    1 1.00
 0.46474740994000E+00 0.10000000000000E+01
 s    1 1.00
 0.18504536357000E+00 0.10000000000000E+01
 s    1 1.00
 0.70288026270000E-01 0.10000000000000E+01
 p    4 1.00
 0.63274954801000E+02 0.12018332222616E-01
 0.14627049379000E+02 0.83005421790056E-01
 0.44501223456000E+01 0.31991743925964E+00
 0.15275799647000E+01 0.70715542916104E+00
 p    1 1.00
 0.52935117943000E+00 0.10000000000000E+01
 p    1 1.00
 0.17478421270000E+00 0.10000000000000E+01
 p    1 1.00
 0.51112745706000E-01 0.10000000000000E+01
 d    1 1.00
 0.23140000000000E+01 0.10000000000000E+01
 d    1 1.00
 0.64500000000000E+00 0.10000000000000E+01
 d    1 1.00
 0.14696477366000E+00 0.10000000000000E+01
 f    1 1.00
 0.14280000000000E+01 0.10000000000000E+01
 
   13 0
 s    6 1.00
 0.27032382631000E+05 0.57227335211155E-03
 0.40523871392000E+04 0.44353233492995E-02
 0.92232722710000E+03 0.23020107706038E-01
 0.26124070989000E+03 0.92822490667928E-01
 0.85354641351000E+02 0.29378500009671E+00
 0.31035035245000E+02 0.67401604501641E+00
 s    2 1.00
 0.12260860728000E+02 0.63839937025506E+00
 0.49987076005000E+01 0.39534587125718E+00
 s    1 1.00
 0.11703108158000E+01 0.10000000000000E+01
 s    1 1.00
 0.46474740994000E+00 0.10000000000000E+01
 s    1 1.00
 0.18504536357000E+00 0.10000000000000E+01
 s    1 1.00
 0.70288026270000E-01 0.10000000000000E+01
 p    4 1.00
 0.63274954801000E+02 0.12018332222616E-01
 0.14627049379000E+02 0.83005421790056E-01
 0.44501223456000E+01 0.31991743925964E+00
 0.15275799647000E+01 0.70715542916104E+00
 p    1 1.00
 0.52935117943000E+00 0.10000000000000E+01
 p    1 1.00
 0.17478421270000E+00 0.10000000000000E+01
 p    1 1.00
 0.51112745706000E-01 0.10000000000000E+01
 d    1 1.00
 0.23140000000000E+01 0.10000000000000E+01
 d    1 1.00
 0.64500000000000E+00 0.10000000000000E+01
 d    1 1.00
 0.14696477366000E+00 0.10000000000000E+01
 f    1 1.00
 0.14280000000000E+01 0.10000000000000E+01
 
   14 0
 s    6 1.00
 0.19730800647000E+05 0.58626402628763E-03
 0.29578958745000E+04 0.45428820586397E-02
 0.67322133595000E+03 0.23558413450084E-01
 0.19068249494000E+03 0.94709193292923E-01
 0.62295441898000E+02 0.29719784913376E+00
 0.22654161182000E+02 0.66916246895232E+00
 s    2 1.00
 0.89791477428000E+01 0.64596683630063E+00
 0.36863002370000E+01 0.38700574393705E+00
 s    1 1.00
 0.84660076805000E+00 0.10000000000000E+01
 s    1 1.00
 0.33647133771000E+00 0.10000000000000E+01
 s    1 1.00
 0.13647653675000E+00 0.10000000000000E+01
 s    1 1.00
 0.68441605847000E-01 0.10000000000000E+01
 p    4 1.00
 0.49200380510000E+02 0.11448825101764E-01
 0.11346790537000E+02 0.78422337970864E-01
 0.34273972411000E+01 0.30818094738830E+00
 0.11785525134000E+01 0.72027196368413E+00
 p    1 1.00
 0.41642204972000E+00 0.10000000000000E+01
 p    1 1.00
 0.14260826011000E+00 0.10000000000000E+01
 d    1 1.00
 0.16540000000000E+01 0.10000000000000E+01
 d    1 1.00
 0.46900000000000E+00 0.10000000000000E+01
 d    1 1.00
 0.12829642058000E+00 0.10000000000000E+01
 f    1 1.00
 0.10930000000000E+01 0.10000000000000E+01
 
   15 0
 s    3 1.00
 0.34061341000000E+02 0.25439307208879E-01
 0.51235746000000E+01 0.19008594890375E+00
 0.11646626000000E+01 0.85244113011042E+00
 s    1 1.00
 0.32723041000000E+00 0.10000000000000E+01
 s    1 1.00
 0.10307241000000E+00 0.10000000000000E+01
 p    1 1.00
 0.80000000000000E+00 0.10000000000000E+01
 p    1 1.00
 0.95774129632000E-01 0.10000000000000E+01
 
   16 0
 s    3 1.00
 0.34061341000000E+02 0.25439307208879E-01
 0.51235746000000E+01 0.19008594890375E+00
 0.11646626000000E+01 0.85244113011042E+00
 s    1 1.00
 0.32723041000000E+00 0.10000000000000E+01
 s    1 1.00
 0.10307241000000E+00 0.10000000000000E+01
 p    1 1.00
 0.80000000000000E+00 0.10000000000000E+01
 p    1 1.00
 0.95774129632000E-01 0.10000000000000E+01
 
[MO]
 Sym= X
 Ene= -0.077635
 Spin= Alpha
 Occup= -0.077635
         1    3.358475E-04
         2    7.700986E-04
         3   -1.606366E-03
         4    9.794248E-04
         5   -5.881435E-03
         6    9.744068E-03
         7   -5.129841E-03
         8   -3.618064E-04
         9    1.321645E-01
        10   -7.475666E-04
        11   -6.643292E-04
        12    1.301678E-01
        13    1.919604E-02
        14   -3.586582E-04
        15    5.067975E-02
        16   -1.415730E-04
        17    1.319433E-04
        18    9.629732E-06
        19    5.991853E-05
        20   -1.222539E-03
        21    4.494463E-03
        22    3.430742E-04
        23   -2.068680E-04
        24   -1.362062E-04
        25    7.604669E-04
        26   -3.182126E-03
        27    7.578912E-03
        28    1.672622E-03
        29   -1.444771E-03
        30   -2.278508E-04
        31   -1.751975E-03
        32   -6.848120E-03
        33    5.307301E-03
        34    3.593314E-06
        35   -9.118106E-06
        36   -1.091691E-03
        37    2.483119E-07
        38    8.084839E-06
        39    5.059031E-04
        40   -5.069249E-06
        41    4.148385E-06
        42    9.587537E-04
        43   -5.579070E-04
        44   -7.329696E-05
        45   -1.611253E-04
        46   -1.087575E-04
        47    4.078448E-03
        48    1.033794E-02
        49   -9.070702E-03
        50    1.845682E-03
        51   -2.819218E-06
        52    2.178103E-01
        53    2.392946E-03
        54    6.447361E-06
        55    2.205078E-01
        56    7.382167E-03
        57    1.056183E-03
        58    7.862657E-02
        59   -1.885107E-04
        60    1.878646E-04
        61    6.461027E-07
        62   -1.383194E-07
        63    2.494678E-03
        64   -2.791279E-07
        65   -5.856022E-04
        66    8.306450E-04
        67   -2.450427E-04
        68    1.240871E-06
        69    3.511295E-03
        70    8.730526E-07
        71   -1.073351E-02
        72    1.109624E-02
        73   -3.627313E-04
        74    1.173525E-04
        75    7.838928E-03
        76    1.692020E-05
        77    8.792066E-06
        78    1.201247E-07
        79   -1.672762E-03
        80    4.982551E-06
        81   -8.986581E-08
        82    8.816455E-04
        83   -1.677834E-05
        84   -7.129842E-08
        85    1.362600E-03
        86    5.011584E-08
        87    3.350892E-04
        88    7.684169E-04
        89   -1.604468E-03
        90    1.002003E-03
        91   -7.959139E-03
        92    9.792155E-03
        93   -5.136122E-03
        94    3.725892E-04
        95    1.321554E-01
        96   -7.400225E-04
        97    6.858611E-04
        98    1.301592E-01
        99    1.970642E-02
       100    1.393521E-03
       101    5.062317E-02
       102   -1.414259E-04
       103    1.319962E-04
       104    9.429666E-06
       105   -6.045531E-05
       106   -1.222768E-03
       107   -4.494620E-03
       108    3.421846E-04
       109   -2.060390E-04
       110   -1.361456E-04
       111   -7.648705E-04
       112   -3.181439E-03
       113   -7.576729E-03
       114    1.765586E-03
       115   -1.551768E-03
       116   -2.138182E-04
       117    1.622993E-03
       118   -6.835504E-03
       119   -5.249611E-03
       120    3.653216E-06
       121    9.163809E-06
       122   -1.091632E-03
       123    2.103758E-07
       124   -8.011344E-06
       125    5.058856E-04
       126   -5.111679E-06
       127   -4.283196E-06
       128    9.586927E-04
       129    5.577503E-04
       130   -2.651855E-04
       131   -5.907918E-04
       132   -4.562314E-06
       133    1.023467E-02
       134    3.040607E-03
       135   -1.133832E-02
       136    5.195146E-03
       137   -1.688012E-03
       138    2.816764E-02
       139    1.116329E-02
       140   -6.281561E-03
       141    2.802560E-02
       142    1.039956E-02
       143    9.187387E-03
       144    2.783941E-03
       145   -3.225148E-04
       146    3.694884E-04
       147   -4.697361E-05
       148   -4.565589E-06
       149   -4.032933E-03
       150    9.140860E-04
       151   -5.962540E-04
       152    8.146609E-04
       153   -2.184069E-04
       154   -1.587127E-03
       155   -7.141998E-03
       156    2.187053E-03
       157   -6.619166E-03
       158    5.531883E-03
       159    1.087283E-03
       160    7.467186E-03
       161   -3.295345E-03
       162    1.214666E-02
       163    1.599582E-05
       164   -2.217502E-05
       165   -2.458697E-04
       166    2.939762E-05
       167   -1.101178E-06
       168    5.034132E-04
       169   -5.085827E-05
       170    3.085209E-05
       171   -1.735443E-04
       172    3.956716E-04
       173    1.189120E-03
       174    2.699646E-03
       175   -3.288734E-03
       176   -1.487302E-02
       177    4.732430E-02
       178   -4.676215E-04
       179   -1.507613E-02
       180    6.241217E-06
       181   -9.562732E-02
       182   -3.820520E-03
       183    1.864265E-05
       184   -9.240343E-02
       185    3.534051E-02
       186   -7.014810E-04
       187    1.429785E-02
       188   -7.539089E-04
       189    5.361118E-04
       190    2.177971E-04
       191   -3.540042E-07
       192   -6.399951E-03
       193   -1.803419E-07
       194    1.669541E-03
       195   -3.456709E-03
       196    1.787167E-03
       197   -3.813422E-06
       198   -1.294613E-02
       199   -1.274187E-06
       200    7.062156E-03
       201   -7.275624E-03
       202    2.134680E-04
       203    1.723496E-04
       204   -4.255581E-03
       205   -3.566650E-05
       206   -1.339480E-04
       207    9.234939E-09
       208    9.099049E-04
       209    7.919762E-05
       210    1.026903E-07
       211   -1.356040E-03
       212    1.005125E-04
       213   -1.150803E-07
       214    1.352749E-04
       215    6.651625E-08
       216   -2.649070E-04
       217   -5.901230E-04
       218   -9.641913E-06
       219    1.027531E-02
       220    1.286728E-03
       221   -1.127165E-02
       222    5.190676E-03
       223    1.677346E-03
       224    2.817405E-02
       225    1.115872E-02
       226    6.289409E-03
       227    2.803276E-02
       228    1.010163E-02
       229   -1.007150E-02
       230    2.682230E-03
       231   -3.224877E-04
       232    3.694707E-04
       233   -4.698297E-05
       234    3.948054E-06
       235   -4.033364E-03
       236   -9.139642E-04
       237   -5.964601E-04
       238    8.173109E-04
       239   -2.208508E-04
       240    1.588357E-03
       241   -7.141400E-03
       242   -2.188141E-03
       243   -6.471700E-03
       244    5.379390E-03
       245    1.092310E-03
       246   -7.535043E-03
       247   -3.332286E-03
       248   -1.218943E-02
       249    1.583082E-05
       250    2.221564E-05
       251   -2.458784E-04
       252    2.961094E-05
       253    1.060617E-06
       254    5.034290E-04
       255   -5.085022E-05
       256   -3.086603E-05
       257   -1.735485E-04
       258   -3.956569E-04
       259    1.359280E-03
       260    1.858535E-03
       261    1.709284E-02
       262    1.553203E-05
       263    1.698949E-04
       264    4.748830E-03
       265    3.898108E-03
       266    1.419220E-03
       267    2.308005E-03
       268    1.366505E-03
       269    1.863009E-03
       270    1.687923E-02
       271    1.552522E-05
       272   -1.702335E-04
       273    4.748193E-03
       274    3.938410E-03
       275   -1.379711E-03
       276    2.267138E-03
       277    1.362816E-03
       278    3.571830E-03
       279   -3.133242E-02
       280    3.664041E-05
       281   -2.491402E-04
       282    5.340905E-04
       283    4.687903E-03
       284    1.950855E-03
       285   -1.015093E-02
       286    1.367317E-03
       287    3.569455E-03
       288   -3.145444E-02
       289    3.574740E-05
       290    2.488618E-04
       291    5.343253E-04
       292    4.632554E-03
       293   -2.010572E-03
       294   -1.016255E-02
       295    1.834005E-04
       296    4.337276E-04
       297   -5.733358E-04
       298   -1.508560E-03
       299    8.110175E-03
       300    5.568569E-03
       301   -2.499138E-03
       302    2.223260E-06
       303   -1.671905E-02
       304   -2.026272E-03
       305    5.379074E-06
       306   -1.590876E-02
       307    2.946960E-03
       308   -4.387236E-05
       309    8.360053E-03
       310   -6.451958E-05
       311    9.646348E-05
       312   -3.194390E-05
       313   -5.572607E-07
       314    4.321559E-03
       315   -5.774013E-07
       316   -1.366904E-04
       317    1.855284E-04
       318   -4.883806E-05
       319   -2.157420E-06
       320    1.238715E-02
       321   -1.848297E-06
       322    2.714521E-04
       323   -2.015078E-03
       324    1.743625E-03
       325   -3.261116E-05
       326    5.966338E-03
       327    3.304715E-06
       328   -2.845217E-06
       329   -1.153172E-07
       330    1.198275E-04
       331   -1.538955E-06
       332    1.946079E-07
       333    6.189680E-04
       334    5.356214E-06
       335   -3.989367E-08
       336   -7.797334E-04
       337    9.815197E-08
       338    4.321918E-05
       339    1.025512E-04
       340   -1.280329E-04
       341   -7.450946E-04
       342    4.852280E-03
       343    3.502123E-04
       344    1.678075E-03
       345   -2.753599E-04
       346   -7.980096E-02
       347    1.586571E-03
       348   -3.108386E-04
       349   -7.349618E-02
       350    1.849960E-03
       351   -6.527589E-04
       352   -5.285773E-02
       353    3.471017E-04
       354    4.619382E-05
       355   -4.639747E-03
       356   -6.662841E-06
       357    1.623020E-05
       358   -9.567363E-06
       359   -1.187093E-05
       360   -2.302940E-04
       361    8.360952E-04
       362    6.878473E-06
       363    3.692534E-05
       364   -4.380381E-05
       365   -2.421618E-05
       366   -1.123151E-03
       367    2.581986E-03
       368    2.789374E-05
       369    3.728193E-05
       370   -6.517567E-05
       371    1.087030E-05
       372   -1.609039E-03
       373    4.189482E-04
       374   -2.324224E-06
       375   -3.186906E-06
       376    1.297235E-04
       377    5.344628E-06
       378    4.463084E-07
       379    7.661891E-05
       380   -2.226354E-06
       381    3.829374E-06
       382   -2.506613E-04
       383    2.185454E-04
       384    4.331482E-05
       385    1.027505E-04
       386   -1.278636E-04
       387   -7.477039E-04
       388    4.882492E-03
       389    3.717233E-04
       390    1.705943E-03
       391    2.506327E-04
       392   -7.976812E-02
       393    1.613268E-03
       394    2.910323E-04
       395   -7.346720E-02
       396    1.845965E-03
       397    6.454909E-04
       398   -5.282608E-02
       399    3.538207E-04
       400   -4.799816E-05
       401   -4.634052E-03
       402   -6.363258E-06
       403    1.586579E-05
       404   -9.502532E-06
       405    1.184160E-05
       406   -2.301480E-04
       407   -8.358174E-04
       408    7.099806E-06
       409    3.685012E-05
       410   -4.394992E-05
       411    2.461070E-05
       412   -1.122463E-03
       413   -2.581190E-03
       414    3.045364E-05
       415    3.474074E-05
       416   -6.519438E-05
       417   -1.577772E-05
       418   -1.608358E-03
       419   -4.161423E-04
       420   -2.290593E-06
       421    3.118267E-06
       422    1.296744E-04
       423    5.331143E-06
       424   -3.608833E-07
       425    7.661146E-05
       426   -2.257990E-06
       427   -3.822710E-06
       428   -2.505879E-04
       429   -2.184601E-04
       430   -4.040804E-03
       431   -9.587057E-03
       432    1.487298E-02
       433    2.365010E-02
       434    4.349643E-03
       435    2.770848E-02
       436    2.052126E-02
       437   -1.376181E-05
       438   -2.378711E-01
       439    2.269985E-02
       440   -3.481183E-06
       441   -2.311267E-01
       442    2.859043E-02
       443    1.085922E-04
       444   -1.575257E-01
       445    3.504822E-05
       446    1.866264E-04
       447   -2.216746E-04
       448   -4.305290E-07
       449    1.977894E-03
       450   -3.863595E-07
       451   -1.980344E-04
       452    2.008429E-03
       453   -1.810394E-03
       454    4.524519E-06
       455    4.157523E-03
       456   -1.266241E-06
       457   -1.414979E-03
       458    5.426807E-03
       459   -4.011828E-03
       460    1.513421E-05
       461    4.956412E-04
       462   -7.140722E-06
       463    9.226146E-05
       464   -3.533601E-08
       465    1.286867E-03
       466    1.043102E-04
       467    1.289401E-08
       468   -1.111011E-03
       469   -2.280919E-04
       470    3.451422E-08
       471   -6.155022E-04
       472   -2.473017E-08
       473   -5.050780E-03
       474   -1.234279E-02
       475   -2.286239E-02
       476    2.248437E-03
       477    1.539518E-03
       478   -1.094490E-02
       479    2.891684E-03
       480    2.047114E-03
       481   -4.555608E-03
       482   -5.040200E-03
       483   -1.225137E-02
       484   -2.253269E-02
       485    2.243206E-03
       486   -1.531117E-03
       487   -1.094864E-02
       488    2.854444E-03
       489   -1.990850E-03
       490   -4.579513E-03
 Sym= X
 Ene= -0.843595
 Spin= Alpha
 Occup= -0.843595
         1   -1.692025E-04
         2   -3.937829E-04
         3    1.095674E-03
         4   -2.331956E-03
         5   -1.104129E-02
         6   -1.029248E-02
         7    1.707411E-03
         8    1.739679E-04
         9    1.562281E-02
        10   -2.040012E-03
        11    3.602950E-04
        12    1.391841E-02
        13   -3.259824E-02
        14    8.838182E-03
        15    6.178181E-04
        16    1.043546E-05
        17   -2.084192E-05
        18    1.040646E-05
        19   -1.175879E-05
        20   -6.424651E-03
        21    3.622696E-03
        22   -5.955235E-04
        23    3.548628E-04
        24    2.406607E-04
        25   -6.465996E-04
        26   -1.440806E-02
        27    6.891073E-03
        28   -4.735026E-03
        29    4.427962E-03
        30    3.070642E-04
        31    1.023697E-03
        32    1.721577E-03
        33   -1.011215E-02
        34   -1.728309E-05
        35    6.072558E-06
        36   -3.156292E-05
        37    7.222844E-06
        38   -6.150754E-06
        39   -7.538161E-04
        40    1.596485E-05
        41   -1.996439E-06
        42    7.961622E-04
        43   -6.830371E-04
        44    2.809386E-05
        45    6.167021E-05
        46    1.091062E-04
        47   -2.504360E-03
        48   -4.627393E-02
        49    5.105838E-03
        50    2.083115E-04
        51    1.505133E-06
        52    1.940624E-01
        53   -4.922446E-04
        54    2.185877E-05
        55    2.017220E-01
        56   -1.530543E-02
        57   -1.555112E-03
        58    1.977603E-01
        59    4.555448E-05
        60   -4.342595E-05
        61   -2.128524E-06
        62    1.348637E-07