[Molden Format]
[Title]
ADC(2) - opt by CAM-B3LYP gaussian                                              
[Atoms] AU
 c     1    6 -.12588699998532E+01 -.22834089986974E+01 -.24579904026210E-01
 c     2    6 -.25576598737242E+01 0.00000000000000E+00 -.23328905326240E-01
 c     3    6 -.12588681101271E+01 0.22834089986974E+01 -.24585573204610E-01
 c     4    6 0.13319747639512E+01 0.22851362083829E+01 -.26548998656670E-01
 c     5    6 0.26868460402678E+01 0.00000000000000E+00 -.25991529447470E-01
 c     6    6 0.13319728742250E+01 -.22851362083829E+01 -.26541439752140E-01
 h     7    1 -.22976467859220E+01 -.40383900994038E+01 -.22042001829740E-01
 h     8    1 -.22976448961959E+01 0.40383919891299E+01 -.22053340186540E-01
 h     9    1 0.23511286338561E+01 0.40572968093633E+01 -.28790213850280E-01
 h    10    1 0.23511267441300E+01 -.40572968093633E+01 -.28775096041210E-01
 n    11    7 -.52730224718766E+01 0.00000000000000E+00 -.17674844736640E-01
 o    12    8 -.63812882673039E+01 0.20269372576683E+01 -.15259774738810E-01
 o    13    8 -.63812844878516E+01 -.20269372576683E+01 -.15276782274010E-01
 n    14    7 0.52436643953234E+01 0.00000000000000E+00 -.69084844181800E-01
 h    15    1 0.62047866654136E+01 0.16174392738504E+01 0.18526851385235E+00
 h    16    1 0.62047847756874E+01 -.16174411635765E+01 0.18526473440008E+00
[GTO]
    1 0
 s    6 1.00
 0.13575349682000E+05 0.60645503603591E-03
 0.20352333680000E+04 0.46979088884982E-02
 0.46322562359000E+03 0.24332477647552E-01
 0.13120019598000E+03 0.97399968307759E-01
 0.42853015891000E+02 0.30195584253780E+00
 0.15584185766000E+02 0.66233609137875E+00
 s    2 1.00
 0.62067138508000E+01 0.65595308539952E+00
 0.25764896527000E+01 0.37585633285142E+00
 s    1 1.00
 0.57696339419000E+00 0.10000000000000E+01
 s    1 1.00
 0.22972831358000E+00 0.10000000000000E+01
 s    1 1.00
 0.95164440028000E-01 0.10000000000000E+01
 s    1 1.00
 0.48475401370000E-01 0.10000000000000E+01
 p    4 1.00
 0.34697232244000E+02 0.11327220003114E-01
 0.79582622826000E+01 0.76169659202087E-01
 0.23780826883000E+01 0.30192252202676E+00
 0.81433208183000E+00 0.72785027349547E+00
 p    1 1.00
 0.28887547253000E+00 0.10000000000000E+01
 p    1 1.00
 0.10056823671000E+00 0.10000000000000E+01
 d    1 1.00
 0.10970000000000E+01 0.10000000000000E+01
 d    1 1.00
 0.31800000000000E+00 0.10000000000000E+01
 d    1 1.00
 0.90985336424000E-01 0.10000000000000E+01
 f    1 1.00
 0.76100000000000E+00 0.10000000000000E+01
 
    2 0
 s    6 1.00
 0.13575349682000E+05 0.60645503603591E-03
 0.20352333680000E+04 0.46979088884982E-02
 0.46322562359000E+03 0.24332477647552E-01
 0.13120019598000E+03 0.97399968307759E-01
 0.42853015891000E+02 0.30195584253780E+00
 0.15584185766000E+02 0.66233609137875E+00
 s    2 1.00
 0.62067138508000E+01 0.65595308539952E+00
 0.25764896527000E+01 0.37585633285142E+00
 s    1 1.00
 0.57696339419000E+00 0.10000000000000E+01
 s    1 1.00
 0.22972831358000E+00 0.10000000000000E+01
 s    1 1.00
 0.95164440028000E-01 0.10000000000000E+01
 s    1 1.00
 0.48475401370000E-01 0.10000000000000E+01
 p    4 1.00
 0.34697232244000E+02 0.11327220003114E-01
 0.79582622826000E+01 0.76169659202087E-01
 0.23780826883000E+01 0.30192252202676E+00
 0.81433208183000E+00 0.72785027349547E+00
 p    1 1.00
 0.28887547253000E+00 0.10000000000000E+01
 p    1 1.00
 0.10056823671000E+00 0.10000000000000E+01
 d    1 1.00
 0.10970000000000E+01 0.10000000000000E+01
 d    1 1.00
 0.31800000000000E+00 0.10000000000000E+01
 d    1 1.00
 0.90985336424000E-01 0.10000000000000E+01
 f    1 1.00
 0.76100000000000E+00 0.10000000000000E+01
 
    3 0
 s    6 1.00
 0.13575349682000E+05 0.60645503603591E-03
 0.20352333680000E+04 0.46979088884982E-02
 0.46322562359000E+03 0.24332477647552E-01
 0.13120019598000E+03 0.97399968307759E-01
 0.42853015891000E+02 0.30195584253780E+00
 0.15584185766000E+02 0.66233609137875E+00
 s    2 1.00
 0.62067138508000E+01 0.65595308539952E+00
 0.25764896527000E+01 0.37585633285142E+00
 s    1 1.00
 0.57696339419000E+00 0.10000000000000E+01
 s    1 1.00
 0.22972831358000E+00 0.10000000000000E+01
 s    1 1.00
 0.95164440028000E-01 0.10000000000000E+01
 s    1 1.00
 0.48475401370000E-01 0.10000000000000E+01
 p    4 1.00
 0.34697232244000E+02 0.11327220003114E-01
 0.79582622826000E+01 0.76169659202087E-01
 0.23780826883000E+01 0.30192252202676E+00
 0.81433208183000E+00 0.72785027349547E+00
 p    1 1.00
 0.28887547253000E+00 0.10000000000000E+01
 p    1 1.00
 0.10056823671000E+00 0.10000000000000E+01
 d    1 1.00
 0.10970000000000E+01 0.10000000000000E+01
 d    1 1.00
 0.31800000000000E+00 0.10000000000000E+01
 d    1 1.00
 0.90985336424000E-01 0.10000000000000E+01
 f    1 1.00
 0.76100000000000E+00 0.10000000000000E+01
 
    4 0
 s    6 1.00
 0.13575349682000E+05 0.60645503603591E-03
 0.20352333680000E+04 0.46979088884982E-02
 0.46322562359000E+03 0.24332477647552E-01
 0.13120019598000E+03 0.97399968307759E-01
 0.42853015891000E+02 0.30195584253780E+00
 0.15584185766000E+02 0.66233609137875E+00
 s    2 1.00
 0.62067138508000E+01 0.65595308539952E+00
 0.25764896527000E+01 0.37585633285142E+00
 s    1 1.00
 0.57696339419000E+00 0.10000000000000E+01
 s    1 1.00
 0.22972831358000E+00 0.10000000000000E+01
 s    1 1.00
 0.95164440028000E-01 0.10000000000000E+01
 s    1 1.00
 0.48475401370000E-01 0.10000000000000E+01
 p    4 1.00
 0.34697232244000E+02 0.11327220003114E-01
 0.79582622826000E+01 0.76169659202087E-01
 0.23780826883000E+01 0.30192252202676E+00
 0.81433208183000E+00 0.72785027349547E+00
 p    1 1.00
 0.28887547253000E+00 0.10000000000000E+01
 p    1 1.00
 0.10056823671000E+00 0.10000000000000E+01
 d    1 1.00
 0.10970000000000E+01 0.10000000000000E+01
 d    1 1.00
 0.31800000000000E+00 0.10000000000000E+01
 d    1 1.00
 0.90985336424000E-01 0.10000000000000E+01
 f    1 1.00
 0.76100000000000E+00 0.10000000000000E+01
 
    5 0
 s    6 1.00
 0.13575349682000E+05 0.60645503603591E-03
 0.20352333680000E+04 0.46979088884982E-02
 0.46322562359000E+03 0.24332477647552E-01
 0.13120019598000E+03 0.97399968307759E-01
 0.42853015891000E+02 0.30195584253780E+00
 0.15584185766000E+02 0.66233609137875E+00
 s    2 1.00
 0.62067138508000E+01 0.65595308539952E+00
 0.25764896527000E+01 0.37585633285142E+00
 s    1 1.00
 0.57696339419000E+00 0.10000000000000E+01
 s    1 1.00
 0.22972831358000E+00 0.10000000000000E+01
 s    1 1.00
 0.95164440028000E-01 0.10000000000000E+01
 s    1 1.00
 0.48475401370000E-01 0.10000000000000E+01
 p    4 1.00
 0.34697232244000E+02 0.11327220003114E-01
 0.79582622826000E+01 0.76169659202087E-01
 0.23780826883000E+01 0.30192252202676E+00
 0.81433208183000E+00 0.72785027349547E+00
 p    1 1.00
 0.28887547253000E+00 0.10000000000000E+01
 p    1 1.00
 0.10056823671000E+00 0.10000000000000E+01
 d    1 1.00
 0.10970000000000E+01 0.10000000000000E+01
 d    1 1.00
 0.31800000000000E+00 0.10000000000000E+01
 d    1 1.00
 0.90985336424000E-01 0.10000000000000E+01
 f    1 1.00
 0.76100000000000E+00 0.10000000000000E+01
 
    6 0
 s    6 1.00
 0.13575349682000E+05 0.60645503603591E-03
 0.20352333680000E+04 0.46979088884982E-02
 0.46322562359000E+03 0.24332477647552E-01
 0.13120019598000E+03 0.97399968307759E-01
 0.42853015891000E+02 0.30195584253780E+00
 0.15584185766000E+02 0.66233609137875E+00
 s    2 1.00
 0.62067138508000E+01 0.65595308539952E+00
 0.25764896527000E+01 0.37585633285142E+00
 s    1 1.00
 0.57696339419000E+00 0.10000000000000E+01
 s    1 1.00
 0.22972831358000E+00 0.10000000000000E+01
 s    1 1.00
 0.95164440028000E-01 0.10000000000000E+01
 s    1 1.00
 0.48475401370000E-01 0.10000000000000E+01
 p    4 1.00
 0.34697232244000E+02 0.11327220003114E-01
 0.79582622826000E+01 0.76169659202087E-01
 0.23780826883000E+01 0.30192252202676E+00
 0.81433208183000E+00 0.72785027349547E+00
 p    1 1.00
 0.28887547253000E+00 0.10000000000000E+01
 p    1 1.00
 0.10056823671000E+00 0.10000000000000E+01
 d    1 1.00
 0.10970000000000E+01 0.10000000000000E+01
 d    1 1.00
 0.31800000000000E+00 0.10000000000000E+01
 d    1 1.00
 0.90985336424000E-01 0.10000000000000E+01
 f    1 1.00
 0.76100000000000E+00 0.10000000000000E+01
 
    7 0
 s    3 1.00
 0.34061341000000E+02 0.25439307208879E-01
 0.51235746000000E+01 0.19008594890375E+00
 0.11646626000000E+01 0.85244113011042E+00
 s    1 1.00
 0.32723041000000E+00 0.10000000000000E+01
 s    1 1.00
 0.10307241000000E+00 0.10000000000000E+01
 p    1 1.00
 0.80000000000000E+00 0.10000000000000E+01
 p    1 1.00
 0.95774129632000E-01 0.10000000000000E+01
 
    8 0
 s    3 1.00
 0.34061341000000E+02 0.25439307208879E-01
 0.51235746000000E+01 0.19008594890375E+00
 0.11646626000000E+01 0.85244113011042E+00
 s    1 1.00
 0.32723041000000E+00 0.10000000000000E+01
 s    1 1.00
 0.10307241000000E+00 0.10000000000000E+01
 p    1 1.00
 0.80000000000000E+00 0.10000000000000E+01
 p    1 1.00
 0.95774129632000E-01 0.10000000000000E+01
 
    9 0
 s    3 1.00
 0.34061341000000E+02 0.25439307208879E-01
 0.51235746000000E+01 0.19008594890375E+00
 0.11646626000000E+01 0.85244113011042E+00
 s    1 1.00
 0.32723041000000E+00 0.10000000000000E+01
 s    1 1.00
 0.10307241000000E+00 0.10000000000000E+01
 p    1 1.00
 0.80000000000000E+00 0.10000000000000E+01
 p    1 1.00
 0.95774129632000E-01 0.10000000000000E+01
 
   10 0
 s    3 1.00
 0.34061341000000E+02 0.25439307208879E-01
 0.51235746000000E+01 0.19008594890375E+00
 0.11646626000000E+01 0.85244113011042E+00
 s    1 1.00
 0.32723041000000E+00 0.10000000000000E+01
 s    1 1.00
 0.10307241000000E+00 0.10000000000000E+01
 p    1 1.00
 0.80000000000000E+00 0.10000000000000E+01
 p    1 1.00
 0.95774129632000E-01 0.10000000000000E+01
 
   11 0
 s    6 1.00
 0.19730800647000E+05 0.58626402628763E-03
 0.29578958745000E+04 0.45428820586397E-02
 0.67322133595000E+03 0.23558413450084E-01
 0.19068249494000E+03 0.94709193292923E-01
 0.62295441898000E+02 0.29719784913376E+00
 0.22654161182000E+02 0.66916246895232E+00
 s    2 1.00
 0.89791477428000E+01 0.64596683630063E+00
 0.36863002370000E+01 0.38700574393705E+00
 s    1 1.00
 0.84660076805000E+00 0.10000000000000E+01
 s    1 1.00
 0.33647133771000E+00 0.10000000000000E+01
 s    1 1.00
 0.13647653675000E+00 0.10000000000000E+01
 s    1 1.00
 0.68441605847000E-01 0.10000000000000E+01
 p    4 1.00
 0.49200380510000E+02 0.11448825101764E-01
 0.11346790537000E+02 0.78422337970864E-01
 0.34273972411000E+01 0.30818094738830E+00
 0.11785525134000E+01 0.72027196368413E+00
 p    1 1.00
 0.41642204972000E+00 0.10000000000000E+01
 p    1 1.00
 0.14260826011000E+00 0.10000000000000E+01
 d    1 1.00
 0.16540000000000E+01 0.10000000000000E+01
 d    1 1.00
 0.46900000000000E+00 0.10000000000000E+01
 d    1 1.00
 0.12829642058000E+00 0.10000000000000E+01
 f    1 1.00
 0.10930000000000E+01 0.10000000000000E+01
 
   12 0
 s    6 1.00
 0.27032382631000E+05 0.57227335211155E-03
 0.40523871392000E+04 0.44353233492995E-02
 0.92232722710000E+03 0.23020107706038E-01
 0.26124070989000E+03 0.92822490667928E-01
 0.85354641351000E+02 0.29378500009671E+00
 0.31035035245000E+02 0.67401604501641E+00
 s    2 1.00
 0.12260860728000E+02 0.63839937025506E+00
 0.49987076005000E+01 0.39534587125718E+00
 s    1 1.00
 0.11703108158000E+01 0.10000000000000E+01
 s    1 1.00
 0.46474740994000E+00 0.10000000000000E+01
 s    1 1.00
 0.18504536357000E+00 0.10000000000000E+01
 s    1 1.00
 0.70288026270000E-01 0.10000000000000E+01
 p    4 1.00
 0.63274954801000E+02 0.12018332222616E-01
 0.14627049379000E+02 0.83005421790056E-01
 0.44501223456000E+01 0.31991743925964E+00
 0.15275799647000E+01 0.70715542916104E+00
 p    1 1.00
 0.52935117943000E+00 0.10000000000000E+01
 p    1 1.00
 0.17478421270000E+00 0.10000000000000E+01
 p    1 1.00
 0.51112745706000E-01 0.10000000000000E+01
 d    1 1.00
 0.23140000000000E+01 0.10000000000000E+01
 d    1 1.00
 0.64500000000000E+00 0.10000000000000E+01
 d    1 1.00
 0.14696477366000E+00 0.10000000000000E+01
 f    1 1.00
 0.14280000000000E+01 0.10000000000000E+01
 
   13 0
 s    6 1.00
 0.27032382631000E+05 0.57227335211155E-03
 0.40523871392000E+04 0.44353233492995E-02
 0.92232722710000E+03 0.23020107706038E-01
 0.26124070989000E+03 0.92822490667928E-01
 0.85354641351000E+02 0.29378500009671E+00
 0.31035035245000E+02 0.67401604501641E+00
 s    2 1.00
 0.12260860728000E+02 0.63839937025506E+00
 0.49987076005000E+01 0.39534587125718E+00
 s    1 1.00
 0.11703108158000E+01 0.10000000000000E+01
 s    1 1.00
 0.46474740994000E+00 0.10000000000000E+01
 s    1 1.00
 0.18504536357000E+00 0.10000000000000E+01
 s    1 1.00
 0.70288026270000E-01 0.10000000000000E+01
 p    4 1.00
 0.63274954801000E+02 0.12018332222616E-01
 0.14627049379000E+02 0.83005421790056E-01
 0.44501223456000E+01 0.31991743925964E+00
 0.15275799647000E+01 0.70715542916104E+00
 p    1 1.00
 0.52935117943000E+00 0.10000000000000E+01
 p    1 1.00
 0.17478421270000E+00 0.10000000000000E+01
 p    1 1.00
 0.51112745706000E-01 0.10000000000000E+01
 d    1 1.00
 0.23140000000000E+01 0.10000000000000E+01
 d    1 1.00
 0.64500000000000E+00 0.10000000000000E+01
 d    1 1.00
 0.14696477366000E+00 0.10000000000000E+01
 f    1 1.00
 0.14280000000000E+01 0.10000000000000E+01
 
   14 0
 s    6 1.00
 0.19730800647000E+05 0.58626402628763E-03
 0.29578958745000E+04 0.45428820586397E-02
 0.67322133595000E+03 0.23558413450084E-01
 0.19068249494000E+03 0.94709193292923E-01
 0.62295441898000E+02 0.29719784913376E+00
 0.22654161182000E+02 0.66916246895232E+00
 s    2 1.00
 0.89791477428000E+01 0.64596683630063E+00
 0.36863002370000E+01 0.38700574393705E+00
 s    1 1.00
 0.84660076805000E+00 0.10000000000000E+01
 s    1 1.00
 0.33647133771000E+00 0.10000000000000E+01
 s    1 1.00
 0.13647653675000E+00 0.10000000000000E+01
 s    1 1.00
 0.68441605847000E-01 0.10000000000000E+01
 p    4 1.00
 0.49200380510000E+02 0.11448825101764E-01
 0.11346790537000E+02 0.78422337970864E-01
 0.34273972411000E+01 0.30818094738830E+00
 0.11785525134000E+01 0.72027196368413E+00
 p    1 1.00
 0.41642204972000E+00 0.10000000000000E+01
 p    1 1.00
 0.14260826011000E+00 0.10000000000000E+01
 d    1 1.00
 0.16540000000000E+01 0.10000000000000E+01
 d    1 1.00
 0.46900000000000E+00 0.10000000000000E+01
 d    1 1.00
 0.12829642058000E+00 0.10000000000000E+01
 f    1 1.00
 0.10930000000000E+01 0.10000000000000E+01
 
   15 0
 s    3 1.00
 0.34061341000000E+02 0.25439307208879E-01
 0.51235746000000E+01 0.19008594890375E+00
 0.11646626000000E+01 0.85244113011042E+00
 s    1 1.00
 0.32723041000000E+00 0.10000000000000E+01
 s    1 1.00
 0.10307241000000E+00 0.10000000000000E+01
 p    1 1.00
 0.80000000000000E+00 0.10000000000000E+01
 p    1 1.00
 0.95774129632000E-01 0.10000000000000E+01
 
   16 0
 s    3 1.00
 0.34061341000000E+02 0.25439307208879E-01
 0.51235746000000E+01 0.19008594890375E+00
 0.11646626000000E+01 0.85244113011042E+00
 s    1 1.00
 0.32723041000000E+00 0.10000000000000E+01
 s    1 1.00
 0.10307241000000E+00 0.10000000000000E+01
 p    1 1.00
 0.80000000000000E+00 0.10000000000000E+01
 p    1 1.00
 0.95774129632000E-01 0.10000000000000E+01
 
[MO]
 Sym= X
 Ene= -0.947537
 Spin= Alpha
 Occup= -0.947537
         1   -1.535067E-04
         2   -3.577862E-04
         3    1.020295E-03
         4   -2.284220E-03
         5   -1.130120E-02
         6   -9.831340E-03
         7    1.468605E-03
         8    1.570678E-04
         9    2.171173E-02
        10   -2.072369E-03
        11    3.292203E-04
        12    1.991691E-02
        13   -3.167663E-02
        14    8.812177E-03
        15    2.958411E-03
        16    3.884071E-06
        17   -1.472428E-05
        18    1.084021E-05
        19   -8.978183E-06
        20   -6.474269E-03
        21    3.826459E-03
        22   -5.790387E-04
        23    3.449273E-04
        24    2.341114E-04
        25   -6.107780E-04
        26   -1.453968E-02
        27    7.233839E-03
        28   -4.652701E-03
        29    4.356490E-03
        30    2.962103E-04
        31    9.416683E-04
        32    1.403377E-03
        33   -9.856170E-03
        34   -1.709863E-05
        35    5.644846E-06
        36   -8.196206E-05
        37    7.226604E-06
        38   -5.770691E-06
        39   -7.296401E-04
        40    1.571362E-05
        41   -1.802664E-06
        42    8.396037E-04
        43   -7.080814E-04
        44    2.467777E-05
        45    5.416086E-05
        46    1.039654E-04
        47   -2.313274E-03
        48   -4.574694E-02
        49    4.681347E-03
        50    2.933540E-04
        51    1.373286E-06
        52    2.039174E-01
        53   -3.811722E-04
        54    2.213328E-05
        55    2.116935E-01
        56   -1.494806E-02
        57   -1.504659E-03
        58    2.011815E-01
        59    3.679721E-05
        60   -3.470081E-05
        61   -2.096404E-06
        62    1.283297E-07
        63   -9.545107E-04
        64    1.262257E-06
        65    3.278688E-04
        66   -5.429620E-04
        67    2.150932E-04
        68    4.932063E-06
        69   -3.865400E-03
        70    2.135206E-06
        71    7.617541E-03
        72   -8.606307E-03
        73    9.887657E-04
        74   -2.544836E-04
        75    4.997869E-03
        76   -2.550433E-05
        77    6.633955E-06
        78    4.169051E-08
        79   -1.145601E-03
        80   -5.518389E-06
        81    4.488625E-08
        82    7.142805E-04
        83   -3.381996E-06
        84   -1.008199E-07
        85    8.227040E-04
        86    1.498002E-07
        87   -1.536790E-04
        88   -3.583103E-04
        89    1.029745E-03
        90   -2.366636E-03
        91   -8.750968E-03
        92   -9.754904E-03
        93    1.470156E-03
        94   -1.592683E-04
        95    2.177182E-02
        96   -2.056871E-03
        97   -3.145243E-04
        98    1.997425E-02
        99   -3.267320E-02
       100   -1.040498E-02
       101    3.089805E-03
       102    3.696348E-06
       103   -1.472274E-05
       104    1.102639E-05
       105    9.294830E-06
       106   -6.473510E-03
       107   -3.826716E-03
       108   -5.750705E-04
       109    3.395258E-04
       110    2.355448E-04
       111    6.069804E-04
       112   -1.453570E-02
       113   -7.233378E-03
       114   -4.938477E-03
       115    4.672810E-03
       116    2.656672E-04
       117   -7.301825E-04
       118    1.397425E-03
       119    9.812321E-03
       120   -1.728151E-05
       121   -5.620663E-06
       122   -8.227832E-05
       123    7.543571E-06
       124    5.772392E-06
       125   -7.292964E-04
       126    1.564201E-05
       127    1.768519E-06
       128    8.396843E-04
       129    7.080173E-04
       130    9.819063E-05
       131    2.110637E-04
       132    5.145413E-04
       133   -8.972221E-03
       134    2.783200E-02
       135    1.099476E-02
       136   -1.179466E-03
       137    5.117183E-04
       138   -1.596571E-01
       139   -7.920486E-03
       140    5.290945E-03
       141   -1.623444E-01
       142   -2.310122E-02
       143   -6.015037E-03
       144   -9.735457E-02
       145    1.260203E-04
       146   -1.505592E-04
       147    2.453893E-05
       148   -4.604949E-06
       149   -8.627397E-04
       150    3.152570E-03
       151    5.447893E-04
       152   -6.494444E-04
       153    1.046551E-04
       154    1.470377E-03
       155   -4.088222E-03
       156    5.354913E-03
       157    7.457701E-03
       158   -5.902475E-03
       159   -1.555226E-03
       160   -7.377023E-03
       161    3.244445E-03
       162   -1.142684E-02
       163   -1.355654E-05
       164    7.484233E-06
       165    9.192422E-04
       166   -1.602084E-05
       167    1.534839E-05
       168   -2.532131E-04
       169    3.420885E-05
       170   -2.538955E-05
       171   -9.800797E-04
       172    3.630384E-04
       173   -9.391671E-04
       174   -2.143093E-03
       175    2.191728E-03
       176    1.884490E-02
       177   -1.059636E-02
       178    8.406333E-03
       179    7.634044E-03
       180    9.497963E-07
       181   -1.232916E-01
       182    2.811707E-04
       183   -1.300819E-05
       184   -1.255287E-01
       185   -2.131925E-02
       186    1.580720E-03
       187   -1.312140E-01
       188    4.114702E-04
       189   -2.311822E-04
       190   -1.802880E-04
       191    8.946611E-08
       192    9.682708E-03
       193    1.089804E-06
       194   -1.620816E-03
       195    3.550843E-03
       196   -1.930027E-03
       197    3.547361E-06
       198    2.417875E-02
       199   -1.378617E-06
       200   -4.762439E-03
       201    5.894931E-03
       202   -1.132491E-03
       203   -2.990914E-04
       204    1.923882E-02
       205    8.161790E-06
       206    9.788383E-05
       207    3.402037E-08
       208    4.389930E-04
       209   -6.898921E-05
       210   -1.055420E-07
       211    9.241719E-04
       212   -6.233574E-05
       213    5.989892E-08
       214   -1.513143E-03
       215   -1.948898E-08
       216    9.895510E-05
       217    2.126037E-04
       218    5.189813E-04
       219   -9.057162E-03
       220    3.068171E-02
       221    1.103411E-02
       222   -1.180867E-03
       223   -5.054261E-04
       224   -1.597022E-01
       225   -7.924839E-03
       226   -5.304539E-03
       227   -1.624000E-01
       228   -2.197848E-02
       229    7.862013E-03
       230   -9.728183E-02
       231    1.257396E-04
       232   -1.511064E-04
       233    2.536680E-05
       234    4.674306E-06
       235   -8.614340E-04
       236   -3.152808E-03
       237    5.467614E-04
       238   -6.521121E-04
       239    1.053507E-04
       240   -1.472544E-03
       241   -4.084061E-03
       242   -5.354976E-03
       243    7.159731E-03
       244   -5.587608E-03
       245   -1.572123E-03
       246    7.624085E-03
       247    3.255454E-03
       248    1.148175E-02
       249   -1.347886E-05
       250   -7.543094E-06
       251    9.198083E-04
       252   -1.625848E-05
       253   -1.526730E-05
       254   -2.538113E-04
       255    3.434226E-05
       256    2.538742E-05
       257   -9.802411E-04
       258   -3.630397E-04
       259   -3.133535E-04
       260   -1.888155E-04
       261   -1.524034E-02
       262   -1.057924E-05
       263   -3.632159E-07
       264    8.669539E-04
       265   -4.652223E-03
       266   -2.036252E-04
       267   -6.335851E-03
       268   -3.152248E-04
       269   -1.828320E-04
       270   -1.502429E-02
       271   -9.425536E-06
       272   -2.940566E-07
       273    8.697537E-04
       274   -4.804009E-03
       275    7.768058E-05
       276   -6.304753E-03
       277   -3.934565E-04
       278   -2.102591E-03
       279    2.968742E-02
       280   -5.703939E-06
       281    9.136033E-05
       282   -6.471033E-03
       283   -1.453846E-03
       284   -2.356395E-03
       285    1.085334E-03
       286   -3.979203E-04
       287   -2.104625E-03
       288    3.010295E-02
       289   -5.413130E-06
       290   -9.137717E-05
       291   -6.473434E-03
       292   -1.330185E-03
       293    2.507898E-03
       294    1.116483E-03
       295   -4.209050E-05
       296   -9.765049E-05
       297    8.547597E-05
       298    3.978919E-04
       299   -5.566617E-03
       300    1.185195E-03
       301    4.813992E-04
       302   -2.773963E-07
       303    2.752418E-02
       304    2.117737E-04
       305    5.730496E-07
       306    2.958861E-02
       307   -2.547294E-03
       308    3.295895E-05
       309    1.193641E-02
       310    2.409549E-05
       311   -1.028070E-05
       312   -1.381479E-05
       313    3.596195E-08
       314    4.400511E-03
       315    4.833264E-08
       316    2.084762E-05
       317    4.121452E-05
       318   -6.206214E-05
       319   -4.448996E-07
       320    1.335691E-02
       321   -6.282419E-08
       322   -9.612700E-04
       323    2.506787E-03
       324   -1.545517E-03
       325    4.373311E-05
       326    3.365610E-03
       327    4.122573E-06
       328    6.387586E-06
       329    1.734557E-08
       330   -3.476198E-05
       331   -4.112735E-06
       332    2.853682E-09
       333    7.169115E-04
       334   -4.457111E-06
       335   -2.612521E-08
       336   -6.702734E-04
       337    2.561908E-08
       338   -1.002294E-05
       339   -2.138921E-05
       340   -6.417162E-06
       341    4.431396E-04
       342   -5.069252E-03
       343   -7.803374E-04
       344   -3.092075E-04
       345    8.605495E-05
       346   -7.580511E-02
       347   -3.656333E-04
       348    2.000778E-04
       349   -7.040308E-02
       350   -1.407277E-03
       351    3.854751E-04
       352   -5.878319E-02
       353   -1.424192E-04
       354    1.896274E-04
       355   -7.492151E-03
       356    3.251194E-06
       357   -4.034715E-06
       358    7.835211E-07
       359    1.246410E-06
       360    6.139933E-05
       361    3.846409E-04
       362   -1.175277E-05
       363   -8.917629E-06
       364    2.067040E-05
       365    1.211387E-05
       366   -3.615689E-04
       367    1.333448E-03
       368   -7.555247E-05
       369    5.708263E-05
       370    1.846983E-05
       371    8.952954E-05
       372   -1.091795E-04
       373    1.476393E-04
       374    8.506019E-07
       375    1.271528E-06
       376    4.744480E-05
       377   -1.499593E-06
       378   -4.113708E-08
       379    8.352619E-05
       380    3.583907E-07
       381   -1.664796E-06
       382   -1.471801E-04
       383    1.131241E-04
       384   -9.905455E-06
       385   -2.114326E-05
       386   -6.272747E-06
       387    4.384373E-04
       388   -5.082546E-03
       389   -7.395729E-04
       390   -3.070414E-04
       391   -8.545195E-05
       392   -7.580366E-02
       393   -3.640621E-04
       394   -1.988371E-04
       395   -7.040191E-02
       396   -1.364187E-03
       397   -3.892268E-04
       398   -5.877714E-02
       399   -1.240482E-04
       400   -1.944654E-04
       401   -7.498165E-03
       402    3.205123E-06
       403   -4.017998E-06
       404    8.128758E-07
       405   -1.300235E-06
       406    6.134819E-05
       407   -3.846352E-04
       408   -1.131505E-05
       409   -8.912301E-06
       410    2.022735E-05
       411   -1.162061E-05
       412   -3.614958E-04
       413   -1.333404E-03
       414   -7.522467E-05
       415    5.804504E-05
       416    1.717962E-05
       417   -8.840161E-05
       418   -1.104505E-04
       419   -1.471718E-04
       420    8.496986E-07
       421   -1.264849E-06
       422    4.745253E-05
       423   -1.481255E-06
       424    4.231464E-08
       425    8.351676E-05
       426    3.412645E-07
       427    1.654659E-06
       428   -1.471810E-04
       429   -1.131282E-04
       430    4.051848E-03
       431    9.640682E-03
       432   -1.510540E-02
       433   -2.333947E-02
       434   -2.011048E-02
       435   -6.254688E-02
       436   -1.458690E-02
       437    9.506553E-06
       438    2.356673E-01
       439   -1.681651E-02
       440   -1.890218E-06
       441    2.333252E-01
       442   -1.499814E-02
       443   -1.231362E-04
       444    1.937409E-01
       445   -8.411059E-05
       446    1.081062E-05
       447    7.329997E-05
       448    2.161152E-07
       449    9.540200E-04
       450    3.403707E-07
       451   -1.923567E-04
       452   -1.279093E-03
       453    1.471450E-03
       454   -4.619883E-06
       455    4.062775E-03
       456    1.552886E-06
       457   -1.737371E-03
       458   -2.423988E-03
       459    4.161359E-03
       460   -1.448485E-05
       461    2.282183E-03
       462    1.302268E-05
       463   -1.286760E-04
       464    1.695383E-08
       465   -9.070884E-04
       466   -6.819428E-05
       467   -2.364833E-08
       468    4.491120E-04
       469    2.408312E-04
       470    9.023820E-10
       471    7.678748E-04
       472    2.140124E-08
       473    8.652144E-03
       474    1.604200E-02
       475    2.642886E-02
       476   -1.972723E-03
       477   -1.689166E-03
       478    1.207693E-02
       479    1.463384E-03
       480   -3.113989E-03
       481    1.461299E-02
       482    8.646145E-03
       483    1.595595E-02
       484    2.605012E-02
       485   -1.968375E-03
       486    1.680872E-03
       487    1.208157E-02
       488    1.507466E-03
       489    3.058245E-03
       490    1.463523E-02
 Sym= X
 Ene= 0.947537
 Spin= Alpha
 Occup= 0.947537
         1   -3.686508E-03
         2   -9.042028E-03
         3    3.604438E-02
         4   -1.159314E-01
         5   -5.457402E-01
         6   -1.479920E+00
         7    1.109555E-02
         8    3.161770E-03
         9   -2.398548E-03
        10   -2.887036E-02
        11   -1.456609E-02
        12    6.941595E-04
        13    5.530703E-01
        14   -1.319906E+00
        15   -1.530412E-01
        16    7.362552E-04
        17   -2.264932E-04
        18   -5.097620E-04
        19    5.267389E-04
        20    2.353459E-05
        21   -1.228181E-04
        22   -1.420215E-02
        23    4.930902E-03
        24    9.271244E-03
        25   -2.755096E-03
        26   -1.037654E-04
        27   -2.529967E-04
        28   -6.121522E-01
        29    5.824252E-01
        30    2.972707E-02
        31    2.287218E-02
        32   -1.458858E-02
        33   -2.729307E-02
        34   -2.487281E-04
        35    2.994767E-04
        36   -3.760271E-05
        37    3.805353E-04
        38   -4.987269E-05
        39    4.954867E-05
        40   -4.683151E-05
        41   -3.519175E-04
        42    9.006528E-07
        43   -1.223150E-05
        44    4.659201E-03
        45    9.349030E-03
        46    2.007255E-02
        47   -3.720801E-01
        48    1.338909E+00
        49    7.290074E+00
        50    1.904823E-02
        51    2.303982E-05
        52   -7.341396E-04
        53    7.048760E-02
        54   -3.239822E-04
        55   -4.659881E-03
        56   -1.879286E-01
        57   -2.960974E-02
        58    1.291603E-01
        59   -3.482244E-04
        60    3.277280E-05
        61    3.154516E-04
        62   -2.023065E-07