[Molden Format]
[Title]
ADC(2) - opt by CAM-B3LYP gaussian                                              
[Atoms] AU
 c     1    6 -.12588699998532E+01 -.22834089986974E+01 -.24579904026210E-01
 c     2    6 -.25576598737242E+01 0.00000000000000E+00 -.23328905326240E-01
 c     3    6 -.12588681101271E+01 0.22834089986974E+01 -.24585573204610E-01
 c     4    6 0.13319747639512E+01 0.22851362083829E+01 -.26548998656670E-01
 c     5    6 0.26868460402678E+01 0.00000000000000E+00 -.25991529447470E-01
 c     6    6 0.13319728742250E+01 -.22851362083829E+01 -.26541439752140E-01
 h     7    1 -.22976467859220E+01 -.40383900994038E+01 -.22042001829740E-01
 h     8    1 -.22976448961959E+01 0.40383919891299E+01 -.22053340186540E-01
 h     9    1 0.23511286338561E+01 0.40572968093633E+01 -.28790213850280E-01
 h    10    1 0.23511267441300E+01 -.40572968093633E+01 -.28775096041210E-01
 n    11    7 -.52730224718766E+01 0.00000000000000E+00 -.17674844736640E-01
 o    12    8 -.63812882673039E+01 0.20269372576683E+01 -.15259774738810E-01
 o    13    8 -.63812844878516E+01 -.20269372576683E+01 -.15276782274010E-01
 n    14    7 0.52436643953234E+01 0.00000000000000E+00 -.69084844181800E-01
 h    15    1 0.62047866654136E+01 0.16174392738504E+01 0.18526851385235E+00
 h    16    1 0.62047847756874E+01 -.16174411635765E+01 0.18526473440008E+00
[GTO]
    1 0
 s    6 1.00
 0.13575349682000E+05 0.60645503603591E-03
 0.20352333680000E+04 0.46979088884982E-02
 0.46322562359000E+03 0.24332477647552E-01
 0.13120019598000E+03 0.97399968307759E-01
 0.42853015891000E+02 0.30195584253780E+00
 0.15584185766000E+02 0.66233609137875E+00
 s    2 1.00
 0.62067138508000E+01 0.65595308539952E+00
 0.25764896527000E+01 0.37585633285142E+00
 s    1 1.00
 0.57696339419000E+00 0.10000000000000E+01
 s    1 1.00
 0.22972831358000E+00 0.10000000000000E+01
 s    1 1.00
 0.95164440028000E-01 0.10000000000000E+01
 s    1 1.00
 0.48475401370000E-01 0.10000000000000E+01
 p    4 1.00
 0.34697232244000E+02 0.11327220003114E-01
 0.79582622826000E+01 0.76169659202087E-01
 0.23780826883000E+01 0.30192252202676E+00
 0.81433208183000E+00 0.72785027349547E+00
 p    1 1.00
 0.28887547253000E+00 0.10000000000000E+01
 p    1 1.00
 0.10056823671000E+00 0.10000000000000E+01
 d    1 1.00
 0.10970000000000E+01 0.10000000000000E+01
 d    1 1.00
 0.31800000000000E+00 0.10000000000000E+01
 d    1 1.00
 0.90985336424000E-01 0.10000000000000E+01
 f    1 1.00
 0.76100000000000E+00 0.10000000000000E+01
 
    2 0
 s    6 1.00
 0.13575349682000E+05 0.60645503603591E-03
 0.20352333680000E+04 0.46979088884982E-02
 0.46322562359000E+03 0.24332477647552E-01
 0.13120019598000E+03 0.97399968307759E-01
 0.42853015891000E+02 0.30195584253780E+00
 0.15584185766000E+02 0.66233609137875E+00
 s    2 1.00
 0.62067138508000E+01 0.65595308539952E+00
 0.25764896527000E+01 0.37585633285142E+00
 s    1 1.00
 0.57696339419000E+00 0.10000000000000E+01
 s    1 1.00
 0.22972831358000E+00 0.10000000000000E+01
 s    1 1.00
 0.95164440028000E-01 0.10000000000000E+01
 s    1 1.00
 0.48475401370000E-01 0.10000000000000E+01
 p    4 1.00
 0.34697232244000E+02 0.11327220003114E-01
 0.79582622826000E+01 0.76169659202087E-01
 0.23780826883000E+01 0.30192252202676E+00
 0.81433208183000E+00 0.72785027349547E+00
 p    1 1.00
 0.28887547253000E+00 0.10000000000000E+01
 p    1 1.00
 0.10056823671000E+00 0.10000000000000E+01
 d    1 1.00
 0.10970000000000E+01 0.10000000000000E+01
 d    1 1.00
 0.31800000000000E+00 0.10000000000000E+01
 d    1 1.00
 0.90985336424000E-01 0.10000000000000E+01
 f    1 1.00
 0.76100000000000E+00 0.10000000000000E+01
 
    3 0
 s    6 1.00
 0.13575349682000E+05 0.60645503603591E-03
 0.20352333680000E+04 0.46979088884982E-02
 0.46322562359000E+03 0.24332477647552E-01
 0.13120019598000E+03 0.97399968307759E-01
 0.42853015891000E+02 0.30195584253780E+00
 0.15584185766000E+02 0.66233609137875E+00
 s    2 1.00
 0.62067138508000E+01 0.65595308539952E+00
 0.25764896527000E+01 0.37585633285142E+00
 s    1 1.00
 0.57696339419000E+00 0.10000000000000E+01
 s    1 1.00
 0.22972831358000E+00 0.10000000000000E+01
 s    1 1.00
 0.95164440028000E-01 0.10000000000000E+01
 s    1 1.00
 0.48475401370000E-01 0.10000000000000E+01
 p    4 1.00
 0.34697232244000E+02 0.11327220003114E-01
 0.79582622826000E+01 0.76169659202087E-01
 0.23780826883000E+01 0.30192252202676E+00
 0.81433208183000E+00 0.72785027349547E+00
 p    1 1.00
 0.28887547253000E+00 0.10000000000000E+01
 p    1 1.00
 0.10056823671000E+00 0.10000000000000E+01
 d    1 1.00
 0.10970000000000E+01 0.10000000000000E+01
 d    1 1.00
 0.31800000000000E+00 0.10000000000000E+01
 d    1 1.00
 0.90985336424000E-01 0.10000000000000E+01
 f    1 1.00
 0.76100000000000E+00 0.10000000000000E+01
 
    4 0
 s    6 1.00
 0.13575349682000E+05 0.60645503603591E-03
 0.20352333680000E+04 0.46979088884982E-02
 0.46322562359000E+03 0.24332477647552E-01
 0.13120019598000E+03 0.97399968307759E-01
 0.42853015891000E+02 0.30195584253780E+00
 0.15584185766000E+02 0.66233609137875E+00
 s    2 1.00
 0.62067138508000E+01 0.65595308539952E+00
 0.25764896527000E+01 0.37585633285142E+00
 s    1 1.00
 0.57696339419000E+00 0.10000000000000E+01
 s    1 1.00
 0.22972831358000E+00 0.10000000000000E+01
 s    1 1.00
 0.95164440028000E-01 0.10000000000000E+01
 s    1 1.00
 0.48475401370000E-01 0.10000000000000E+01
 p    4 1.00
 0.34697232244000E+02 0.11327220003114E-01
 0.79582622826000E+01 0.76169659202087E-01
 0.23780826883000E+01 0.30192252202676E+00
 0.81433208183000E+00 0.72785027349547E+00
 p    1 1.00
 0.28887547253000E+00 0.10000000000000E+01
 p    1 1.00
 0.10056823671000E+00 0.10000000000000E+01
 d    1 1.00
 0.10970000000000E+01 0.10000000000000E+01
 d    1 1.00
 0.31800000000000E+00 0.10000000000000E+01
 d    1 1.00
 0.90985336424000E-01 0.10000000000000E+01
 f    1 1.00
 0.76100000000000E+00 0.10000000000000E+01
 
    5 0
 s    6 1.00
 0.13575349682000E+05 0.60645503603591E-03
 0.20352333680000E+04 0.46979088884982E-02
 0.46322562359000E+03 0.24332477647552E-01
 0.13120019598000E+03 0.97399968307759E-01
 0.42853015891000E+02 0.30195584253780E+00
 0.15584185766000E+02 0.66233609137875E+00
 s    2 1.00
 0.62067138508000E+01 0.65595308539952E+00
 0.25764896527000E+01 0.37585633285142E+00
 s    1 1.00
 0.57696339419000E+00 0.10000000000000E+01
 s    1 1.00
 0.22972831358000E+00 0.10000000000000E+01
 s    1 1.00
 0.95164440028000E-01 0.10000000000000E+01
 s    1 1.00
 0.48475401370000E-01 0.10000000000000E+01
 p    4 1.00
 0.34697232244000E+02 0.11327220003114E-01
 0.79582622826000E+01 0.76169659202087E-01
 0.23780826883000E+01 0.30192252202676E+00
 0.81433208183000E+00 0.72785027349547E+00
 p    1 1.00
 0.28887547253000E+00 0.10000000000000E+01
 p    1 1.00
 0.10056823671000E+00 0.10000000000000E+01
 d    1 1.00
 0.10970000000000E+01 0.10000000000000E+01
 d    1 1.00
 0.31800000000000E+00 0.10000000000000E+01
 d    1 1.00
 0.90985336424000E-01 0.10000000000000E+01
 f    1 1.00
 0.76100000000000E+00 0.10000000000000E+01
 
    6 0
 s    6 1.00
 0.13575349682000E+05 0.60645503603591E-03
 0.20352333680000E+04 0.46979088884982E-02
 0.46322562359000E+03 0.24332477647552E-01
 0.13120019598000E+03 0.97399968307759E-01
 0.42853015891000E+02 0.30195584253780E+00
 0.15584185766000E+02 0.66233609137875E+00
 s    2 1.00
 0.62067138508000E+01 0.65595308539952E+00
 0.25764896527000E+01 0.37585633285142E+00
 s    1 1.00
 0.57696339419000E+00 0.10000000000000E+01
 s    1 1.00
 0.22972831358000E+00 0.10000000000000E+01
 s    1 1.00
 0.95164440028000E-01 0.10000000000000E+01
 s    1 1.00
 0.48475401370000E-01 0.10000000000000E+01
 p    4 1.00
 0.34697232244000E+02 0.11327220003114E-01
 0.79582622826000E+01 0.76169659202087E-01
 0.23780826883000E+01 0.30192252202676E+00
 0.81433208183000E+00 0.72785027349547E+00
 p    1 1.00
 0.28887547253000E+00 0.10000000000000E+01
 p    1 1.00
 0.10056823671000E+00 0.10000000000000E+01
 d    1 1.00
 0.10970000000000E+01 0.10000000000000E+01
 d    1 1.00
 0.31800000000000E+00 0.10000000000000E+01
 d    1 1.00
 0.90985336424000E-01 0.10000000000000E+01
 f    1 1.00
 0.76100000000000E+00 0.10000000000000E+01
 
    7 0
 s    3 1.00
 0.34061341000000E+02 0.25439307208879E-01
 0.51235746000000E+01 0.19008594890375E+00
 0.11646626000000E+01 0.85244113011042E+00
 s    1 1.00
 0.32723041000000E+00 0.10000000000000E+01
 s    1 1.00
 0.10307241000000E+00 0.10000000000000E+01
 p    1 1.00
 0.80000000000000E+00 0.10000000000000E+01
 p    1 1.00
 0.95774129632000E-01 0.10000000000000E+01
 
    8 0
 s    3 1.00
 0.34061341000000E+02 0.25439307208879E-01
 0.51235746000000E+01 0.19008594890375E+00
 0.11646626000000E+01 0.85244113011042E+00
 s    1 1.00
 0.32723041000000E+00 0.10000000000000E+01
 s    1 1.00
 0.10307241000000E+00 0.10000000000000E+01
 p    1 1.00
 0.80000000000000E+00 0.10000000000000E+01
 p    1 1.00
 0.95774129632000E-01 0.10000000000000E+01
 
    9 0
 s    3 1.00
 0.34061341000000E+02 0.25439307208879E-01
 0.51235746000000E+01 0.19008594890375E+00
 0.11646626000000E+01 0.85244113011042E+00
 s    1 1.00
 0.32723041000000E+00 0.10000000000000E+01
 s    1 1.00
 0.10307241000000E+00 0.10000000000000E+01
 p    1 1.00
 0.80000000000000E+00 0.10000000000000E+01
 p    1 1.00
 0.95774129632000E-01 0.10000000000000E+01
 
   10 0
 s    3 1.00
 0.34061341000000E+02 0.25439307208879E-01
 0.51235746000000E+01 0.19008594890375E+00
 0.11646626000000E+01 0.85244113011042E+00
 s    1 1.00
 0.32723041000000E+00 0.10000000000000E+01
 s    1 1.00
 0.10307241000000E+00 0.10000000000000E+01
 p    1 1.00
 0.80000000000000E+00 0.10000000000000E+01
 p    1 1.00
 0.95774129632000E-01 0.10000000000000E+01
 
   11 0
 s    6 1.00
 0.19730800647000E+05 0.58626402628763E-03
 0.29578958745000E+04 0.45428820586397E-02
 0.67322133595000E+03 0.23558413450084E-01
 0.19068249494000E+03 0.94709193292923E-01
 0.62295441898000E+02 0.29719784913376E+00
 0.22654161182000E+02 0.66916246895232E+00
 s    2 1.00
 0.89791477428000E+01 0.64596683630063E+00
 0.36863002370000E+01 0.38700574393705E+00
 s    1 1.00
 0.84660076805000E+00 0.10000000000000E+01
 s    1 1.00
 0.33647133771000E+00 0.10000000000000E+01
 s    1 1.00
 0.13647653675000E+00 0.10000000000000E+01
 s    1 1.00
 0.68441605847000E-01 0.10000000000000E+01
 p    4 1.00
 0.49200380510000E+02 0.11448825101764E-01
 0.11346790537000E+02 0.78422337970864E-01
 0.34273972411000E+01 0.30818094738830E+00
 0.11785525134000E+01 0.72027196368413E+00
 p    1 1.00
 0.41642204972000E+00 0.10000000000000E+01
 p    1 1.00
 0.14260826011000E+00 0.10000000000000E+01
 d    1 1.00
 0.16540000000000E+01 0.10000000000000E+01
 d    1 1.00
 0.46900000000000E+00 0.10000000000000E+01
 d    1 1.00
 0.12829642058000E+00 0.10000000000000E+01
 f    1 1.00
 0.10930000000000E+01 0.10000000000000E+01
 
   12 0
 s    6 1.00
 0.27032382631000E+05 0.57227335211155E-03
 0.40523871392000E+04 0.44353233492995E-02
 0.92232722710000E+03 0.23020107706038E-01
 0.26124070989000E+03 0.92822490667928E-01
 0.85354641351000E+02 0.29378500009671E+00
 0.31035035245000E+02 0.67401604501641E+00
 s    2 1.00
 0.12260860728000E+02 0.63839937025506E+00
 0.49987076005000E+01 0.39534587125718E+00
 s    1 1.00
 0.11703108158000E+01 0.10000000000000E+01
 s    1 1.00
 0.46474740994000E+00 0.10000000000000E+01
 s    1 1.00
 0.18504536357000E+00 0.10000000000000E+01
 s    1 1.00
 0.70288026270000E-01 0.10000000000000E+01
 p    4 1.00
 0.63274954801000E+02 0.12018332222616E-01
 0.14627049379000E+02 0.83005421790056E-01
 0.44501223456000E+01 0.31991743925964E+00
 0.15275799647000E+01 0.70715542916104E+00
 p    1 1.00
 0.52935117943000E+00 0.10000000000000E+01
 p    1 1.00
 0.17478421270000E+00 0.10000000000000E+01
 p    1 1.00
 0.51112745706000E-01 0.10000000000000E+01
 d    1 1.00
 0.23140000000000E+01 0.10000000000000E+01
 d    1 1.00
 0.64500000000000E+00 0.10000000000000E+01
 d    1 1.00
 0.14696477366000E+00 0.10000000000000E+01
 f    1 1.00
 0.14280000000000E+01 0.10000000000000E+01
 
   13 0
 s    6 1.00
 0.27032382631000E+05 0.57227335211155E-03
 0.40523871392000E+04 0.44353233492995E-02
 0.92232722710000E+03 0.23020107706038E-01
 0.26124070989000E+03 0.92822490667928E-01
 0.85354641351000E+02 0.29378500009671E+00
 0.31035035245000E+02 0.67401604501641E+00
 s    2 1.00
 0.12260860728000E+02 0.63839937025506E+00
 0.49987076005000E+01 0.39534587125718E+00
 s    1 1.00
 0.11703108158000E+01 0.10000000000000E+01
 s    1 1.00
 0.46474740994000E+00 0.10000000000000E+01
 s    1 1.00
 0.18504536357000E+00 0.10000000000000E+01
 s    1 1.00
 0.70288026270000E-01 0.10000000000000E+01
 p    4 1.00
 0.63274954801000E+02 0.12018332222616E-01
 0.14627049379000E+02 0.83005421790056E-01
 0.44501223456000E+01 0.31991743925964E+00
 0.15275799647000E+01 0.70715542916104E+00
 p    1 1.00
 0.52935117943000E+00 0.10000000000000E+01
 p    1 1.00
 0.17478421270000E+00 0.10000000000000E+01
 p    1 1.00
 0.51112745706000E-01 0.10000000000000E+01
 d    1 1.00
 0.23140000000000E+01 0.10000000000000E+01
 d    1 1.00
 0.64500000000000E+00 0.10000000000000E+01
 d    1 1.00
 0.14696477366000E+00 0.10000000000000E+01
 f    1 1.00
 0.14280000000000E+01 0.10000000000000E+01
 
   14 0
 s    6 1.00
 0.19730800647000E+05 0.58626402628763E-03
 0.29578958745000E+04 0.45428820586397E-02
 0.67322133595000E+03 0.23558413450084E-01
 0.19068249494000E+03 0.94709193292923E-01
 0.62295441898000E+02 0.29719784913376E+00
 0.22654161182000E+02 0.66916246895232E+00
 s    2 1.00
 0.89791477428000E+01 0.64596683630063E+00
 0.36863002370000E+01 0.38700574393705E+00
 s    1 1.00
 0.84660076805000E+00 0.10000000000000E+01
 s    1 1.00
 0.33647133771000E+00 0.10000000000000E+01
 s    1 1.00
 0.13647653675000E+00 0.10000000000000E+01
 s    1 1.00
 0.68441605847000E-01 0.10000000000000E+01
 p    4 1.00
 0.49200380510000E+02 0.11448825101764E-01
 0.11346790537000E+02 0.78422337970864E-01
 0.34273972411000E+01 0.30818094738830E+00
 0.11785525134000E+01 0.72027196368413E+00
 p    1 1.00
 0.41642204972000E+00 0.10000000000000E+01
 p    1 1.00
 0.14260826011000E+00 0.10000000000000E+01
 d    1 1.00
 0.16540000000000E+01 0.10000000000000E+01
 d    1 1.00
 0.46900000000000E+00 0.10000000000000E+01
 d    1 1.00
 0.12829642058000E+00 0.10000000000000E+01
 f    1 1.00
 0.10930000000000E+01 0.10000000000000E+01
 
   15 0
 s    3 1.00
 0.34061341000000E+02 0.25439307208879E-01
 0.51235746000000E+01 0.19008594890375E+00
 0.11646626000000E+01 0.85244113011042E+00
 s    1 1.00
 0.32723041000000E+00 0.10000000000000E+01
 s    1 1.00
 0.10307241000000E+00 0.10000000000000E+01
 p    1 1.00
 0.80000000000000E+00 0.10000000000000E+01
 p    1 1.00
 0.95774129632000E-01 0.10000000000000E+01
 
   16 0
 s    3 1.00
 0.34061341000000E+02 0.25439307208879E-01
 0.51235746000000E+01 0.19008594890375E+00
 0.11646626000000E+01 0.85244113011042E+00
 s    1 1.00
 0.32723041000000E+00 0.10000000000000E+01
 s    1 1.00
 0.10307241000000E+00 0.10000000000000E+01
 p    1 1.00
 0.80000000000000E+00 0.10000000000000E+01
 p    1 1.00
 0.95774129632000E-01 0.10000000000000E+01
 
[MO]
 Sym= X
 Ene= -0.895629
 Spin= Alpha
 Occup= -0.895629
         1   -9.929105E-06
         2   -2.265867E-05
         3    5.143797E-05
         4   -3.267588E-05
         5   -2.238586E-03
         6   -2.794099E-04
         7   -7.164239E-05
         8   -9.030756E-05
         9   -7.079464E-02
        10   -1.446192E-04
        11   -6.418091E-05
        12   -7.095882E-02
        13    5.015216E-04
        14   -1.437354E-03
        15   -5.023961E-02
        16   -3.119895E-06
        17    1.696140E-06
        18    1.423755E-06
        19    2.308939E-06
        20   -1.630975E-03
        21   -2.461988E-04
        22   -1.907583E-05
        23    1.127198E-05
        24    7.803852E-06
        25    1.116395E-05
        26   -1.950782E-03
        27   -1.937073E-04
        28   -5.113748E-05
        29    4.423697E-05
        30    6.900502E-06
        31    5.703640E-05
        32    2.200485E-03
        33   -3.134415E-03
        34   -1.638090E-06
        35   -2.980599E-07
        36    5.037670E-04
        37    2.757864E-07
        38   -5.171194E-08
        39   -5.892046E-04
        40    1.921942E-06
        41    4.516012E-07
        42   -8.666985E-05
        43    5.622920E-05
        44    6.229838E-07
        45    1.422525E-06
        46   -2.906907E-06
        47   -1.400218E-05
        48    8.222081E-04
        49    9.117655E-05
        50    7.069717E-06
        51    5.678213E-05
        52    4.481851E-06
        53    3.088774E-06
        54    3.757607E-05
        55    7.966011E-06
        56    3.292954E-04
        57   -1.889526E-03
        58    3.485665E-05
        59   -3.108729E-07
        60    1.984041E-07
        61    1.124688E-07
        62    5.876722E-06
        63    1.091485E-07
        64    3.347731E-03
        65    5.685471E-07
        66    1.321113E-06
        67   -1.889661E-06
        68    1.852563E-05
        69    7.005837E-07
        70    5.928031E-03
        71   -7.818682E-06
        72    2.062064E-05
        73   -1.280196E-05
        74   -4.808202E-06
        75    6.336076E-06
        76   -5.344013E-03
        77   -2.512492E-08
        78   -2.840598E-07
        79   -9.862651E-08
        80    4.955580E-09
        81    4.437464E-07
        82    6.594732E-08
        83    2.875303E-08
        84   -6.264015E-08
        85    6.637402E-08
        86    2.348866E-04
        87    9.634971E-06
        88    2.199923E-05
        89   -4.956479E-05
        90    3.945608E-05
        91    7.677817E-04
        92    1.794333E-04
        93    6.804232E-05
        94   -9.341872E-05
        95    7.080492E-02
        96    1.313846E-04
        97   -6.180820E-05
        98    7.096834E-02
        99   -8.800801E-04
       100   -7.533073E-04
       101    5.017495E-02
       102    3.101827E-06
       103   -1.547488E-06
       104   -1.554339E-06
       105    2.204947E-06
       106    1.631447E-03
       107   -2.465328E-04
       108    1.384495E-05
       109   -7.730547E-06
       110   -6.114399E-06
       111    9.405957E-06
       112    1.951403E-03
       113   -1.925996E-04
       114    5.580712E-05
       115   -6.268640E-05
       116    6.879278E-06
       117    8.840672E-05
       118   -2.214033E-03
       119   -3.115811E-03
       120    1.594229E-06
       121   -3.247173E-07
       122   -5.038740E-04
       123   -3.362303E-07
       124    9.002343E-08
       125    5.893415E-04
       126   -1.802652E-06
       127    3.456306E-07
       128    8.667643E-05
       129    5.618671E-05
       130   -5.690609E-06
       131   -1.328450E-05
       132    4.290074E-05
       133   -1.641561E-04
       134   -5.519527E-04
       135   -2.561357E-04
       136    3.691189E-05
       137    5.375139E-05
       138    7.136212E-02
       139    6.155201E-05
       140    9.230846E-05
       141    7.288830E-02
       142   -1.079003E-03
       143    8.220615E-04
       144    4.700688E-02
       145   -4.489767E-06
       146   -2.848910E-07
       147    4.774658E-06
       148    4.623091E-06
       149   -1.698370E-03
       150   -1.792899E-04
       151   -3.098697E-05
       152    3.906324E-06
       153    2.708065E-05
       154    2.677885E-05
       155   -3.524983E-03
       156   -1.916749E-04
       157   -2.780985E-04
       158    2.473274E-04
       159    3.077114E-05
       160    1.149013E-04
       161   -5.933084E-05
       162    1.317567E-03
       163    1.556644E-06
       164    4.165468E-07
       165   -4.752682E-04
       166   -1.076537E-06
       167    2.389951E-07
       168    5.459945E-04
       169   -1.011920E-06
       170   -7.978513E-07
       171    9.164476E-05
       172   -7.550623E-06
       173    4.032319E-07
       174    8.623747E-07
       175    9.889818E-07
       176   -5.030402E-06
       177   -1.144890E-03
       178   -9.348156E-05
       179   -5.498594E-07
       180   -7.960780E-05
       181   -1.475611E-07
       182    3.677906E-06
       183   -4.749942E-05
       184   -2.523717E-06
       185    4.269990E-04
       186    2.526988E-03
       187   -8.691078E-06
       188    2.178106E-08
       189    1.612352E-08
       190   -3.790459E-08
       191   -6.730984E-06
       192   -9.417810E-07
       193    2.643153E-03
       194   -3.971904E-07
       195   -2.217169E-06
       196    2.614359E-06
       197   -4.187689E-05
       198   -1.171840E-06
       199    5.770768E-03
       200    7.969593E-07
       201   -2.420156E-05
       202    2.340460E-05
       203   -2.893503E-05
       204    6.888864E-07
       205   -6.235352E-04
       206   -6.317034E-08
       207    1.752793E-06
       208    7.221451E-08
       209    9.692448E-08
       210   -1.739719E-06
       211   -1.612810E-07
       212   -1.217258E-08
       213   -6.118996E-07
       214    6.439512E-08
       215   -4.276976E-04
       216    6.116169E-06
       217    1.418856E-05
       218   -4.627187E-05
       219    1.656536E-04
       220    2.390418E-03
       221    3.581062E-04
       222   -3.505223E-05
       223    5.333575E-05
       224   -7.134394E-02
       225   -6.967250E-05
       226    1.031982E-04
       227   -7.286884E-02
       228    8.078811E-04
       229    1.611752E-03
       230   -4.693283E-02
       231    4.352394E-06
       232    2.509604E-07
       233   -4.603354E-06
       234    4.545250E-06
       235    1.698192E-03
       236   -1.792202E-04
       237    3.422672E-05
       238   -4.577102E-06
       239   -2.964962E-05
       240    2.926304E-05
       241    3.524639E-03
       242   -1.900120E-04
       243    2.522862E-04
       244   -1.990315E-04
       245   -5.325470E-05
       246    8.588184E-05
       247    5.169541E-05
       248    1.326642E-03
       249   -1.607599E-06
       250    4.532568E-07
       251    4.751753E-04
       252    1.114522E-06
       253    3.106487E-07
       254   -5.459617E-04
       255    1.042299E-06
       256   -9.187565E-07
       257   -9.155290E-05
       258   -7.509034E-06
       259    3.255807E-05
       260    4.820756E-05
       261   -6.368144E-04
       262   -8.622615E-07
       263    2.200557E-06
       264   -3.203395E-03
       265   -1.951059E-04
       266   -2.238126E-05
       267   -3.040808E-03
       268   -3.171204E-05
       269   -5.840395E-05
       270    3.718973E-04
       271    3.250963E-07
       272    2.925914E-06
       273    3.203595E-03
       274    1.686766E-04
       275    2.884697E-05
       276    3.024074E-03
       277    1.663505E-05
       278    3.596179E-05
       279   -6.426729E-04
       280    1.931514E-06
       281    9.351269E-07
       282    3.034314E-03
       283    4.192362E-04
       284   -9.044476E-05
       285    1.198795E-03
       286   -1.636806E-05
       287   -2.986334E-05
       288    8.595970E-04
       289   -2.214049E-06
       290    1.743251E-06
       291   -3.033618E-03
       292   -4.321607E-04
       293   -2.342769E-05
       294   -1.196046E-03
       295    1.928396E-07
       296    4.460340E-07
       297   -7.892808E-07
       298    2.663705E-06
       299    6.100298E-05
       300   -6.936710E-05
       301   -5.897675E-06
       302   -8.783126E-06
       303   -9.166512E-07
       304   -6.863819E-06
       305   -8.241181E-06
       306   -6.443469E-07
       307   -1.725061E-05
       308    2.750668E-04
       309   -3.663121E-07
       310   -5.120806E-07
       311    5.923830E-07
       312   -8.030237E-08
       313    2.493760E-05
       314    8.130195E-08
       315    1.103572E-02
       316   -2.683623E-06
       317    2.287747E-06
       318    3.958765E-07
       319    7.612143E-05
       320    1.115947E-07
       321    3.224548E-02
       322    6.710040E-06
       323   -1.084591E-05
       324    4.135873E-06
       325    2.997006E-05
       326   -2.224417E-06
       327    8.414021E-04
       328   -7.651301E-09
       329   -1.770337E-07
       330    6.823337E-09
       331   -1.457114E-08
       332   -6.858332E-06
       333    8.916131E-09
       334    2.483644E-08
       335    7.095848E-06
       336   -1.807060E-08
       337   -1.876104E-03
       338    3.385561E-07
       339    9.186528E-07
       340   -2.830777E-06
       341    8.422419E-06
       342   -8.638184E-05
       343    2.920962E-05
       344    6.677986E-04
       345    1.305107E-05
       346    3.002706E-01
       347    6.120199E-04
       348    1.062056E-05
       349    2.753820E-01
       350    4.168207E-04
       351    4.113357E-05
       352    2.039109E-01
       353    6.694075E-05
       354   -9.052784E-08
       355    2.884081E-02
       356    6.308539E-06
       357   -2.383981E-07
       358   -6.070141E-06
       359   -5.382855E-06
       360    1.622215E-03
       361   -2.461140E-03
       362    1.934758E-05
       363   -4.541297E-07
       364   -1.889345E-05
       365   -1.733149E-05
       366    5.202630E-03
       367   -8.280931E-03
       368    1.304211E-05
       369    1.072876E-06
       370   -1.411499E-05
       371   -6.942918E-06
       372    4.620116E-03
       373   -6.631563E-03
       374   -2.537285E-07
       375    3.129705E-08
       376   -4.589467E-04
       377    1.440185E-06
       378   -3.099456E-06
       379   -5.975698E-05
       380   -1.099772E-06
       381    3.057467E-06
       382    6.754986E-04
       383   -8.156281E-04
       384   -4.602678E-08
       385   -1.824614E-07
       386    1.341331E-06
       387   -1.048052E-05
       388    9.533946E-05
       389   -8.968330E-06
       390   -6.357970E-04
       391    1.122548E-05
       392   -3.002724E-01
       393   -5.841179E-04
       394    8.497831E-06
       395   -2.753834E-01
       396   -3.921235E-04
       397    2.289896E-05
       398   -2.039140E-01
       399   -6.442590E-05
       400    9.971737E-07
       401   -2.884174E-02
       402   -6.180485E-06
       403    2.980335E-07
       404    5.882451E-06
       405   -5.095352E-06
       406   -1.622242E-03
       407   -2.461175E-03
       408   -1.871816E-05
       409   -1.118978E-07
       410    1.883006E-05
       411   -1.741105E-05
       412   -5.202799E-03
       413   -8.281103E-03
       414   -1.008082E-05
       415   -5.353942E-06
       416    1.543476E-05
       417   -9.147739E-06
       418   -4.620397E-03
       419   -6.632260E-03
       420    2.899840E-07
       421   -1.809793E-08
       422    4.589532E-04
       423   -1.367774E-06
       424   -3.029014E-06
       425    5.975733E-05
       426    9.787194E-07
       427    3.053295E-06
       428   -6.755077E-04
       429   -8.156420E-04
       430   -5.270894E-07
       431   -1.260423E-06
       432    1.877757E-06
       433    2.334624E-06
       434   -2.743977E-05
       435    4.132931E-05
       436    1.667780E-06
       437   -2.806344E-04
       438   -2.736545E-05
       439    2.102388E-06
       440   -4.173849E-04
       441   -2.675159E-05
       442   -1.000222E-05
       443   -6.383747E-04
       444   -2.079927E-05
       445    1.278901E-08
       446    7.654146E-09
       447   -2.044316E-08
       448    8.238784E-06
       449    7.530452E-08
       450    1.078134E-04
       451    1.700496E-07
       452    2.235436E-07
       453   -3.935932E-07
       454   -4.140681E-05
       455    1.597673E-07
       456    1.834688E-04
       457    5.738171E-06
       458   -3.048233E-07
       459   -5.433347E-06
       460   -2.423132E-04
       461    4.002516E-07
       462   -4.070094E-04
       463    3.413641E-09
       464   -1.708821E-06
       465    1.277625E-07
       466    1.412559E-08
       467   -5.090278E-06
       468   -9.923107E-08
       469   -1.870547E-08
       470    7.382902E-06
       471   -7.218028E-08
       472   -4.574695E-05
       473    2.682663E-05
       474    3.207416E-04
       475    9.518088E-04
       476   -2.978880E-05
       477   -4.722275E-05
       478    1.369873E-04
       479    6.889820E-05
       480   -3.113456E-04
       481    5.647882E-04
       482   -2.842124E-05
       483   -3.256333E-04
       484   -9.679630E-04
       485    3.049260E-05
       486   -4.777489E-05
       487   -1.395599E-04
       488   -7.452411E-05
       489   -3.182159E-04
       490   -5.652842E-04
 Sym= X
 Ene= 0.895629
 Spin= Alpha
 Occup= 0.895629
         1    2.184841E-05
         2    4.401227E-05
         3    1.197141E-04
         4   -2.365651E-04
         5    1.485684E-01
         6    1.777047E-01
         7    1.553659E-04
         8    8.394048E-05
         9   -1.018384E-01
        10   -2.715133E-03
        11    1.871214E-03
        12   -1.056888E-01
        13    3.670713E-02
        14   -1.125992E-01
        15   -9.165714E-02
        16   -7.112800E-05
        17    7.886374E-05
        18   -7.735740E-06
        19    3.636634E-05
        20   -4.891661E-04
        21   -1.945904E-04
        22   -8.871184E-05
        23    1.237616E-04
        24   -3.504980E-05
        25   -7.331730E-04
        26    5.151464E-04
        27    3.074741E-03
        28    2.024053E-02
        29   -2.492100E-02
        30    4.680471E-03
        31   -2.541567E-02
        32    5.306639E-02
        33   -2.221052E-02
        34   -1.778850E-05
        35   -2.902137E-06
        36    1.533233E-04
        37    1.310936E-05
        38    1.752496E-05
        39    5.375006E-05
        40    1.075641E-05
        41   -1.363133E-05
        42   -2.594548E-04
        43   -1.906826E-04
        44    9.714415E-05
        45    2.175897E-04
        46    2.783825E-04
        47   -4.978597E-03
        48    7.197372E-02
        49   -3.163934E-01
        50    7.767706E-04
        51   -1.103437E-06
        52    3.362698E-02
        53    2.573241E-04
        54    3.034409E-05
        55    2.953623E-02
        56    1.957625E-01
        57    9.142408E-04
        58    1.911424E-01
        59    3.175966E-05
        60   -1.340849E-05
        61   -1.835117E-05
        62    4.200547E-08