[Molden Format]
[Title]
ADC(2) - opt by CAM-B3LYP gaussian                                              
[Atoms] AU
 c     1    6 -.12588699998532E+01 -.22834089986974E+01 -.24579904026210E-01
 c     2    6 -.25576598737242E+01 0.00000000000000E+00 -.23328905326240E-01
 c     3    6 -.12588681101271E+01 0.22834089986974E+01 -.24585573204610E-01
 c     4    6 0.13319747639512E+01 0.22851362083829E+01 -.26548998656670E-01
 c     5    6 0.26868460402678E+01 0.00000000000000E+00 -.25991529447470E-01
 c     6    6 0.13319728742250E+01 -.22851362083829E+01 -.26541439752140E-01
 h     7    1 -.22976467859220E+01 -.40383900994038E+01 -.22042001829740E-01
 h     8    1 -.22976448961959E+01 0.40383919891299E+01 -.22053340186540E-01
 h     9    1 0.23511286338561E+01 0.40572968093633E+01 -.28790213850280E-01
 h    10    1 0.23511267441300E+01 -.40572968093633E+01 -.28775096041210E-01
 n    11    7 -.52730224718766E+01 0.00000000000000E+00 -.17674844736640E-01
 o    12    8 -.63812882673039E+01 0.20269372576683E+01 -.15259774738810E-01
 o    13    8 -.63812844878516E+01 -.20269372576683E+01 -.15276782274010E-01
 n    14    7 0.52436643953234E+01 0.00000000000000E+00 -.69084844181800E-01
 h    15    1 0.62047866654136E+01 0.16174392738504E+01 0.18526851385235E+00
 h    16    1 0.62047847756874E+01 -.16174411635765E+01 0.18526473440008E+00
[GTO]
    1 0
 s    6 1.00
 0.13575349682000E+05 0.60645503603591E-03
 0.20352333680000E+04 0.46979088884982E-02
 0.46322562359000E+03 0.24332477647552E-01
 0.13120019598000E+03 0.97399968307759E-01
 0.42853015891000E+02 0.30195584253780E+00
 0.15584185766000E+02 0.66233609137875E+00
 s    2 1.00
 0.62067138508000E+01 0.65595308539952E+00
 0.25764896527000E+01 0.37585633285142E+00
 s    1 1.00
 0.57696339419000E+00 0.10000000000000E+01
 s    1 1.00
 0.22972831358000E+00 0.10000000000000E+01
 s    1 1.00
 0.95164440028000E-01 0.10000000000000E+01
 s    1 1.00
 0.48475401370000E-01 0.10000000000000E+01
 p    4 1.00
 0.34697232244000E+02 0.11327220003114E-01
 0.79582622826000E+01 0.76169659202087E-01
 0.23780826883000E+01 0.30192252202676E+00
 0.81433208183000E+00 0.72785027349547E+00
 p    1 1.00
 0.28887547253000E+00 0.10000000000000E+01
 p    1 1.00
 0.10056823671000E+00 0.10000000000000E+01
 d    1 1.00
 0.10970000000000E+01 0.10000000000000E+01
 d    1 1.00
 0.31800000000000E+00 0.10000000000000E+01
 d    1 1.00
 0.90985336424000E-01 0.10000000000000E+01
 f    1 1.00
 0.76100000000000E+00 0.10000000000000E+01
 
    2 0
 s    6 1.00
 0.13575349682000E+05 0.60645503603591E-03
 0.20352333680000E+04 0.46979088884982E-02
 0.46322562359000E+03 0.24332477647552E-01
 0.13120019598000E+03 0.97399968307759E-01
 0.42853015891000E+02 0.30195584253780E+00
 0.15584185766000E+02 0.66233609137875E+00
 s    2 1.00
 0.62067138508000E+01 0.65595308539952E+00
 0.25764896527000E+01 0.37585633285142E+00
 s    1 1.00
 0.57696339419000E+00 0.10000000000000E+01
 s    1 1.00
 0.22972831358000E+00 0.10000000000000E+01
 s    1 1.00
 0.95164440028000E-01 0.10000000000000E+01
 s    1 1.00
 0.48475401370000E-01 0.10000000000000E+01
 p    4 1.00
 0.34697232244000E+02 0.11327220003114E-01
 0.79582622826000E+01 0.76169659202087E-01
 0.23780826883000E+01 0.30192252202676E+00
 0.81433208183000E+00 0.72785027349547E+00
 p    1 1.00
 0.28887547253000E+00 0.10000000000000E+01
 p    1 1.00
 0.10056823671000E+00 0.10000000000000E+01
 d    1 1.00
 0.10970000000000E+01 0.10000000000000E+01
 d    1 1.00
 0.31800000000000E+00 0.10000000000000E+01
 d    1 1.00
 0.90985336424000E-01 0.10000000000000E+01
 f    1 1.00
 0.76100000000000E+00 0.10000000000000E+01
 
    3 0
 s    6 1.00
 0.13575349682000E+05 0.60645503603591E-03
 0.20352333680000E+04 0.46979088884982E-02
 0.46322562359000E+03 0.24332477647552E-01
 0.13120019598000E+03 0.97399968307759E-01
 0.42853015891000E+02 0.30195584253780E+00
 0.15584185766000E+02 0.66233609137875E+00
 s    2 1.00
 0.62067138508000E+01 0.65595308539952E+00
 0.25764896527000E+01 0.37585633285142E+00
 s    1 1.00
 0.57696339419000E+00 0.10000000000000E+01
 s    1 1.00
 0.22972831358000E+00 0.10000000000000E+01
 s    1 1.00
 0.95164440028000E-01 0.10000000000000E+01
 s    1 1.00
 0.48475401370000E-01 0.10000000000000E+01
 p    4 1.00
 0.34697232244000E+02 0.11327220003114E-01
 0.79582622826000E+01 0.76169659202087E-01
 0.23780826883000E+01 0.30192252202676E+00
 0.81433208183000E+00 0.72785027349547E+00
 p    1 1.00
 0.28887547253000E+00 0.10000000000000E+01
 p    1 1.00
 0.10056823671000E+00 0.10000000000000E+01
 d    1 1.00
 0.10970000000000E+01 0.10000000000000E+01
 d    1 1.00
 0.31800000000000E+00 0.10000000000000E+01
 d    1 1.00
 0.90985336424000E-01 0.10000000000000E+01
 f    1 1.00
 0.76100000000000E+00 0.10000000000000E+01
 
    4 0
 s    6 1.00
 0.13575349682000E+05 0.60645503603591E-03
 0.20352333680000E+04 0.46979088884982E-02
 0.46322562359000E+03 0.24332477647552E-01
 0.13120019598000E+03 0.97399968307759E-01
 0.42853015891000E+02 0.30195584253780E+00
 0.15584185766000E+02 0.66233609137875E+00
 s    2 1.00
 0.62067138508000E+01 0.65595308539952E+00
 0.25764896527000E+01 0.37585633285142E+00
 s    1 1.00
 0.57696339419000E+00 0.10000000000000E+01
 s    1 1.00
 0.22972831358000E+00 0.10000000000000E+01
 s    1 1.00
 0.95164440028000E-01 0.10000000000000E+01
 s    1 1.00
 0.48475401370000E-01 0.10000000000000E+01
 p    4 1.00
 0.34697232244000E+02 0.11327220003114E-01
 0.79582622826000E+01 0.76169659202087E-01
 0.23780826883000E+01 0.30192252202676E+00
 0.81433208183000E+00 0.72785027349547E+00
 p    1 1.00
 0.28887547253000E+00 0.10000000000000E+01
 p    1 1.00
 0.10056823671000E+00 0.10000000000000E+01
 d    1 1.00
 0.10970000000000E+01 0.10000000000000E+01
 d    1 1.00
 0.31800000000000E+00 0.10000000000000E+01
 d    1 1.00
 0.90985336424000E-01 0.10000000000000E+01
 f    1 1.00
 0.76100000000000E+00 0.10000000000000E+01
 
    5 0
 s    6 1.00
 0.13575349682000E+05 0.60645503603591E-03
 0.20352333680000E+04 0.46979088884982E-02
 0.46322562359000E+03 0.24332477647552E-01
 0.13120019598000E+03 0.97399968307759E-01
 0.42853015891000E+02 0.30195584253780E+00
 0.15584185766000E+02 0.66233609137875E+00
 s    2 1.00
 0.62067138508000E+01 0.65595308539952E+00
 0.25764896527000E+01 0.37585633285142E+00
 s    1 1.00
 0.57696339419000E+00 0.10000000000000E+01
 s    1 1.00
 0.22972831358000E+00 0.10000000000000E+01
 s    1 1.00
 0.95164440028000E-01 0.10000000000000E+01
 s    1 1.00
 0.48475401370000E-01 0.10000000000000E+01
 p    4 1.00
 0.34697232244000E+02 0.11327220003114E-01
 0.79582622826000E+01 0.76169659202087E-01
 0.23780826883000E+01 0.30192252202676E+00
 0.81433208183000E+00 0.72785027349547E+00
 p    1 1.00
 0.28887547253000E+00 0.10000000000000E+01
 p    1 1.00
 0.10056823671000E+00 0.10000000000000E+01
 d    1 1.00
 0.10970000000000E+01 0.10000000000000E+01
 d    1 1.00
 0.31800000000000E+00 0.10000000000000E+01
 d    1 1.00
 0.90985336424000E-01 0.10000000000000E+01
 f    1 1.00
 0.76100000000000E+00 0.10000000000000E+01
 
    6 0
 s    6 1.00
 0.13575349682000E+05 0.60645503603591E-03
 0.20352333680000E+04 0.46979088884982E-02
 0.46322562359000E+03 0.24332477647552E-01
 0.13120019598000E+03 0.97399968307759E-01
 0.42853015891000E+02 0.30195584253780E+00
 0.15584185766000E+02 0.66233609137875E+00
 s    2 1.00
 0.62067138508000E+01 0.65595308539952E+00
 0.25764896527000E+01 0.37585633285142E+00
 s    1 1.00
 0.57696339419000E+00 0.10000000000000E+01
 s    1 1.00
 0.22972831358000E+00 0.10000000000000E+01
 s    1 1.00
 0.95164440028000E-01 0.10000000000000E+01
 s    1 1.00
 0.48475401370000E-01 0.10000000000000E+01
 p    4 1.00
 0.34697232244000E+02 0.11327220003114E-01
 0.79582622826000E+01 0.76169659202087E-01
 0.23780826883000E+01 0.30192252202676E+00
 0.81433208183000E+00 0.72785027349547E+00
 p    1 1.00
 0.28887547253000E+00 0.10000000000000E+01
 p    1 1.00
 0.10056823671000E+00 0.10000000000000E+01
 d    1 1.00
 0.10970000000000E+01 0.10000000000000E+01
 d    1 1.00
 0.31800000000000E+00 0.10000000000000E+01
 d    1 1.00
 0.90985336424000E-01 0.10000000000000E+01
 f    1 1.00
 0.76100000000000E+00 0.10000000000000E+01
 
    7 0
 s    3 1.00
 0.34061341000000E+02 0.25439307208879E-01
 0.51235746000000E+01 0.19008594890375E+00
 0.11646626000000E+01 0.85244113011042E+00
 s    1 1.00
 0.32723041000000E+00 0.10000000000000E+01
 s    1 1.00
 0.10307241000000E+00 0.10000000000000E+01
 p    1 1.00
 0.80000000000000E+00 0.10000000000000E+01
 p    1 1.00
 0.95774129632000E-01 0.10000000000000E+01
 
    8 0
 s    3 1.00
 0.34061341000000E+02 0.25439307208879E-01
 0.51235746000000E+01 0.19008594890375E+00
 0.11646626000000E+01 0.85244113011042E+00
 s    1 1.00
 0.32723041000000E+00 0.10000000000000E+01
 s    1 1.00
 0.10307241000000E+00 0.10000000000000E+01
 p    1 1.00
 0.80000000000000E+00 0.10000000000000E+01
 p    1 1.00
 0.95774129632000E-01 0.10000000000000E+01
 
    9 0
 s    3 1.00
 0.34061341000000E+02 0.25439307208879E-01
 0.51235746000000E+01 0.19008594890375E+00
 0.11646626000000E+01 0.85244113011042E+00
 s    1 1.00
 0.32723041000000E+00 0.10000000000000E+01
 s    1 1.00
 0.10307241000000E+00 0.10000000000000E+01
 p    1 1.00
 0.80000000000000E+00 0.10000000000000E+01
 p    1 1.00
 0.95774129632000E-01 0.10000000000000E+01
 
   10 0
 s    3 1.00
 0.34061341000000E+02 0.25439307208879E-01
 0.51235746000000E+01 0.19008594890375E+00
 0.11646626000000E+01 0.85244113011042E+00
 s    1 1.00
 0.32723041000000E+00 0.10000000000000E+01
 s    1 1.00
 0.10307241000000E+00 0.10000000000000E+01
 p    1 1.00
 0.80000000000000E+00 0.10000000000000E+01
 p    1 1.00
 0.95774129632000E-01 0.10000000000000E+01
 
   11 0
 s    6 1.00
 0.19730800647000E+05 0.58626402628763E-03
 0.29578958745000E+04 0.45428820586397E-02
 0.67322133595000E+03 0.23558413450084E-01
 0.19068249494000E+03 0.94709193292923E-01
 0.62295441898000E+02 0.29719784913376E+00
 0.22654161182000E+02 0.66916246895232E+00
 s    2 1.00
 0.89791477428000E+01 0.64596683630063E+00
 0.36863002370000E+01 0.38700574393705E+00
 s    1 1.00
 0.84660076805000E+00 0.10000000000000E+01
 s    1 1.00
 0.33647133771000E+00 0.10000000000000E+01
 s    1 1.00
 0.13647653675000E+00 0.10000000000000E+01
 s    1 1.00
 0.68441605847000E-01 0.10000000000000E+01
 p    4 1.00
 0.49200380510000E+02 0.11448825101764E-01
 0.11346790537000E+02 0.78422337970864E-01
 0.34273972411000E+01 0.30818094738830E+00
 0.11785525134000E+01 0.72027196368413E+00
 p    1 1.00
 0.41642204972000E+00 0.10000000000000E+01
 p    1 1.00
 0.14260826011000E+00 0.10000000000000E+01
 d    1 1.00
 0.16540000000000E+01 0.10000000000000E+01
 d    1 1.00
 0.46900000000000E+00 0.10000000000000E+01
 d    1 1.00
 0.12829642058000E+00 0.10000000000000E+01
 f    1 1.00
 0.10930000000000E+01 0.10000000000000E+01
 
   12 0
 s    6 1.00
 0.27032382631000E+05 0.57227335211155E-03
 0.40523871392000E+04 0.44353233492995E-02
 0.92232722710000E+03 0.23020107706038E-01
 0.26124070989000E+03 0.92822490667928E-01
 0.85354641351000E+02 0.29378500009671E+00
 0.31035035245000E+02 0.67401604501641E+00
 s    2 1.00
 0.12260860728000E+02 0.63839937025506E+00
 0.49987076005000E+01 0.39534587125718E+00
 s    1 1.00
 0.11703108158000E+01 0.10000000000000E+01
 s    1 1.00
 0.46474740994000E+00 0.10000000000000E+01
 s    1 1.00
 0.18504536357000E+00 0.10000000000000E+01
 s    1 1.00
 0.70288026270000E-01 0.10000000000000E+01
 p    4 1.00
 0.63274954801000E+02 0.12018332222616E-01
 0.14627049379000E+02 0.83005421790056E-01
 0.44501223456000E+01 0.31991743925964E+00
 0.15275799647000E+01 0.70715542916104E+00
 p    1 1.00
 0.52935117943000E+00 0.10000000000000E+01
 p    1 1.00
 0.17478421270000E+00 0.10000000000000E+01
 p    1 1.00
 0.51112745706000E-01 0.10000000000000E+01
 d    1 1.00
 0.23140000000000E+01 0.10000000000000E+01
 d    1 1.00
 0.64500000000000E+00 0.10000000000000E+01
 d    1 1.00
 0.14696477366000E+00 0.10000000000000E+01
 f    1 1.00
 0.14280000000000E+01 0.10000000000000E+01
 
   13 0
 s    6 1.00
 0.27032382631000E+05 0.57227335211155E-03
 0.40523871392000E+04 0.44353233492995E-02
 0.92232722710000E+03 0.23020107706038E-01
 0.26124070989000E+03 0.92822490667928E-01
 0.85354641351000E+02 0.29378500009671E+00
 0.31035035245000E+02 0.67401604501641E+00
 s    2 1.00
 0.12260860728000E+02 0.63839937025506E+00
 0.49987076005000E+01 0.39534587125718E+00
 s    1 1.00
 0.11703108158000E+01 0.10000000000000E+01
 s    1 1.00
 0.46474740994000E+00 0.10000000000000E+01
 s    1 1.00
 0.18504536357000E+00 0.10000000000000E+01
 s    1 1.00
 0.70288026270000E-01 0.10000000000000E+01
 p    4 1.00
 0.63274954801000E+02 0.12018332222616E-01
 0.14627049379000E+02 0.83005421790056E-01
 0.44501223456000E+01 0.31991743925964E+00
 0.15275799647000E+01 0.70715542916104E+00
 p    1 1.00
 0.52935117943000E+00 0.10000000000000E+01
 p    1 1.00
 0.17478421270000E+00 0.10000000000000E+01
 p    1 1.00
 0.51112745706000E-01 0.10000000000000E+01
 d    1 1.00
 0.23140000000000E+01 0.10000000000000E+01
 d    1 1.00
 0.64500000000000E+00 0.10000000000000E+01
 d    1 1.00
 0.14696477366000E+00 0.10000000000000E+01
 f    1 1.00
 0.14280000000000E+01 0.10000000000000E+01
 
   14 0
 s    6 1.00
 0.19730800647000E+05 0.58626402628763E-03
 0.29578958745000E+04 0.45428820586397E-02
 0.67322133595000E+03 0.23558413450084E-01
 0.19068249494000E+03 0.94709193292923E-01
 0.62295441898000E+02 0.29719784913376E+00
 0.22654161182000E+02 0.66916246895232E+00
 s    2 1.00
 0.89791477428000E+01 0.64596683630063E+00
 0.36863002370000E+01 0.38700574393705E+00
 s    1 1.00
 0.84660076805000E+00 0.10000000000000E+01
 s    1 1.00
 0.33647133771000E+00 0.10000000000000E+01
 s    1 1.00
 0.13647653675000E+00 0.10000000000000E+01
 s    1 1.00
 0.68441605847000E-01 0.10000000000000E+01
 p    4 1.00
 0.49200380510000E+02 0.11448825101764E-01
 0.11346790537000E+02 0.78422337970864E-01
 0.34273972411000E+01 0.30818094738830E+00
 0.11785525134000E+01 0.72027196368413E+00
 p    1 1.00
 0.41642204972000E+00 0.10000000000000E+01
 p    1 1.00
 0.14260826011000E+00 0.10000000000000E+01
 d    1 1.00
 0.16540000000000E+01 0.10000000000000E+01
 d    1 1.00
 0.46900000000000E+00 0.10000000000000E+01
 d    1 1.00
 0.12829642058000E+00 0.10000000000000E+01
 f    1 1.00
 0.10930000000000E+01 0.10000000000000E+01
 
   15 0
 s    3 1.00
 0.34061341000000E+02 0.25439307208879E-01
 0.51235746000000E+01 0.19008594890375E+00
 0.11646626000000E+01 0.85244113011042E+00
 s    1 1.00
 0.32723041000000E+00 0.10000000000000E+01
 s    1 1.00
 0.10307241000000E+00 0.10000000000000E+01
 p    1 1.00
 0.80000000000000E+00 0.10000000000000E+01
 p    1 1.00
 0.95774129632000E-01 0.10000000000000E+01
 
   16 0
 s    3 1.00
 0.34061341000000E+02 0.25439307208879E-01
 0.51235746000000E+01 0.19008594890375E+00
 0.11646626000000E+01 0.85244113011042E+00
 s    1 1.00
 0.32723041000000E+00 0.10000000000000E+01
 s    1 1.00
 0.10307241000000E+00 0.10000000000000E+01
 p    1 1.00
 0.80000000000000E+00 0.10000000000000E+01
 p    1 1.00
 0.95774129632000E-01 0.10000000000000E+01
 
[MO]
 Sym= X
 Ene= -0.947931
 Spin= Alpha
 Occup= -0.947931
         1   -5.267281E-03
         2   -1.207925E-02
         3    2.494254E-02
         4   -7.587616E-03
         5    2.212256E-01
         6    3.264378E-02
         7   -5.296393E-02
         8   -1.022486E-02
         9    6.536769E-05
        10   -5.910939E-02
        11   -9.981385E-03
        12    6.047193E-05
        13   -8.985523E-02
        14    1.002794E-01
        15    4.479599E-05
        16   -1.717390E-03
        17    1.943304E-03
        18   -2.259140E-04
        19   -8.978133E-05
        20    5.247002E-07
        21   -1.399946E-06
        22   -9.847096E-03
        23    6.927368E-03
        24    2.919728E-03
        25    1.159153E-03
        26    1.292080E-05
        27   -1.595037E-06
        28   -2.162678E-03
        29    6.135871E-03
        30   -3.973194E-03
        31   -1.748184E-02
        32    8.745589E-05
        33   -4.168791E-05
        34   -7.617281E-05
        35    1.249196E-04
        36   -2.501290E-07
        37   -6.823360E-05
        38   -2.177046E-04
        39   -7.573675E-09
        40    1.704301E-04
        41    5.010735E-05
        42    3.431569E-07
        43    5.569543E-07
        44    2.878528E-07
        45    6.524771E-07
        46   -7.948730E-07
        47   -4.423418E-06
        48   -3.432202E-05
        49    5.682385E-06
        50    4.795300E-06
        51   -3.158046E-02
        52    1.073888E-05
        53    1.996204E-06
        54   -3.998295E-02
        55    1.107915E-05
        56   -1.746019E-05
        57    2.398574E-01
        58    1.899964E-05
        59   -2.260154E-07
        60    1.940301E-07
        61    3.198528E-08
        62   -1.615969E-03
        63    6.866213E-08
        64    2.196050E-06
        65    2.432228E-07
        66   -2.835116E-07
        67    4.028878E-08
        68    3.395225E-03
        69   -2.074114E-07
        70   -4.997323E-06
        71   -3.943053E-06
        72    3.242714E-06
        73    7.003390E-07
        74    4.361639E-02
        75    1.455172E-07
        76   -1.894919E-04
        77    3.616035E-08
        78   -6.121763E-04
        79   -1.085414E-07
        80   -3.222297E-08
        81    5.894381E-04
        82    8.149415E-08
        83   -1.629123E-08
        84    2.318826E-04
        85    6.412936E-08
        86   -4.151151E-07
        87    5.267337E-03
        88    1.207937E-02
        89   -2.494292E-02
        90    7.586582E-03
        91   -2.212008E-01
        92   -3.265260E-02
        93    5.296063E-02
        94   -1.022763E-02
        95   -5.279744E-05
        96    5.910473E-02
        97   -9.985507E-03
        98   -4.892345E-05
        99    8.985494E-02
       100    1.002446E-01
       101   -3.041449E-05
       102    1.717212E-03
       103   -1.943120E-03
       104    2.259075E-04
       105   -8.975825E-05
       106   -6.734599E-07
       107   -1.826867E-06
       108    9.846667E-03
       109   -6.926945E-03
       110   -2.919722E-03
       111    1.159789E-03
       112   -1.335437E-05
       113   -2.149651E-06
       114    2.158303E-03
       115   -6.129272E-03
       116    3.970969E-03
       117   -1.748574E-02
       118   -7.912103E-05
       119   -3.816735E-05
       120    7.617750E-05
       121    1.248840E-04
       122    1.662468E-07
       123    6.822833E-05
       124   -2.176751E-04
       125    2.772779E-08
       126   -1.704312E-04
       127    5.012564E-05
       128   -2.507712E-07
       129    6.145866E-07
       130   -3.233649E-03
       131   -7.341299E-03
       132    1.410374E-02
       133   -1.187478E-02
       134    6.731672E-02
       135    1.048250E-02
       136   -3.797926E-02
       137   -2.906748E-03
       138    3.797899E-05
       139   -5.912650E-03
       140   -8.616781E-03
       141    5.059060E-05
       142    4.435238E-02
       143   -3.062002E-02
       144   -1.350656E-04
       145    1.079969E-03
       146   -9.470690E-04
       147   -1.329002E-04
       148    2.362729E-04
       149   -9.145826E-07
       150    3.095149E-07
       151   -4.435422E-03
       152    2.780981E-03
       153    1.654441E-03
       154    1.105024E-04
       155    1.627736E-05
       156   -1.203461E-05
       157   -1.348222E-02
       158    1.429813E-02
       159   -8.159047E-04
       160   -3.744600E-03
       161   -1.027350E-04
       162    5.019286E-05
       163   -3.827379E-05
       164   -1.352096E-05
       165   -8.676614E-07
       166   -1.486183E-05
       167   -6.117194E-06
       168    5.643712E-07
       169    6.621151E-05
       170    2.425747E-05
       171    5.997187E-07
       172   -8.836527E-07
       173    7.733466E-08
       174    1.658475E-07
       175   -1.019962E-07
       176   -7.252204E-08
       177    5.218707E-05
       178   -5.561501E-06
       179   -1.016583E-06
       180   -1.725111E-02
       181   -5.628830E-06
       182    1.193950E-06
       183   -2.184606E-02
       184   -5.300135E-06
       185   -2.038446E-05
       186   -7.815095E-02
       187    5.698079E-06
       188   -8.183756E-08
       189    8.912871E-08
       190   -7.291149E-09
       191   -3.908226E-05
       192   -3.971908E-07
       193    7.194175E-06
       194    5.460421E-07
       195   -7.297889E-07
       196    1.837468E-07
       197    3.139829E-03
       198   -6.244261E-07
       199   -2.487901E-05
       200    4.686918E-06
       201   -3.385485E-06
       202   -1.301433E-06
       203    1.409394E-02
       204   -1.233993E-06
       205    1.831113E-04
       206   -3.403453E-09
       207   -2.560494E-04
       208    6.064236E-08
       209    7.042818E-09
       210    2.567697E-04
       211   -8.578727E-08
       212   -2.476606E-09
       213    8.675661E-05
       214    4.427005E-09
       215    1.303634E-07
       216    3.233774E-03
       217    7.341582E-03
       218   -1.410483E-02
       219    1.188168E-02
       220   -6.736098E-02
       221   -1.047557E-02
       222    3.798313E-02
       223   -2.907314E-03
       224   -3.570094E-05
       225    5.916300E-03
       226   -8.615397E-03
       227   -4.681539E-05
       228   -4.435453E-02
       229   -3.065361E-02
       230    1.118400E-04
       231   -1.080093E-03
       232    9.472245E-04
       233    1.328684E-04
       234    2.361708E-04
       235    4.807129E-07
       236    1.915496E-07
       237    4.435738E-03
       238   -2.781122E-03
       239   -1.654615E-03
       240    1.107630E-04
       241   -1.700371E-05
       242   -1.212760E-05
       243    1.348797E-02
       244   -1.430689E-02
       245    8.189162E-04
       246   -3.739251E-03
       247    1.070996E-04
       248    4.834193E-05
       249    3.828413E-05
       250   -1.354408E-05
       251    8.572206E-07
       252    1.487956E-05
       253   -6.080083E-06
       254   -5.349973E-07
       255   -6.624310E-05
       256    2.425138E-05
       257   -6.150848E-07
       258   -9.303610E-07
       259    1.997631E-02
       260    2.791280E-02
       261    3.635037E-02
       262    1.985218E-03
       263    3.260142E-03
       264   -4.678685E-06
       265    3.515513E-03
       266    1.390865E-03
       267   -1.482518E-05
       268   -1.997622E-02
       269   -2.791192E-02
       270   -3.635599E-02
       271   -1.985324E-03
       272    3.260041E-03
       273    5.329794E-06
       274   -3.516172E-03
       275    1.389411E-03
       276    1.293248E-05
       277   -7.076293E-03
       278   -1.130022E-02
       279   -2.163819E-02
       280   -1.562080E-04
       281    1.064647E-03
       282   -5.687779E-07
       283    3.461882E-03
       284   -5.613678E-04
       285    2.416082E-06
       286    7.077789E-03
       287    1.130303E-02
       288    2.165612E-02
       289    1.562118E-04
       290    1.064796E-03
       291    4.051225E-07
       292   -3.463151E-03
       293   -5.634263E-04
       294   -6.142550E-06
       295    1.231444E-07
       296    2.902933E-07
       297   -3.526738E-07
       298   -8.557425E-07
       299   -3.310204E-06
       300    3.486995E-07
       301   -4.285204E-06
       302   -4.495434E-02
       303    2.519681E-06
       304   -4.249411E-06
       305   -3.398357E-02
       306    3.550018E-06
       307   -4.365886E-06
       308    4.368494E-03
       309    7.253296E-06
       310   -3.614590E-07
       311    4.221282E-07
       312   -6.066918E-08
       313    9.537122E-03
       314    3.186931E-07
       315   -2.153287E-05
       316   -1.179350E-06
       317    1.146504E-06
       318    3.284602E-08
       319    2.579626E-02
       320    2.053870E-07
       321   -5.903111E-05
       322    3.178374E-07
       323   -3.496297E-07
       324    3.179231E-08
       325   -8.218368E-03
       326   -4.493980E-06
       327    3.187139E-05
       328    5.242942E-09
       329    2.168656E-03
       330   -2.206819E-08
       331   -1.907946E-08
       332   -3.102351E-03
       333    2.374948E-08
       334    1.204531E-08
       335    1.927931E-04
       336    5.858106E-09
       337    8.378700E-06
       338    3.344443E-04
       339    9.203479E-04
       340   -9.530962E-04
       341    7.425094E-03
       342   -6.158491E-03
       343    1.723435E-02
       344    2.535351E-01
       345    2.326559E-01
       346   -5.756962E-04
       347    2.305601E-01
       348    2.038890E-01
       349   -5.225158E-04
       350    1.763070E-01
       351    1.478745E-01
       352   -4.166515E-04
       353    2.931424E-02
       354    1.506749E-02
       355   -6.754590E-05
       356    2.065937E-03
       357   -2.783589E-03
       358    7.176519E-04
       359    2.080989E-04
       360   -3.435973E-06
       361   -2.862304E-07
       362    6.271647E-03
       363   -7.231823E-03
       364    9.601760E-04
       365   -7.822104E-04
       366   -1.324914E-05
       367    2.960430E-06
       368    6.853632E-03
       369   -6.327951E-03
       370   -5.256810E-04
       371   -1.418788E-03
       372   -1.631211E-05
       373    7.114374E-06
       374    2.749759E-04
       375    7.828638E-04
       376   -5.949491E-07
       377   -5.058235E-04
       378   -8.543533E-04
       379   -2.514679E-07
       380    1.369047E-04
       381   -1.959688E-04
       382    1.049676E-06
       383    1.677987E-06
       384   -3.345042E-04
       385   -9.205032E-04
       386    9.533294E-04
       387   -7.425605E-03
       388    6.159322E-03
       389   -1.723464E-02
       390   -2.535166E-01
       391    2.326524E-01
       392    5.707384E-04
       393   -2.305438E-01
       394    2.038856E-01
       395    5.184977E-04
       396   -1.762941E-01
       397    1.478704E-01
       398    3.988108E-04
       399   -2.931286E-02
       400    1.506663E-02
       401    6.697449E-05
       402   -2.065901E-03
       403    2.783611E-03
       404   -7.177102E-04
       405    2.082582E-04
       406    3.555677E-06
       407   -2.500557E-07
       408   -6.271446E-03
       409    7.231790E-03
       410   -9.603440E-04
       411   -7.818828E-04
       412    1.391098E-05
       413    2.269619E-06
       414   -6.853398E-03
       415    6.327744E-03
       416    5.256540E-04
       417   -1.418687E-03
       418    2.257559E-05
       419    1.829686E-06
       420   -2.749910E-04
       421    7.828389E-04
       422    6.736610E-07
       423    5.058606E-04
       424   -8.543016E-04
       425    1.788129E-07
       426   -1.369215E-04
       427   -1.959870E-04
       428   -1.082624E-06
       429    1.752311E-06
       430   -1.628841E-07
       431   -3.842246E-07
       432    6.222583E-07
       433    1.254704E-07
       434    1.464328E-06
       435    4.255059E-06
       436    1.319615E-06
       437    1.060979E-02
       438   -1.477737E-05
       439    1.981118E-06
       440    8.438865E-03
       441   -1.432017E-05
       442    5.578859E-06
       443    5.812609E-03
       444   -1.028987E-05
       445    5.280752E-09
       446    4.009693E-09
       447   -9.290445E-09
       448    4.878475E-04
       449    1.117098E-07
       450    9.116682E-05
       451   -2.361455E-07
       452    3.516963E-07
       453   -1.155508E-07
       454    1.490822E-03
       455    2.756045E-07
       456    1.419846E-04
       457   -1.185499E-06
       458    1.601606E-06
       459   -4.161068E-07
       460   -8.722187E-04
       461    4.870104E-07
       462    2.657200E-06
       463    6.543635E-09
       464    8.269881E-05
       465    7.897871E-08
       466    7.822942E-09
       467   -8.251142E-05
       468   -6.754670E-08
       469   -1.660215E-08
       470   -2.844068E-05
       471   -3.841436E-08
       472    1.927066E-05
       473    5.332460E-03
       474    7.581850E-03
       475    4.911689E-03
       476   -4.306406E-04
       477   -5.164806E-04
       478   -1.199958E-04
       479   -7.406180E-04
       480   -2.132455E-04
       481   -1.372640E-04
       482   -5.333120E-03
       483   -7.585124E-03
       484   -4.925664E-03
       485    4.310487E-04
       486   -5.167618E-04
       487    1.183278E-04
       488    7.440393E-04
       489   -2.138096E-04
       490    1.358384E-04
 Sym= X
 Ene= 0.947931
 Spin= Alpha
 Occup= 0.947931
         1    7.156382E-06
         2    1.420330E-05
         3    7.546079E-04
         4   -9.802310E-03
         5    3.024230E-01
         6   -2.460550E-02
         7    6.454041E-04
         8    1.438518E-04
         9    1.064577E-01
        10   -1.036979E-02
        11    2.515289E-03
        12    1.185202E-01
        13   -7.159523E-02
        14   -1.445827E-01
        15   -3.035786E-02
        16   -7.351570E-05
        17    3.531787E-05
        18    3.819783E-05
        19    1.216253E-05
        20    2.069381E-04
        21    4.280305E-04
        22   -1.363618E-03
        23    1.267596E-03
        24    9.602167E-05
        25   -1.510738E-03
        26   -1.351952E-03
        27   -2.830357E-03
        28    4.612674E-02
        29   -5.840507E-02
        30    1.227834E-02
        31   -1.105873E-03
        32   -8.707988E-02
        33   -3.384766E-02
        34   -3.381526E-05
        35    1.480374E-05
        36   -1.507078E-04
        37    8.910129E-07
        38   -2.051464E-06
        39   -9.856019E-05
        40    4.447692E-05
        41   -1.780984E-05
        42    3.007560E-04
        43    2.189852E-04
        44   -3.746967E-05
        45   -1.063916E-04
        46    1.582055E-03
        47   -2.330663E-02
        48    3.119796E-01
        49    1.535210E-01
        50    2.163373E-04
        51    1.125154E-06
        52   -2.607209E-02
        53   -5.695838E-03
        54   -2.663557E-05
        55   -2.561509E-02
        56    1.869464E-01
        57   -3.018851E-04
        58   -5.306911E-02
        59    6.103152E-07
        60   -4.520295E-05
        61    4.459264E-05
        62   -6.214757E-08