[Molden Format]
[Title]
ADC(2) - opt by CAM-B3LYP gaussian                                              
[Atoms] AU
 c     1    6 -.12588699998532E+01 -.22834089986974E+01 -.24579904026210E-01
 c     2    6 -.25576598737242E+01 0.00000000000000E+00 -.23328905326240E-01
 c     3    6 -.12588681101271E+01 0.22834089986974E+01 -.24585573204610E-01
 c     4    6 0.13319747639512E+01 0.22851362083829E+01 -.26548998656670E-01
 c     5    6 0.26868460402678E+01 0.00000000000000E+00 -.25991529447470E-01
 c     6    6 0.13319728742250E+01 -.22851362083829E+01 -.26541439752140E-01
 h     7    1 -.22976467859220E+01 -.40383900994038E+01 -.22042001829740E-01
 h     8    1 -.22976448961959E+01 0.40383919891299E+01 -.22053340186540E-01
 h     9    1 0.23511286338561E+01 0.40572968093633E+01 -.28790213850280E-01
 h    10    1 0.23511267441300E+01 -.40572968093633E+01 -.28775096041210E-01
 n    11    7 -.52730224718766E+01 0.00000000000000E+00 -.17674844736640E-01
 o    12    8 -.63812882673039E+01 0.20269372576683E+01 -.15259774738810E-01
 o    13    8 -.63812844878516E+01 -.20269372576683E+01 -.15276782274010E-01
 n    14    7 0.52436643953234E+01 0.00000000000000E+00 -.69084844181800E-01
 h    15    1 0.62047866654136E+01 0.16174392738504E+01 0.18526851385235E+00
 h    16    1 0.62047847756874E+01 -.16174411635765E+01 0.18526473440008E+00
[GTO]
    1 0
 s    6 1.00
 0.13575349682000E+05 0.60645503603591E-03
 0.20352333680000E+04 0.46979088884982E-02
 0.46322562359000E+03 0.24332477647552E-01
 0.13120019598000E+03 0.97399968307759E-01
 0.42853015891000E+02 0.30195584253780E+00
 0.15584185766000E+02 0.66233609137875E+00
 s    2 1.00
 0.62067138508000E+01 0.65595308539952E+00
 0.25764896527000E+01 0.37585633285142E+00
 s    1 1.00
 0.57696339419000E+00 0.10000000000000E+01
 s    1 1.00
 0.22972831358000E+00 0.10000000000000E+01
 s    1 1.00
 0.95164440028000E-01 0.10000000000000E+01
 s    1 1.00
 0.48475401370000E-01 0.10000000000000E+01
 p    4 1.00
 0.34697232244000E+02 0.11327220003114E-01
 0.79582622826000E+01 0.76169659202087E-01
 0.23780826883000E+01 0.30192252202676E+00
 0.81433208183000E+00 0.72785027349547E+00
 p    1 1.00
 0.28887547253000E+00 0.10000000000000E+01
 p    1 1.00
 0.10056823671000E+00 0.10000000000000E+01
 d    1 1.00
 0.10970000000000E+01 0.10000000000000E+01
 d    1 1.00
 0.31800000000000E+00 0.10000000000000E+01
 d    1 1.00
 0.90985336424000E-01 0.10000000000000E+01
 f    1 1.00
 0.76100000000000E+00 0.10000000000000E+01
 
    2 0
 s    6 1.00
 0.13575349682000E+05 0.60645503603591E-03
 0.20352333680000E+04 0.46979088884982E-02
 0.46322562359000E+03 0.24332477647552E-01
 0.13120019598000E+03 0.97399968307759E-01
 0.42853015891000E+02 0.30195584253780E+00
 0.15584185766000E+02 0.66233609137875E+00
 s    2 1.00
 0.62067138508000E+01 0.65595308539952E+00
 0.25764896527000E+01 0.37585633285142E+00
 s    1 1.00
 0.57696339419000E+00 0.10000000000000E+01
 s    1 1.00
 0.22972831358000E+00 0.10000000000000E+01
 s    1 1.00
 0.95164440028000E-01 0.10000000000000E+01
 s    1 1.00
 0.48475401370000E-01 0.10000000000000E+01
 p    4 1.00
 0.34697232244000E+02 0.11327220003114E-01
 0.79582622826000E+01 0.76169659202087E-01
 0.23780826883000E+01 0.30192252202676E+00
 0.81433208183000E+00 0.72785027349547E+00
 p    1 1.00
 0.28887547253000E+00 0.10000000000000E+01
 p    1 1.00
 0.10056823671000E+00 0.10000000000000E+01
 d    1 1.00
 0.10970000000000E+01 0.10000000000000E+01
 d    1 1.00
 0.31800000000000E+00 0.10000000000000E+01
 d    1 1.00
 0.90985336424000E-01 0.10000000000000E+01
 f    1 1.00
 0.76100000000000E+00 0.10000000000000E+01
 
    3 0
 s    6 1.00
 0.13575349682000E+05 0.60645503603591E-03
 0.20352333680000E+04 0.46979088884982E-02
 0.46322562359000E+03 0.24332477647552E-01
 0.13120019598000E+03 0.97399968307759E-01
 0.42853015891000E+02 0.30195584253780E+00
 0.15584185766000E+02 0.66233609137875E+00
 s    2 1.00
 0.62067138508000E+01 0.65595308539952E+00
 0.25764896527000E+01 0.37585633285142E+00
 s    1 1.00
 0.57696339419000E+00 0.10000000000000E+01
 s    1 1.00
 0.22972831358000E+00 0.10000000000000E+01
 s    1 1.00
 0.95164440028000E-01 0.10000000000000E+01
 s    1 1.00
 0.48475401370000E-01 0.10000000000000E+01
 p    4 1.00
 0.34697232244000E+02 0.11327220003114E-01
 0.79582622826000E+01 0.76169659202087E-01
 0.23780826883000E+01 0.30192252202676E+00
 0.81433208183000E+00 0.72785027349547E+00
 p    1 1.00
 0.28887547253000E+00 0.10000000000000E+01
 p    1 1.00
 0.10056823671000E+00 0.10000000000000E+01
 d    1 1.00
 0.10970000000000E+01 0.10000000000000E+01
 d    1 1.00
 0.31800000000000E+00 0.10000000000000E+01
 d    1 1.00
 0.90985336424000E-01 0.10000000000000E+01
 f    1 1.00
 0.76100000000000E+00 0.10000000000000E+01
 
    4 0
 s    6 1.00
 0.13575349682000E+05 0.60645503603591E-03
 0.20352333680000E+04 0.46979088884982E-02
 0.46322562359000E+03 0.24332477647552E-01
 0.13120019598000E+03 0.97399968307759E-01
 0.42853015891000E+02 0.30195584253780E+00
 0.15584185766000E+02 0.66233609137875E+00
 s    2 1.00
 0.62067138508000E+01 0.65595308539952E+00
 0.25764896527000E+01 0.37585633285142E+00
 s    1 1.00
 0.57696339419000E+00 0.10000000000000E+01
 s    1 1.00
 0.22972831358000E+00 0.10000000000000E+01
 s    1 1.00
 0.95164440028000E-01 0.10000000000000E+01
 s    1 1.00
 0.48475401370000E-01 0.10000000000000E+01
 p    4 1.00
 0.34697232244000E+02 0.11327220003114E-01
 0.79582622826000E+01 0.76169659202087E-01
 0.23780826883000E+01 0.30192252202676E+00
 0.81433208183000E+00 0.72785027349547E+00
 p    1 1.00
 0.28887547253000E+00 0.10000000000000E+01
 p    1 1.00
 0.10056823671000E+00 0.10000000000000E+01
 d    1 1.00
 0.10970000000000E+01 0.10000000000000E+01
 d    1 1.00
 0.31800000000000E+00 0.10000000000000E+01
 d    1 1.00
 0.90985336424000E-01 0.10000000000000E+01
 f    1 1.00
 0.76100000000000E+00 0.10000000000000E+01
 
    5 0
 s    6 1.00
 0.13575349682000E+05 0.60645503603591E-03
 0.20352333680000E+04 0.46979088884982E-02
 0.46322562359000E+03 0.24332477647552E-01
 0.13120019598000E+03 0.97399968307759E-01
 0.42853015891000E+02 0.30195584253780E+00
 0.15584185766000E+02 0.66233609137875E+00
 s    2 1.00
 0.62067138508000E+01 0.65595308539952E+00
 0.25764896527000E+01 0.37585633285142E+00
 s    1 1.00
 0.57696339419000E+00 0.10000000000000E+01
 s    1 1.00
 0.22972831358000E+00 0.10000000000000E+01
 s    1 1.00
 0.95164440028000E-01 0.10000000000000E+01
 s    1 1.00
 0.48475401370000E-01 0.10000000000000E+01
 p    4 1.00
 0.34697232244000E+02 0.11327220003114E-01
 0.79582622826000E+01 0.76169659202087E-01
 0.23780826883000E+01 0.30192252202676E+00
 0.81433208183000E+00 0.72785027349547E+00
 p    1 1.00
 0.28887547253000E+00 0.10000000000000E+01
 p    1 1.00
 0.10056823671000E+00 0.10000000000000E+01
 d    1 1.00
 0.10970000000000E+01 0.10000000000000E+01
 d    1 1.00
 0.31800000000000E+00 0.10000000000000E+01
 d    1 1.00
 0.90985336424000E-01 0.10000000000000E+01
 f    1 1.00
 0.76100000000000E+00 0.10000000000000E+01
 
    6 0
 s    6 1.00
 0.13575349682000E+05 0.60645503603591E-03
 0.20352333680000E+04 0.46979088884982E-02
 0.46322562359000E+03 0.24332477647552E-01
 0.13120019598000E+03 0.97399968307759E-01
 0.42853015891000E+02 0.30195584253780E+00
 0.15584185766000E+02 0.66233609137875E+00
 s    2 1.00
 0.62067138508000E+01 0.65595308539952E+00
 0.25764896527000E+01 0.37585633285142E+00
 s    1 1.00
 0.57696339419000E+00 0.10000000000000E+01
 s    1 1.00
 0.22972831358000E+00 0.10000000000000E+01
 s    1 1.00
 0.95164440028000E-01 0.10000000000000E+01
 s    1 1.00
 0.48475401370000E-01 0.10000000000000E+01
 p    4 1.00
 0.34697232244000E+02 0.11327220003114E-01
 0.79582622826000E+01 0.76169659202087E-01
 0.23780826883000E+01 0.30192252202676E+00
 0.81433208183000E+00 0.72785027349547E+00
 p    1 1.00
 0.28887547253000E+00 0.10000000000000E+01
 p    1 1.00
 0.10056823671000E+00 0.10000000000000E+01
 d    1 1.00
 0.10970000000000E+01 0.10000000000000E+01
 d    1 1.00
 0.31800000000000E+00 0.10000000000000E+01
 d    1 1.00
 0.90985336424000E-01 0.10000000000000E+01
 f    1 1.00
 0.76100000000000E+00 0.10000000000000E+01
 
    7 0
 s    3 1.00
 0.34061341000000E+02 0.25439307208879E-01
 0.51235746000000E+01 0.19008594890375E+00
 0.11646626000000E+01 0.85244113011042E+00
 s    1 1.00
 0.32723041000000E+00 0.10000000000000E+01
 s    1 1.00
 0.10307241000000E+00 0.10000000000000E+01
 p    1 1.00
 0.80000000000000E+00 0.10000000000000E+01
 p    1 1.00
 0.95774129632000E-01 0.10000000000000E+01
 
    8 0
 s    3 1.00
 0.34061341000000E+02 0.25439307208879E-01
 0.51235746000000E+01 0.19008594890375E+00
 0.11646626000000E+01 0.85244113011042E+00
 s    1 1.00
 0.32723041000000E+00 0.10000000000000E+01
 s    1 1.00
 0.10307241000000E+00 0.10000000000000E+01
 p    1 1.00
 0.80000000000000E+00 0.10000000000000E+01
 p    1 1.00
 0.95774129632000E-01 0.10000000000000E+01
 
    9 0
 s    3 1.00
 0.34061341000000E+02 0.25439307208879E-01
 0.51235746000000E+01 0.19008594890375E+00
 0.11646626000000E+01 0.85244113011042E+00
 s    1 1.00
 0.32723041000000E+00 0.10000000000000E+01
 s    1 1.00
 0.10307241000000E+00 0.10000000000000E+01
 p    1 1.00
 0.80000000000000E+00 0.10000000000000E+01
 p    1 1.00
 0.95774129632000E-01 0.10000000000000E+01
 
   10 0
 s    3 1.00
 0.34061341000000E+02 0.25439307208879E-01
 0.51235746000000E+01 0.19008594890375E+00
 0.11646626000000E+01 0.85244113011042E+00
 s    1 1.00
 0.32723041000000E+00 0.10000000000000E+01
 s    1 1.00
 0.10307241000000E+00 0.10000000000000E+01
 p    1 1.00
 0.80000000000000E+00 0.10000000000000E+01
 p    1 1.00
 0.95774129632000E-01 0.10000000000000E+01
 
   11 0
 s    6 1.00
 0.19730800647000E+05 0.58626402628763E-03
 0.29578958745000E+04 0.45428820586397E-02
 0.67322133595000E+03 0.23558413450084E-01
 0.19068249494000E+03 0.94709193292923E-01
 0.62295441898000E+02 0.29719784913376E+00
 0.22654161182000E+02 0.66916246895232E+00
 s    2 1.00
 0.89791477428000E+01 0.64596683630063E+00
 0.36863002370000E+01 0.38700574393705E+00
 s    1 1.00
 0.84660076805000E+00 0.10000000000000E+01
 s    1 1.00
 0.33647133771000E+00 0.10000000000000E+01
 s    1 1.00
 0.13647653675000E+00 0.10000000000000E+01
 s    1 1.00
 0.68441605847000E-01 0.10000000000000E+01
 p    4 1.00
 0.49200380510000E+02 0.11448825101764E-01
 0.11346790537000E+02 0.78422337970864E-01
 0.34273972411000E+01 0.30818094738830E+00
 0.11785525134000E+01 0.72027196368413E+00
 p    1 1.00
 0.41642204972000E+00 0.10000000000000E+01
 p    1 1.00
 0.14260826011000E+00 0.10000000000000E+01
 d    1 1.00
 0.16540000000000E+01 0.10000000000000E+01
 d    1 1.00
 0.46900000000000E+00 0.10000000000000E+01
 d    1 1.00
 0.12829642058000E+00 0.10000000000000E+01
 f    1 1.00
 0.10930000000000E+01 0.10000000000000E+01
 
   12 0
 s    6 1.00
 0.27032382631000E+05 0.57227335211155E-03
 0.40523871392000E+04 0.44353233492995E-02
 0.92232722710000E+03 0.23020107706038E-01
 0.26124070989000E+03 0.92822490667928E-01
 0.85354641351000E+02 0.29378500009671E+00
 0.31035035245000E+02 0.67401604501641E+00
 s    2 1.00
 0.12260860728000E+02 0.63839937025506E+00
 0.49987076005000E+01 0.39534587125718E+00
 s    1 1.00
 0.11703108158000E+01 0.10000000000000E+01
 s    1 1.00
 0.46474740994000E+00 0.10000000000000E+01
 s    1 1.00
 0.18504536357000E+00 0.10000000000000E+01
 s    1 1.00
 0.70288026270000E-01 0.10000000000000E+01
 p    4 1.00
 0.63274954801000E+02 0.12018332222616E-01
 0.14627049379000E+02 0.83005421790056E-01
 0.44501223456000E+01 0.31991743925964E+00
 0.15275799647000E+01 0.70715542916104E+00
 p    1 1.00
 0.52935117943000E+00 0.10000000000000E+01
 p    1 1.00
 0.17478421270000E+00 0.10000000000000E+01
 p    1 1.00
 0.51112745706000E-01 0.10000000000000E+01
 d    1 1.00
 0.23140000000000E+01 0.10000000000000E+01
 d    1 1.00
 0.64500000000000E+00 0.10000000000000E+01
 d    1 1.00
 0.14696477366000E+00 0.10000000000000E+01
 f    1 1.00
 0.14280000000000E+01 0.10000000000000E+01
 
   13 0
 s    6 1.00
 0.27032382631000E+05 0.57227335211155E-03
 0.40523871392000E+04 0.44353233492995E-02
 0.92232722710000E+03 0.23020107706038E-01
 0.26124070989000E+03 0.92822490667928E-01
 0.85354641351000E+02 0.29378500009671E+00
 0.31035035245000E+02 0.67401604501641E+00
 s    2 1.00
 0.12260860728000E+02 0.63839937025506E+00
 0.49987076005000E+01 0.39534587125718E+00
 s    1 1.00
 0.11703108158000E+01 0.10000000000000E+01
 s    1 1.00
 0.46474740994000E+00 0.10000000000000E+01
 s    1 1.00
 0.18504536357000E+00 0.10000000000000E+01
 s    1 1.00
 0.70288026270000E-01 0.10000000000000E+01
 p    4 1.00
 0.63274954801000E+02 0.12018332222616E-01
 0.14627049379000E+02 0.83005421790056E-01
 0.44501223456000E+01 0.31991743925964E+00
 0.15275799647000E+01 0.70715542916104E+00
 p    1 1.00
 0.52935117943000E+00 0.10000000000000E+01
 p    1 1.00
 0.17478421270000E+00 0.10000000000000E+01
 p    1 1.00
 0.51112745706000E-01 0.10000000000000E+01
 d    1 1.00
 0.23140000000000E+01 0.10000000000000E+01
 d    1 1.00
 0.64500000000000E+00 0.10000000000000E+01
 d    1 1.00
 0.14696477366000E+00 0.10000000000000E+01
 f    1 1.00
 0.14280000000000E+01 0.10000000000000E+01
 
   14 0
 s    6 1.00
 0.19730800647000E+05 0.58626402628763E-03
 0.29578958745000E+04 0.45428820586397E-02
 0.67322133595000E+03 0.23558413450084E-01
 0.19068249494000E+03 0.94709193292923E-01
 0.62295441898000E+02 0.29719784913376E+00
 0.22654161182000E+02 0.66916246895232E+00
 s    2 1.00
 0.89791477428000E+01 0.64596683630063E+00
 0.36863002370000E+01 0.38700574393705E+00
 s    1 1.00
 0.84660076805000E+00 0.10000000000000E+01
 s    1 1.00
 0.33647133771000E+00 0.10000000000000E+01
 s    1 1.00
 0.13647653675000E+00 0.10000000000000E+01
 s    1 1.00
 0.68441605847000E-01 0.10000000000000E+01
 p    4 1.00
 0.49200380510000E+02 0.11448825101764E-01
 0.11346790537000E+02 0.78422337970864E-01
 0.34273972411000E+01 0.30818094738830E+00
 0.11785525134000E+01 0.72027196368413E+00
 p    1 1.00
 0.41642204972000E+00 0.10000000000000E+01
 p    1 1.00
 0.14260826011000E+00 0.10000000000000E+01
 d    1 1.00
 0.16540000000000E+01 0.10000000000000E+01
 d    1 1.00
 0.46900000000000E+00 0.10000000000000E+01
 d    1 1.00
 0.12829642058000E+00 0.10000000000000E+01
 f    1 1.00
 0.10930000000000E+01 0.10000000000000E+01
 
   15 0
 s    3 1.00
 0.34061341000000E+02 0.25439307208879E-01
 0.51235746000000E+01 0.19008594890375E+00
 0.11646626000000E+01 0.85244113011042E+00
 s    1 1.00
 0.32723041000000E+00 0.10000000000000E+01
 s    1 1.00
 0.10307241000000E+00 0.10000000000000E+01
 p    1 1.00
 0.80000000000000E+00 0.10000000000000E+01
 p    1 1.00
 0.95774129632000E-01 0.10000000000000E+01
 
   16 0
 s    3 1.00
 0.34061341000000E+02 0.25439307208879E-01
 0.51235746000000E+01 0.19008594890375E+00
 0.11646626000000E+01 0.85244113011042E+00
 s    1 1.00
 0.32723041000000E+00 0.10000000000000E+01
 s    1 1.00
 0.10307241000000E+00 0.10000000000000E+01
 p    1 1.00
 0.80000000000000E+00 0.10000000000000E+01
 p    1 1.00
 0.95774129632000E-01 0.10000000000000E+01
 
[MO]
 Sym= X
 Ene= -0.079414
 Spin= Alpha
 Occup= -0.079414
         1    1.360930E-04
         2    3.178359E-04
         3   -9.359812E-04
         4    2.226865E-03
         5    1.155609E-02
         6    9.306866E-03
         7   -1.205758E-03
         8   -1.383379E-04
         9   -2.827059E-02
        10    2.102492E-03
        11   -2.946834E-04
        12   -2.638193E-02
        13    3.059936E-02
        14   -8.762632E-03
        15   -5.492674E-03
        16    3.238823E-06
        17    8.046147E-06
        18   -1.128497E-05
        19    5.937285E-06
        20    6.512489E-03
        21   -4.038452E-03
        22    5.597393E-04
        23   -3.333052E-04
        24   -2.264341E-04
        25    5.704059E-04
        26    1.464744E-02
        27   -7.588522E-03
        28    4.552061E-03
        29   -4.268352E-03
        30   -2.837089E-04
        31   -8.503242E-04
        32   -1.054481E-03
        33    9.554396E-03
        34    1.685701E-05
        35   -5.166786E-06
        36    1.364873E-04
        37   -7.213212E-06
        38    5.344066E-06
        39    7.016254E-04
        40   -1.540284E-05
        41    1.587905E-06
        42   -8.847423E-04
        43    7.335624E-04
        44   -2.090890E-05
        45   -4.587625E-05
        46   -9.813217E-05
        47    2.100199E-03
        48    4.506412E-02
        49   -4.209115E-03
        50   -3.849839E-04
        51   -1.226807E-06
        52   -2.141249E-01
        53    2.596479E-04
        54   -2.237783E-05
        55   -2.220085E-01
        56    1.452387E-02
        57    1.446239E-03
        58   -2.044097E-01
        59   -2.719959E-05
        60    2.514314E-05
        61    2.056458E-06
        62   -1.209249E-07
        63    8.258263E-04
        64   -1.243724E-06
        65   -2.972899E-04
        66    4.993087E-04
        67   -2.020188E-04
        68   -4.976723E-06
        69    3.675250E-03
        70   -2.171404E-06
        71   -7.051305E-03
        72    8.018318E-03
        73   -9.670130E-04
        74    2.476802E-04
        75   -5.373610E-03
        76    2.456343E-05
        77   -7.051702E-06
        78   -4.757330E-08
        79    1.225498E-03
        80    5.248445E-06
        81   -4.021307E-08
        82   -7.559956E-04
        83    4.212406E-06
        84    1.040393E-07
        85   -8.881819E-04
        86   -1.517807E-07
        87    1.363028E-04
        88    3.184425E-04
        89   -9.454926E-04
        90    2.307852E-03
        91    9.119314E-03
        92    9.228289E-03
        93   -1.206988E-03
        94    1.399890E-04
        95   -2.833001E-02
        96    2.086670E-03
        97    2.789587E-04
        98   -2.643863E-02
        99    3.156673E-02
       100    1.029777E-02
       101   -5.620757E-03
       102    3.418485E-06
       103    8.041955E-06
       104   -1.146044E-05
       105   -6.225845E-06
       106    6.511745E-03
       107    4.038717E-03
       108    5.558300E-04
       109   -3.279646E-04
       110   -2.278654E-04
       111   -5.664008E-04
       112    1.464343E-02
       113    7.587953E-03
       114    4.832147E-03
       115   -4.578167E-03
       116   -2.539798E-04
       117    6.460719E-04
       118   -1.049184E-03
       119   -9.513601E-03
       120    1.703622E-05
       121    5.140395E-06
       122    1.367995E-04
       123   -7.527140E-06
       124   -5.349451E-06
       125    7.012838E-04
       126   -1.532935E-05
       127   -1.547112E-06
       128   -8.848196E-04
       129   -7.334906E-04
       130   -8.452313E-05
       131   -1.806422E-04
       132   -5.124709E-04
       133    8.426187E-03
       134   -2.788509E-02
       135   -1.038607E-02
       136    9.143740E-04
       137   -4.251247E-04
       138    1.576713E-01
       139    7.331585E-03
       140   -4.956586E-03
       141    1.603561E-01
       142    2.249635E-02
       143    5.532173E-03
       144    9.686639E-02
       145   -1.093745E-04
       146    1.314668E-04
       147   -2.209237E-05
       148    4.817728E-06
       149    1.062163E-03
       150   -3.187188E-03
       151   -5.128992E-04
       152    6.062126E-04
       153   -9.331345E-05
       154   -1.385419E-03
       155    4.432223E-03
       156   -5.445571E-03
       157   -7.098636E-03
       158    5.603573E-03
       159    1.495063E-03
       160    6.975664E-03
       161   -3.067361E-03
       162    1.077601E-02
       163    1.270480E-05
       164   -6.343947E-06
       165   -9.036064E-04
       166    1.448733E-05
       167   -1.523817E-05
       168    2.270284E-04
       169   -3.153261E-05
       170    2.374947E-05
       171    9.852868E-04
       172   -3.816076E-04
       173    8.760953E-04
       174    1.999863E-03
       175   -2.018743E-03
       176   -1.803062E-02
       177    8.182079E-03
       178   -8.352769E-03
       179   -6.849687E-03
       180   -1.259796E-06
       181    1.276523E-01
       182   -8.831966E-05
       183    1.202551E-05
       184    1.297195E-01
       185    1.946835E-02
       186   -1.539839E-03
       187    1.300265E-01
       188   -3.721407E-04
       189    2.034344E-04
       190    1.687063E-04
       191   -7.136986E-08
       192   -9.326688E-03
       193   -1.076848E-06
       194    1.531181E-03
       195   -3.364559E-03
       196    1.833378E-03
       197   -3.343178E-06
       198   -2.344215E-02
       199    1.437666E-06
       200    4.390775E-03
       201   -5.508495E-03
       202    1.117719E-03
       203    2.893667E-04
       204   -1.895628E-02
       205   -6.341613E-06
       206   -9.080744E-05
       207   -3.436236E-08
       208   -4.831123E-04
       209    6.476547E-05
       210    1.000078E-07
       211   -8.527720E-04
       212    5.706550E-05
       213   -5.390589E-08
       214    1.500935E-03
       215    1.607916E-08
       216   -8.529886E-05
       217   -1.822103E-04
       218   -5.166399E-04
       219    8.508783E-03
       220   -3.063652E-02
       221   -1.042862E-02
       222    9.159947E-04
       223    4.193906E-04
       224    1.577160E-01
       225    7.336151E-03
       226    4.969737E-03
       227    1.604112E-01
       228    2.139258E-02
       229   -7.328144E-03
       230    9.679901E-02
       231   -1.090962E-04
       232    1.320130E-04
       233   -2.291681E-05
       234   -4.855827E-06
       235    1.060884E-03
       236    3.187420E-03
       237   -5.148539E-04
       238    6.087377E-04
       239   -9.388384E-05
       240    1.387516E-03
       241    4.428046E-03
       242    5.445689E-03
       243   -6.809137E-03
       244    5.297490E-03
       245    1.511647E-03
       246   -7.218434E-03
       247   -3.076475E-03
       248   -1.082857E-02
       249    1.263569E-05
       250    6.400557E-06
       251   -9.041700E-04
       252    1.471340E-05
       253    1.515941E-05
       254    2.276236E-04
       255   -3.166596E-05
       256   -2.374665E-05
       257    9.854478E-04
       258    3.816082E-04
       259    2.439768E-04
       260    9.481468E-05
       261    1.432750E-02
       262    9.761455E-06
       263   -8.169243E-06
       264   -1.102311E-03
       265    4.439833E-03
       266    1.316314E-04
       267    6.197283E-03
       268    2.454786E-04
       269    8.862800E-05
       270    1.412295E-02
       271    8.612217E-06
       272    8.841168E-06
       273   -1.105069E-03
       274    4.589053E-03
       275   -8.121352E-06
       276    6.168348E-03
       277    3.236156E-04
       278    1.915709E-03
       279   -2.800784E-02
       280    3.843654E-06
       281   -7.852298E-05
       282    6.421057E-03
       283    1.213243E-03
       284    2.250001E-03
       285   -5.717280E-04
       286    3.278374E-04
       287    1.917855E-03
       288   -2.841576E-02
       289    3.598727E-06
       290    7.855374E-05
       291    6.423438E-03
       292    1.092804E-03
       293   -2.397964E-03
       294   -6.021816E-04
       295    3.273054E-05
       296    7.552170E-05
       297   -5.638041E-05
       298   -3.207167E-04
       299    5.139449E-03
       300   -1.460576E-03
       301   -3.541839E-04
       302    1.647641E-07
       303   -2.658615E-02
       304   -1.092679E-04
       305   -8.411054E-07
       306   -2.868387E-02
       307    2.390199E-03
       308   -3.063798E-05
       309   -1.231349E-02
       310   -2.076945E-05
       311    5.400058E-06
       312    1.536939E-05
       313   -7.850780E-09
       314   -4.601768E-03
       315   -1.916586E-08
       316   -1.390921E-05
       317   -5.038321E-05
       318    6.429242E-05
       319    5.516408E-07
       320   -1.393112E-02
       321    1.554104E-07
       322    9.441992E-04
       323   -2.396631E-03
       324    1.452431E-03
       325   -4.193906E-05
       326   -3.653162E-03
       327   -4.273764E-06
       328   -6.221857E-06
       329   -1.149292E-08
       330    2.862052E-05
       331    4.175294E-06
       332   -1.261557E-08
       333   -7.454270E-04
       334    4.172202E-06
       335    2.803495E-08
       336    7.070286E-04
       337   -3.045604E-08
       338    7.816846E-06
       339    1.616313E-05
       340    1.282329E-05
       341   -4.041393E-04
       342    4.807457E-03
       343    7.599592E-04
       344    2.238376E-04
       345   -7.191998E-05
       346    7.954099E-02
       347    2.846563E-04
       348   -1.837533E-04
       349    7.384169E-02
       350    1.309347E-03
       351   -3.513177E-04
       352    6.122704E-02
       353    1.244800E-04
       354   -1.912684E-04
       355    7.698322E-03
       356   -2.904989E-06
       357    3.205287E-06
       358   -3.002985E-07
       359   -6.458591E-07
       360   -4.961554E-05
       361   -4.252484E-04
       362    1.136532E-05
       363    7.031535E-06
       364   -1.839685E-05
       365   -1.085452E-05
       366    4.166732E-04
       367   -1.458329E-03
       368    7.388143E-05
       369   -5.875044E-05
       370   -1.513098E-05
       371   -8.975499E-05
       372    1.895856E-04
       373   -1.681482E-04
       374   -7.308485E-07
       375   -1.106949E-06
       376   -5.378900E-05
       377    1.225850E-06
       378    1.857879E-08
       379   -8.707465E-05
       380   -2.453133E-07
       381    1.466549E-06
       382    1.592402E-04
       383   -1.236934E-04
       384    7.694983E-06
       385    1.590805E-05
       386    1.267088E-05
       387   -3.993228E-04
       388    4.819187E-03
       389    7.182604E-04
       390    2.202799E-04
       391    7.256081E-05
       392    7.953789E-02
       393    2.817501E-04
       394    1.835115E-04
       395    7.383908E-02
       396    1.266611E-03
       397    3.554210E-04
       398    6.121942E-02
       399    1.058374E-04
       400    1.961797E-04
       401    7.704028E-03
       402   -2.874126E-06
       403    3.206930E-06
       404   -3.328036E-07
       405    7.009636E-07
       406   -4.957192E-05
       407    4.252288E-04
       408    1.091805E-05
       409    7.030004E-06
       410   -1.794805E-05
       411    1.034322E-05
       412    4.165658E-04
       413    1.458245E-03
       414    7.342626E-05
       415   -5.958181E-05
       416   -1.384445E-05
       417    8.887752E-05
       418    1.908179E-04
       419    1.675415E-04
       420   -7.316373E-07
       421    1.103741E-06
       422   -5.379423E-05
       423    1.208254E-06
       424   -2.404170E-08
       425   -8.706488E-05
       426   -2.266598E-07
       427   -1.456782E-06
       428    1.592374E-04
       429    1.236932E-04
       430   -3.834442E-03
       431   -9.124775E-03
       432    1.430451E-02
       433    2.206837E-02
       434    1.982010E-02
       435    6.093169E-02
       436    1.350424E-02
       437   -8.781493E-06
       438   -2.228794E-01
       439    1.561647E-02
       440    2.058259E-06
       441   -2.208843E-01
       442    1.350882E-02
       443    1.172426E-04
       444   -1.851376E-01
       445    8.204967E-05
       446   -2.014325E-05
       447   -6.190642E-05
       448   -1.937231E-07
       449   -1.049925E-03
       450   -3.197518E-07
       451    2.016125E-04
       452    1.173664E-03
       453   -1.375277E-03
       454    4.376154E-06
       455   -4.257003E-03
       456   -1.483745E-06
       457    1.802206E-03
       458    2.142810E-03
       459   -3.945016E-03
       460    1.367307E-05
       461   -2.298904E-03
       462   -1.261751E-05
       463    1.235826E-04
       464   -1.511879E-08
       465    8.392231E-04
       466    6.271238E-05
       467    2.291624E-08
       468   -3.917161E-04
       469   -2.285159E-04
       470   -2.632261E-09
       471   -7.342199E-04
       472   -2.008285E-08
       473   -8.367560E-03
       474   -1.536481E-02
       475   -2.518626E-02
       476    1.852760E-03
       477    1.605815E-03
       478   -1.148412E-02
       479   -1.603351E-03
       480    3.000051E-03
       481   -1.433194E-02
       482   -8.362114E-03
       483   -1.528366E-02
       484   -2.482544E-02
       485    1.848690E-03
       486   -1.597973E-03
       487   -1.148855E-02
       488   -1.645405E-03
       489   -2.947331E-03
       490   -1.435290E-02
 Sym= X
 Ene= -0.870746
 Spin= Alpha
 Occup= -0.870746
         1   -3.505734E-04
         2   -8.044236E-04
         3    1.704363E-03
         4   -1.199319E-03
         5    4.791451E-03
         6   -1.068944E-02
         7    5.270358E-03
         8    3.768704E-04
         9   -1.300473E-01
        10    5.477530E-04
        11    6.959221E-04
        12   -1.282239E-01
        13   -2.224438E-02
        14    1.207633E-03
        15   -5.038501E-02
        16    1.419202E-04
        17   -1.333367E-04
        18   -8.583446E-06
        19   -6.077210E-05
        20    5.985161E-04
        21   -4.124928E-03
        22   -3.987983E-04
        23    2.400617E-04
        24    1.587365E-04
        25   -8.191691E-04
        26    1.780636E-03
        27   -6.880489E-03
        28   -2.120584E-03
        29    1.864237E-03
        30    2.563468E-04
        31    1.842368E-03
        32    6.982023E-03
        33   -6.255916E-03
        34   -5.240061E-06
        35    9.660236E-06
        36    1.083585E-03
        37    4.480108E-07
        38   -8.639291E-06
        39   -5.761063E-04
        40    6.582268E-06
        41   -4.321276E-06
        42   -8.776753E-04
        43    4.895774E-04
        44    7.566061E-05
        45    1.663128E-04
        46    1.187536E-04
        47   -4.300549E-03
        48   -1.474363E-02
        49    9.520009E-03
        50   -1.817065E-03
        51    2.950993E-06
        52   -1.981214E-01
        53   -2.429213E-03
        54   -4.313610E-06
        55   -2.000692E-01
        56   -8.820982E-03
        57   -1.200953E-03
        58   -5.922791E-02
        59    1.920199E-04
        60   -1.911720E-04
        61   -8.479651E-07
        62    1.506573E-07