[Molden Format]
[Title]
ADC(2) - opt by CAM-B3LYP gaussian                                              
[Atoms] AU
 c     1    6 -.12588699998532E+01 -.22834089986974E+01 -.24579904026210E-01
 c     2    6 -.25576598737242E+01 0.00000000000000E+00 -.23328905326240E-01
 c     3    6 -.12588681101271E+01 0.22834089986974E+01 -.24585573204610E-01
 c     4    6 0.13319747639512E+01 0.22851362083829E+01 -.26548998656670E-01
 c     5    6 0.26868460402678E+01 0.00000000000000E+00 -.25991529447470E-01
 c     6    6 0.13319728742250E+01 -.22851362083829E+01 -.26541439752140E-01
 h     7    1 -.22976467859220E+01 -.40383900994038E+01 -.22042001829740E-01
 h     8    1 -.22976448961959E+01 0.40383919891299E+01 -.22053340186540E-01
 h     9    1 0.23511286338561E+01 0.40572968093633E+01 -.28790213850280E-01
 h    10    1 0.23511267441300E+01 -.40572968093633E+01 -.28775096041210E-01
 n    11    7 -.52730224718766E+01 0.00000000000000E+00 -.17674844736640E-01
 o    12    8 -.63812882673039E+01 0.20269372576683E+01 -.15259774738810E-01
 o    13    8 -.63812844878516E+01 -.20269372576683E+01 -.15276782274010E-01
 n    14    7 0.52436643953234E+01 0.00000000000000E+00 -.69084844181800E-01
 h    15    1 0.62047866654136E+01 0.16174392738504E+01 0.18526851385235E+00
 h    16    1 0.62047847756874E+01 -.16174411635765E+01 0.18526473440008E+00
[GTO]
    1 0
 s    6 1.00
 0.13575349682000E+05 0.60645503603591E-03
 0.20352333680000E+04 0.46979088884982E-02
 0.46322562359000E+03 0.24332477647552E-01
 0.13120019598000E+03 0.97399968307759E-01
 0.42853015891000E+02 0.30195584253780E+00
 0.15584185766000E+02 0.66233609137875E+00
 s    2 1.00
 0.62067138508000E+01 0.65595308539952E+00
 0.25764896527000E+01 0.37585633285142E+00
 s    1 1.00
 0.57696339419000E+00 0.10000000000000E+01
 s    1 1.00
 0.22972831358000E+00 0.10000000000000E+01
 s    1 1.00
 0.95164440028000E-01 0.10000000000000E+01
 s    1 1.00
 0.48475401370000E-01 0.10000000000000E+01
 p    4 1.00
 0.34697232244000E+02 0.11327220003114E-01
 0.79582622826000E+01 0.76169659202087E-01
 0.23780826883000E+01 0.30192252202676E+00
 0.81433208183000E+00 0.72785027349547E+00
 p    1 1.00
 0.28887547253000E+00 0.10000000000000E+01
 p    1 1.00
 0.10056823671000E+00 0.10000000000000E+01
 d    1 1.00
 0.10970000000000E+01 0.10000000000000E+01
 d    1 1.00
 0.31800000000000E+00 0.10000000000000E+01
 d    1 1.00
 0.90985336424000E-01 0.10000000000000E+01
 f    1 1.00
 0.76100000000000E+00 0.10000000000000E+01
 
    2 0
 s    6 1.00
 0.13575349682000E+05 0.60645503603591E-03
 0.20352333680000E+04 0.46979088884982E-02
 0.46322562359000E+03 0.24332477647552E-01
 0.13120019598000E+03 0.97399968307759E-01
 0.42853015891000E+02 0.30195584253780E+00
 0.15584185766000E+02 0.66233609137875E+00
 s    2 1.00
 0.62067138508000E+01 0.65595308539952E+00
 0.25764896527000E+01 0.37585633285142E+00
 s    1 1.00
 0.57696339419000E+00 0.10000000000000E+01
 s    1 1.00
 0.22972831358000E+00 0.10000000000000E+01
 s    1 1.00
 0.95164440028000E-01 0.10000000000000E+01
 s    1 1.00
 0.48475401370000E-01 0.10000000000000E+01
 p    4 1.00
 0.34697232244000E+02 0.11327220003114E-01
 0.79582622826000E+01 0.76169659202087E-01
 0.23780826883000E+01 0.30192252202676E+00
 0.81433208183000E+00 0.72785027349547E+00
 p    1 1.00
 0.28887547253000E+00 0.10000000000000E+01
 p    1 1.00
 0.10056823671000E+00 0.10000000000000E+01
 d    1 1.00
 0.10970000000000E+01 0.10000000000000E+01
 d    1 1.00
 0.31800000000000E+00 0.10000000000000E+01
 d    1 1.00
 0.90985336424000E-01 0.10000000000000E+01
 f    1 1.00
 0.76100000000000E+00 0.10000000000000E+01
 
    3 0
 s    6 1.00
 0.13575349682000E+05 0.60645503603591E-03
 0.20352333680000E+04 0.46979088884982E-02
 0.46322562359000E+03 0.24332477647552E-01
 0.13120019598000E+03 0.97399968307759E-01
 0.42853015891000E+02 0.30195584253780E+00
 0.15584185766000E+02 0.66233609137875E+00
 s    2 1.00
 0.62067138508000E+01 0.65595308539952E+00
 0.25764896527000E+01 0.37585633285142E+00
 s    1 1.00
 0.57696339419000E+00 0.10000000000000E+01
 s    1 1.00
 0.22972831358000E+00 0.10000000000000E+01
 s    1 1.00
 0.95164440028000E-01 0.10000000000000E+01
 s    1 1.00
 0.48475401370000E-01 0.10000000000000E+01
 p    4 1.00
 0.34697232244000E+02 0.11327220003114E-01
 0.79582622826000E+01 0.76169659202087E-01
 0.23780826883000E+01 0.30192252202676E+00
 0.81433208183000E+00 0.72785027349547E+00
 p    1 1.00
 0.28887547253000E+00 0.10000000000000E+01
 p    1 1.00
 0.10056823671000E+00 0.10000000000000E+01
 d    1 1.00
 0.10970000000000E+01 0.10000000000000E+01
 d    1 1.00
 0.31800000000000E+00 0.10000000000000E+01
 d    1 1.00
 0.90985336424000E-01 0.10000000000000E+01
 f    1 1.00
 0.76100000000000E+00 0.10000000000000E+01
 
    4 0
 s    6 1.00
 0.13575349682000E+05 0.60645503603591E-03
 0.20352333680000E+04 0.46979088884982E-02
 0.46322562359000E+03 0.24332477647552E-01
 0.13120019598000E+03 0.97399968307759E-01
 0.42853015891000E+02 0.30195584253780E+00
 0.15584185766000E+02 0.66233609137875E+00
 s    2 1.00
 0.62067138508000E+01 0.65595308539952E+00
 0.25764896527000E+01 0.37585633285142E+00
 s    1 1.00
 0.57696339419000E+00 0.10000000000000E+01
 s    1 1.00
 0.22972831358000E+00 0.10000000000000E+01
 s    1 1.00
 0.95164440028000E-01 0.10000000000000E+01
 s    1 1.00
 0.48475401370000E-01 0.10000000000000E+01
 p    4 1.00
 0.34697232244000E+02 0.11327220003114E-01
 0.79582622826000E+01 0.76169659202087E-01
 0.23780826883000E+01 0.30192252202676E+00
 0.81433208183000E+00 0.72785027349547E+00
 p    1 1.00
 0.28887547253000E+00 0.10000000000000E+01
 p    1 1.00
 0.10056823671000E+00 0.10000000000000E+01
 d    1 1.00
 0.10970000000000E+01 0.10000000000000E+01
 d    1 1.00
 0.31800000000000E+00 0.10000000000000E+01
 d    1 1.00
 0.90985336424000E-01 0.10000000000000E+01
 f    1 1.00
 0.76100000000000E+00 0.10000000000000E+01
 
    5 0
 s    6 1.00
 0.13575349682000E+05 0.60645503603591E-03
 0.20352333680000E+04 0.46979088884982E-02
 0.46322562359000E+03 0.24332477647552E-01
 0.13120019598000E+03 0.97399968307759E-01
 0.42853015891000E+02 0.30195584253780E+00
 0.15584185766000E+02 0.66233609137875E+00
 s    2 1.00
 0.62067138508000E+01 0.65595308539952E+00
 0.25764896527000E+01 0.37585633285142E+00
 s    1 1.00
 0.57696339419000E+00 0.10000000000000E+01
 s    1 1.00
 0.22972831358000E+00 0.10000000000000E+01
 s    1 1.00
 0.95164440028000E-01 0.10000000000000E+01
 s    1 1.00
 0.48475401370000E-01 0.10000000000000E+01
 p    4 1.00
 0.34697232244000E+02 0.11327220003114E-01
 0.79582622826000E+01 0.76169659202087E-01
 0.23780826883000E+01 0.30192252202676E+00
 0.81433208183000E+00 0.72785027349547E+00
 p    1 1.00
 0.28887547253000E+00 0.10000000000000E+01
 p    1 1.00
 0.10056823671000E+00 0.10000000000000E+01
 d    1 1.00
 0.10970000000000E+01 0.10000000000000E+01
 d    1 1.00
 0.31800000000000E+00 0.10000000000000E+01
 d    1 1.00
 0.90985336424000E-01 0.10000000000000E+01
 f    1 1.00
 0.76100000000000E+00 0.10000000000000E+01
 
    6 0
 s    6 1.00
 0.13575349682000E+05 0.60645503603591E-03
 0.20352333680000E+04 0.46979088884982E-02
 0.46322562359000E+03 0.24332477647552E-01
 0.13120019598000E+03 0.97399968307759E-01
 0.42853015891000E+02 0.30195584253780E+00
 0.15584185766000E+02 0.66233609137875E+00
 s    2 1.00
 0.62067138508000E+01 0.65595308539952E+00
 0.25764896527000E+01 0.37585633285142E+00
 s    1 1.00
 0.57696339419000E+00 0.10000000000000E+01
 s    1 1.00
 0.22972831358000E+00 0.10000000000000E+01
 s    1 1.00
 0.95164440028000E-01 0.10000000000000E+01
 s    1 1.00
 0.48475401370000E-01 0.10000000000000E+01
 p    4 1.00
 0.34697232244000E+02 0.11327220003114E-01
 0.79582622826000E+01 0.76169659202087E-01
 0.23780826883000E+01 0.30192252202676E+00
 0.81433208183000E+00 0.72785027349547E+00
 p    1 1.00
 0.28887547253000E+00 0.10000000000000E+01
 p    1 1.00
 0.10056823671000E+00 0.10000000000000E+01
 d    1 1.00
 0.10970000000000E+01 0.10000000000000E+01
 d    1 1.00
 0.31800000000000E+00 0.10000000000000E+01
 d    1 1.00
 0.90985336424000E-01 0.10000000000000E+01
 f    1 1.00
 0.76100000000000E+00 0.10000000000000E+01
 
    7 0
 s    3 1.00
 0.34061341000000E+02 0.25439307208879E-01
 0.51235746000000E+01 0.19008594890375E+00
 0.11646626000000E+01 0.85244113011042E+00
 s    1 1.00
 0.32723041000000E+00 0.10000000000000E+01
 s    1 1.00
 0.10307241000000E+00 0.10000000000000E+01
 p    1 1.00
 0.80000000000000E+00 0.10000000000000E+01
 p    1 1.00
 0.95774129632000E-01 0.10000000000000E+01
 
    8 0
 s    3 1.00
 0.34061341000000E+02 0.25439307208879E-01
 0.51235746000000E+01 0.19008594890375E+00
 0.11646626000000E+01 0.85244113011042E+00
 s    1 1.00
 0.32723041000000E+00 0.10000000000000E+01
 s    1 1.00
 0.10307241000000E+00 0.10000000000000E+01
 p    1 1.00
 0.80000000000000E+00 0.10000000000000E+01
 p    1 1.00
 0.95774129632000E-01 0.10000000000000E+01
 
    9 0
 s    3 1.00
 0.34061341000000E+02 0.25439307208879E-01
 0.51235746000000E+01 0.19008594890375E+00
 0.11646626000000E+01 0.85244113011042E+00
 s    1 1.00
 0.32723041000000E+00 0.10000000000000E+01
 s    1 1.00
 0.10307241000000E+00 0.10000000000000E+01
 p    1 1.00
 0.80000000000000E+00 0.10000000000000E+01
 p    1 1.00
 0.95774129632000E-01 0.10000000000000E+01
 
   10 0
 s    3 1.00
 0.34061341000000E+02 0.25439307208879E-01
 0.51235746000000E+01 0.19008594890375E+00
 0.11646626000000E+01 0.85244113011042E+00
 s    1 1.00
 0.32723041000000E+00 0.10000000000000E+01
 s    1 1.00
 0.10307241000000E+00 0.10000000000000E+01
 p    1 1.00
 0.80000000000000E+00 0.10000000000000E+01
 p    1 1.00
 0.95774129632000E-01 0.10000000000000E+01
 
   11 0
 s    6 1.00
 0.19730800647000E+05 0.58626402628763E-03
 0.29578958745000E+04 0.45428820586397E-02
 0.67322133595000E+03 0.23558413450084E-01
 0.19068249494000E+03 0.94709193292923E-01
 0.62295441898000E+02 0.29719784913376E+00
 0.22654161182000E+02 0.66916246895232E+00
 s    2 1.00
 0.89791477428000E+01 0.64596683630063E+00
 0.36863002370000E+01 0.38700574393705E+00
 s    1 1.00
 0.84660076805000E+00 0.10000000000000E+01
 s    1 1.00
 0.33647133771000E+00 0.10000000000000E+01
 s    1 1.00
 0.13647653675000E+00 0.10000000000000E+01
 s    1 1.00
 0.68441605847000E-01 0.10000000000000E+01
 p    4 1.00
 0.49200380510000E+02 0.11448825101764E-01
 0.11346790537000E+02 0.78422337970864E-01
 0.34273972411000E+01 0.30818094738830E+00
 0.11785525134000E+01 0.72027196368413E+00
 p    1 1.00
 0.41642204972000E+00 0.10000000000000E+01
 p    1 1.00
 0.14260826011000E+00 0.10000000000000E+01
 d    1 1.00
 0.16540000000000E+01 0.10000000000000E+01
 d    1 1.00
 0.46900000000000E+00 0.10000000000000E+01
 d    1 1.00
 0.12829642058000E+00 0.10000000000000E+01
 f    1 1.00
 0.10930000000000E+01 0.10000000000000E+01
 
   12 0
 s    6 1.00
 0.27032382631000E+05 0.57227335211155E-03
 0.40523871392000E+04 0.44353233492995E-02
 0.92232722710000E+03 0.23020107706038E-01
 0.26124070989000E+03 0.92822490667928E-01
 0.85354641351000E+02 0.29378500009671E+00
 0.31035035245000E+02 0.67401604501641E+00
 s    2 1.00
 0.12260860728000E+02 0.63839937025506E+00
 0.49987076005000E+01 0.39534587125718E+00
 s    1 1.00
 0.11703108158000E+01 0.10000000000000E+01
 s    1 1.00
 0.46474740994000E+00 0.10000000000000E+01
 s    1 1.00
 0.18504536357000E+00 0.10000000000000E+01
 s    1 1.00
 0.70288026270000E-01 0.10000000000000E+01
 p    4 1.00
 0.63274954801000E+02 0.12018332222616E-01
 0.14627049379000E+02 0.83005421790056E-01
 0.44501223456000E+01 0.31991743925964E+00
 0.15275799647000E+01 0.70715542916104E+00
 p    1 1.00
 0.52935117943000E+00 0.10000000000000E+01
 p    1 1.00
 0.17478421270000E+00 0.10000000000000E+01
 p    1 1.00
 0.51112745706000E-01 0.10000000000000E+01
 d    1 1.00
 0.23140000000000E+01 0.10000000000000E+01
 d    1 1.00
 0.64500000000000E+00 0.10000000000000E+01
 d    1 1.00
 0.14696477366000E+00 0.10000000000000E+01
 f    1 1.00
 0.14280000000000E+01 0.10000000000000E+01
 
   13 0
 s    6 1.00
 0.27032382631000E+05 0.57227335211155E-03
 0.40523871392000E+04 0.44353233492995E-02
 0.92232722710000E+03 0.23020107706038E-01
 0.26124070989000E+03 0.92822490667928E-01
 0.85354641351000E+02 0.29378500009671E+00
 0.31035035245000E+02 0.67401604501641E+00
 s    2 1.00
 0.12260860728000E+02 0.63839937025506E+00
 0.49987076005000E+01 0.39534587125718E+00
 s    1 1.00
 0.11703108158000E+01 0.10000000000000E+01
 s    1 1.00
 0.46474740994000E+00 0.10000000000000E+01
 s    1 1.00
 0.18504536357000E+00 0.10000000000000E+01
 s    1 1.00
 0.70288026270000E-01 0.10000000000000E+01
 p    4 1.00
 0.63274954801000E+02 0.12018332222616E-01
 0.14627049379000E+02 0.83005421790056E-01
 0.44501223456000E+01 0.31991743925964E+00
 0.15275799647000E+01 0.70715542916104E+00
 p    1 1.00
 0.52935117943000E+00 0.10000000000000E+01
 p    1 1.00
 0.17478421270000E+00 0.10000000000000E+01
 p    1 1.00
 0.51112745706000E-01 0.10000000000000E+01
 d    1 1.00
 0.23140000000000E+01 0.10000000000000E+01
 d    1 1.00
 0.64500000000000E+00 0.10000000000000E+01
 d    1 1.00
 0.14696477366000E+00 0.10000000000000E+01
 f    1 1.00
 0.14280000000000E+01 0.10000000000000E+01
 
   14 0
 s    6 1.00
 0.19730800647000E+05 0.58626402628763E-03
 0.29578958745000E+04 0.45428820586397E-02
 0.67322133595000E+03 0.23558413450084E-01
 0.19068249494000E+03 0.94709193292923E-01
 0.62295441898000E+02 0.29719784913376E+00
 0.22654161182000E+02 0.66916246895232E+00
 s    2 1.00
 0.89791477428000E+01 0.64596683630063E+00
 0.36863002370000E+01 0.38700574393705E+00
 s    1 1.00
 0.84660076805000E+00 0.10000000000000E+01
 s    1 1.00
 0.33647133771000E+00 0.10000000000000E+01
 s    1 1.00
 0.13647653675000E+00 0.10000000000000E+01
 s    1 1.00
 0.68441605847000E-01 0.10000000000000E+01
 p    4 1.00
 0.49200380510000E+02 0.11448825101764E-01
 0.11346790537000E+02 0.78422337970864E-01
 0.34273972411000E+01 0.30818094738830E+00
 0.11785525134000E+01 0.72027196368413E+00
 p    1 1.00
 0.41642204972000E+00 0.10000000000000E+01
 p    1 1.00
 0.14260826011000E+00 0.10000000000000E+01
 d    1 1.00
 0.16540000000000E+01 0.10000000000000E+01
 d    1 1.00
 0.46900000000000E+00 0.10000000000000E+01
 d    1 1.00
 0.12829642058000E+00 0.10000000000000E+01
 f    1 1.00
 0.10930000000000E+01 0.10000000000000E+01
 
   15 0
 s    3 1.00
 0.34061341000000E+02 0.25439307208879E-01
 0.51235746000000E+01 0.19008594890375E+00
 0.11646626000000E+01 0.85244113011042E+00
 s    1 1.00
 0.32723041000000E+00 0.10000000000000E+01
 s    1 1.00
 0.10307241000000E+00 0.10000000000000E+01
 p    1 1.00
 0.80000000000000E+00 0.10000000000000E+01
 p    1 1.00
 0.95774129632000E-01 0.10000000000000E+01
 
   16 0
 s    3 1.00
 0.34061341000000E+02 0.25439307208879E-01
 0.51235746000000E+01 0.19008594890375E+00
 0.11646626000000E+01 0.85244113011042E+00
 s    1 1.00
 0.32723041000000E+00 0.10000000000000E+01
 s    1 1.00
 0.10307241000000E+00 0.10000000000000E+01
 p    1 1.00
 0.80000000000000E+00 0.10000000000000E+01
 p    1 1.00
 0.95774129632000E-01 0.10000000000000E+01
 
[MO]
 Sym= X
 Ene= -0.952302
 Spin= Alpha
 Occup= -0.952302
         1   -3.353840E-04
         2   -8.036739E-04
         3   -2.699290E-03
         4    2.722057E-02
         5    2.425635E-01
         6   -3.507861E-02
         7   -2.509477E-02
         8    5.768525E-02
         9   -3.430519E-03
        10   -9.364780E-03
        11    5.002445E-02
        12   -3.339986E-03
        13   -3.529767E-02
        14    9.092948E-02
        15   -7.583264E-04
        16   -2.362795E-03
        17    2.579423E-03
        18   -2.166284E-04
        19   -1.066073E-03
        20   -4.808103E-05
        21   -8.499961E-05
        22    1.374805E-03
        23    1.445058E-03
        24   -2.819863E-03
        25   -2.078412E-03
        26   -7.632366E-05
        27   -1.343975E-04
        28    4.391191E-04
        29    3.748582E-04
        30   -8.139773E-04
        31    1.109283E-02
        32    1.209175E-04
        33    4.769627E-05
        34    1.599921E-04
        35    5.606377E-04
        36    3.070737E-05
        37   -1.932262E-04
        38   -5.827491E-04
        39   -2.319376E-05
        40   -2.142575E-05
        41   -1.694253E-04
        42   -1.800450E-05
        43    6.243085E-06
        44    9.172445E-03
        45    2.071831E-02
        46   -2.947871E-02
        47   -6.314816E-02
        48   -2.215211E-01
        49    3.219933E-02
        50    1.583751E-01
        51    2.229011E-06
        52   -4.072015E-03
        53    1.149599E-01
        54    3.276287E-06
        55   -3.970343E-03
        56   -7.888234E-02
        57   -3.981167E-05
        58   -1.121639E-03
        59   -5.975712E-03
        60    5.300968E-03
        61    6.747441E-04
        62    6.869474E-08
        63   -6.126683E-05
        64    4.523928E-08
        65   -1.537399E-03
        66    1.330152E-03
        67    2.072470E-04
        68   -1.609927E-08
        69   -1.311199E-04
        70   -8.241241E-07
        71    4.453501E-02
        72   -4.566864E-02
        73    1.133631E-03
        74   -1.880707E-06
        75   -2.469316E-04
        76    1.940882E-05
        77    1.124832E-03
        78    2.472233E-08
        79    3.704126E-05
        80   -7.666231E-04
        81   -1.987846E-08
        82   -2.215562E-05
        83   -7.424978E-04
        84   -1.329003E-08
        85   -2.754045E-05
        86   -1.842564E-08
        87   -3.356859E-04
        88   -8.043760E-04
        89   -2.698256E-03
        90    2.722623E-02
        91    2.426663E-01
        92   -3.508302E-02
        93   -2.509906E-02
        94   -5.768650E-02
        95   -3.429771E-03
        96   -9.364388E-03
        97   -5.002417E-02
        98   -3.337592E-03
        99   -3.531255E-02
       100   -9.095410E-02
       101   -7.331304E-04
       102   -2.362887E-03
       103    2.579559E-03
       104   -2.166720E-04
       105    1.066200E-03
       106   -4.803348E-05
       107    8.507475E-05
       108    1.375114E-03
       109    1.444781E-03
       110   -2.819894E-03
       111    2.078349E-03
       112   -7.622494E-05
       113    1.337576E-04
       114    4.438752E-04
       115    3.697286E-04
       116   -8.136038E-04
       117   -1.109299E-02
       118    1.635695E-04
       119   -2.305946E-05
       120    1.600107E-04
       121   -5.606669E-04
       122    3.065179E-05
       123   -1.932483E-04
       124    5.827763E-04
       125   -2.314938E-05
       126   -2.142853E-05
       127    1.694373E-04
       128   -1.797432E-05
       129   -6.188336E-06
       130    1.416812E-03
       131    3.229088E-03
       132   -2.500696E-03
       133   -2.529574E-02
       134   -7.627916E-02
       135    3.141747E-02
       136    3.030737E-02
       137    2.209532E-02
       138   -3.581011E-03
       139    3.778721E-02
       140    1.803081E-02
       141   -3.512115E-03
       142    2.528764E-02
       143    5.079217E-02
       144   -1.940200E-03
       145   -7.059394E-04
       146    5.951128E-04
       147    1.108266E-04
       148    2.154433E-03
       149    4.619753E-05
       150    8.147678E-05
       151   -2.921408E-03
       152    1.068553E-03
       153    1.852855E-03
       154    3.099167E-03
       155    9.837332E-05
       156    1.507339E-04
       157   -5.525159E-03
       158    6.461668E-03
       159   -9.365091E-04
       160   -1.825025E-02
       161    1.768720E-04
       162    9.949716E-05
       163    2.776209E-04
       164    3.539632E-04
       165    3.423911E-05
       166   -1.706887E-04
       167   -4.290572E-04
       168   -2.763622E-05
       169   -2.017788E-04
       170   -4.583426E-05
       171   -1.830037E-05
       172    6.256888E-06
       173    3.721950E-03
       174    8.481066E-03
       175   -1.524925E-02
       176   -7.808940E-03
       177   -4.662402E-02
       178   -3.640712E-02
       179    1.874396E-02
       180   -8.190572E-07
       181   -4.137341E-03
       182    1.151084E-02
       183   -6.130439E-07
       184   -4.002128E-03
       185   -1.058545E-02
       186    8.371653E-06
       187   -8.480802E-04
       188   -2.394929E-04
       189    1.916839E-04
       190    4.780899E-05
       191    5.326573E-08
       192    3.948762E-06
       193    3.437129E-08
       194    1.217537E-04
       195    4.742467E-04
       196   -5.960004E-04
       197    2.145981E-07
       198    6.402896E-05
       199   -2.278995E-07
       200   -1.616298E-02
       201    1.601402E-02
       202    1.489655E-04
       203    3.996632E-06
       204   -2.683354E-04
       205   -2.454700E-05
       206   -2.410089E-05
       207    2.174555E-08
       208    4.375022E-05
       209    8.739257E-05
       210   -2.199058E-08
       211   -3.585194E-05
       212   -5.505782E-05
       213   -7.184136E-09
       214   -2.284513E-05
       215   -1.276819E-09
       216    1.416690E-03
       217    3.228810E-03
       218   -2.500652E-03
       219   -2.529335E-02
       220   -7.628351E-02
       221    3.141680E-02
       222    3.030448E-02
       223   -2.209202E-02
       224   -3.581794E-03
       225    3.778160E-02
       226   -1.802770E-02
       227   -3.512749E-03
       228    2.528680E-02
       229   -5.077156E-02
       230   -1.930032E-03
       231   -7.058393E-04
       232    5.950382E-04
       233    1.108012E-04
       234   -2.154359E-03
       235    4.630957E-05
       236   -8.150662E-05
       237   -2.920447E-03
       238    1.067840E-03
       239    1.852607E-03
       240   -3.098593E-03
       241    9.741930E-05
       242   -1.504659E-04
       243   -5.515316E-03
       244    6.451363E-03
       245   -9.360467E-04
       246    1.825338E-02
       247    1.334876E-04
       248   -1.204588E-04
       249    2.775888E-04
       250   -3.539558E-04
       251    3.424024E-05
       252   -1.706624E-04
       253    4.290595E-04
       254   -2.762431E-05
       255   -2.017620E-04
       256    4.582203E-05
       257   -1.831379E-05
       258   -6.262565E-06
       259   -1.194333E-02
       260   -1.675301E-02
       261   -1.442207E-02
       262   -2.880091E-03
       263   -1.460562E-03
       264   -1.094664E-04
       265   -6.490370E-03
       266    3.547016E-04
       267    4.233808E-05
       268   -1.194277E-02
       269   -1.675239E-02
       270   -1.441897E-02
       271   -2.879993E-03
       272    1.460481E-03
       273   -1.092308E-04
       274   -6.482807E-03
       275   -3.497051E-04
       276    3.452912E-05
       277    1.949364E-02
       278    3.069718E-02
       279    1.507632E-02
       280   -5.101916E-04
       281   -2.738960E-03
       282   -1.209467E-04
       283    8.604028E-03
       284   -3.124993E-03
       285   -1.700480E-04
       286    1.949167E-02
       287    3.069572E-02
       288    1.511457E-02
       289   -5.101252E-04
       290    2.738679E-03
       291   -1.216016E-04
       292    8.593568E-03
       293    3.122736E-03
       294   -1.686582E-04
       295    3.152433E-03
       296    7.319593E-03
       297   -6.616688E-03
       298   -3.934725E-02
       299   -1.665158E-01
       300    1.130948E-02
       301   -1.370026E-01
       302    1.660980E-06
       303    1.163905E-03
       304   -1.264992E-01
       305    1.683874E-06
       306    1.111842E-03
       307   -1.008219E-01
       308    2.985944E-06
       309    2.829125E-04
       310   -1.154145E-02
       311    1.289958E-02
       312   -1.358129E-03
       313   -3.045688E-07
       314   -5.054145E-05
       315   -5.324979E-07
       316   -3.336254E-02
       317    3.436612E-02
       318   -1.003576E-03
       319   -8.530794E-07
       320   -1.290996E-04
       321   -1.153179E-06
       322    1.434505E-02
       323   -4.813490E-03
       324   -9.531556E-03
       325    2.863092E-06
       326   -1.619514E-04
       327    7.369941E-07
       328    4.431759E-05
       329   -7.314797E-08
       330   -6.768270E-06
       331   -4.107399E-04
       332    1.056435E-07
       333   -7.865847E-06
       334    3.512816E-04
       335   -7.505224E-09
       336    1.694643E-05
       337    6.941443E-08
       338   -4.593826E-05
       339   -1.766948E-04
       340   -6.368385E-04
       341   -1.252950E-02
       342   -6.967583E-03
       343   -2.116578E-02
       344    2.986851E-01
       345    4.636500E-02
       346    9.224189E-04
       347    2.626535E-01
       348    4.599015E-02
       349    8.740124E-04
       350    2.005502E-01
       351    4.432238E-02
       352    4.794500E-04
       353    1.568206E-02
       354    8.746209E-03
       355    3.699822E-05
       356    6.896850E-04
       357    1.705060E-04
       358   -8.601911E-04
       359   -2.603762E-03
       360    4.064136E-06
       361   -1.549700E-05
       362    3.018944E-03
       363   -6.308441E-04
       364   -2.388100E-03
       365   -5.872922E-03
       366    1.783283E-05
       367   -4.911125E-05
       368    3.488217E-03
       369   -2.993757E-03
       370   -4.944597E-04
       371   -6.103926E-03
       372    2.729127E-05
       373    7.703816E-06
       374   -3.041768E-04
       375    4.017012E-04
       376   -2.325086E-06
       377    6.400800E-04
       378   -8.428674E-04
       379   -1.477631E-06
       380   -2.319840E-04
       381    3.039286E-04
       382    4.597062E-06
       383   -2.568594E-06
       384   -4.594362E-05
       385   -1.767013E-04
       386   -6.368199E-04
       387   -1.252918E-02
       388   -6.968988E-03
       389   -2.116715E-02
       390    2.987012E-01
       391   -4.637935E-02
       392    9.550799E-04
       393    2.626681E-01
       394   -4.600265E-02
       395    9.024764E-04
       396    2.005642E-01
       397   -4.433041E-02
       398    5.150925E-04
       399    1.568305E-02
       400   -8.746628E-03
       401    3.618800E-05
       402    6.898040E-04
       403    1.703261E-04
       404   -8.601300E-04
       405    2.603737E-03
       406    4.152611E-06
       407    1.575925E-05
       408    3.019367E-03
       409   -6.312868E-04
       410   -2.388080E-03
       411    5.873029E-03
       412    1.788213E-05
       413    5.057454E-05
       414    3.488773E-03
       415   -2.994147E-03
       416   -4.946252E-04
       417    6.104786E-03
       418    2.009722E-05
       419    1.724354E-07
       420   -3.041621E-04
       421   -4.017483E-04
       422   -2.472128E-06
       423    6.400478E-04
       424    8.429188E-04
       425   -1.365396E-06
       426   -2.319715E-04
       427   -3.039169E-04
       428    4.682103E-06
       429    2.605281E-06
       430    4.589833E-04
       431    1.094034E-03
       432   -1.622562E-03
       433   -5.200277E-03
       434    1.801777E-02
       435    2.564847E-02
       436   -7.518058E-03
       437   -4.503015E-07
       438   -3.444998E-03
       439   -5.938177E-03
       440   -6.059990E-07
       441   -3.233483E-03
       442   -2.407896E-03
       443   -6.448244E-07
       444   -1.418895E-03
       445    1.140241E-04
       446   -1.044624E-04
       447   -9.561661E-06
       448   -1.173209E-08
       449    1.763184E-05
       450   -7.734263E-09
       451    1.726880E-04
       452    1.624593E-04
       453   -3.351473E-04
       454    2.757456E-08
       455    7.870921E-05
       456    1.425423E-08
       457   -9.498134E-04
       458    1.013059E-03
       459   -6.324516E-05
       460   -5.898906E-07
       461   -1.001953E-04
       462    1.146969E-06
       463   -2.259029E-05
       464    9.552772E-10
       465    2.309904E-05
       466   -2.041865E-05
       467   -4.047387E-09
       468   -2.454624E-05
       469    5.072671E-05
       470    2.765748E-09
       471   -6.444376E-06
       472    2.586455E-09
       473   -1.994687E-03
       474   -3.533668E-03
       475    2.071273E-04
       476    2.705973E-06
       477    6.330593E-04
       478   -4.045279E-05
       479   -1.675581E-03
       480   -1.161856E-03
       481    4.124119E-04
       482   -1.994340E-03
       483   -3.532555E-03
       484    2.044100E-04
       485    2.590535E-06
       486   -6.329952E-04
       487   -4.043479E-05
       488   -1.676467E-03
       489    1.159133E-03
       490    4.143505E-04
 Sym= X
 Ene= 0.952302
 Spin= Alpha
 Occup= 0.952302
         1   -1.020845E-04
         2   -2.488555E-04
         3    6.836637E-04
         4   -2.526501E-03
         5   -3.920414E-01
         6   -6.769344E-02
         7   -2.738144E-04
         8   -4.221820E-04
         9    9.907219E-02
        10    1.135626E-03
        11   -2.358419E-03
        12    1.043295E-01
        13   -1.462322E-01
        14    1.456051E-01
        15    2.419372E-02
        16    6.959552E-05
        17   -6.074527E-05
        18   -8.850249E-06
        19   -6.357199E-05
        20    7.409434E-05
        21    9.022201E-04
        22   -7.606381E-04
        23    4.937247E-04
        24    2.669135E-04
        25    9.738511E-04
        26   -3.986018E-03
        27   -1.254407E-03
        28   -2.564240E-02
        29    3.147136E-02
        30   -5.828952E-03
        31   -8.149944E-03
        32   -4.838736E-02
        33   -3.413910E-02
        34    2.745001E-06
        35    1.026360E-05
        36   -1.203736E-04
        37   -7.235898E-06
        38   -2.355345E-05
        39   -2.277498E-04
        40    3.553092E-06
        41    9.783391E-06
        42    3.892479E-04
        43    1.561313E-04
        44   -1.121475E-04
        45   -2.779476E-04
        46    7.562573E-04
        47    2.340536E-03
        48   -4.170373E-01
        49    1.141568E-01
        50   -5.990808E-04
        51    1.941645E-06
        52   -1.126677E-02
        53    2.316616E-03
        54   -4.252418E-05
        55   -8.038841E-03
        56   -1.065858E-01
        57   -1.817735E-03
        58   -6.710222E-03
        59   -7.519850E-06
        60    2.897634E-05
        61   -2.145649E-05
        62   -2.153770E-08