[Molden Format]
[Title]
ADC(2) - opt by CAM-B3LYP gaussian                                              
[Atoms] AU
 c     1    6 -.12588699998532E+01 -.22834089986974E+01 -.24579904026210E-01
 c     2    6 -.25576598737242E+01 0.00000000000000E+00 -.23328905326240E-01
 c     3    6 -.12588681101271E+01 0.22834089986974E+01 -.24585573204610E-01
 c     4    6 0.13319747639512E+01 0.22851362083829E+01 -.26548998656670E-01
 c     5    6 0.26868460402678E+01 0.00000000000000E+00 -.25991529447470E-01
 c     6    6 0.13319728742250E+01 -.22851362083829E+01 -.26541439752140E-01
 h     7    1 -.22976467859220E+01 -.40383900994038E+01 -.22042001829740E-01
 h     8    1 -.22976448961959E+01 0.40383919891299E+01 -.22053340186540E-01
 h     9    1 0.23511286338561E+01 0.40572968093633E+01 -.28790213850280E-01
 h    10    1 0.23511267441300E+01 -.40572968093633E+01 -.28775096041210E-01
 n    11    7 -.52730224718766E+01 0.00000000000000E+00 -.17674844736640E-01
 o    12    8 -.63812882673039E+01 0.20269372576683E+01 -.15259774738810E-01
 o    13    8 -.63812844878516E+01 -.20269372576683E+01 -.15276782274010E-01
 n    14    7 0.52436643953234E+01 0.00000000000000E+00 -.69084844181800E-01
 h    15    1 0.62047866654136E+01 0.16174392738504E+01 0.18526851385235E+00
 h    16    1 0.62047847756874E+01 -.16174411635765E+01 0.18526473440008E+00
[GTO]
    1 0
 s    6 1.00
 0.13575349682000E+05 0.60645503603591E-03
 0.20352333680000E+04 0.46979088884982E-02
 0.46322562359000E+03 0.24332477647552E-01
 0.13120019598000E+03 0.97399968307759E-01
 0.42853015891000E+02 0.30195584253780E+00
 0.15584185766000E+02 0.66233609137875E+00
 s    2 1.00
 0.62067138508000E+01 0.65595308539952E+00
 0.25764896527000E+01 0.37585633285142E+00
 s    1 1.00
 0.57696339419000E+00 0.10000000000000E+01
 s    1 1.00
 0.22972831358000E+00 0.10000000000000E+01
 s    1 1.00
 0.95164440028000E-01 0.10000000000000E+01
 s    1 1.00
 0.48475401370000E-01 0.10000000000000E+01
 p    4 1.00
 0.34697232244000E+02 0.11327220003114E-01
 0.79582622826000E+01 0.76169659202087E-01
 0.23780826883000E+01 0.30192252202676E+00
 0.81433208183000E+00 0.72785027349547E+00
 p    1 1.00
 0.28887547253000E+00 0.10000000000000E+01
 p    1 1.00
 0.10056823671000E+00 0.10000000000000E+01
 d    1 1.00
 0.10970000000000E+01 0.10000000000000E+01
 d    1 1.00
 0.31800000000000E+00 0.10000000000000E+01
 d    1 1.00
 0.90985336424000E-01 0.10000000000000E+01
 f    1 1.00
 0.76100000000000E+00 0.10000000000000E+01
 
    2 0
 s    6 1.00
 0.13575349682000E+05 0.60645503603591E-03
 0.20352333680000E+04 0.46979088884982E-02
 0.46322562359000E+03 0.24332477647552E-01
 0.13120019598000E+03 0.97399968307759E-01
 0.42853015891000E+02 0.30195584253780E+00
 0.15584185766000E+02 0.66233609137875E+00
 s    2 1.00
 0.62067138508000E+01 0.65595308539952E+00
 0.25764896527000E+01 0.37585633285142E+00
 s    1 1.00
 0.57696339419000E+00 0.10000000000000E+01
 s    1 1.00
 0.22972831358000E+00 0.10000000000000E+01
 s    1 1.00
 0.95164440028000E-01 0.10000000000000E+01
 s    1 1.00
 0.48475401370000E-01 0.10000000000000E+01
 p    4 1.00
 0.34697232244000E+02 0.11327220003114E-01
 0.79582622826000E+01 0.76169659202087E-01
 0.23780826883000E+01 0.30192252202676E+00
 0.81433208183000E+00 0.72785027349547E+00
 p    1 1.00
 0.28887547253000E+00 0.10000000000000E+01
 p    1 1.00
 0.10056823671000E+00 0.10000000000000E+01
 d    1 1.00
 0.10970000000000E+01 0.10000000000000E+01
 d    1 1.00
 0.31800000000000E+00 0.10000000000000E+01
 d    1 1.00
 0.90985336424000E-01 0.10000000000000E+01
 f    1 1.00
 0.76100000000000E+00 0.10000000000000E+01
 
    3 0
 s    6 1.00
 0.13575349682000E+05 0.60645503603591E-03
 0.20352333680000E+04 0.46979088884982E-02
 0.46322562359000E+03 0.24332477647552E-01
 0.13120019598000E+03 0.97399968307759E-01
 0.42853015891000E+02 0.30195584253780E+00
 0.15584185766000E+02 0.66233609137875E+00
 s    2 1.00
 0.62067138508000E+01 0.65595308539952E+00
 0.25764896527000E+01 0.37585633285142E+00
 s    1 1.00
 0.57696339419000E+00 0.10000000000000E+01
 s    1 1.00
 0.22972831358000E+00 0.10000000000000E+01
 s    1 1.00
 0.95164440028000E-01 0.10000000000000E+01
 s    1 1.00
 0.48475401370000E-01 0.10000000000000E+01
 p    4 1.00
 0.34697232244000E+02 0.11327220003114E-01
 0.79582622826000E+01 0.76169659202087E-01
 0.23780826883000E+01 0.30192252202676E+00
 0.81433208183000E+00 0.72785027349547E+00
 p    1 1.00
 0.28887547253000E+00 0.10000000000000E+01
 p    1 1.00
 0.10056823671000E+00 0.10000000000000E+01
 d    1 1.00
 0.10970000000000E+01 0.10000000000000E+01
 d    1 1.00
 0.31800000000000E+00 0.10000000000000E+01
 d    1 1.00
 0.90985336424000E-01 0.10000000000000E+01
 f    1 1.00
 0.76100000000000E+00 0.10000000000000E+01
 
    4 0
 s    6 1.00
 0.13575349682000E+05 0.60645503603591E-03
 0.20352333680000E+04 0.46979088884982E-02
 0.46322562359000E+03 0.24332477647552E-01
 0.13120019598000E+03 0.97399968307759E-01
 0.42853015891000E+02 0.30195584253780E+00
 0.15584185766000E+02 0.66233609137875E+00
 s    2 1.00
 0.62067138508000E+01 0.65595308539952E+00
 0.25764896527000E+01 0.37585633285142E+00
 s    1 1.00
 0.57696339419000E+00 0.10000000000000E+01
 s    1 1.00
 0.22972831358000E+00 0.10000000000000E+01
 s    1 1.00
 0.95164440028000E-01 0.10000000000000E+01
 s    1 1.00
 0.48475401370000E-01 0.10000000000000E+01
 p    4 1.00
 0.34697232244000E+02 0.11327220003114E-01
 0.79582622826000E+01 0.76169659202087E-01
 0.23780826883000E+01 0.30192252202676E+00
 0.81433208183000E+00 0.72785027349547E+00
 p    1 1.00
 0.28887547253000E+00 0.10000000000000E+01
 p    1 1.00
 0.10056823671000E+00 0.10000000000000E+01
 d    1 1.00
 0.10970000000000E+01 0.10000000000000E+01
 d    1 1.00
 0.31800000000000E+00 0.10000000000000E+01
 d    1 1.00
 0.90985336424000E-01 0.10000000000000E+01
 f    1 1.00
 0.76100000000000E+00 0.10000000000000E+01
 
    5 0
 s    6 1.00
 0.13575349682000E+05 0.60645503603591E-03
 0.20352333680000E+04 0.46979088884982E-02
 0.46322562359000E+03 0.24332477647552E-01
 0.13120019598000E+03 0.97399968307759E-01
 0.42853015891000E+02 0.30195584253780E+00
 0.15584185766000E+02 0.66233609137875E+00
 s    2 1.00
 0.62067138508000E+01 0.65595308539952E+00
 0.25764896527000E+01 0.37585633285142E+00
 s    1 1.00
 0.57696339419000E+00 0.10000000000000E+01
 s    1 1.00
 0.22972831358000E+00 0.10000000000000E+01
 s    1 1.00
 0.95164440028000E-01 0.10000000000000E+01
 s    1 1.00
 0.48475401370000E-01 0.10000000000000E+01
 p    4 1.00
 0.34697232244000E+02 0.11327220003114E-01
 0.79582622826000E+01 0.76169659202087E-01
 0.23780826883000E+01 0.30192252202676E+00
 0.81433208183000E+00 0.72785027349547E+00
 p    1 1.00
 0.28887547253000E+00 0.10000000000000E+01
 p    1 1.00
 0.10056823671000E+00 0.10000000000000E+01
 d    1 1.00
 0.10970000000000E+01 0.10000000000000E+01
 d    1 1.00
 0.31800000000000E+00 0.10000000000000E+01
 d    1 1.00
 0.90985336424000E-01 0.10000000000000E+01
 f    1 1.00
 0.76100000000000E+00 0.10000000000000E+01
 
    6 0
 s    6 1.00
 0.13575349682000E+05 0.60645503603591E-03
 0.20352333680000E+04 0.46979088884982E-02
 0.46322562359000E+03 0.24332477647552E-01
 0.13120019598000E+03 0.97399968307759E-01
 0.42853015891000E+02 0.30195584253780E+00
 0.15584185766000E+02 0.66233609137875E+00
 s    2 1.00
 0.62067138508000E+01 0.65595308539952E+00
 0.25764896527000E+01 0.37585633285142E+00
 s    1 1.00
 0.57696339419000E+00 0.10000000000000E+01
 s    1 1.00
 0.22972831358000E+00 0.10000000000000E+01
 s    1 1.00
 0.95164440028000E-01 0.10000000000000E+01
 s    1 1.00
 0.48475401370000E-01 0.10000000000000E+01
 p    4 1.00
 0.34697232244000E+02 0.11327220003114E-01
 0.79582622826000E+01 0.76169659202087E-01
 0.23780826883000E+01 0.30192252202676E+00
 0.81433208183000E+00 0.72785027349547E+00
 p    1 1.00
 0.28887547253000E+00 0.10000000000000E+01
 p    1 1.00
 0.10056823671000E+00 0.10000000000000E+01
 d    1 1.00
 0.10970000000000E+01 0.10000000000000E+01
 d    1 1.00
 0.31800000000000E+00 0.10000000000000E+01
 d    1 1.00
 0.90985336424000E-01 0.10000000000000E+01
 f    1 1.00
 0.76100000000000E+00 0.10000000000000E+01
 
    7 0
 s    3 1.00
 0.34061341000000E+02 0.25439307208879E-01
 0.51235746000000E+01 0.19008594890375E+00
 0.11646626000000E+01 0.85244113011042E+00
 s    1 1.00
 0.32723041000000E+00 0.10000000000000E+01
 s    1 1.00
 0.10307241000000E+00 0.10000000000000E+01
 p    1 1.00
 0.80000000000000E+00 0.10000000000000E+01
 p    1 1.00
 0.95774129632000E-01 0.10000000000000E+01
 
    8 0
 s    3 1.00
 0.34061341000000E+02 0.25439307208879E-01
 0.51235746000000E+01 0.19008594890375E+00
 0.11646626000000E+01 0.85244113011042E+00
 s    1 1.00
 0.32723041000000E+00 0.10000000000000E+01
 s    1 1.00
 0.10307241000000E+00 0.10000000000000E+01
 p    1 1.00
 0.80000000000000E+00 0.10000000000000E+01
 p    1 1.00
 0.95774129632000E-01 0.10000000000000E+01
 
    9 0
 s    3 1.00
 0.34061341000000E+02 0.25439307208879E-01
 0.51235746000000E+01 0.19008594890375E+00
 0.11646626000000E+01 0.85244113011042E+00
 s    1 1.00
 0.32723041000000E+00 0.10000000000000E+01
 s    1 1.00
 0.10307241000000E+00 0.10000000000000E+01
 p    1 1.00
 0.80000000000000E+00 0.10000000000000E+01
 p    1 1.00
 0.95774129632000E-01 0.10000000000000E+01
 
   10 0
 s    3 1.00
 0.34061341000000E+02 0.25439307208879E-01
 0.51235746000000E+01 0.19008594890375E+00
 0.11646626000000E+01 0.85244113011042E+00
 s    1 1.00
 0.32723041000000E+00 0.10000000000000E+01
 s    1 1.00
 0.10307241000000E+00 0.10000000000000E+01
 p    1 1.00
 0.80000000000000E+00 0.10000000000000E+01
 p    1 1.00
 0.95774129632000E-01 0.10000000000000E+01
 
   11 0
 s    6 1.00
 0.19730800647000E+05 0.58626402628763E-03
 0.29578958745000E+04 0.45428820586397E-02
 0.67322133595000E+03 0.23558413450084E-01
 0.19068249494000E+03 0.94709193292923E-01
 0.62295441898000E+02 0.29719784913376E+00
 0.22654161182000E+02 0.66916246895232E+00
 s    2 1.00
 0.89791477428000E+01 0.64596683630063E+00
 0.36863002370000E+01 0.38700574393705E+00
 s    1 1.00
 0.84660076805000E+00 0.10000000000000E+01
 s    1 1.00
 0.33647133771000E+00 0.10000000000000E+01
 s    1 1.00
 0.13647653675000E+00 0.10000000000000E+01
 s    1 1.00
 0.68441605847000E-01 0.10000000000000E+01
 p    4 1.00
 0.49200380510000E+02 0.11448825101764E-01
 0.11346790537000E+02 0.78422337970864E-01
 0.34273972411000E+01 0.30818094738830E+00
 0.11785525134000E+01 0.72027196368413E+00
 p    1 1.00
 0.41642204972000E+00 0.10000000000000E+01
 p    1 1.00
 0.14260826011000E+00 0.10000000000000E+01
 d    1 1.00
 0.16540000000000E+01 0.10000000000000E+01
 d    1 1.00
 0.46900000000000E+00 0.10000000000000E+01
 d    1 1.00
 0.12829642058000E+00 0.10000000000000E+01
 f    1 1.00
 0.10930000000000E+01 0.10000000000000E+01
 
   12 0
 s    6 1.00
 0.27032382631000E+05 0.57227335211155E-03
 0.40523871392000E+04 0.44353233492995E-02
 0.92232722710000E+03 0.23020107706038E-01
 0.26124070989000E+03 0.92822490667928E-01
 0.85354641351000E+02 0.29378500009671E+00
 0.31035035245000E+02 0.67401604501641E+00
 s    2 1.00
 0.12260860728000E+02 0.63839937025506E+00
 0.49987076005000E+01 0.39534587125718E+00
 s    1 1.00
 0.11703108158000E+01 0.10000000000000E+01
 s    1 1.00
 0.46474740994000E+00 0.10000000000000E+01
 s    1 1.00
 0.18504536357000E+00 0.10000000000000E+01
 s    1 1.00
 0.70288026270000E-01 0.10000000000000E+01
 p    4 1.00
 0.63274954801000E+02 0.12018332222616E-01
 0.14627049379000E+02 0.83005421790056E-01
 0.44501223456000E+01 0.31991743925964E+00
 0.15275799647000E+01 0.70715542916104E+00
 p    1 1.00
 0.52935117943000E+00 0.10000000000000E+01
 p    1 1.00
 0.17478421270000E+00 0.10000000000000E+01
 p    1 1.00
 0.51112745706000E-01 0.10000000000000E+01
 d    1 1.00
 0.23140000000000E+01 0.10000000000000E+01
 d    1 1.00
 0.64500000000000E+00 0.10000000000000E+01
 d    1 1.00
 0.14696477366000E+00 0.10000000000000E+01
 f    1 1.00
 0.14280000000000E+01 0.10000000000000E+01
 
   13 0
 s    6 1.00
 0.27032382631000E+05 0.57227335211155E-03
 0.40523871392000E+04 0.44353233492995E-02
 0.92232722710000E+03 0.23020107706038E-01
 0.26124070989000E+03 0.92822490667928E-01
 0.85354641351000E+02 0.29378500009671E+00
 0.31035035245000E+02 0.67401604501641E+00
 s    2 1.00
 0.12260860728000E+02 0.63839937025506E+00
 0.49987076005000E+01 0.39534587125718E+00
 s    1 1.00
 0.11703108158000E+01 0.10000000000000E+01
 s    1 1.00
 0.46474740994000E+00 0.10000000000000E+01
 s    1 1.00
 0.18504536357000E+00 0.10000000000000E+01
 s    1 1.00
 0.70288026270000E-01 0.10000000000000E+01
 p    4 1.00
 0.63274954801000E+02 0.12018332222616E-01
 0.14627049379000E+02 0.83005421790056E-01
 0.44501223456000E+01 0.31991743925964E+00
 0.15275799647000E+01 0.70715542916104E+00
 p    1 1.00
 0.52935117943000E+00 0.10000000000000E+01
 p    1 1.00
 0.17478421270000E+00 0.10000000000000E+01
 p    1 1.00
 0.51112745706000E-01 0.10000000000000E+01
 d    1 1.00
 0.23140000000000E+01 0.10000000000000E+01
 d    1 1.00
 0.64500000000000E+00 0.10000000000000E+01
 d    1 1.00
 0.14696477366000E+00 0.10000000000000E+01
 f    1 1.00
 0.14280000000000E+01 0.10000000000000E+01
 
   14 0
 s    6 1.00
 0.19730800647000E+05 0.58626402628763E-03
 0.29578958745000E+04 0.45428820586397E-02
 0.67322133595000E+03 0.23558413450084E-01
 0.19068249494000E+03 0.94709193292923E-01
 0.62295441898000E+02 0.29719784913376E+00
 0.22654161182000E+02 0.66916246895232E+00
 s    2 1.00
 0.89791477428000E+01 0.64596683630063E+00
 0.36863002370000E+01 0.38700574393705E+00
 s    1 1.00
 0.84660076805000E+00 0.10000000000000E+01
 s    1 1.00
 0.33647133771000E+00 0.10000000000000E+01
 s    1 1.00
 0.13647653675000E+00 0.10000000000000E+01
 s    1 1.00
 0.68441605847000E-01 0.10000000000000E+01
 p    4 1.00
 0.49200380510000E+02 0.11448825101764E-01
 0.11346790537000E+02 0.78422337970864E-01
 0.34273972411000E+01 0.30818094738830E+00
 0.11785525134000E+01 0.72027196368413E+00
 p    1 1.00
 0.41642204972000E+00 0.10000000000000E+01
 p    1 1.00
 0.14260826011000E+00 0.10000000000000E+01
 d    1 1.00
 0.16540000000000E+01 0.10000000000000E+01
 d    1 1.00
 0.46900000000000E+00 0.10000000000000E+01
 d    1 1.00
 0.12829642058000E+00 0.10000000000000E+01
 f    1 1.00
 0.10930000000000E+01 0.10000000000000E+01
 
   15 0
 s    3 1.00
 0.34061341000000E+02 0.25439307208879E-01
 0.51235746000000E+01 0.19008594890375E+00
 0.11646626000000E+01 0.85244113011042E+00
 s    1 1.00
 0.32723041000000E+00 0.10000000000000E+01
 s    1 1.00
 0.10307241000000E+00 0.10000000000000E+01
 p    1 1.00
 0.80000000000000E+00 0.10000000000000E+01
 p    1 1.00
 0.95774129632000E-01 0.10000000000000E+01
 
   16 0
 s    3 1.00
 0.34061341000000E+02 0.25439307208879E-01
 0.51235746000000E+01 0.19008594890375E+00
 0.11646626000000E+01 0.85244113011042E+00
 s    1 1.00
 0.32723041000000E+00 0.10000000000000E+01
 s    1 1.00
 0.10307241000000E+00 0.10000000000000E+01
 p    1 1.00
 0.80000000000000E+00 0.10000000000000E+01
 p    1 1.00
 0.95774129632000E-01 0.10000000000000E+01
 
[MO]
 Sym= X
 Ene= -0.948140
 Spin= Alpha
 Occup= -0.948140
         1   -1.775703E-04
         2   -4.129686E-04
         3    1.135608E-03
         4   -2.355781E-03
         5   -1.089034E-02
         6   -1.053356E-02
         7    1.835500E-03
         8    1.829852E-04
         9    1.230400E-02
        10   -2.020626E-03
        11    3.768392E-04
        12    1.065021E-02
        13   -3.306931E-02
        14    8.844397E-03
        15   -6.531219E-04
        16    1.398199E-05
        17   -2.414372E-05
        18    1.016173E-05
        19   -1.325750E-05
        20   -6.391977E-03
        21    3.508863E-03
        22   -6.039385E-04
        23    3.599383E-04
        24    2.440002E-04
        25   -6.654643E-04
        26   -1.432374E-02
        27    6.698873E-03
        28   -4.775477E-03
        29    4.462796E-03
        30    3.126808E-04
        31    1.067304E-03
        32    1.892746E-03
        33   -1.024204E-02
        34   -1.736775E-05
        35    6.299277E-06
        36   -4.179908E-06
        37    7.214347E-06
        38   -6.351539E-06
        39   -7.662641E-04
        40    1.608694E-05
        41   -2.099828E-06
        42    7.718721E-04
        43   -6.688333E-04
        44    2.992288E-05
        45    6.569088E-05
        46    1.117988E-04
        47   -2.605836E-03
        48   -4.651859E-02
        49    5.331672E-03
        50    1.619673E-04
        51    1.575349E-06
        52    1.885400E-01
        53   -5.520907E-04
        54    2.169024E-05
        55    1.961296E-01
        56   -1.548572E-02
        57   -1.581106E-03
        58    1.957266E-01
        59    5.026688E-05
        60   -4.812282E-05
        61   -2.144055E-06
        62    1.382895E-07
        63   -1.133116E-03
        64    1.283112E-06
        65    3.698730E-04
        66   -6.026013E-04
        67    2.327284E-04
        68    4.847301E-06
        69   -4.118691E-03
        70    2.074562E-06
        71    8.388647E-03
        72   -9.404023E-03
        73    1.015376E-03
        74   -2.630435E-04
        75    4.442676E-03
        76   -2.673007E-05
        77    6.012031E-06
        78    3.315635E-08
        79   -1.027187E-03
        80   -5.877835E-06
        81    5.132806E-08
        82    6.519526E-04
        83   -2.188151E-06
        84   -9.581197E-08
        85    7.261629E-04
        86    1.463396E-07
        87   -1.776887E-04
        88   -4.133731E-04
        89    1.144929E-03
        90   -2.439869E-03
        91   -8.190033E-03
        92   -1.046050E-02
        93    1.837500E-03
        94   -1.859562E-04
        95    1.236478E-02
        96   -2.005654E-03
        97   -3.636674E-04
        98    1.070820E-02
        99   -3.410302E-02
       100   -1.051219E-02
       101   -5.175937E-04
       102    1.378363E-05
       103   -2.414595E-05
       104    1.036232E-05
       105    1.361266E-05
       106   -6.391201E-03
       107   -3.509109E-03
       108   -5.999039E-04
       109    3.544736E-04
       110    2.454304E-04
       111    6.619778E-04
       112   -1.431980E-02
       113   -6.698567E-03
       114   -5.068098E-03
       115    4.786984E-03
       116    2.811141E-04
       117   -8.464620E-04
       118    1.885890E-03
       119    1.019405E-02
       120   -1.755504E-05
       121   -6.278335E-06
       122   -4.500575E-06
       123    7.534259E-06
       124    6.348001E-06
       125   -7.659189E-04
       126    1.601830E-05
       127    2.075270E-06
       128    7.719571E-04
       129    6.687803E-04
       130    1.171739E-04
       131    2.533498E-04
       132    5.152546E-04
       133   -9.708779E-03
       134    2.763618E-02
       135    1.181154E-02
       136   -1.550799E-03
       137    6.324694E-04
       138   -1.617860E-01
       139   -8.722467E-03
       140    5.742847E-03
       141   -1.644652E-01
       142   -2.386019E-02
       143   -6.674687E-03
       144   -9.762650E-02
       145    1.491125E-04
       146   -1.770195E-04
       147    2.790693E-05
       148   -4.282868E-06
       149   -5.758185E-04
       150    3.089768E-03
       151    5.877165E-04
       152   -7.080242E-04
       153    1.203077E-04
       154    1.584658E-03
       155   -3.582039E-03
       156    5.203001E-03
       157    7.935310E-03
       158   -6.301382E-03
       159   -1.633928E-03
       160   -7.915040E-03
       161    3.481869E-03
       162   -1.230158E-02
       163   -1.470736E-05
       164    9.071086E-06
       165    9.374673E-04
       166   -1.812915E-05
       167    1.543849E-05
       168   -2.893004E-04
       169    3.786114E-05
       170   -2.760863E-05
       171   -9.684440E-04
       172    3.350984E-04
       173   -1.024666E-03
       174   -2.337210E-03
       175    2.427886E-03
       176    1.991965E-02
       177   -1.397885E-02
       178    8.446016E-03
       179    8.714817E-03
       180    5.054770E-07
       181   -1.165658E-01
       182    5.538082E-04
       183   -1.434733E-05
       184   -1.190345E-01
       185   -2.385531E-02
       186    1.631932E-03
       187   -1.323324E-01
       188    4.655386E-04
       189   -2.695844E-04
       190   -1.959541E-04
       191    1.147761E-07
       192    1.014636E-02
       193    1.103485E-06
       194   -1.741086E-03
       195    3.800004E-03
       196   -2.058918E-03
       197    3.821955E-06
       198    2.512012E-02
       199   -1.288800E-06
       200   -5.269604E-03
       201    6.418171E-03
       202   -1.148567E-03
       203   -3.116065E-04
       204    1.955678E-02
       205    1.071118E-05
       206    1.075089E-04
       207    3.338752E-08
       208    3.744425E-04
       209   -7.468848E-05
       210   -1.129441E-07
       211    1.021562E-03
       212   -6.954987E-05
       213    6.814999E-08
       214   -1.523930E-03
       215   -2.424667E-08
       216    1.179191E-04
       217    2.548433E-04
       218    5.200602E-04
       219   -9.796682E-03
       220    3.061309E-02
       221    1.184616E-02
       222   -1.551883E-03
       223   -6.254119E-04
       224   -1.618316E-01
       225   -8.726497E-03
       226   -5.757010E-03
       227   -1.645214E-01
       228   -2.271536E-02
       229    8.586098E-03
       230   -9.754644E-02
       231    1.488297E-04
       232   -1.775658E-04
       233    2.873609E-05
       234    4.396311E-06
       235   -5.744810E-04
       236   -3.090015E-03
       237    5.897048E-04
       238   -7.108829E-04
       239    1.211781E-04
       240   -1.586914E-03
       241   -3.577917E-03
       242   -5.202987E-03
       243    7.626600E-03
       244   -5.975404E-03
       245   -1.651196E-03
       246    8.167126E-03
       247    3.495520E-03
       248    1.235958E-02
       249   -1.461785E-05
       250   -9.132887E-06
       251    9.380344E-04
       252   -1.838217E-05
       253   -1.535444E-05
       254   -2.899001E-04
       255    3.799408E-05
       256    2.760750E-05
       257   -9.686052E-04
       258   -3.351008E-04
       259   -4.105144E-04
       260   -3.214823E-04
       261   -1.647066E-02
       262   -1.169475E-05
       263   -1.247800E-05
       264    5.289881E-04
       265   -4.933689E-03
       266   -3.049774E-04
       267   -6.505203E-03
       268   -4.129024E-04
       269   -3.158134E-04
       270   -1.623921E-02
       271   -1.053968E-05
       272    1.184437E-05
       273    5.318355E-04
       274   -5.088464E-03
       275    1.761206E-04
       276   -6.471167E-03
       277   -4.909300E-04
       278   -2.358868E-03
       279    3.194399E-02
       280   -8.320917E-06
       281    1.091944E-04
       282   -6.513996E-03
       283   -1.789217E-03
       284   -2.497279E-03
       285    1.809974E-03
       286   -4.957181E-04
       287   -2.360735E-03
       288    3.236854E-02
       289   -7.966212E-06
       290   -1.091914E-04
       291   -6.516416E-03
       292   -1.661516E-03
       293    2.653155E-03
       294    1.841974E-03
       295   -5.519976E-05
       296   -1.286515E-04
       297    1.264226E-04
       298    5.057612E-04
       299   -6.149117E-03
       300    7.890172E-04
       301    6.599654E-04
       302   -4.361370E-07
       303    2.873710E-02
       304    3.564185E-04
       305    1.899221E-07
       306    3.074531E-02
       307   -2.759351E-03
       308    3.611216E-05
       309    1.134929E-02
       310    2.871428E-05
       311   -1.716686E-05
       312   -1.154742E-05
       313    7.572502E-08
       314    4.095677E-03
       315    8.954119E-08
       316    3.061017E-05
       317    2.801633E-05
       318   -5.862650E-05
       319   -2.913983E-07
       320    1.248371E-02
       321    6.892287E-08
       322   -9.813509E-04
       323    2.652364E-03
       324   -1.671013E-03
       325    4.609145E-05
       326    2.942713E-03
       327    3.890036E-06
       328    6.595283E-06
       329    2.558144E-08
       330   -4.333259E-05
       331   -4.006099E-06
       332   -1.102085E-08
       333    6.733160E-04
       334   -4.842402E-06
       335   -2.330025E-08
       336   -6.151793E-04
       337    1.863959E-08
       338   -1.311228E-05
       339   -2.871784E-05
       340    2.707498E-06
       341    4.966033E-04
       342   -5.419071E-03
       343   -8.058980E-04
       344   -4.290972E-04
       345    1.057546E-04
       346   -7.017200E-02
       347   -4.790409E-04
       348    2.223933E-04
       349   -6.521546E-02
       350   -1.540251E-03
       351    4.323113E-04
       352   -5.505845E-02
       353   -1.672769E-04
       354    1.864765E-04
       355   -7.166960E-03
       356    3.728745E-06
       357   -5.195066E-06
       358    1.466321E-06
       359    2.093817E-06
       360    7.786694E-05
       361    3.253125E-04
       362   -1.225211E-05
       363   -1.155735E-05
       364    2.380946E-05
       365    1.384976E-05
       366   -2.817543E-04
       367    1.150343E-03
       368   -7.759842E-05
       369    5.446726E-05
       370    2.313117E-05
       371    8.882193E-05
       372    5.472052E-06
       373    1.178772E-04
       374    1.016974E-06
       375    1.499731E-06
       376    3.823053E-05
       377   -1.881827E-06
       378   -7.299251E-08
       379    7.812580E-05
       380    5.174130E-07
       381   -1.939108E-06
       382   -1.294174E-04
       383    9.762588E-05
       384   -1.300153E-05
       385   -2.848592E-05
       386    2.839950E-06
       387    4.920835E-04
       388   -5.434529E-03
       389   -7.666366E-04
       390   -4.289167E-04
       391   -1.033880E-04
       392   -7.017288E-02
       393   -4.793721E-04
       394   -2.197393E-04
       395   -6.521635E-02
       396   -1.496843E-03
       397   -4.355476E-04
       398   -5.505465E-02
       399   -1.493712E-04
       400   -1.911895E-04
       401   -7.173384E-03
       402    3.661277E-06
       403   -5.152352E-06
       404    1.491075E-06
       405   -2.145591E-06
       406    7.780536E-05
       407   -3.253266E-04
       408   -1.182984E-05
       409   -1.154665E-05
       410    2.337649E-05
       411   -1.338426E-05
       412   -2.817301E-04
       413   -1.150356E-03
       414   -7.745291E-05
       415    5.561159E-05
       416    2.184132E-05
       417   -8.734322E-05
       418    4.151574E-06
       419   -1.176094E-04
       420    1.013672E-06
       421   -1.488154E-06
       422    3.824177E-05
       423   -1.862514E-06
       424    6.807964E-08
       425    7.811689E-05
       426    5.025297E-07
       427    1.928488E-06
       428   -1.294236E-04
       429   -9.763601E-05
       430    4.343037E-03
       431    1.033157E-02
       432   -1.617732E-02
       433   -2.504346E-02
       434   -2.043580E-02
       435   -6.456982E-02
       436   -1.606118E-02
       437    1.049502E-05
       438    2.528066E-01
       439   -1.844782E-02
       440   -1.643415E-06
       441    2.499818E-01
       442   -1.704812E-02
       443   -1.309723E-04
       444    2.051195E-01
       445   -8.667316E-05
       446   -2.488781E-06
       447    8.916194E-05
       448    2.469774E-07
       449    8.137040E-04
       450    3.681770E-07
       451   -1.783808E-04
       452   -1.423271E-03
       453    1.601651E-03
       454   -4.945991E-06
       455    3.769383E-03
       456    1.644347E-06
       457   -1.637785E-03
       458   -2.812779E-03
       459    4.450564E-03
       460   -1.557494E-05
       461    2.248561E-03
       462    1.354168E-05
       463   -1.353518E-04
       464    1.948628E-08
       465   -9.995336E-04
       466   -7.568363E-05
       467   -2.458558E-08
       468    5.286722E-04
       469    2.572771E-04
       470   -1.558004E-09
       471    8.123428E-04
       472    2.318079E-08
       473    9.018818E-03
       474    1.693421E-02
       475    2.807901E-02
       476   -2.134538E-03
       477   -1.800216E-03
       478    1.286647E-02
       479    1.258294E-03
       480   -3.262308E-03
       481    1.494885E-02
       482    9.012061E-03
       483    1.684158E-02
       484    2.767648E-02
       485   -2.129813E-03
       486    1.791317E-03
       487    1.287138E-02
       488    1.305064E-03
       489    3.202510E-03
       490    1.497281E-02
 Sym= X
 Ene= 0.948140
 Spin= Alpha
 Occup= 0.948140
         1   -1.117797E-02
         2   -2.488289E-02
         3    8.909821E-03
         4    4.000674E-01
         5    5.416673E+00
         6   -7.078202E+00
         7   -4.925866E-03
         8   -1.518239E-02
         9    4.719288E-04
        10    9.485139E-02
        11    5.761441E-03
        12   -1.896587E-03
        13   -7.507123E-01
        14   -6.318345E-01
        15   -2.582430E-02
        16    1.352923E-03
        17    6.013590E-04
        18   -1.954281E-03
        19    4.235474E-04
        20    1.561367E-04
        21    3.323129E-05
        22    3.302022E-02
        23   -1.675861E-02
        24   -1.626161E-02
        25   -1.264117E-02
        26   -5.533154E-04
        27   -8.171184E-05
        28   -6.732153E-03
        29   -1.419760E-01
        30    1.487081E-01
        31    1.458325E+00
        32    6.991108E-03
        33   -1.966182E-02
        34    8.090922E-04
        35    1.054707E-04
        36   -2.406253E-05
        37   -6.229450E-04
        38    4.013187E-05
        39    1.570203E-05
        40   -4.625662E-04
        41   -1.816356E-04
        42    1.658124E-05
        43   -1.729059E-06
        44   -3.251939E-03
        45   -6.488852E-03
        46   -1.035943E-02
        47    2.219076E-01
        48    8.447488E+00
        49    5.306422E+00
        50   -5.383441E-03
        51    1.850617E-05
        52   -7.247980E-04
        53   -6.125835E-02
        54   -1.515441E-04
        55   -2.729638E-03
        56   -1.936740E+00
        57   -1.810156E-02
        58    7.279161E-02
        59    1.264400E-03
        60    1.692319E-03
        61   -2.956720E-03
        62   -9.547140E-07