[Molden Format]
[Title]
ADC(2) - opt by CAM-B3LYP gaussian                                              
[Atoms] AU
 c     1    6 -.12588699998532E+01 -.22834089986974E+01 -.24579904026210E-01
 c     2    6 -.25576598737242E+01 0.00000000000000E+00 -.23328905326240E-01
 c     3    6 -.12588681101271E+01 0.22834089986974E+01 -.24585573204610E-01
 c     4    6 0.13319747639512E+01 0.22851362083829E+01 -.26548998656670E-01
 c     5    6 0.26868460402678E+01 0.00000000000000E+00 -.25991529447470E-01
 c     6    6 0.13319728742250E+01 -.22851362083829E+01 -.26541439752140E-01
 h     7    1 -.22976467859220E+01 -.40383900994038E+01 -.22042001829740E-01
 h     8    1 -.22976448961959E+01 0.40383919891299E+01 -.22053340186540E-01
 h     9    1 0.23511286338561E+01 0.40572968093633E+01 -.28790213850280E-01
 h    10    1 0.23511267441300E+01 -.40572968093633E+01 -.28775096041210E-01
 n    11    7 -.52730224718766E+01 0.00000000000000E+00 -.17674844736640E-01
 o    12    8 -.63812882673039E+01 0.20269372576683E+01 -.15259774738810E-01
 o    13    8 -.63812844878516E+01 -.20269372576683E+01 -.15276782274010E-01
 n    14    7 0.52436643953234E+01 0.00000000000000E+00 -.69084844181800E-01
 h    15    1 0.62047866654136E+01 0.16174392738504E+01 0.18526851385235E+00
 h    16    1 0.62047847756874E+01 -.16174411635765E+01 0.18526473440008E+00
[GTO]
    1 0
 s    6 1.00
 0.13575349682000E+05 0.60645503603591E-03
 0.20352333680000E+04 0.46979088884982E-02
 0.46322562359000E+03 0.24332477647552E-01
 0.13120019598000E+03 0.97399968307759E-01
 0.42853015891000E+02 0.30195584253780E+00
 0.15584185766000E+02 0.66233609137875E+00
 s    2 1.00
 0.62067138508000E+01 0.65595308539952E+00
 0.25764896527000E+01 0.37585633285142E+00
 s    1 1.00
 0.57696339419000E+00 0.10000000000000E+01
 s    1 1.00
 0.22972831358000E+00 0.10000000000000E+01
 s    1 1.00
 0.95164440028000E-01 0.10000000000000E+01
 s    1 1.00
 0.48475401370000E-01 0.10000000000000E+01
 p    4 1.00
 0.34697232244000E+02 0.11327220003114E-01
 0.79582622826000E+01 0.76169659202087E-01
 0.23780826883000E+01 0.30192252202676E+00
 0.81433208183000E+00 0.72785027349547E+00
 p    1 1.00
 0.28887547253000E+00 0.10000000000000E+01
 p    1 1.00
 0.10056823671000E+00 0.10000000000000E+01
 d    1 1.00
 0.10970000000000E+01 0.10000000000000E+01
 d    1 1.00
 0.31800000000000E+00 0.10000000000000E+01
 d    1 1.00
 0.90985336424000E-01 0.10000000000000E+01
 f    1 1.00
 0.76100000000000E+00 0.10000000000000E+01
 
    2 0
 s    6 1.00
 0.13575349682000E+05 0.60645503603591E-03
 0.20352333680000E+04 0.46979088884982E-02
 0.46322562359000E+03 0.24332477647552E-01
 0.13120019598000E+03 0.97399968307759E-01
 0.42853015891000E+02 0.30195584253780E+00
 0.15584185766000E+02 0.66233609137875E+00
 s    2 1.00
 0.62067138508000E+01 0.65595308539952E+00
 0.25764896527000E+01 0.37585633285142E+00
 s    1 1.00
 0.57696339419000E+00 0.10000000000000E+01
 s    1 1.00
 0.22972831358000E+00 0.10000000000000E+01
 s    1 1.00
 0.95164440028000E-01 0.10000000000000E+01
 s    1 1.00
 0.48475401370000E-01 0.10000000000000E+01
 p    4 1.00
 0.34697232244000E+02 0.11327220003114E-01
 0.79582622826000E+01 0.76169659202087E-01
 0.23780826883000E+01 0.30192252202676E+00
 0.81433208183000E+00 0.72785027349547E+00
 p    1 1.00
 0.28887547253000E+00 0.10000000000000E+01
 p    1 1.00
 0.10056823671000E+00 0.10000000000000E+01
 d    1 1.00
 0.10970000000000E+01 0.10000000000000E+01
 d    1 1.00
 0.31800000000000E+00 0.10000000000000E+01
 d    1 1.00
 0.90985336424000E-01 0.10000000000000E+01
 f    1 1.00
 0.76100000000000E+00 0.10000000000000E+01
 
    3 0
 s    6 1.00
 0.13575349682000E+05 0.60645503603591E-03
 0.20352333680000E+04 0.46979088884982E-02
 0.46322562359000E+03 0.24332477647552E-01
 0.13120019598000E+03 0.97399968307759E-01
 0.42853015891000E+02 0.30195584253780E+00
 0.15584185766000E+02 0.66233609137875E+00
 s    2 1.00
 0.62067138508000E+01 0.65595308539952E+00
 0.25764896527000E+01 0.37585633285142E+00
 s    1 1.00
 0.57696339419000E+00 0.10000000000000E+01
 s    1 1.00
 0.22972831358000E+00 0.10000000000000E+01
 s    1 1.00
 0.95164440028000E-01 0.10000000000000E+01
 s    1 1.00
 0.48475401370000E-01 0.10000000000000E+01
 p    4 1.00
 0.34697232244000E+02 0.11327220003114E-01
 0.79582622826000E+01 0.76169659202087E-01
 0.23780826883000E+01 0.30192252202676E+00
 0.81433208183000E+00 0.72785027349547E+00
 p    1 1.00
 0.28887547253000E+00 0.10000000000000E+01
 p    1 1.00
 0.10056823671000E+00 0.10000000000000E+01
 d    1 1.00
 0.10970000000000E+01 0.10000000000000E+01
 d    1 1.00
 0.31800000000000E+00 0.10000000000000E+01
 d    1 1.00
 0.90985336424000E-01 0.10000000000000E+01
 f    1 1.00
 0.76100000000000E+00 0.10000000000000E+01
 
    4 0
 s    6 1.00
 0.13575349682000E+05 0.60645503603591E-03
 0.20352333680000E+04 0.46979088884982E-02
 0.46322562359000E+03 0.24332477647552E-01
 0.13120019598000E+03 0.97399968307759E-01
 0.42853015891000E+02 0.30195584253780E+00
 0.15584185766000E+02 0.66233609137875E+00
 s    2 1.00
 0.62067138508000E+01 0.65595308539952E+00
 0.25764896527000E+01 0.37585633285142E+00
 s    1 1.00
 0.57696339419000E+00 0.10000000000000E+01
 s    1 1.00
 0.22972831358000E+00 0.10000000000000E+01
 s    1 1.00
 0.95164440028000E-01 0.10000000000000E+01
 s    1 1.00
 0.48475401370000E-01 0.10000000000000E+01
 p    4 1.00
 0.34697232244000E+02 0.11327220003114E-01
 0.79582622826000E+01 0.76169659202087E-01
 0.23780826883000E+01 0.30192252202676E+00
 0.81433208183000E+00 0.72785027349547E+00
 p    1 1.00
 0.28887547253000E+00 0.10000000000000E+01
 p    1 1.00
 0.10056823671000E+00 0.10000000000000E+01
 d    1 1.00
 0.10970000000000E+01 0.10000000000000E+01
 d    1 1.00
 0.31800000000000E+00 0.10000000000000E+01
 d    1 1.00
 0.90985336424000E-01 0.10000000000000E+01
 f    1 1.00
 0.76100000000000E+00 0.10000000000000E+01
 
    5 0
 s    6 1.00
 0.13575349682000E+05 0.60645503603591E-03
 0.20352333680000E+04 0.46979088884982E-02
 0.46322562359000E+03 0.24332477647552E-01
 0.13120019598000E+03 0.97399968307759E-01
 0.42853015891000E+02 0.30195584253780E+00
 0.15584185766000E+02 0.66233609137875E+00
 s    2 1.00
 0.62067138508000E+01 0.65595308539952E+00
 0.25764896527000E+01 0.37585633285142E+00
 s    1 1.00
 0.57696339419000E+00 0.10000000000000E+01
 s    1 1.00
 0.22972831358000E+00 0.10000000000000E+01
 s    1 1.00
 0.95164440028000E-01 0.10000000000000E+01
 s    1 1.00
 0.48475401370000E-01 0.10000000000000E+01
 p    4 1.00
 0.34697232244000E+02 0.11327220003114E-01
 0.79582622826000E+01 0.76169659202087E-01
 0.23780826883000E+01 0.30192252202676E+00
 0.81433208183000E+00 0.72785027349547E+00
 p    1 1.00
 0.28887547253000E+00 0.10000000000000E+01
 p    1 1.00
 0.10056823671000E+00 0.10000000000000E+01
 d    1 1.00
 0.10970000000000E+01 0.10000000000000E+01
 d    1 1.00
 0.31800000000000E+00 0.10000000000000E+01
 d    1 1.00
 0.90985336424000E-01 0.10000000000000E+01
 f    1 1.00
 0.76100000000000E+00 0.10000000000000E+01
 
    6 0
 s    6 1.00
 0.13575349682000E+05 0.60645503603591E-03
 0.20352333680000E+04 0.46979088884982E-02
 0.46322562359000E+03 0.24332477647552E-01
 0.13120019598000E+03 0.97399968307759E-01
 0.42853015891000E+02 0.30195584253780E+00
 0.15584185766000E+02 0.66233609137875E+00
 s    2 1.00
 0.62067138508000E+01 0.65595308539952E+00
 0.25764896527000E+01 0.37585633285142E+00
 s    1 1.00
 0.57696339419000E+00 0.10000000000000E+01
 s    1 1.00
 0.22972831358000E+00 0.10000000000000E+01
 s    1 1.00
 0.95164440028000E-01 0.10000000000000E+01
 s    1 1.00
 0.48475401370000E-01 0.10000000000000E+01
 p    4 1.00
 0.34697232244000E+02 0.11327220003114E-01
 0.79582622826000E+01 0.76169659202087E-01
 0.23780826883000E+01 0.30192252202676E+00
 0.81433208183000E+00 0.72785027349547E+00
 p    1 1.00
 0.28887547253000E+00 0.10000000000000E+01
 p    1 1.00
 0.10056823671000E+00 0.10000000000000E+01
 d    1 1.00
 0.10970000000000E+01 0.10000000000000E+01
 d    1 1.00
 0.31800000000000E+00 0.10000000000000E+01
 d    1 1.00
 0.90985336424000E-01 0.10000000000000E+01
 f    1 1.00
 0.76100000000000E+00 0.10000000000000E+01
 
    7 0
 s    3 1.00
 0.34061341000000E+02 0.25439307208879E-01
 0.51235746000000E+01 0.19008594890375E+00
 0.11646626000000E+01 0.85244113011042E+00
 s    1 1.00
 0.32723041000000E+00 0.10000000000000E+01
 s    1 1.00
 0.10307241000000E+00 0.10000000000000E+01
 p    1 1.00
 0.80000000000000E+00 0.10000000000000E+01
 p    1 1.00
 0.95774129632000E-01 0.10000000000000E+01
 
    8 0
 s    3 1.00
 0.34061341000000E+02 0.25439307208879E-01
 0.51235746000000E+01 0.19008594890375E+00
 0.11646626000000E+01 0.85244113011042E+00
 s    1 1.00
 0.32723041000000E+00 0.10000000000000E+01
 s    1 1.00
 0.10307241000000E+00 0.10000000000000E+01
 p    1 1.00
 0.80000000000000E+00 0.10000000000000E+01
 p    1 1.00
 0.95774129632000E-01 0.10000000000000E+01
 
    9 0
 s    3 1.00
 0.34061341000000E+02 0.25439307208879E-01
 0.51235746000000E+01 0.19008594890375E+00
 0.11646626000000E+01 0.85244113011042E+00
 s    1 1.00
 0.32723041000000E+00 0.10000000000000E+01
 s    1 1.00
 0.10307241000000E+00 0.10000000000000E+01
 p    1 1.00
 0.80000000000000E+00 0.10000000000000E+01
 p    1 1.00
 0.95774129632000E-01 0.10000000000000E+01
 
   10 0
 s    3 1.00
 0.34061341000000E+02 0.25439307208879E-01
 0.51235746000000E+01 0.19008594890375E+00
 0.11646626000000E+01 0.85244113011042E+00
 s    1 1.00
 0.32723041000000E+00 0.10000000000000E+01
 s    1 1.00
 0.10307241000000E+00 0.10000000000000E+01
 p    1 1.00
 0.80000000000000E+00 0.10000000000000E+01
 p    1 1.00
 0.95774129632000E-01 0.10000000000000E+01
 
   11 0
 s    6 1.00
 0.19730800647000E+05 0.58626402628763E-03
 0.29578958745000E+04 0.45428820586397E-02
 0.67322133595000E+03 0.23558413450084E-01
 0.19068249494000E+03 0.94709193292923E-01
 0.62295441898000E+02 0.29719784913376E+00
 0.22654161182000E+02 0.66916246895232E+00
 s    2 1.00
 0.89791477428000E+01 0.64596683630063E+00
 0.36863002370000E+01 0.38700574393705E+00
 s    1 1.00
 0.84660076805000E+00 0.10000000000000E+01
 s    1 1.00
 0.33647133771000E+00 0.10000000000000E+01
 s    1 1.00
 0.13647653675000E+00 0.10000000000000E+01
 s    1 1.00
 0.68441605847000E-01 0.10000000000000E+01
 p    4 1.00
 0.49200380510000E+02 0.11448825101764E-01
 0.11346790537000E+02 0.78422337970864E-01
 0.34273972411000E+01 0.30818094738830E+00
 0.11785525134000E+01 0.72027196368413E+00
 p    1 1.00
 0.41642204972000E+00 0.10000000000000E+01
 p    1 1.00
 0.14260826011000E+00 0.10000000000000E+01
 d    1 1.00
 0.16540000000000E+01 0.10000000000000E+01
 d    1 1.00
 0.46900000000000E+00 0.10000000000000E+01
 d    1 1.00
 0.12829642058000E+00 0.10000000000000E+01
 f    1 1.00
 0.10930000000000E+01 0.10000000000000E+01
 
   12 0
 s    6 1.00
 0.27032382631000E+05 0.57227335211155E-03
 0.40523871392000E+04 0.44353233492995E-02
 0.92232722710000E+03 0.23020107706038E-01
 0.26124070989000E+03 0.92822490667928E-01
 0.85354641351000E+02 0.29378500009671E+00
 0.31035035245000E+02 0.67401604501641E+00
 s    2 1.00
 0.12260860728000E+02 0.63839937025506E+00
 0.49987076005000E+01 0.39534587125718E+00
 s    1 1.00
 0.11703108158000E+01 0.10000000000000E+01
 s    1 1.00
 0.46474740994000E+00 0.10000000000000E+01
 s    1 1.00
 0.18504536357000E+00 0.10000000000000E+01
 s    1 1.00
 0.70288026270000E-01 0.10000000000000E+01
 p    4 1.00
 0.63274954801000E+02 0.12018332222616E-01
 0.14627049379000E+02 0.83005421790056E-01
 0.44501223456000E+01 0.31991743925964E+00
 0.15275799647000E+01 0.70715542916104E+00
 p    1 1.00
 0.52935117943000E+00 0.10000000000000E+01
 p    1 1.00
 0.17478421270000E+00 0.10000000000000E+01
 p    1 1.00
 0.51112745706000E-01 0.10000000000000E+01
 d    1 1.00
 0.23140000000000E+01 0.10000000000000E+01
 d    1 1.00
 0.64500000000000E+00 0.10000000000000E+01
 d    1 1.00
 0.14696477366000E+00 0.10000000000000E+01
 f    1 1.00
 0.14280000000000E+01 0.10000000000000E+01
 
   13 0
 s    6 1.00
 0.27032382631000E+05 0.57227335211155E-03
 0.40523871392000E+04 0.44353233492995E-02
 0.92232722710000E+03 0.23020107706038E-01
 0.26124070989000E+03 0.92822490667928E-01
 0.85354641351000E+02 0.29378500009671E+00
 0.31035035245000E+02 0.67401604501641E+00
 s    2 1.00
 0.12260860728000E+02 0.63839937025506E+00
 0.49987076005000E+01 0.39534587125718E+00
 s    1 1.00
 0.11703108158000E+01 0.10000000000000E+01
 s    1 1.00
 0.46474740994000E+00 0.10000000000000E+01
 s    1 1.00
 0.18504536357000E+00 0.10000000000000E+01
 s    1 1.00
 0.70288026270000E-01 0.10000000000000E+01
 p    4 1.00
 0.63274954801000E+02 0.12018332222616E-01
 0.14627049379000E+02 0.83005421790056E-01
 0.44501223456000E+01 0.31991743925964E+00
 0.15275799647000E+01 0.70715542916104E+00
 p    1 1.00
 0.52935117943000E+00 0.10000000000000E+01
 p    1 1.00
 0.17478421270000E+00 0.10000000000000E+01
 p    1 1.00
 0.51112745706000E-01 0.10000000000000E+01
 d    1 1.00
 0.23140000000000E+01 0.10000000000000E+01
 d    1 1.00
 0.64500000000000E+00 0.10000000000000E+01
 d    1 1.00
 0.14696477366000E+00 0.10000000000000E+01
 f    1 1.00
 0.14280000000000E+01 0.10000000000000E+01
 
   14 0
 s    6 1.00
 0.19730800647000E+05 0.58626402628763E-03
 0.29578958745000E+04 0.45428820586397E-02
 0.67322133595000E+03 0.23558413450084E-01
 0.19068249494000E+03 0.94709193292923E-01
 0.62295441898000E+02 0.29719784913376E+00
 0.22654161182000E+02 0.66916246895232E+00
 s    2 1.00
 0.89791477428000E+01 0.64596683630063E+00
 0.36863002370000E+01 0.38700574393705E+00
 s    1 1.00
 0.84660076805000E+00 0.10000000000000E+01
 s    1 1.00
 0.33647133771000E+00 0.10000000000000E+01
 s    1 1.00
 0.13647653675000E+00 0.10000000000000E+01
 s    1 1.00
 0.68441605847000E-01 0.10000000000000E+01
 p    4 1.00
 0.49200380510000E+02 0.11448825101764E-01
 0.11346790537000E+02 0.78422337970864E-01
 0.34273972411000E+01 0.30818094738830E+00
 0.11785525134000E+01 0.72027196368413E+00
 p    1 1.00
 0.41642204972000E+00 0.10000000000000E+01
 p    1 1.00
 0.14260826011000E+00 0.10000000000000E+01
 d    1 1.00
 0.16540000000000E+01 0.10000000000000E+01
 d    1 1.00
 0.46900000000000E+00 0.10000000000000E+01
 d    1 1.00
 0.12829642058000E+00 0.10000000000000E+01
 f    1 1.00
 0.10930000000000E+01 0.10000000000000E+01
 
   15 0
 s    3 1.00
 0.34061341000000E+02 0.25439307208879E-01
 0.51235746000000E+01 0.19008594890375E+00
 0.11646626000000E+01 0.85244113011042E+00
 s    1 1.00
 0.32723041000000E+00 0.10000000000000E+01
 s    1 1.00
 0.10307241000000E+00 0.10000000000000E+01
 p    1 1.00
 0.80000000000000E+00 0.10000000000000E+01
 p    1 1.00
 0.95774129632000E-01 0.10000000000000E+01
 
   16 0
 s    3 1.00
 0.34061341000000E+02 0.25439307208879E-01
 0.51235746000000E+01 0.19008594890375E+00
 0.11646626000000E+01 0.85244113011042E+00
 s    1 1.00
 0.32723041000000E+00 0.10000000000000E+01
 s    1 1.00
 0.10307241000000E+00 0.10000000000000E+01
 p    1 1.00
 0.80000000000000E+00 0.10000000000000E+01
 p    1 1.00
 0.95774129632000E-01 0.10000000000000E+01
 
[MO]
 Sym= X
 Ene= -0.945193
 Spin= Alpha
 Occup= -0.945193
         1   -1.503342E-04
         2   -3.505089E-04
         3    1.004987E-03
         4   -2.274107E-03
         5   -1.135020E-02
         6   -9.736772E-03
         7    1.420558E-03
         8    1.536539E-04
         9    2.292169E-02
        10   -2.078299E-03
        11    3.229329E-04
        12    2.110928E-02
        13   -3.148456E-02
        14    8.804733E-03
        15    3.424898E-03
        16    2.575252E-06
        17   -1.349928E-05
        18    1.092403E-05
        19   -8.420806E-06
        20   -6.482519E-03
        21    3.866157E-03
        22   -5.755998E-04
        23    3.428557E-04
        24    2.327441E-04
        25   -6.034709E-04
        26   -1.456224E-02
        27    7.300414E-03
        28   -4.635077E-03
        29    4.341109E-03
        30    2.939679E-04
        31    9.250525E-04
        32    1.339497E-03
        33   -9.802551E-03
        34   -1.705744E-05
        35    5.558020E-06
        36   -9.200207E-05
        37    7.225507E-06
        38   -5.693346E-06
        39   -7.246274E-04
        40    1.565945E-05
        41   -1.763521E-06
        42    8.480611E-04
        43   -7.128999E-04
        44    2.398952E-05
        45    5.264796E-05
        46    1.029126E-04
        47   -2.274537E-03
        48   -4.563004E-02
        49    4.595411E-03
        50    3.102557E-04
        51    1.346615E-06
        52    2.058326E-01
        53   -3.589018E-04
        54    2.218242E-05
        55    2.136299E-01
        56   -1.487289E-02
        57   -1.494203E-03
        58    2.018130E-01
        59    3.503963E-05
        60   -3.295017E-05
        61   -2.089455E-06
        62    1.269926E-07
        63   -9.310322E-04
        64    1.259088E-06
        65    3.223088E-04
        66   -5.350389E-04
        67    2.127301E-04
        68    4.941205E-06
        69   -3.831171E-03
        70    2.142264E-06
        71    7.514877E-03
        72   -8.499830E-03
        73    9.849532E-04
        74   -2.532809E-04
        75    5.067893E-03
        76   -2.533616E-05
        77    6.712012E-06
        78    4.277994E-08
        79   -1.160506E-03
        80   -5.469802E-06
        81    4.403556E-08
        82    7.220848E-04
        83   -3.535306E-06
        84   -1.014309E-07
        85    8.348976E-04
        86    1.501926E-07
        87   -1.505134E-04
        88   -3.510482E-04
        89    1.014450E-03
        90   -2.356275E-03
        91   -8.820342E-03
        92   -9.659928E-03
        93    1.422050E-03
        94   -1.557539E-04
        95    2.298167E-02
        96   -2.062738E-03
        97   -3.080450E-04
        98    2.116651E-02
        99   -3.247595E-02
       100   -1.038723E-02
       101    3.555708E-03
       102    2.388975E-06
       103   -1.349725E-05
       104    1.110828E-05
       105    8.732350E-06
       106   -6.481763E-03
       107   -3.866416E-03
       108   -5.716418E-04
       109    3.374644E-04
       110    2.341774E-04
       111    5.996344E-04
       112   -1.455825E-02
       113   -7.299934E-03
       114   -4.919861E-03
       115    4.656292E-03
       116    2.635687E-04
       117   -7.148566E-04
       118    1.333664E-03
       119    9.759254E-03
       120   -1.723968E-05
       121   -5.533427E-06
       122   -9.231764E-05
       123    7.541976E-06
       124    5.695724E-06
       125   -7.242840E-04
       126    1.558748E-05
       127    1.728147E-06
       128    8.481411E-04
       129    7.128343E-04
       130    9.569639E-05
       131    2.055105E-04
       132    5.142578E-04
       133   -8.873527E-03
       134    2.784702E-02
       135    1.088493E-02
       136   -1.130951E-03
       137    4.958947E-04
       138   -1.593222E-01
       139   -7.813712E-03
       140    5.230472E-03
       141   -1.620095E-01
       142   -2.299438E-02
       143   -5.927398E-03
       144   -9.728321E-02
       145    1.229837E-04
       146   -1.470775E-04
       147    2.409377E-05
       148   -4.644939E-06
       149   -8.995670E-04
       150    3.159530E-03
       151    5.390291E-04
       152   -6.416188E-04
       153    1.025897E-04
       154    1.455035E-03
       155   -4.152240E-03
       156    5.372592E-03
       157    7.393095E-03
       158   -5.848637E-03
       159   -1.544458E-03
       160   -7.304626E-03
       161    3.212500E-03
       162   -1.130934E-02
       163   -1.340251E-05
       164    7.276004E-06
       165    9.165412E-04
       166   -1.574193E-05
       167    1.533103E-05
       168   -2.484469E-04
       169    3.372328E-05
       170   -2.509281E-05
       171   -9.812222E-04
       172    3.665209E-04
       173   -9.277487E-04
       174   -2.117165E-03
       175    2.160338E-03
       176    1.869876E-02
       177   -1.015449E-02
       178    8.398073E-03
       179    7.491281E-03
       180    1.006970E-06
       181   -1.241166E-01
       182    2.457679E-04
       183   -1.282998E-05
       184   -1.263229E-01
       185   -2.098299E-02
       186    1.573503E-03
       187   -1.310204E-01
       188    4.043171E-04
       189   -2.261244E-04
       190   -1.781927E-04
       191    8.615599E-08
       192    9.619083E-03
       193    1.087628E-06
       194   -1.604643E-03
       195    3.517265E-03
       196   -1.912622E-03
       197    3.510492E-06
       198    2.404789E-02
       199   -1.389734E-06
       200   -4.695008E-03
       201    5.824998E-03
       202   -1.129989E-03
       203   -2.973600E-04
       204    1.919051E-02
       205    7.828690E-06
       206    9.660132E-05
       207    3.408967E-08
       208    4.471873E-04
       209   -6.822570E-05
       210   -1.045445E-07
       211    9.112195E-04
       212   -6.137857E-05
       213    5.880841E-08
       214   -1.511184E-03
       215   -1.886576E-08
       216    9.646308E-05
       217    2.070560E-04
       218    5.186489E-04
       219   -8.958053E-03
       220    3.067919E-02
       221    1.092487E-02
       222   -1.132393E-03
       223   -4.897039E-04
       224   -1.593672E-01
       225   -7.818105E-03
       226   -5.243987E-03
       227   -1.620650E-01
       228   -2.187492E-02
       229    7.765346E-03
       230   -9.721144E-02
       231    1.227035E-04
       232   -1.476246E-04
       233    2.492116E-05
       234    4.708562E-06
       235   -8.982659E-04
       236   -3.159767E-03
       237    5.409984E-04
       238   -6.442609E-04
       239    1.032624E-04
       240   -1.457190E-03
       241   -4.148075E-03
       242   -5.372665E-03
       243    7.096627E-03
       244   -5.535325E-03
       245   -1.561301E-03
       246    7.550946E-03
       247    3.223163E-03
       248    1.136383E-02
       249   -1.332639E-05
       250   -7.334462E-06
       251    9.171069E-04
       252   -1.597749E-05
       253   -1.525035E-05
       254   -2.490446E-04
       255    3.385671E-05
       256    2.509056E-05
       257   -9.813835E-04
       258   -3.665222E-04
       259   -3.006577E-04
       260   -1.715690E-04
       261   -1.507540E-02
       262   -1.043089E-05
       263    1.205419E-06
       264    9.103883E-04
       265   -4.614053E-03
       266   -1.904275E-04
       267   -6.311572E-03
       268   -3.024615E-04
       269   -1.655470E-04
       270   -1.486142E-02
       271   -9.277787E-06
       272   -1.865509E-06
       273    9.131810E-04
       274   -4.765397E-03
       275    6.490670E-05
       276   -6.280866E-03
       277   -3.806905E-04
       278   -2.068629E-03
       279    2.938423E-02
       280   -5.363001E-06
       281    8.901743E-05
       282   -6.463067E-03
       283   -1.409885E-03
       284   -2.337279E-03
       285    9.911122E-04
       286   -3.851107E-04
       287   -2.070685E-03
       288    2.979845E-02
       289   -5.080573E-06
       290   -8.903683E-05
       291   -6.465465E-03
       292   -1.286793E-03
       293    2.488161E-03
       294    1.022139E-03
       295   -4.037761E-05
       296   -9.360053E-05
       297    8.014286E-05
       298    3.837783E-04
       299   -5.489133E-03
       300    1.236048E-03
       301    4.581014E-04
       302   -2.567412E-07
       303    2.735692E-02
       304    1.929679E-04
       305    6.224402E-07
       306    2.942786E-02
       307   -2.518893E-03
       308    3.253847E-05
       309    1.200799E-02
       310    2.348854E-05
       311   -9.385327E-06
       312   -1.410321E-05
       313    3.080047E-08
       314    4.438344E-03
       315    4.297942E-08
       316    1.957593E-05
       317    4.290798E-05
       318   -6.248390E-05
       319   -4.646081E-07
       320    1.346500E-02
       321   -7.985815E-08
       322   -9.583131E-04
       323    2.487008E-03
       324   -1.528695E-03
       325    4.341153E-05
       326    3.419113E-03
       327    4.151149E-06
       328    6.358323E-06
       329    1.627283E-08
       330   -3.363943E-05
       331   -4.125013E-06
       332    4.648958E-09
       333    7.222896E-04
       334   -4.405572E-06
       335   -2.648125E-08
       336   -6.771575E-04
       337    2.651320E-08
       338   -9.619237E-06
       339   -2.043243E-05
       340   -7.596148E-06
       341    4.360530E-04
       342   -5.022078E-03
       343   -7.767383E-04
       344   -2.935705E-04
       345    8.347247E-05
       346   -7.650628E-02
       347   -3.508147E-04
       348    1.971143E-04
       349   -7.104857E-02
       350   -1.389538E-03
       351    3.792680E-04
       352   -5.924360E-02
       353   -1.391479E-04
       354    1.899649E-04
       355   -7.531471E-03
       356    3.188158E-06
       357   -3.882986E-06
       358    6.948280E-07
       359    1.136234E-06
       360    5.924446E-05
       361    3.921793E-04
       362   -1.168376E-05
       363   -8.572553E-06
       364    2.025631E-05
       365    1.188462E-05
       366   -3.717682E-04
       367    1.356660E-03
       368   -7.525952E-05
       369    5.740005E-05
       370    1.785947E-05
       371    8.958790E-05
       372   -1.239829E-04
       373    1.514378E-04
       374    8.287457E-07
       375    1.241510E-06
       376    4.862015E-05
       377   -1.449548E-06
       378   -3.699748E-08
       379    8.419436E-05
       380    3.376690E-07
       381   -1.628663E-06
       382   -1.494251E-04
       383    1.150887E-04
       384   -9.500928E-06
       385   -2.018476E-05
       386   -7.450238E-06
       387    4.313288E-04
       388   -5.035087E-03
       389   -7.357942E-04
       390   -2.911482E-04
       391   -8.309804E-05
       392   -7.650452E-02
       393   -3.489977E-04
       394   -1.960570E-04
       395   -7.104714E-02
       396   -1.346505E-03
       397   -3.830851E-04
       398   -5.923726E-02
       399   -1.207235E-04
       400   -1.948173E-04
       401   -7.537430E-03
       402    3.144874E-06
       403   -3.869641E-06
       404    7.247674E-07
       405   -1.190303E-06
       406    5.919470E-05
       407   -3.921711E-04
       408   -1.124420E-05
       409   -8.567922E-06
       410    1.981212E-05
       411   -1.138796E-05
       412   -3.716888E-04
       413   -1.356608E-03
       414   -7.490824E-05
       415    5.833855E-05
       416    1.656969E-05
       417   -8.850581E-05
       418   -1.252470E-04
       419   -1.509446E-04
       420    8.281534E-07
       421   -1.235468E-06
       422    4.862743E-05
       423   -1.431343E-06
       424    3.896313E-08
       425    8.418487E-05
       426    3.202587E-07
       427    1.618591E-06
       428   -1.494254E-04
       429   -1.150920E-04
       430    4.012644E-03
       431    9.547653E-03
       432   -1.496101E-02
       433   -2.311019E-02
       434   -2.006089E-02
       435   -6.226174E-02
       436   -1.439061E-02
       437    9.375046E-06
       438    2.333608E-01
       439   -1.659906E-02
       440   -1.921470E-06
       441    2.310820E-01
       442   -1.472716E-02
       443   -1.220759E-04
       444    1.921958E-01
       445   -8.374758E-05
       446    1.252848E-05
       447    7.121909E-05
       448    2.120392E-07
       449    9.718324E-04
       450    3.366442E-07
       451   -1.940947E-04
       452   -1.259952E-03
       453    1.454046E-03
       454   -4.575945E-06
       455    4.099252E-03
       456    1.540468E-06
       457   -1.749620E-03
       458   -2.372751E-03
       459    4.122371E-03
       460   -1.433834E-05
       461    2.285688E-03
       462    1.295065E-05
       463   -1.277639E-04
       464    1.661966E-08
       465   -8.947826E-04
       466   -6.719931E-05
       467   -2.351820E-08
       468    4.386445E-04
       469    2.386125E-04
       470    1.220593E-09
       471    7.618324E-04
       472    2.116290E-08
       473    8.601457E-03
       474    1.592053E-02
       475    2.620540E-02
       476   -1.951041E-03
       477   -1.674161E-03
       478    1.197022E-02
       479    1.489394E-03
       480   -3.093630E-03
       481    1.456408E-02
       482    8.595559E-03
       483    1.583537E-02
       484    2.582988E-02
       485   -1.946743E-03
       486    1.665948E-03
       487    1.197482E-02
       488    1.533111E-03
       489    3.038431E-03
       490    1.458609E-02
 Sym= X
 Ene= 0.945193
 Spin= Alpha
 Occup= 0.945193
         1   -7.678643E-03
         2   -1.735815E-02
         3    3.103585E-02
         4    2.928297E-02
         5   -1.417152E+00
         6    1.403918E+00
         7   -1.429144E-02
         8   -6.362546E-03
         9   -3.003707E-04
        10   -1.280560E-01
        11   -2.296572E-02
        12    3.191273E-03
        13   -4.360838E-01
        14    5.252662E-03
        15   -2.575370E-02
        16    1.318938E-03
        17    7.554545E-04
        18   -2.074393E-03
        19   -8.836450E-04
        20   -9.043117E-05
        21   -1.032400E-04
        22   -1.961515E-02
        23    2.372789E-02
        24   -4.112746E-03
        25    3.973046E-03
        26    9.925336E-04
        27   -4.015608E-04
        28   -6.513741E-01
        29    4.734469E-01
        30    1.779273E-01
        31   -6.691237E-01
        32   -2.470008E-02
        33    2.591168E-02
        34   -2.294661E-04
        35   -1.510188E-04
        36    8.655653E-06
        37   -4.749766E-04
        38   -4.846554E-05
        39    3.439353E-05
        40    7.828377E-04
        41    2.510785E-04
        42   -4.600631E-05
        43    3.374655E-05
        44   -5.804632E-03
        45   -1.266827E-02
        46    2.555638E-03
        47    2.034474E-01
        48   -2.717096E+00
        49   -2.050854E+00
        50    2.060787E-03
        51    9.631825E-07
        52   -3.497016E-03
        53   -6.899636E-02
        54   -5.475639E-05
        55   -6.177336E-04
        56   -2.045833E+00
        57   -3.618357E-03
        58   -8.593718E-02
        59   -4.432503E-04
        60    3.187009E-03
        61   -2.743759E-03
        62   -4.718202E-07