[Molden Format]
[Title]
ADC(2) - opt by CAM-B3LYP gaussian                                              
[Atoms] AU
 c     1    6 -.12588699998532E+01 -.22834089986974E+01 -.24579904026210E-01
 c     2    6 -.25576598737242E+01 0.00000000000000E+00 -.23328905326240E-01
 c     3    6 -.12588681101271E+01 0.22834089986974E+01 -.24585573204610E-01
 c     4    6 0.13319747639512E+01 0.22851362083829E+01 -.26548998656670E-01
 c     5    6 0.26868460402678E+01 0.00000000000000E+00 -.25991529447470E-01
 c     6    6 0.13319728742250E+01 -.22851362083829E+01 -.26541439752140E-01
 h     7    1 -.22976467859220E+01 -.40383900994038E+01 -.22042001829740E-01
 h     8    1 -.22976448961959E+01 0.40383919891299E+01 -.22053340186540E-01
 h     9    1 0.23511286338561E+01 0.40572968093633E+01 -.28790213850280E-01
 h    10    1 0.23511267441300E+01 -.40572968093633E+01 -.28775096041210E-01
 n    11    7 -.52730224718766E+01 0.00000000000000E+00 -.17674844736640E-01
 o    12    8 -.63812882673039E+01 0.20269372576683E+01 -.15259774738810E-01
 o    13    8 -.63812844878516E+01 -.20269372576683E+01 -.15276782274010E-01
 n    14    7 0.52436643953234E+01 0.00000000000000E+00 -.69084844181800E-01
 h    15    1 0.62047866654136E+01 0.16174392738504E+01 0.18526851385235E+00
 h    16    1 0.62047847756874E+01 -.16174411635765E+01 0.18526473440008E+00
[GTO]
    1 0
 s    6 1.00
 0.13575349682000E+05 0.60645503603591E-03
 0.20352333680000E+04 0.46979088884982E-02
 0.46322562359000E+03 0.24332477647552E-01
 0.13120019598000E+03 0.97399968307759E-01
 0.42853015891000E+02 0.30195584253780E+00
 0.15584185766000E+02 0.66233609137875E+00
 s    2 1.00
 0.62067138508000E+01 0.65595308539952E+00
 0.25764896527000E+01 0.37585633285142E+00
 s    1 1.00
 0.57696339419000E+00 0.10000000000000E+01
 s    1 1.00
 0.22972831358000E+00 0.10000000000000E+01
 s    1 1.00
 0.95164440028000E-01 0.10000000000000E+01
 s    1 1.00
 0.48475401370000E-01 0.10000000000000E+01
 p    4 1.00
 0.34697232244000E+02 0.11327220003114E-01
 0.79582622826000E+01 0.76169659202087E-01
 0.23780826883000E+01 0.30192252202676E+00
 0.81433208183000E+00 0.72785027349547E+00
 p    1 1.00
 0.28887547253000E+00 0.10000000000000E+01
 p    1 1.00
 0.10056823671000E+00 0.10000000000000E+01
 d    1 1.00
 0.10970000000000E+01 0.10000000000000E+01
 d    1 1.00
 0.31800000000000E+00 0.10000000000000E+01
 d    1 1.00
 0.90985336424000E-01 0.10000000000000E+01
 f    1 1.00
 0.76100000000000E+00 0.10000000000000E+01
 
    2 0
 s    6 1.00
 0.13575349682000E+05 0.60645503603591E-03
 0.20352333680000E+04 0.46979088884982E-02
 0.46322562359000E+03 0.24332477647552E-01
 0.13120019598000E+03 0.97399968307759E-01
 0.42853015891000E+02 0.30195584253780E+00
 0.15584185766000E+02 0.66233609137875E+00
 s    2 1.00
 0.62067138508000E+01 0.65595308539952E+00
 0.25764896527000E+01 0.37585633285142E+00
 s    1 1.00
 0.57696339419000E+00 0.10000000000000E+01
 s    1 1.00
 0.22972831358000E+00 0.10000000000000E+01
 s    1 1.00
 0.95164440028000E-01 0.10000000000000E+01
 s    1 1.00
 0.48475401370000E-01 0.10000000000000E+01
 p    4 1.00
 0.34697232244000E+02 0.11327220003114E-01
 0.79582622826000E+01 0.76169659202087E-01
 0.23780826883000E+01 0.30192252202676E+00
 0.81433208183000E+00 0.72785027349547E+00
 p    1 1.00
 0.28887547253000E+00 0.10000000000000E+01
 p    1 1.00
 0.10056823671000E+00 0.10000000000000E+01
 d    1 1.00
 0.10970000000000E+01 0.10000000000000E+01
 d    1 1.00
 0.31800000000000E+00 0.10000000000000E+01
 d    1 1.00
 0.90985336424000E-01 0.10000000000000E+01
 f    1 1.00
 0.76100000000000E+00 0.10000000000000E+01
 
    3 0
 s    6 1.00
 0.13575349682000E+05 0.60645503603591E-03
 0.20352333680000E+04 0.46979088884982E-02
 0.46322562359000E+03 0.24332477647552E-01
 0.13120019598000E+03 0.97399968307759E-01
 0.42853015891000E+02 0.30195584253780E+00
 0.15584185766000E+02 0.66233609137875E+00
 s    2 1.00
 0.62067138508000E+01 0.65595308539952E+00
 0.25764896527000E+01 0.37585633285142E+00
 s    1 1.00
 0.57696339419000E+00 0.10000000000000E+01
 s    1 1.00
 0.22972831358000E+00 0.10000000000000E+01
 s    1 1.00
 0.95164440028000E-01 0.10000000000000E+01
 s    1 1.00
 0.48475401370000E-01 0.10000000000000E+01
 p    4 1.00
 0.34697232244000E+02 0.11327220003114E-01
 0.79582622826000E+01 0.76169659202087E-01
 0.23780826883000E+01 0.30192252202676E+00
 0.81433208183000E+00 0.72785027349547E+00
 p    1 1.00
 0.28887547253000E+00 0.10000000000000E+01
 p    1 1.00
 0.10056823671000E+00 0.10000000000000E+01
 d    1 1.00
 0.10970000000000E+01 0.10000000000000E+01
 d    1 1.00
 0.31800000000000E+00 0.10000000000000E+01
 d    1 1.00
 0.90985336424000E-01 0.10000000000000E+01
 f    1 1.00
 0.76100000000000E+00 0.10000000000000E+01
 
    4 0
 s    6 1.00
 0.13575349682000E+05 0.60645503603591E-03
 0.20352333680000E+04 0.46979088884982E-02
 0.46322562359000E+03 0.24332477647552E-01
 0.13120019598000E+03 0.97399968307759E-01
 0.42853015891000E+02 0.30195584253780E+00
 0.15584185766000E+02 0.66233609137875E+00
 s    2 1.00
 0.62067138508000E+01 0.65595308539952E+00
 0.25764896527000E+01 0.37585633285142E+00
 s    1 1.00
 0.57696339419000E+00 0.10000000000000E+01
 s    1 1.00
 0.22972831358000E+00 0.10000000000000E+01
 s    1 1.00
 0.95164440028000E-01 0.10000000000000E+01
 s    1 1.00
 0.48475401370000E-01 0.10000000000000E+01
 p    4 1.00
 0.34697232244000E+02 0.11327220003114E-01
 0.79582622826000E+01 0.76169659202087E-01
 0.23780826883000E+01 0.30192252202676E+00
 0.81433208183000E+00 0.72785027349547E+00
 p    1 1.00
 0.28887547253000E+00 0.10000000000000E+01
 p    1 1.00
 0.10056823671000E+00 0.10000000000000E+01
 d    1 1.00
 0.10970000000000E+01 0.10000000000000E+01
 d    1 1.00
 0.31800000000000E+00 0.10000000000000E+01
 d    1 1.00
 0.90985336424000E-01 0.10000000000000E+01
 f    1 1.00
 0.76100000000000E+00 0.10000000000000E+01
 
    5 0
 s    6 1.00
 0.13575349682000E+05 0.60645503603591E-03
 0.20352333680000E+04 0.46979088884982E-02
 0.46322562359000E+03 0.24332477647552E-01
 0.13120019598000E+03 0.97399968307759E-01
 0.42853015891000E+02 0.30195584253780E+00
 0.15584185766000E+02 0.66233609137875E+00
 s    2 1.00
 0.62067138508000E+01 0.65595308539952E+00
 0.25764896527000E+01 0.37585633285142E+00
 s    1 1.00
 0.57696339419000E+00 0.10000000000000E+01
 s    1 1.00
 0.22972831358000E+00 0.10000000000000E+01
 s    1 1.00
 0.95164440028000E-01 0.10000000000000E+01
 s    1 1.00
 0.48475401370000E-01 0.10000000000000E+01
 p    4 1.00
 0.34697232244000E+02 0.11327220003114E-01
 0.79582622826000E+01 0.76169659202087E-01
 0.23780826883000E+01 0.30192252202676E+00
 0.81433208183000E+00 0.72785027349547E+00
 p    1 1.00
 0.28887547253000E+00 0.10000000000000E+01
 p    1 1.00
 0.10056823671000E+00 0.10000000000000E+01
 d    1 1.00
 0.10970000000000E+01 0.10000000000000E+01
 d    1 1.00
 0.31800000000000E+00 0.10000000000000E+01
 d    1 1.00
 0.90985336424000E-01 0.10000000000000E+01
 f    1 1.00
 0.76100000000000E+00 0.10000000000000E+01
 
    6 0
 s    6 1.00
 0.13575349682000E+05 0.60645503603591E-03
 0.20352333680000E+04 0.46979088884982E-02
 0.46322562359000E+03 0.24332477647552E-01
 0.13120019598000E+03 0.97399968307759E-01
 0.42853015891000E+02 0.30195584253780E+00
 0.15584185766000E+02 0.66233609137875E+00
 s    2 1.00
 0.62067138508000E+01 0.65595308539952E+00
 0.25764896527000E+01 0.37585633285142E+00
 s    1 1.00
 0.57696339419000E+00 0.10000000000000E+01
 s    1 1.00
 0.22972831358000E+00 0.10000000000000E+01
 s    1 1.00
 0.95164440028000E-01 0.10000000000000E+01
 s    1 1.00
 0.48475401370000E-01 0.10000000000000E+01
 p    4 1.00
 0.34697232244000E+02 0.11327220003114E-01
 0.79582622826000E+01 0.76169659202087E-01
 0.23780826883000E+01 0.30192252202676E+00
 0.81433208183000E+00 0.72785027349547E+00
 p    1 1.00
 0.28887547253000E+00 0.10000000000000E+01
 p    1 1.00
 0.10056823671000E+00 0.10000000000000E+01
 d    1 1.00
 0.10970000000000E+01 0.10000000000000E+01
 d    1 1.00
 0.31800000000000E+00 0.10000000000000E+01
 d    1 1.00
 0.90985336424000E-01 0.10000000000000E+01
 f    1 1.00
 0.76100000000000E+00 0.10000000000000E+01
 
    7 0
 s    3 1.00
 0.34061341000000E+02 0.25439307208879E-01
 0.51235746000000E+01 0.19008594890375E+00
 0.11646626000000E+01 0.85244113011042E+00
 s    1 1.00
 0.32723041000000E+00 0.10000000000000E+01
 s    1 1.00
 0.10307241000000E+00 0.10000000000000E+01
 p    1 1.00
 0.80000000000000E+00 0.10000000000000E+01
 p    1 1.00
 0.95774129632000E-01 0.10000000000000E+01
 
    8 0
 s    3 1.00
 0.34061341000000E+02 0.25439307208879E-01
 0.51235746000000E+01 0.19008594890375E+00
 0.11646626000000E+01 0.85244113011042E+00
 s    1 1.00
 0.32723041000000E+00 0.10000000000000E+01
 s    1 1.00
 0.10307241000000E+00 0.10000000000000E+01
 p    1 1.00
 0.80000000000000E+00 0.10000000000000E+01
 p    1 1.00
 0.95774129632000E-01 0.10000000000000E+01
 
    9 0
 s    3 1.00
 0.34061341000000E+02 0.25439307208879E-01
 0.51235746000000E+01 0.19008594890375E+00
 0.11646626000000E+01 0.85244113011042E+00
 s    1 1.00
 0.32723041000000E+00 0.10000000000000E+01
 s    1 1.00
 0.10307241000000E+00 0.10000000000000E+01
 p    1 1.00
 0.80000000000000E+00 0.10000000000000E+01
 p    1 1.00
 0.95774129632000E-01 0.10000000000000E+01
 
   10 0
 s    3 1.00
 0.34061341000000E+02 0.25439307208879E-01
 0.51235746000000E+01 0.19008594890375E+00
 0.11646626000000E+01 0.85244113011042E+00
 s    1 1.00
 0.32723041000000E+00 0.10000000000000E+01
 s    1 1.00
 0.10307241000000E+00 0.10000000000000E+01
 p    1 1.00
 0.80000000000000E+00 0.10000000000000E+01
 p    1 1.00
 0.95774129632000E-01 0.10000000000000E+01
 
   11 0
 s    6 1.00
 0.19730800647000E+05 0.58626402628763E-03
 0.29578958745000E+04 0.45428820586397E-02
 0.67322133595000E+03 0.23558413450084E-01
 0.19068249494000E+03 0.94709193292923E-01
 0.62295441898000E+02 0.29719784913376E+00
 0.22654161182000E+02 0.66916246895232E+00
 s    2 1.00
 0.89791477428000E+01 0.64596683630063E+00
 0.36863002370000E+01 0.38700574393705E+00
 s    1 1.00
 0.84660076805000E+00 0.10000000000000E+01
 s    1 1.00
 0.33647133771000E+00 0.10000000000000E+01
 s    1 1.00
 0.13647653675000E+00 0.10000000000000E+01
 s    1 1.00
 0.68441605847000E-01 0.10000000000000E+01
 p    4 1.00
 0.49200380510000E+02 0.11448825101764E-01
 0.11346790537000E+02 0.78422337970864E-01
 0.34273972411000E+01 0.30818094738830E+00
 0.11785525134000E+01 0.72027196368413E+00
 p    1 1.00
 0.41642204972000E+00 0.10000000000000E+01
 p    1 1.00
 0.14260826011000E+00 0.10000000000000E+01
 d    1 1.00
 0.16540000000000E+01 0.10000000000000E+01
 d    1 1.00
 0.46900000000000E+00 0.10000000000000E+01
 d    1 1.00
 0.12829642058000E+00 0.10000000000000E+01
 f    1 1.00
 0.10930000000000E+01 0.10000000000000E+01
 
   12 0
 s    6 1.00
 0.27032382631000E+05 0.57227335211155E-03
 0.40523871392000E+04 0.44353233492995E-02
 0.92232722710000E+03 0.23020107706038E-01
 0.26124070989000E+03 0.92822490667928E-01
 0.85354641351000E+02 0.29378500009671E+00
 0.31035035245000E+02 0.67401604501641E+00
 s    2 1.00
 0.12260860728000E+02 0.63839937025506E+00
 0.49987076005000E+01 0.39534587125718E+00
 s    1 1.00
 0.11703108158000E+01 0.10000000000000E+01
 s    1 1.00
 0.46474740994000E+00 0.10000000000000E+01
 s    1 1.00
 0.18504536357000E+00 0.10000000000000E+01
 s    1 1.00
 0.70288026270000E-01 0.10000000000000E+01
 p    4 1.00
 0.63274954801000E+02 0.12018332222616E-01
 0.14627049379000E+02 0.83005421790056E-01
 0.44501223456000E+01 0.31991743925964E+00
 0.15275799647000E+01 0.70715542916104E+00
 p    1 1.00
 0.52935117943000E+00 0.10000000000000E+01
 p    1 1.00
 0.17478421270000E+00 0.10000000000000E+01
 p    1 1.00
 0.51112745706000E-01 0.10000000000000E+01
 d    1 1.00
 0.23140000000000E+01 0.10000000000000E+01
 d    1 1.00
 0.64500000000000E+00 0.10000000000000E+01
 d    1 1.00
 0.14696477366000E+00 0.10000000000000E+01
 f    1 1.00
 0.14280000000000E+01 0.10000000000000E+01
 
   13 0
 s    6 1.00
 0.27032382631000E+05 0.57227335211155E-03
 0.40523871392000E+04 0.44353233492995E-02
 0.92232722710000E+03 0.23020107706038E-01
 0.26124070989000E+03 0.92822490667928E-01
 0.85354641351000E+02 0.29378500009671E+00
 0.31035035245000E+02 0.67401604501641E+00
 s    2 1.00
 0.12260860728000E+02 0.63839937025506E+00
 0.49987076005000E+01 0.39534587125718E+00
 s    1 1.00
 0.11703108158000E+01 0.10000000000000E+01
 s    1 1.00
 0.46474740994000E+00 0.10000000000000E+01
 s    1 1.00
 0.18504536357000E+00 0.10000000000000E+01
 s    1 1.00
 0.70288026270000E-01 0.10000000000000E+01
 p    4 1.00
 0.63274954801000E+02 0.12018332222616E-01
 0.14627049379000E+02 0.83005421790056E-01
 0.44501223456000E+01 0.31991743925964E+00
 0.15275799647000E+01 0.70715542916104E+00
 p    1 1.00
 0.52935117943000E+00 0.10000000000000E+01
 p    1 1.00
 0.17478421270000E+00 0.10000000000000E+01
 p    1 1.00
 0.51112745706000E-01 0.10000000000000E+01
 d    1 1.00
 0.23140000000000E+01 0.10000000000000E+01
 d    1 1.00
 0.64500000000000E+00 0.10000000000000E+01
 d    1 1.00
 0.14696477366000E+00 0.10000000000000E+01
 f    1 1.00
 0.14280000000000E+01 0.10000000000000E+01
 
   14 0
 s    6 1.00
 0.19730800647000E+05 0.58626402628763E-03
 0.29578958745000E+04 0.45428820586397E-02
 0.67322133595000E+03 0.23558413450084E-01
 0.19068249494000E+03 0.94709193292923E-01
 0.62295441898000E+02 0.29719784913376E+00
 0.22654161182000E+02 0.66916246895232E+00
 s    2 1.00
 0.89791477428000E+01 0.64596683630063E+00
 0.36863002370000E+01 0.38700574393705E+00
 s    1 1.00
 0.84660076805000E+00 0.10000000000000E+01
 s    1 1.00
 0.33647133771000E+00 0.10000000000000E+01
 s    1 1.00
 0.13647653675000E+00 0.10000000000000E+01
 s    1 1.00
 0.68441605847000E-01 0.10000000000000E+01
 p    4 1.00
 0.49200380510000E+02 0.11448825101764E-01
 0.11346790537000E+02 0.78422337970864E-01
 0.34273972411000E+01 0.30818094738830E+00
 0.11785525134000E+01 0.72027196368413E+00
 p    1 1.00
 0.41642204972000E+00 0.10000000000000E+01
 p    1 1.00
 0.14260826011000E+00 0.10000000000000E+01
 d    1 1.00
 0.16540000000000E+01 0.10000000000000E+01
 d    1 1.00
 0.46900000000000E+00 0.10000000000000E+01
 d    1 1.00
 0.12829642058000E+00 0.10000000000000E+01
 f    1 1.00
 0.10930000000000E+01 0.10000000000000E+01
 
   15 0
 s    3 1.00
 0.34061341000000E+02 0.25439307208879E-01
 0.51235746000000E+01 0.19008594890375E+00
 0.11646626000000E+01 0.85244113011042E+00
 s    1 1.00
 0.32723041000000E+00 0.10000000000000E+01
 s    1 1.00
 0.10307241000000E+00 0.10000000000000E+01
 p    1 1.00
 0.80000000000000E+00 0.10000000000000E+01
 p    1 1.00
 0.95774129632000E-01 0.10000000000000E+01
 
   16 0
 s    3 1.00
 0.34061341000000E+02 0.25439307208879E-01
 0.51235746000000E+01 0.19008594890375E+00
 0.11646626000000E+01 0.85244113011042E+00
 s    1 1.00
 0.32723041000000E+00 0.10000000000000E+01
 s    1 1.00
 0.10307241000000E+00 0.10000000000000E+01
 p    1 1.00
 0.80000000000000E+00 0.10000000000000E+01
 p    1 1.00
 0.95774129632000E-01 0.10000000000000E+01
 
[MO]
 Sym= X
 Ene= -0.900811
 Spin= Alpha
 Occup= -0.900811
         1   -2.174174E-05
         2   -4.954003E-05
         3    1.227965E-04
         4   -1.716341E-04
         5   -9.619961E-03
         6   -4.488141E-04
         7   -1.344654E-04
         8   -1.508287E-04
         9   -1.883715E-01
        10   -5.532397E-04
        11   -3.016713E-05
        12   -1.888412E-01
        13    3.672019E-03
        14   -6.191375E-03
        15   -1.100254E-01
        16   -7.661498E-06
        17    2.326019E-06
        18    5.335479E-06
        19    1.497590E-06
        20   -4.965317E-03
        21   -5.421323E-04
        22   -9.686835E-05
        23    5.834143E-05
        24    3.852691E-05
        25    1.723805E-05
        26   -9.528265E-03
        27    4.133925E-04
        28    8.142181E-04
        29   -9.514348E-04
        30    1.372166E-04
        31    4.473916E-04
        32   -2.775545E-03
        33   -5.286621E-04
        34   -4.189309E-06
        35   -8.117406E-07
        36    1.162056E-03
        37    8.547621E-07
        38    1.717158E-07
        39   -1.405278E-03
        40    4.765785E-06
        41    9.173484E-07
        42   -1.537848E-04
        43   -3.037112E-06
        44    1.247772E-07
        45    2.969314E-07
        46    7.384805E-07
        47   -3.303246E-05
        48    2.164184E-03
        49    1.130255E-04
        50   -1.888933E-06
        51    9.755321E-05
        52   -1.674429E-05
        53   -4.355381E-06
        54    1.974124E-04
        55   -9.732540E-06
        56    1.031858E-03
        57   -9.430537E-03
        58    4.642898E-05
        59   -8.801134E-09
        60   -1.275501E-07
        61    1.363512E-07
        62    9.737316E-06
        63   -2.242114E-07
        64    7.022939E-03
        65   -1.103483E-06
        66    2.602637E-06
        67   -1.499153E-06
        68    6.979234E-05
        69    2.493082E-06
        70    1.592360E-02
        71    2.328330E-05
        72    1.243597E-05
        73   -3.571927E-05
        74   -1.381356E-03
        75    9.563901E-06
        76    1.756331E-03
        77    5.111647E-08
        78    1.912729E-07
        79   -1.216546E-08
        80   -8.029805E-08
        81    1.671601E-06
        82    3.175253E-09
        83    1.171811E-08
        84   -1.928221E-06
        85    1.314643E-08
        86    1.016853E-03
        87    2.099350E-05
        88    4.800778E-05
        89   -1.197037E-04
        90    1.993742E-04
        91    5.886378E-03
        92    3.054864E-04
        93    1.350875E-04
        94   -1.466176E-04
        95    1.883620E-01
        96    5.107756E-04
        97   -2.265516E-05
        98    1.888298E-01
        99   -4.671031E-03
       100   -4.364645E-03
       101    1.098652E-01
       102    8.092196E-06
       103   -2.391057E-06
       104   -5.701140E-06
       105    1.222907E-06
       106    4.966811E-03
       107   -5.417745E-04
       108    8.292140E-05
       109   -4.947895E-05
       110   -3.344245E-05
       111    1.425511E-05
       112    9.530728E-03
       113    4.184000E-04
       114   -7.644300E-04
       115    8.480994E-04
       116   -8.366941E-05
       117    5.471755E-04
       118    2.745549E-03
       119   -4.920806E-04
       120    3.953443E-06
       121   -7.891181E-07
       122   -1.162040E-03
       123   -8.663182E-07
       124    3.128038E-07
       125    1.405535E-03
       126   -4.437782E-06
       127    7.459093E-07
       128    1.535051E-04
       129   -3.275108E-06
       130   -1.392989E-05
       131   -3.306675E-05
       132    1.309427E-04
       133   -5.375354E-04
       134   -9.484662E-03
       135   -4.381784E-04
       136    1.371251E-04
       137    7.766954E-05
       138    1.991491E-01
       139    3.274773E-04
       140    1.563822E-04
       141    2.017951E-01
       142   -5.293174E-03
       143    6.620888E-03
       144    1.287686E-01
       145   -1.179055E-05
       146   -7.701777E-07
       147    1.256073E-05
       148    7.022949E-06
       149   -4.676123E-03
       150   -4.873592E-04
       151   -1.303810E-04
       152    4.034680E-05
       153    9.003420E-05
       154    6.784622E-05
       155   -8.327096E-03
       156   -7.655165E-04
       157    2.396763E-04
       158   -4.390089E-04
       159    1.993326E-04
       160    8.910778E-04
       161   -5.567775E-04
       162   -2.724895E-03
       163    4.950353E-06
       164    1.211003E-06
       165   -1.305959E-03
       166   -3.090734E-06
       167    5.107141E-07
       168    1.458663E-03
       169   -3.550862E-06
       170   -2.135445E-06
       171    2.934643E-04
       172   -4.712036E-05
       173    6.323492E-07
       174    1.303882E-06
       175    3.971885E-06
       176   -1.257703E-05
       177   -2.671184E-03
       178   -1.549251E-04
       179   -1.588022E-07
       180   -1.121170E-04
       181    1.069406E-05
       182    1.201272E-05
       183   -9.997930E-05
       184    3.379306E-06
       185    9.576815E-04
       186    1.399078E-02
       187   -1.321539E-05
       188    1.954490E-07
       189   -1.168838E-07
       190   -7.856516E-08
       191   -2.193332E-05
       192   -1.619350E-06
       193    7.444790E-03
       194   -1.432870E-07
       195   -6.104388E-06
       196    6.247675E-06
       197   -8.843230E-05
       198   -1.290607E-06
       199    1.546797E-02
       200   -2.512833E-05
       201   -3.448854E-05
       202    5.961687E-05
       203   -2.573392E-03
       204    2.425143E-06
       205   -2.929243E-03
       206   -1.138059E-07
       207    4.462584E-06
       208    9.014473E-08
       209    2.282186E-07
       210   -3.322343E-06
       211   -2.538722E-07
       212   -7.553190E-08
       213   -2.664841E-06
       214    1.329303E-07
       215   -1.175295E-03
       216    1.475406E-05
       217    3.487682E-05
       218   -1.421354E-04
       219    5.678285E-04
       220    1.381067E-02
       221    5.834428E-04
       222   -1.425446E-04
       223    7.997954E-05
       224   -1.991112E-01
       225   -3.688023E-04
       226    1.885655E-04
       227   -2.017540E-01
       228    4.641781E-03
       229    8.471225E-03
       230   -1.285894E-01
       231    1.189236E-05
       232    3.077175E-07
       233   -1.220008E-05
       234    7.311088E-06
       235    4.676684E-03
       236   -4.870001E-04
       237    1.405854E-04
       238   -4.363091E-05
       239   -9.695452E-05
       240    7.503523E-05
       241    8.328740E-03
       242   -7.605791E-04
       243   -3.018098E-04
       244    5.629077E-04
       245   -2.610980E-04
       246    8.022309E-04
       247    5.367456E-04
       248   -2.704195E-03
       249   -5.230509E-06
       250    1.377048E-06
       251    1.305821E-03
       252    3.271401E-06
       253    5.963298E-07
       254   -1.458762E-03
       255    3.746063E-06
       256   -2.443833E-06
       257   -2.931813E-04
       258   -4.690167E-05
       259    2.765378E-05
       260    2.026047E-05
       261   -7.398129E-04
       262   -9.902461E-06
       263   -1.795098E-06
       264   -7.695092E-03
       265    7.209911E-05
       266   -3.062700E-04
       267   -7.511099E-03
       268   -2.489703E-05
       269   -3.738158E-05
       270    1.430470E-04
       271    9.112263E-06
       272   -5.680040E-07
       273    7.694356E-03
       274   -1.065387E-04
       275   -1.522326E-04
       276    7.479220E-03
       277    1.203946E-05
       278    1.375307E-05
       279   -1.813988E-03
       280    1.364188E-05
       281    3.488692E-06
       282    8.549758E-03
       283    4.534377E-04
       284    1.566728E-04
       285    9.590464E-03
       286   -1.630875E-05
       287   -6.236789E-06
       288    2.203150E-03
       289   -1.439002E-05
       290    4.901274E-06
       291   -8.548219E-03
       292   -4.804356E-04
       293    2.934097E-04
       294   -9.583900E-03
       295   -2.139404E-08
       296   -2.382607E-08
       297   -6.003435E-07
       298    2.488107E-06
       299    1.385660E-04
       300   -6.731411E-05
       301    4.947630E-07
       302   -9.731395E-06
       303    3.130070E-07
       304    2.038882E-06
       305    6.894596E-06
       306    2.743686E-07
       307    3.313952E-05
       308    2.299137E-04
       309   -1.665701E-06
       310    1.037027E-07
       311   -1.253924E-07
       312    2.168975E-08
       313   -2.377066E-06
       314   -3.244612E-07
       315   -1.411292E-03
       316    3.707744E-07
       317   -6.055513E-08
       318   -3.102192E-07
       319    3.977914E-06
       320   -8.232528E-07
       321   -3.698712E-03
       322   -7.072359E-06
       323   -5.530432E-06
       324    1.260279E-05
       325    1.456099E-04
       326    5.871279E-07
       327   -2.171147E-03
       328    1.868259E-08
       329   -7.128629E-07
       330   -8.039296E-09
       331   -3.181192E-08
       332    2.543709E-06
       333   -4.288192E-08
       334    6.746597E-09
       335   -1.587303E-06
       336    5.366777E-08
       337    4.169163E-04
       338    8.066547E-07
       339    2.028804E-06
       340   -3.715217E-06
       341    4.279577E-06
       342   -1.029514E-05
       343   -2.522406E-05
       344   -1.390387E-04
       345   -7.041679E-06
       346   -4.540382E-02
       347   -1.242737E-04
       348   -3.249323E-06
       349   -4.223533E-02
       350   -1.841704E-04
       351   -4.758235E-05
       352   -3.027624E-02
       353   -2.413845E-05
       354   -9.196428E-06
       355   -1.816447E-03
       356   -3.769052E-07
       357   -1.574922E-07
       358    5.343973E-07
       359    9.415439E-07
       360   -1.582277E-04
       361    3.532924E-04
       362   -4.116686E-06
       363    6.861371E-07
       364    3.430548E-06
       365    4.747610E-06
       366   -5.579409E-04
       367    1.362982E-03
       368   -7.515364E-06
       369    1.639131E-05
       370   -8.875947E-06
       371    7.955925E-06
       372    9.435540E-05
       373    1.365268E-04
       374    1.880308E-07
       375   -7.894535E-08
       376    5.267982E-05
       377   -3.522636E-07
       378    6.288382E-07
       379    3.146079E-05
       380    9.999380E-08
       381   -5.229219E-07
       382   -1.021382E-04
       383    1.201800E-04
       384   -7.423364E-07
       385   -1.892052E-06
       386    3.986133E-06
       387   -7.595244E-06
       388    4.760185E-05
       389    6.598902E-05
       390    1.338437E-04
       391   -6.193427E-06
       392    4.541479E-02
       393    1.205594E-04
       394   -3.305796E-06
       395    4.224526E-02
       396    1.779187E-04
       397   -3.664198E-05
       398    3.028535E-02
       399    2.871924E-05
       400   -4.008026E-06
       401    1.816380E-03
       402    3.822208E-07
       403    1.536027E-07
       404   -5.358236E-07
       405    8.792288E-07
       406    1.582417E-04
       407    3.533935E-04
       408    3.882593E-06
       409   -6.422088E-07
       410   -3.240384E-06
       411    4.655738E-06
       412    5.580639E-04
       413    1.363316E-03
       414    6.854440E-06
       415   -1.466213E-05
       416    7.807689E-06
       417    6.194354E-06
       418   -9.496391E-05
       419    1.374498E-04
       420   -1.947073E-07
       421   -6.115748E-08
       422   -5.269472E-05
       423    3.261872E-07
       424    6.075875E-07
       425   -3.147687E-05
       426   -6.495994E-08
       427   -5.255361E-07
       428    1.021743E-04
       429    1.202071E-04
       430   -1.002334E-06
       431   -2.418934E-06
       432    4.004786E-06
       433    4.617000E-07
       434   -1.471665E-05
       435    7.056675E-05
       436    1.270754E-06
       437   -8.312176E-04
       438   -4.149573E-05
       439    3.016227E-06
       440   -1.090023E-03
       441   -4.062347E-05
       442   -3.738716E-05
       443   -1.388604E-03
       444   -3.646142E-05
       445    3.685891E-08
       446   -2.838362E-08
       447   -8.475296E-09
       448    1.829785E-05
       449   -4.947997E-08
       450    2.965726E-04
       451    3.310590E-07
       452    4.043053E-07
       453   -7.353642E-07
       454   -4.967604E-05
       455   -4.334338E-08
       456    6.521875E-04
       457    1.214729E-05
       458   -3.258118E-06
       459   -8.889169E-06
       460   -6.390060E-04
       461    9.491646E-07
       462   -1.057629E-03
       463    7.966733E-09
       464   -3.826983E-06
       465    1.744028E-07
       466    1.570716E-08
       467   -1.381840E-05
       468   -1.221065E-07
       469   -2.639565E-08
       470    1.895284E-05
       471   -1.118795E-07
       472   -1.331468E-04
       473    5.907882E-05
       474    5.860465E-04
       475    4.015846E-03
       476   -6.309020E-05
       477   -7.997167E-05
       478    3.697806E-04
       479   -3.171574E-04
       480   -8.484728E-04
       481    1.917914E-03
       482   -6.221360E-05
       483   -5.937897E-04
       484   -4.005578E-03
       485    6.416724E-05
       486   -8.091721E-05
       487   -3.737800E-04
       488    2.986744E-04
       489   -8.578004E-04
       490   -1.920465E-03
 Sym= X
 Ene= 0.900811
 Spin= Alpha
 Occup= 0.900811
         1    1.873988E-04
         2    4.776422E-04
         3   -1.491900E-03
         4    8.077241E-03
         5   -1.671225E-02
         6    8.995068E-02
         7   -4.983826E-04
         8   -2.898789E-04
         9   -1.945949E-01
        10   -7.436979E-03
        11   -9.502535E-04
        12   -2.125758E-01
        13   -1.836330E-01
        14    1.350117E-01
        15   -2.376606E-01
        16    3.437064E-05
        17    7.398774E-06
        18   -4.176941E-05
        19    1.348523E-05
        20    5.943813E-03
        21   -7.108296E-04
        22   -1.869714E-03
        23    1.437041E-03
        24    4.326736E-04
        25   -3.673472E-04
        26    1.681320E-02
        27    2.790876E-03
        28   -4.397321E-02
        29    3.785170E-02
        30    6.121511E-03
        31   -7.783662E-02
        32    3.213663E-02
        33    9.079338E-02
        34   -2.766884E-05
        35   -2.537502E-06
        36    2.466824E-04
        37   -2.995444E-05
        38   -3.068183E-05
        39    2.706773E-04
        40    6.707608E-05
        41    3.408624E-05
        42   -6.016364E-04
        43    3.705163E-05
        44   -5.992830E-06
        45   -1.323553E-05
        46   -2.283173E-06
        47    1.630992E-04
        48   -4.192968E-03
        49   -1.864931E-02
        50    2.435309E-05
        51    1.869149E-05
        52   -1.220674E-04
        53    6.088547E-05
        54    2.442568E-03
        55   -1.523236E-04
        56    1.323916E-02
        57    3.049924E-01
        58   -2.572888E-04
        59    3.954637E-06
        60   -3.806033E-06
        61   -1.486036E-07
        62    6.292299E-05