[Molden Format]
[Title]
ADC(2) - opt by CAM-B3LYP gaussian                                              
[Atoms] AU
 c     1    6 -.12588699998532E+01 -.22834089986974E+01 -.24579904026210E-01
 c     2    6 -.25576598737242E+01 0.00000000000000E+00 -.23328905326240E-01
 c     3    6 -.12588681101271E+01 0.22834089986974E+01 -.24585573204610E-01
 c     4    6 0.13319747639512E+01 0.22851362083829E+01 -.26548998656670E-01
 c     5    6 0.26868460402678E+01 0.00000000000000E+00 -.25991529447470E-01
 c     6    6 0.13319728742250E+01 -.22851362083829E+01 -.26541439752140E-01
 h     7    1 -.22976467859220E+01 -.40383900994038E+01 -.22042001829740E-01
 h     8    1 -.22976448961959E+01 0.40383919891299E+01 -.22053340186540E-01
 h     9    1 0.23511286338561E+01 0.40572968093633E+01 -.28790213850280E-01
 h    10    1 0.23511267441300E+01 -.40572968093633E+01 -.28775096041210E-01
 n    11    7 -.52730224718766E+01 0.00000000000000E+00 -.17674844736640E-01
 o    12    8 -.63812882673039E+01 0.20269372576683E+01 -.15259774738810E-01
 o    13    8 -.63812844878516E+01 -.20269372576683E+01 -.15276782274010E-01
 n    14    7 0.52436643953234E+01 0.00000000000000E+00 -.69084844181800E-01
 h    15    1 0.62047866654136E+01 0.16174392738504E+01 0.18526851385235E+00
 h    16    1 0.62047847756874E+01 -.16174411635765E+01 0.18526473440008E+00
[GTO]
    1 0
 s    6 1.00
 0.13575349682000E+05 0.60645503603591E-03
 0.20352333680000E+04 0.46979088884982E-02
 0.46322562359000E+03 0.24332477647552E-01
 0.13120019598000E+03 0.97399968307759E-01
 0.42853015891000E+02 0.30195584253780E+00
 0.15584185766000E+02 0.66233609137875E+00
 s    2 1.00
 0.62067138508000E+01 0.65595308539952E+00
 0.25764896527000E+01 0.37585633285142E+00
 s    1 1.00
 0.57696339419000E+00 0.10000000000000E+01
 s    1 1.00
 0.22972831358000E+00 0.10000000000000E+01
 s    1 1.00
 0.95164440028000E-01 0.10000000000000E+01
 s    1 1.00
 0.48475401370000E-01 0.10000000000000E+01
 p    4 1.00
 0.34697232244000E+02 0.11327220003114E-01
 0.79582622826000E+01 0.76169659202087E-01
 0.23780826883000E+01 0.30192252202676E+00
 0.81433208183000E+00 0.72785027349547E+00
 p    1 1.00
 0.28887547253000E+00 0.10000000000000E+01
 p    1 1.00
 0.10056823671000E+00 0.10000000000000E+01
 d    1 1.00
 0.10970000000000E+01 0.10000000000000E+01
 d    1 1.00
 0.31800000000000E+00 0.10000000000000E+01
 d    1 1.00
 0.90985336424000E-01 0.10000000000000E+01
 f    1 1.00
 0.76100000000000E+00 0.10000000000000E+01
 
    2 0
 s    6 1.00
 0.13575349682000E+05 0.60645503603591E-03
 0.20352333680000E+04 0.46979088884982E-02
 0.46322562359000E+03 0.24332477647552E-01
 0.13120019598000E+03 0.97399968307759E-01
 0.42853015891000E+02 0.30195584253780E+00
 0.15584185766000E+02 0.66233609137875E+00
 s    2 1.00
 0.62067138508000E+01 0.65595308539952E+00
 0.25764896527000E+01 0.37585633285142E+00
 s    1 1.00
 0.57696339419000E+00 0.10000000000000E+01
 s    1 1.00
 0.22972831358000E+00 0.10000000000000E+01
 s    1 1.00
 0.95164440028000E-01 0.10000000000000E+01
 s    1 1.00
 0.48475401370000E-01 0.10000000000000E+01
 p    4 1.00
 0.34697232244000E+02 0.11327220003114E-01
 0.79582622826000E+01 0.76169659202087E-01
 0.23780826883000E+01 0.30192252202676E+00
 0.81433208183000E+00 0.72785027349547E+00
 p    1 1.00
 0.28887547253000E+00 0.10000000000000E+01
 p    1 1.00
 0.10056823671000E+00 0.10000000000000E+01
 d    1 1.00
 0.10970000000000E+01 0.10000000000000E+01
 d    1 1.00
 0.31800000000000E+00 0.10000000000000E+01
 d    1 1.00
 0.90985336424000E-01 0.10000000000000E+01
 f    1 1.00
 0.76100000000000E+00 0.10000000000000E+01
 
    3 0
 s    6 1.00
 0.13575349682000E+05 0.60645503603591E-03
 0.20352333680000E+04 0.46979088884982E-02
 0.46322562359000E+03 0.24332477647552E-01
 0.13120019598000E+03 0.97399968307759E-01
 0.42853015891000E+02 0.30195584253780E+00
 0.15584185766000E+02 0.66233609137875E+00
 s    2 1.00
 0.62067138508000E+01 0.65595308539952E+00
 0.25764896527000E+01 0.37585633285142E+00
 s    1 1.00
 0.57696339419000E+00 0.10000000000000E+01
 s    1 1.00
 0.22972831358000E+00 0.10000000000000E+01
 s    1 1.00
 0.95164440028000E-01 0.10000000000000E+01
 s    1 1.00
 0.48475401370000E-01 0.10000000000000E+01
 p    4 1.00
 0.34697232244000E+02 0.11327220003114E-01
 0.79582622826000E+01 0.76169659202087E-01
 0.23780826883000E+01 0.30192252202676E+00
 0.81433208183000E+00 0.72785027349547E+00
 p    1 1.00
 0.28887547253000E+00 0.10000000000000E+01
 p    1 1.00
 0.10056823671000E+00 0.10000000000000E+01
 d    1 1.00
 0.10970000000000E+01 0.10000000000000E+01
 d    1 1.00
 0.31800000000000E+00 0.10000000000000E+01
 d    1 1.00
 0.90985336424000E-01 0.10000000000000E+01
 f    1 1.00
 0.76100000000000E+00 0.10000000000000E+01
 
    4 0
 s    6 1.00
 0.13575349682000E+05 0.60645503603591E-03
 0.20352333680000E+04 0.46979088884982E-02
 0.46322562359000E+03 0.24332477647552E-01
 0.13120019598000E+03 0.97399968307759E-01
 0.42853015891000E+02 0.30195584253780E+00
 0.15584185766000E+02 0.66233609137875E+00
 s    2 1.00
 0.62067138508000E+01 0.65595308539952E+00
 0.25764896527000E+01 0.37585633285142E+00
 s    1 1.00
 0.57696339419000E+00 0.10000000000000E+01
 s    1 1.00
 0.22972831358000E+00 0.10000000000000E+01
 s    1 1.00
 0.95164440028000E-01 0.10000000000000E+01
 s    1 1.00
 0.48475401370000E-01 0.10000000000000E+01
 p    4 1.00
 0.34697232244000E+02 0.11327220003114E-01
 0.79582622826000E+01 0.76169659202087E-01
 0.23780826883000E+01 0.30192252202676E+00
 0.81433208183000E+00 0.72785027349547E+00
 p    1 1.00
 0.28887547253000E+00 0.10000000000000E+01
 p    1 1.00
 0.10056823671000E+00 0.10000000000000E+01
 d    1 1.00
 0.10970000000000E+01 0.10000000000000E+01
 d    1 1.00
 0.31800000000000E+00 0.10000000000000E+01
 d    1 1.00
 0.90985336424000E-01 0.10000000000000E+01
 f    1 1.00
 0.76100000000000E+00 0.10000000000000E+01
 
    5 0
 s    6 1.00
 0.13575349682000E+05 0.60645503603591E-03
 0.20352333680000E+04 0.46979088884982E-02
 0.46322562359000E+03 0.24332477647552E-01
 0.13120019598000E+03 0.97399968307759E-01
 0.42853015891000E+02 0.30195584253780E+00
 0.15584185766000E+02 0.66233609137875E+00
 s    2 1.00
 0.62067138508000E+01 0.65595308539952E+00
 0.25764896527000E+01 0.37585633285142E+00
 s    1 1.00
 0.57696339419000E+00 0.10000000000000E+01
 s    1 1.00
 0.22972831358000E+00 0.10000000000000E+01
 s    1 1.00
 0.95164440028000E-01 0.10000000000000E+01
 s    1 1.00
 0.48475401370000E-01 0.10000000000000E+01
 p    4 1.00
 0.34697232244000E+02 0.11327220003114E-01
 0.79582622826000E+01 0.76169659202087E-01
 0.23780826883000E+01 0.30192252202676E+00
 0.81433208183000E+00 0.72785027349547E+00
 p    1 1.00
 0.28887547253000E+00 0.10000000000000E+01
 p    1 1.00
 0.10056823671000E+00 0.10000000000000E+01
 d    1 1.00
 0.10970000000000E+01 0.10000000000000E+01
 d    1 1.00
 0.31800000000000E+00 0.10000000000000E+01
 d    1 1.00
 0.90985336424000E-01 0.10000000000000E+01
 f    1 1.00
 0.76100000000000E+00 0.10000000000000E+01
 
    6 0
 s    6 1.00
 0.13575349682000E+05 0.60645503603591E-03
 0.20352333680000E+04 0.46979088884982E-02
 0.46322562359000E+03 0.24332477647552E-01
 0.13120019598000E+03 0.97399968307759E-01
 0.42853015891000E+02 0.30195584253780E+00
 0.15584185766000E+02 0.66233609137875E+00
 s    2 1.00
 0.62067138508000E+01 0.65595308539952E+00
 0.25764896527000E+01 0.37585633285142E+00
 s    1 1.00
 0.57696339419000E+00 0.10000000000000E+01
 s    1 1.00
 0.22972831358000E+00 0.10000000000000E+01
 s    1 1.00
 0.95164440028000E-01 0.10000000000000E+01
 s    1 1.00
 0.48475401370000E-01 0.10000000000000E+01
 p    4 1.00
 0.34697232244000E+02 0.11327220003114E-01
 0.79582622826000E+01 0.76169659202087E-01
 0.23780826883000E+01 0.30192252202676E+00
 0.81433208183000E+00 0.72785027349547E+00
 p    1 1.00
 0.28887547253000E+00 0.10000000000000E+01
 p    1 1.00
 0.10056823671000E+00 0.10000000000000E+01
 d    1 1.00
 0.10970000000000E+01 0.10000000000000E+01
 d    1 1.00
 0.31800000000000E+00 0.10000000000000E+01
 d    1 1.00
 0.90985336424000E-01 0.10000000000000E+01
 f    1 1.00
 0.76100000000000E+00 0.10000000000000E+01
 
    7 0
 s    3 1.00
 0.34061341000000E+02 0.25439307208879E-01
 0.51235746000000E+01 0.19008594890375E+00
 0.11646626000000E+01 0.85244113011042E+00
 s    1 1.00
 0.32723041000000E+00 0.10000000000000E+01
 s    1 1.00
 0.10307241000000E+00 0.10000000000000E+01
 p    1 1.00
 0.80000000000000E+00 0.10000000000000E+01
 p    1 1.00
 0.95774129632000E-01 0.10000000000000E+01
 
    8 0
 s    3 1.00
 0.34061341000000E+02 0.25439307208879E-01
 0.51235746000000E+01 0.19008594890375E+00
 0.11646626000000E+01 0.85244113011042E+00
 s    1 1.00
 0.32723041000000E+00 0.10000000000000E+01
 s    1 1.00
 0.10307241000000E+00 0.10000000000000E+01
 p    1 1.00
 0.80000000000000E+00 0.10000000000000E+01
 p    1 1.00
 0.95774129632000E-01 0.10000000000000E+01
 
    9 0
 s    3 1.00
 0.34061341000000E+02 0.25439307208879E-01
 0.51235746000000E+01 0.19008594890375E+00
 0.11646626000000E+01 0.85244113011042E+00
 s    1 1.00
 0.32723041000000E+00 0.10000000000000E+01
 s    1 1.00
 0.10307241000000E+00 0.10000000000000E+01
 p    1 1.00
 0.80000000000000E+00 0.10000000000000E+01
 p    1 1.00
 0.95774129632000E-01 0.10000000000000E+01
 
   10 0
 s    3 1.00
 0.34061341000000E+02 0.25439307208879E-01
 0.51235746000000E+01 0.19008594890375E+00
 0.11646626000000E+01 0.85244113011042E+00
 s    1 1.00
 0.32723041000000E+00 0.10000000000000E+01
 s    1 1.00
 0.10307241000000E+00 0.10000000000000E+01
 p    1 1.00
 0.80000000000000E+00 0.10000000000000E+01
 p    1 1.00
 0.95774129632000E-01 0.10000000000000E+01
 
   11 0
 s    6 1.00
 0.19730800647000E+05 0.58626402628763E-03
 0.29578958745000E+04 0.45428820586397E-02
 0.67322133595000E+03 0.23558413450084E-01
 0.19068249494000E+03 0.94709193292923E-01
 0.62295441898000E+02 0.29719784913376E+00
 0.22654161182000E+02 0.66916246895232E+00
 s    2 1.00
 0.89791477428000E+01 0.64596683630063E+00
 0.36863002370000E+01 0.38700574393705E+00
 s    1 1.00
 0.84660076805000E+00 0.10000000000000E+01
 s    1 1.00
 0.33647133771000E+00 0.10000000000000E+01
 s    1 1.00
 0.13647653675000E+00 0.10000000000000E+01
 s    1 1.00
 0.68441605847000E-01 0.10000000000000E+01
 p    4 1.00
 0.49200380510000E+02 0.11448825101764E-01
 0.11346790537000E+02 0.78422337970864E-01
 0.34273972411000E+01 0.30818094738830E+00
 0.11785525134000E+01 0.72027196368413E+00
 p    1 1.00
 0.41642204972000E+00 0.10000000000000E+01
 p    1 1.00
 0.14260826011000E+00 0.10000000000000E+01
 d    1 1.00
 0.16540000000000E+01 0.10000000000000E+01
 d    1 1.00
 0.46900000000000E+00 0.10000000000000E+01
 d    1 1.00
 0.12829642058000E+00 0.10000000000000E+01
 f    1 1.00
 0.10930000000000E+01 0.10000000000000E+01
 
   12 0
 s    6 1.00
 0.27032382631000E+05 0.57227335211155E-03
 0.40523871392000E+04 0.44353233492995E-02
 0.92232722710000E+03 0.23020107706038E-01
 0.26124070989000E+03 0.92822490667928E-01
 0.85354641351000E+02 0.29378500009671E+00
 0.31035035245000E+02 0.67401604501641E+00
 s    2 1.00
 0.12260860728000E+02 0.63839937025506E+00
 0.49987076005000E+01 0.39534587125718E+00
 s    1 1.00
 0.11703108158000E+01 0.10000000000000E+01
 s    1 1.00
 0.46474740994000E+00 0.10000000000000E+01
 s    1 1.00
 0.18504536357000E+00 0.10000000000000E+01
 s    1 1.00
 0.70288026270000E-01 0.10000000000000E+01
 p    4 1.00
 0.63274954801000E+02 0.12018332222616E-01
 0.14627049379000E+02 0.83005421790056E-01
 0.44501223456000E+01 0.31991743925964E+00
 0.15275799647000E+01 0.70715542916104E+00
 p    1 1.00
 0.52935117943000E+00 0.10000000000000E+01
 p    1 1.00
 0.17478421270000E+00 0.10000000000000E+01
 p    1 1.00
 0.51112745706000E-01 0.10000000000000E+01
 d    1 1.00
 0.23140000000000E+01 0.10000000000000E+01
 d    1 1.00
 0.64500000000000E+00 0.10000000000000E+01
 d    1 1.00
 0.14696477366000E+00 0.10000000000000E+01
 f    1 1.00
 0.14280000000000E+01 0.10000000000000E+01
 
   13 0
 s    6 1.00
 0.27032382631000E+05 0.57227335211155E-03
 0.40523871392000E+04 0.44353233492995E-02
 0.92232722710000E+03 0.23020107706038E-01
 0.26124070989000E+03 0.92822490667928E-01
 0.85354641351000E+02 0.29378500009671E+00
 0.31035035245000E+02 0.67401604501641E+00
 s    2 1.00
 0.12260860728000E+02 0.63839937025506E+00
 0.49987076005000E+01 0.39534587125718E+00
 s    1 1.00
 0.11703108158000E+01 0.10000000000000E+01
 s    1 1.00
 0.46474740994000E+00 0.10000000000000E+01
 s    1 1.00
 0.18504536357000E+00 0.10000000000000E+01
 s    1 1.00
 0.70288026270000E-01 0.10000000000000E+01
 p    4 1.00
 0.63274954801000E+02 0.12018332222616E-01
 0.14627049379000E+02 0.83005421790056E-01
 0.44501223456000E+01 0.31991743925964E+00
 0.15275799647000E+01 0.70715542916104E+00
 p    1 1.00
 0.52935117943000E+00 0.10000000000000E+01
 p    1 1.00
 0.17478421270000E+00 0.10000000000000E+01
 p    1 1.00
 0.51112745706000E-01 0.10000000000000E+01
 d    1 1.00
 0.23140000000000E+01 0.10000000000000E+01
 d    1 1.00
 0.64500000000000E+00 0.10000000000000E+01
 d    1 1.00
 0.14696477366000E+00 0.10000000000000E+01
 f    1 1.00
 0.14280000000000E+01 0.10000000000000E+01
 
   14 0
 s    6 1.00
 0.19730800647000E+05 0.58626402628763E-03
 0.29578958745000E+04 0.45428820586397E-02
 0.67322133595000E+03 0.23558413450084E-01
 0.19068249494000E+03 0.94709193292923E-01
 0.62295441898000E+02 0.29719784913376E+00
 0.22654161182000E+02 0.66916246895232E+00
 s    2 1.00
 0.89791477428000E+01 0.64596683630063E+00
 0.36863002370000E+01 0.38700574393705E+00
 s    1 1.00
 0.84660076805000E+00 0.10000000000000E+01
 s    1 1.00
 0.33647133771000E+00 0.10000000000000E+01
 s    1 1.00
 0.13647653675000E+00 0.10000000000000E+01
 s    1 1.00
 0.68441605847000E-01 0.10000000000000E+01
 p    4 1.00
 0.49200380510000E+02 0.11448825101764E-01
 0.11346790537000E+02 0.78422337970864E-01
 0.34273972411000E+01 0.30818094738830E+00
 0.11785525134000E+01 0.72027196368413E+00
 p    1 1.00
 0.41642204972000E+00 0.10000000000000E+01
 p    1 1.00
 0.14260826011000E+00 0.10000000000000E+01
 d    1 1.00
 0.16540000000000E+01 0.10000000000000E+01
 d    1 1.00
 0.46900000000000E+00 0.10000000000000E+01
 d    1 1.00
 0.12829642058000E+00 0.10000000000000E+01
 f    1 1.00
 0.10930000000000E+01 0.10000000000000E+01
 
   15 0
 s    3 1.00
 0.34061341000000E+02 0.25439307208879E-01
 0.51235746000000E+01 0.19008594890375E+00
 0.11646626000000E+01 0.85244113011042E+00
 s    1 1.00
 0.32723041000000E+00 0.10000000000000E+01
 s    1 1.00
 0.10307241000000E+00 0.10000000000000E+01
 p    1 1.00
 0.80000000000000E+00 0.10000000000000E+01
 p    1 1.00
 0.95774129632000E-01 0.10000000000000E+01
 
   16 0
 s    3 1.00
 0.34061341000000E+02 0.25439307208879E-01
 0.51235746000000E+01 0.19008594890375E+00
 0.11646626000000E+01 0.85244113011042E+00
 s    1 1.00
 0.32723041000000E+00 0.10000000000000E+01
 s    1 1.00
 0.10307241000000E+00 0.10000000000000E+01
 p    1 1.00
 0.80000000000000E+00 0.10000000000000E+01
 p    1 1.00
 0.95774129632000E-01 0.10000000000000E+01
 
[MO]
 Sym= X
 Ene= -0.251057
 Spin= Alpha
 Occup= -0.251057
         1   -1.274631E-04
         2   -2.980320E-04
         3    8.939432E-04
         4   -2.196813E-03
         5   -1.167002E-02
         6   -9.042180E-03
         7    1.076272E-03
         8    1.290630E-04
         9    3.144828E-02
        10   -2.115281E-03
        11    2.775447E-04
        12    2.951551E-02
        13   -3.004518E-02
        14    8.730415E-03
        15    6.725463E-03
        16   -6.714910E-06
        17   -4.776969E-06
        18    1.149188E-05
        19   -4.446580E-06
        20   -6.525198E-03
        21    4.138301E-03
        22   -5.498007E-04
        23    3.273236E-04
        24    2.224771E-04
        25   -5.501650E-04
        26   -1.468667E-02
        27    7.754817E-03
        28   -4.498740E-03
        29    4.221397E-03
        30    2.773432E-04
        31    8.049307E-04
        32    8.831040E-04
        33   -9.398258E-03
        34   -1.672357E-05
        35    4.928558E-06
        36   -1.629942E-04
        37    7.200070E-06
        38   -5.130798E-06
        39   -6.873001E-04
        40    1.523695E-05
        41   -1.481556E-06
        42    9.059798E-04
        43   -7.453369E-04
        44    1.904893E-05
        45    4.178780E-05
        46    9.519324E-05
        47   -1.994205E-03
        48   -4.468937E-02
        49    3.974611E-03
        50    4.293867E-04
        51    1.154139E-06
        52    2.189146E-01
        53   -2.000540E-04
        54    2.247679E-05
        55    2.268436E-01
        56   -1.430340E-02
        57   -1.416382E-03
        58    2.057995E-01
        59    2.248692E-05
        60   -2.045186E-05
        61   -2.035065E-06
        62    1.171975E-07
        63   -7.622170E-04
        64    1.233533E-06
        65    2.820822E-04
        66   -4.775302E-04
        67    1.954480E-04
        68    4.993982E-06
        69   -3.579011E-03
        70    2.187098E-06
        71    6.768285E-03
        72   -7.723789E-03
        73    9.555034E-04
        74   -2.441305E-04
        75    5.552217E-03
        76   -2.408138E-05
        77    7.249291E-06
        78    5.040311E-08
        79   -1.263400E-03
        80   -5.111794E-06
        81    3.789374E-08
        82    7.756788E-04
        83   -4.614151E-06
        84   -1.055166E-07
        85    9.193507E-04
        86    1.526091E-07
        87   -1.276909E-04
        88   -2.986784E-04
        89    9.034759E-04
        90   -2.277028E-03
        91   -9.290882E-03
        92   -8.962629E-03
        93    1.077344E-03
        94   -1.304443E-04
        95    3.150731E-02
        96   -2.099316E-03
        97   -2.613321E-04
        98    2.957185E-02
        99   -3.099741E-02
       100   -1.023598E-02
       101    6.851811E-03
       102   -6.890470E-06
       103   -4.771485E-06
       104    1.166196E-05
       105    4.721158E-06
       106   -6.524461E-03
       107   -4.138569E-03
       108   -5.459237E-04
       109    3.220177E-04
       110    2.239060E-04
       111    5.460621E-04
       112   -1.468266E-02
       113   -7.754196E-03
       114   -4.775790E-03
       115    4.527751E-03
       116    2.480389E-04
       117   -6.043985E-04
       118    8.781317E-04
       119    9.358991E-03
       120   -1.690083E-05
       121   -4.901112E-06
       122   -1.633042E-04
       123    7.512227E-06
       124    5.137978E-06
       125   -6.869599E-04
       126    1.516262E-05
       127    1.437555E-06
       128    9.060554E-04
       129    7.452615E-04
       130    7.777015E-05
       131    1.656180E-04
       132    5.109907E-04
       133   -8.151775E-03
       134    2.788550E-02
       135    1.007926E-02
       136   -7.840581E-04
       137    3.824406E-04
       138   -1.565572E-01
       139   -7.037238E-03
       140    4.788740E-03
       141   -1.592383E-01
       142   -2.218032E-02
       143   -5.291265E-03
       144   -9.653931E-02
       145    1.011440E-04
       146   -1.220212E-04
       147    2.087718E-05
       148   -4.917247E-06
       149   -1.158596E-03
       150    3.201181E-03
       151    4.968537E-04
       152   -5.845421E-04
       153    8.768842E-05
       154    1.342655E-03
       155   -4.596188E-03
       156    5.484869E-03
       157    6.916761E-03
       158   -5.452452E-03
       159   -1.464309E-03
       160   -6.773244E-03
       161    2.978060E-03
       162   -1.044826E-02
       163   -1.227717E-05
       164    5.781189E-06
       165    8.951426E-04
       166   -1.372506E-05
       167    1.517039E-05
       168   -2.140312E-04
       169    3.019660E-05
       170   -2.292667E-05
       171   -9.869286E-04
       172    3.903282E-04
       173   -8.444874E-04
       174   -1.928075E-03
       175    1.932404E-03
       176    1.761641E-02
       177   -6.995382E-03
       178    8.318963E-03
       179    6.460314E-03
       180    1.410057E-06
       181   -1.296653E-01
       182   -5.955777E-06
       183   -1.153453E-05
       184   -1.316477E-01
       185   -1.854650E-02
       186    1.518462E-03
       187   -1.293275E-01
       188    3.525903E-04
       189   -1.896953E-04
       190   -1.628950E-04
       191    6.246577E-08
       192    9.144263E-03
       193    1.069535E-06
       194   -1.485999E-03
       195    3.270494E-03
       196   -1.784495E-03
       197    3.240389E-06
       198    2.306091E-02
       199   -1.465192E-06
       200   -4.205225E-03
       201    5.314706E-03
       202   -1.109482E-03
       203   -2.843520E-04
       204    1.880094E-02
       205    5.446777E-06
       206    8.726801E-05
       207    3.449795E-08
       208    5.042195E-04
       209   -6.264319E-05
       210   -9.721323E-08
       211    8.171177E-04
       212   -5.443913E-05
       213    5.092938E-08
       214   -1.493599E-03
       215   -1.439899E-08
       216    7.855066E-05
       217    1.671984E-04
       218    5.150236E-04
       219   -8.233151E-03
       220    3.058642E-02
       221    1.012334E-02
       222   -7.857845E-04
       223   -3.769844E-04
       224   -1.566015E-01
       225   -7.041905E-03
       226   -4.801662E-03
       227   -1.592930E-01
       228   -2.108684E-02
       229    7.060680E-03
       230   -9.647461E-02
       231    1.008671E-04
       232   -1.225663E-04
       233    2.169918E-05
       234    4.940045E-06
       235   -1.157331E-03
       236   -3.201409E-03
       237    4.987982E-04
       238   -5.869953E-04
       239    8.819714E-05
       240   -1.344717E-03
       241   -4.592008E-03
       242   -5.485013E-03
       243    6.631665E-03
       244   -5.150940E-03
       245   -1.480726E-03
       246    7.013696E-03
       247    2.986241E-03
       248    1.049964E-02
       249   -1.221230E-05
       250   -5.836648E-06
       251    8.957045E-04
       252   -1.394527E-05
       253   -1.509284E-05
       254   -2.146245E-04
       255    3.032979E-05
       256    2.292352E-05
       257   -9.870892E-04
       258   -3.903285E-04
       259   -2.098677E-04
       260   -4.881493E-05
       261   -1.386853E-02
       262   -9.353088E-06
       263    1.232930E-05
       264    1.216258E-03
       265   -4.332033E-03
       266   -9.634682E-05
       267   -6.123931E-03
       268   -2.111877E-04
       269   -4.253463E-05
       270   -1.366978E-02
       271   -8.207086E-06
       272   -1.300776E-05
       273    1.218993E-03
       274   -4.479863E-03
       275   -2.586104E-05
       276   -6.096079E-03
       277   -2.892069E-04
       278   -1.822677E-03
       279    2.716185E-02
       280   -2.931514E-06
       281    7.218096E-05
       282   -6.390771E-03
       283   -1.094615E-03
       284   -2.195976E-03
       285    3.203431E-04
       286   -2.933067E-04
       287   -1.824876E-03
       288    2.756568E-02
       289   -2.709222E-06
       290   -7.221849E-05
       291   -6.393140E-03
       292   -9.758598E-04
       293    2.342075E-03
       294    3.504295E-04
       295   -2.812889E-05
       296   -6.464418E-05
       297    4.211762E-05
       298    2.827284E-04
       299   -4.926104E-03
       300    1.593744E-03
       301    2.917238E-04
       302   -1.096002E-07
       303    2.610366E-02
       304    5.910083E-05
       305    9.712629E-07
       306    2.821573E-02
       307   -2.311281E-03
       308    2.947631E-05
       309    1.248640E-02
       310    1.912590E-05
       311   -3.011256E-06
       312   -1.611465E-05
       313   -5.886799E-09
       314    4.695857E-03
       315    4.902329E-09
       316    1.050753E-05
       317    5.481539E-05
       318   -6.532292E-05
       319   -6.032719E-07
       320    1.419884E-02
       321   -2.004902E-07
       322   -9.349973E-04
       323    2.340634E-03
       324   -1.405636E-03
       325    4.102441E-05
       326    3.790268E-03
       327    4.343700E-06
       328    6.135216E-06
       329    8.623786E-09
       330   -2.559465E-05
       331   -4.202030E-06
       332    1.737205E-08
       333    7.586728E-04
       334   -4.029226E-06
       335   -2.894208E-08
       336   -7.243340E-04
       337    3.279069E-08
       338   -6.732168E-06
       339   -1.359575E-05
       340   -1.594051E-05
       341    3.847205E-04
       342   -4.675189E-03
       343   -7.493105E-04
       344   -1.819354E-04
       345    6.495019E-05
       346   -8.129293E-02
       347   -2.448440E-04
       348    1.756117E-04
       349   -7.545366E-02
       350   -1.260316E-03
       351    3.343128E-04
       352   -6.236468E-02
       353   -1.156041E-04
       354    1.918949E-04
       355   -7.791978E-03
       356    2.733233E-06
       357   -2.797235E-06
       358    6.400227E-08
       359    3.519396E-07
       360    4.381457E-05
       361    4.446933E-04
       362   -1.116567E-05
       363   -6.103872E-06
       364    1.726954E-05
       365    1.022948E-05
       366   -4.432067E-04
       367    1.517990E-03
       368   -7.299764E-05
       369    5.951130E-05
       370    1.348634E-05
       371    8.978298E-05
       372   -2.286851E-04
       373    1.780115E-04
       374    6.716884E-07
       375    1.025551E-06
       376    5.683849E-05
       377   -1.091023E-06
       378   -7.543598E-09
       379    8.872816E-05
       380    1.898582E-07
       381   -1.368377E-06
       382   -1.649850E-04
       383    1.287426E-04
       384   -6.608276E-06
       385   -1.333645E-05
       386   -1.578435E-05
       387    3.798527E-04
       388   -4.686144E-03
       389   -7.071935E-04
       390   -1.777012E-04
       391   -6.619796E-05
       392   -8.128903E-02
       393   -2.412885E-04
       394   -1.758581E-04
       395   -7.545033E-02
       396   -1.217793E-03
       397   -3.385839E-04
       398   -6.235630E-02
       399   -9.684583E-05
       400   -1.968375E-04
       401   -7.797529E-03
       402    2.709827E-06
       403   -2.807843E-06
       404    9.801638E-08
       405   -4.076190E-07
       406    4.377466E-05
       407   -4.446669E-04
       408   -1.071415E-05
       409   -6.104197E-06
       410    1.681835E-05
       411   -9.709830E-06
       412   -4.430827E-04
       413   -1.517887E-03
       414   -7.248067E-05
       415    6.027789E-05
       416    1.220278E-05
       417   -8.902865E-05
       418   -2.298973E-04
       419   -1.773374E-04
       420    6.733029E-07
       421   -1.024041E-06
       422    5.684250E-05
       423   -1.073806E-06
       424    1.509461E-08
       425    8.871823E-05
       426    1.704758E-07
       427    1.358800E-06
       428   -1.649804E-04
       429   -1.287403E-04
       430    3.724746E-03
       431    8.864439E-03
       432   -1.390024E-02
       433   -2.142734E-02
       434   -1.966013E-02
       435   -6.008702E-02
       436   -1.296307E-02
       437    8.419315E-06
       438    2.164295E-01
       439   -1.501605E-02
       440   -2.138452E-06
       441    2.146057E-01
       442   -1.276903E-02
       443   -1.142568E-04
       444    1.807660E-01
       445   -8.096797E-05
       446    2.468318E-05
       447    5.628479E-05
       448    1.826088E-07
       449    1.095807E-03
       450    3.093884E-07
       451   -2.059489E-04
       452   -1.121095E-03
       453    1.327044E-03
       454   -4.253105E-06
       455    4.347975E-03
       456    1.448617E-06
       457   -1.832225E-03
       458   -2.003513E-03
       459    3.835738E-03
       460   -1.326405E-05
       461    2.304968E-03
       462    1.240807E-05
       463   -1.209818E-04
       464    1.420866E-08
       465   -8.053076E-04
       466   -5.997746E-05
       467   -2.253769E-08
       468    3.633237E-04
       469    2.222916E-04
       470    3.474781E-09
       471    7.171099E-04
       472    1.942052E-08
       473    8.220903E-03
       474    1.501998E-02
       475    2.455629E-02
       476   -1.792471E-03
       477   -1.563635E-03
       478    1.118406E-02
       479    1.670249E-03
       480   -2.941655E-03
       481    1.418155E-02
       482    8.215733E-03
       483    1.494131E-02
       484    2.420454E-02
       485   -1.788540E-03
       486    1.556020E-03
       487    1.118839E-02
       488    1.711274E-03
       489    2.890461E-03
       490    1.420187E-02
 Sym= X
 Ene= -0.712751
 Spin= Alpha
 Occup= -0.712751
         1   -2.201314E-05
         2   -5.016093E-05
         3    1.239924E-04
         4   -1.704580E-04
         5   -9.583602E-03
         6   -4.598215E-04
         7   -1.368869E-04
         8   -1.542671E-04
         9   -1.896170E-01
        10   -5.523016E-04
        11   -3.420331E-05
        12   -1.900889E-01
        13    3.632513E-03
        14   -6.167728E-03
        15   -1.113983E-01
        16   -7.729618E-06
        17    2.401077E-06
        18    5.328540E-06
        19    1.634269E-06
        20   -4.981077E-03
        21   -5.487991E-04
        22   -9.625060E-05
        23    5.795363E-05
        24    3.829697E-05
        25    1.769222E-05
        26   -9.472906E-03
        27    3.907814E-04
        28    7.936714E-04
        29   -9.285520E-04
        30    1.348807E-04
        31    4.422829E-04
        32   -2.558394E-03
        33   -7.453073E-04
        34   -4.221629E-06
        35   -8.165986E-07
        36    1.174607E-03
        37    8.571135E-07
        38    1.644111E-07
        39   -1.419003E-03
        40    4.806796E-06
        41    9.311710E-07
        42   -1.568980E-04
        43    1.108222E-06
        44    1.674294E-07
        45    3.940753E-07
        46    5.121555E-07
        47   -3.336615E-05
        48    2.179136E-03
        49    1.173086E-04
        50   -1.336580E-06
        51    9.965899E-05
        52   -1.607270E-05
        53   -4.041072E-06
        54    1.960591E-04
        55   -8.952945E-06
        56    1.034433E-03
        57   -9.372751E-03
        58    4.799985E-05
        59   -3.119021E-08
        60   -1.105078E-07
        61    1.416980E-07
        62    9.962679E-06