 operating system is UNIX !
 hostname is         dlt19.abaxnet

 dscf (dlt19.abaxnet) : TURBOMOLE V6.6( 19103 ) 21 May 2014 at 15:45:05
 Copyright (C) 2014 TURBOMOLE GmbH, Karlsruhe


    2023-03-29 18:17:45.659 



                             d s c f - program

                   idea & directorship : reinhart ahlrichs
                   program development : marco haeser
                                         michael baer
                           dft version : oliver treutler


                          quantum chemistry group
                          universitaet  karlsruhe
                                  germany




                          References             
                                                 
          TURBOMOLE:                             
              R. Ahlrichs, M. Baer, M. Haeser, H. Horn, and
              C. Koelmel
              Electronic structure calculations on workstation
              computers: the program system TURBOMOLE
              Chem. Phys. Lett. 162: 165 (1989)
          Density Functional:                              
              O. Treutler and R. Ahlrichs                      
              Efficient Molecular Numerical Integration Schemes
              J. Chem. Phys. 102: 346 (1995)                   
          Parallel Version:                                
              Performance of parallel TURBOMOLE for Density    
              Functional Calculations                          
              M. v. Arnim and R. Ahlrichs                      
              J. Comp. Chem. 19: 1746 (1998)                   
                                         




              +--------------------------------------------------+
              | Atomic coordinate, charge and isotop information |
              +--------------------------------------------------+

                    atomic coordinates            atom    charge  isotop
         -1.25890656   -2.28309021   -0.02600539    c      6.000     0
         -2.55699122    0.00000087   -0.02473376    c      6.000     0
         -1.25890608    2.28309078   -0.02600807    c      6.000     0
          1.33242957    2.28461838   -0.02811468    c      6.000     0
          2.68675735    0.00000039   -0.02772325    c      6.000     0
          1.33242819   -2.28461807   -0.02811124    c      6.000     0
         -2.29825098   -4.03774811   -0.02331913    h      1.000     0
         -2.29824905    4.03774944   -0.02332432    h      1.000     0
          2.35149187    4.05688948   -0.03052902    h      1.000     0
          2.35149104   -4.05688882   -0.03052191    h      1.000     0
         -5.27421231    0.00000015   -0.01892527    n      7.000     0
         -6.38095344    2.02697624   -0.01645706    o      8.000     0
         -6.38095104   -2.02697725   -0.01646488    o      8.000     0
          5.24546036   -0.00000057   -0.07398941    n      7.000     0
          6.20368188    1.61649966    0.19711590    h      1.000     0
          6.20368041   -1.61650237    0.19711149    h      1.000     0
 
       center of nuclear mass  :   -1.36575211    0.00000002   -0.02511814
       center of nuclear charge:   -1.22391370    0.00000002   -0.02210311

   *************************************************************************
   ADC(2) - opt by CAM-B3LYP gaussian                                       
   *************************************************************************



              +--------------------------------------------------+
              |               basis set information              |
              +--------------------------------------------------+

              we will work with the 1s 3p 5d 7f 9g ... basis set
              ...i.e. with spherical basis functions...

   type   atoms  prim   cont   basis
   ---------------------------------------------------------------------------
    c        6     52     37   def2-TZVPD   [6s3p3d1f|12s6p3d1f]
    h        6     11      9   def2-TZVPD   [3s2p|5s2p]
    n        2     52     37   def2-TZVPD   [6s3p3d1f|12s6p3d1f]
    o        2     55     40   def2-TZVPD   [6s4p3d1f|12s7p3d1f]
   ---------------------------------------------------------------------------
   total:   16    592    430
   ---------------------------------------------------------------------------

   total number of primitive shells          :   74
   total number of contracted shells         :  162
   total number of cartesian basis functions :  490
   total number of SCF-basis functions       :  430

 ==============================================================================
                      COSMO switched on
 ==============================================================================
 COSMO: skip init. and read data from file
 This run uses frozen charges (from previous solvent iteration)
 Work to create reaction field =   2.166187139832937E-002

 integral neglect threshold       :  0.68E-11
 integral storage threshold THIZE :  0.10E-04
 integral storage threshold THIME :         5


 DENSITY CONVERGENCE CHECK SWITCHED ON !
 SCF CONVERGENCE IF RMS(delta[D]) <     0.1000000000E-07


 symmetry group of the molecule :   c1 

 the group has the following generators :
   c1(z)

    1 symmetry operations found

 there are 1 real representations :   a   

 maximum number of shells which are related by symmetry :  1


    mo occupation :
   irrep   mo's   occupied
    a      430       36
 
 number of basis functions   :          430
 number of occupied orbitals :           36
 

          ------------------------
          nuclear repulsion energy  :   498.679625102    
          ------------------------

 
          -----------------
          -S,T+V- integrals
          -----------------

 1e-integrals will be neglected if expon. factor < 0.682033E-12
 
   Difference densities algorithm switched on.
   The maximal number of linear combinations of
   difference densities is          20 .

 automatic virtual orbital shift switched on 
      shift if e(lumo)-e(homo) < 0.10000000    


 DIIS switched on: error vector is FDS-SDF
 Max. Iterations for DIIS is     :   5
 DIIS matrix (see manual) 
    Scaling factor of diagonals  :  1.200
    threshold for scaling factor :  0.000

 scf convergence criterion : increment of total energy < .1000000D-06
                  and increment of one-electron energy < .1000000D-03

  MOs are in ASCII format !


 reading orbital data $scfmo  from file mos . 

 orbital characterization : scfconv=7
 

 DSCF restart information will be dumped onto file mos

 COSMO: use frozen qcos
 
                                              current damping :  0.300
 ITERATION  ENERGY          1e-ENERGY        2e-ENERGY     RMS[dD(SAO)]   TOL
   1  -489.42151897415    -1655.9206498     667.81950568    0.000D+00 0.680D-11
                          Ediel =    -0.024105515673
          max. resid. norm for Fia-block=  1.399D-03 for orbital     31a         
          max. resid. fock norm         =  3.196D-03 for orbital    106a         
          Delta Eig. =     0.0725427702 eV 
 COSMO: use frozen qcos
 
                                              current damping :  0.250
 ITERATION  ENERGY          1e-ENERGY        2e-ENERGY     RMS[dD(SAO)]   TOL
   2  -489.42154728204    -1655.9412558     667.84008345    0.316D-03 0.433D-11
                          Ediel =    -0.023909840097
          Norm of current diis error: 0.88633E-02
          max. resid. norm for Fia-block=  5.196D-04 for orbital     36a         
          max. resid. fock norm         =  6.824D-04 for orbital     37a         
          Delta Eig. =     0.0266126551 eV 
 COSMO: use frozen qcos
 
                                              current damping :  0.200
 ITERATION  ENERGY          1e-ENERGY        2e-ENERGY     RMS[dD(SAO)]   TOL
   3  -489.42155315351    -1655.9382434     667.83706515    0.110D-03 0.340D-11
                          Ediel =    -0.023823516579
          Norm of current diis error: 0.43188E-02
          max. resid. norm for Fia-block=  3.165D-04 for orbital     36a         
          max. resid. fock norm         =  4.753D-04 for orbital     37a         
          Delta Eig. =     0.0156978256 eV 
 COSMO: use frozen qcos
 
                                              current damping :  0.250
 ITERATION  ENERGY          1e-ENERGY        2e-ENERGY     RMS[dD(SAO)]   TOL
   4  -489.42155524949    -1655.9398250     667.83864461    0.427D-04 0.292D-11
                          Ediel =    -0.023774434291
          Norm of current diis error: 0.23109E-02
          max. resid. norm for Fia-block=  2.519D-04 for orbital     36a         
          max. resid. fock norm         =  2.944D-04 for orbital     37a         
          Delta Eig. =     0.0045694229 eV 
 COSMO: use frozen qcos
 
                                              current damping :  0.100
 ITERATION  ENERGY          1e-ENERGY        2e-ENERGY     RMS[dD(SAO)]   TOL
   5  -489.42155593487    -1655.9398914     667.83871035    0.115D-04 0.266D-11
                          Ediel =    -0.023749320029
          Norm of current diis error: 0.13087E-02
          max. resid. norm for Fia-block=  1.579D-04 for orbital     36a         
          max. resid. fock norm         =  1.885D-04 for orbital     37a         
 mo-orthogonalization: Cholesky decomposition
          Delta Eig. =     0.0039494352 eV 
 COSMO: use frozen qcos
 
                                              current damping :  0.150
 ITERATION  ENERGY          1e-ENERGY        2e-ENERGY     RMS[dD(SAO)]   TOL
   6  -489.42155621210    -1655.9396933     667.83851202    0.796D-05 0.244D-11
                          Ediel =    -0.023734492723
          Norm of current diis error: 0.60304E-03
          max. resid. norm for Fia-block=  9.724D-05 for orbital     36a         
          max. resid. fock norm         =  9.887D-05 for orbital     37a         
          Delta Eig. =     0.0010708995 eV 
 COSMO: use frozen qcos
 
                                              current damping :  0.100
 ITERATION  ENERGY          1e-ENERGY        2e-ENERGY     RMS[dD(SAO)]   TOL
   7  -489.42155627740    -1655.9396513     667.83846997    0.439D-05 0.230D-11
                          Ediel =    -0.023728655990
          Norm of current diis error: 0.27636E-03
          max. resid. norm for Fia-block=  4.317D-05 for orbital     36a         
          max. resid. fock norm         =  4.360D-05 for orbital     36a         
          Delta Eig. =     0.0009925448 eV 
 COSMO: use frozen qcos
 
                                              current damping :  0.100
 ITERATION  ENERGY          1e-ENERGY        2e-ENERGY     RMS[dD(SAO)]   TOL
   8  -489.42155629034    -1655.9395966     667.83841521    0.190D-05 0.221D-11
                          Ediel =    -0.023726573203
          Norm of current diis error: 0.10088E-03
          max. resid. norm for Fia-block=  1.658D-05 for orbital     36a         
          max. resid. fock norm         =  1.687D-05 for orbital     36a         
          Delta Eig. =     0.0003078056 eV 
 COSMO: use frozen qcos
 
                                              current damping :  0.100
 ITERATION  ENERGY          1e-ENERGY        2e-ENERGY     RMS[dD(SAO)]   TOL
   9  -489.42155629246    -1655.9395800     667.83839859    0.656D-06 0.215D-11
                          Ediel =    -0.023726133753
          Norm of current diis error: 0.36354E-04
          max. resid. norm for Fia-block=  4.546D-06 for orbital     36a         
          max. resid. fock norm         =  8.179D-06 for orbital    187a         
          Delta Eig. =     0.0001322076 eV 
 COSMO: use frozen qcos

 ENERGY & DENSITY CONVERGED !

 
                                              current damping :  0.100
 ITERATION  ENERGY          1e-ENERGY        2e-ENERGY     RMS[dD(SAO)]   TOL
  10  -489.42155629380    -1655.9395785     667.83839711    0.332D-06 0.209D-11
                          Ediel =    -0.023726183513
          max. resid. norm for Fia-block=  1.114D-06 for orbital     36a         
          max. resid. fock norm         =  6.440D-06 for orbital    145a         
 COSMO: write data to file cosmotransfer

 convergence criteria satisfied after 10 iterations


   *************************************************************************
   ADC(2) - opt by CAM-B3LYP gaussian                                       
   *************************************************************************


                  ------------------------------------------ 
                 |  total energy      =   -489.42155629380  |
                  ------------------------------------------ 
                 :  kinetic energy    =    488.91223000967  :
                 :  potential energy  =   -978.33378630347  :
                 :  virial theorem    =      1.99895933010  :
                 :  wavefunction norm =      1.00000000000  :
                  .......................................... 


 orbitals $scfmo  will be written to file mos

    irrep                 32a         33a         34a         35a         36a   
 eigenvalues H         -0.49185    -0.47320    -0.46308    -0.36686    -0.31403
            eV         -13.3839    -12.8764    -12.6011     -9.9829     -8.5454
 occupation              2.0000      2.0000      2.0000      2.0000      2.0000 

    irrep                 37a         38a         39a         40a         41a   
 eigenvalues H          0.04581     0.06838     0.08075     0.08383     0.10320
            eV           1.2466      1.8607      2.1975      2.2811      2.8082
 
 ==============================================================================
                                  COSMO RESULTS
 ==============================================================================
  PARAMETER:
    nppa:      1082
    nspa:        92
    nsph:        32
    nps:        668
    npspher:    312
    disex:   10.0000    
    disex2:  4410.84    
    rsolv [A]: 1.3000
    routf:     0.8500
    phsran:    0.0    
    ampran:   0.10E-04
    cavity:  closed
    epsilon:    20.493
    refind:     1.300
    fepsi:      0.9285476
  CAVITY VOLUME/AREA [a.u.]:
    surface: V1.0, A matrix: V1.0
    area:   573.16
    volume:  1039.03
  SCREENING CHARGE:
    cosmo      :  -0.029871
    correction :   0.029177
    total      :  -0.000694
  ENERGIES [a.u.]:
    Total energy            =     -489.4215562938
    Total energy + OC corr. =     -489.4212140972
    Dielectric energy       =       -0.0237261835
    Diel. energy + OC corr. =       -0.0233839869
  ELEMENT RADIUS [A]: ATOM LIST
    c  2.00: 1-6
    h  1.30: 7-10,15,16
    n  1.83: 11,14
    o  1.72: 12,13
 ==============================================================================
 
 
 
 ==============================================================================
                           electrostatic moments
 ==============================================================================
 
              nuc           elec       ->  total
 ------------------------------------------------------------------------------
                          charge      
 ------------------------------------------------------------------------------
          72.000000     -72.000000      -0.000000
 
 ------------------------------------------------------------------------------
                       dipole moment  
 ------------------------------------------------------------------------------
   x     -88.121787      92.106936       3.985150
   y       0.000001      -0.000076      -0.000075
   z      -1.591424       1.806192       0.214768
 
   | dipole moment | =     3.9909 a.u. =    10.1439 debye 
 
 ------------------------------------------------------------------------------
                     quadrupole moment
 ------------------------------------------------------------------------------
  xx    1260.248019   -1312.814611     -52.566591
  yy     261.671628    -300.248493     -38.576865
  zz       0.151705     -45.542410     -45.390705
  xy      -0.000002      -0.000605      -0.000607
  xz       1.947765      -0.587962       1.359803
  yz      -0.000000       0.000038       0.000038
 
     1/3  trace=     -45.511387
     anisotropy=      12.343593
 
 ==============================================================================
 


    ------------------------------------------------------------------------
         total  cpu-time :  8 minutes and 46 seconds
         total wall-time :  8 minutes and 56 seconds
    ------------------------------------------------------------------------


   ****  dscf : all done  ****


    2023-03-29 18:26:41.327 

