 operating system is UNIX !
 hostname is         dlt19.abaxnet

 dscf (dlt19.abaxnet) : TURBOMOLE V6.6( 19103 ) 21 May 2014 at 15:45:05
 Copyright (C) 2014 TURBOMOLE GmbH, Karlsruhe


    2023-03-29 01:09:26.685 



                             d s c f - program

                   idea & directorship : reinhart ahlrichs
                   program development : marco haeser
                                         michael baer
                           dft version : oliver treutler


                          quantum chemistry group
                          universitaet  karlsruhe
                                  germany




                          References             
                                                 
          TURBOMOLE:                             
              R. Ahlrichs, M. Baer, M. Haeser, H. Horn, and
              C. Koelmel
              Electronic structure calculations on workstation
              computers: the program system TURBOMOLE
              Chem. Phys. Lett. 162: 165 (1989)
          Density Functional:                              
              O. Treutler and R. Ahlrichs                      
              Efficient Molecular Numerical Integration Schemes
              J. Chem. Phys. 102: 346 (1995)                   
          Parallel Version:                                
              Performance of parallel TURBOMOLE for Density    
              Functional Calculations                          
              M. v. Arnim and R. Ahlrichs                      
              J. Comp. Chem. 19: 1746 (1998)                   
                                         




              +--------------------------------------------------+
              | Atomic coordinate, charge and isotop information |
              +--------------------------------------------------+

                    atomic coordinates            atom    charge  isotop
         -1.25890656   -2.28309021   -0.02600539    c      6.000     0
         -2.55699122    0.00000087   -0.02473376    c      6.000     0
         -1.25890608    2.28309078   -0.02600807    c      6.000     0
          1.33242957    2.28461838   -0.02811468    c      6.000     0
          2.68675735    0.00000039   -0.02772325    c      6.000     0
          1.33242819   -2.28461807   -0.02811124    c      6.000     0
         -2.29825098   -4.03774811   -0.02331913    h      1.000     0
         -2.29824905    4.03774944   -0.02332432    h      1.000     0
          2.35149187    4.05688948   -0.03052902    h      1.000     0
          2.35149104   -4.05688882   -0.03052191    h      1.000     0
         -5.27421231    0.00000015   -0.01892527    n      7.000     0
         -6.38095344    2.02697624   -0.01645706    o      8.000     0
         -6.38095104   -2.02697725   -0.01646488    o      8.000     0
          5.24546036   -0.00000057   -0.07398941    n      7.000     0
          6.20368188    1.61649966    0.19711590    h      1.000     0
          6.20368041   -1.61650237    0.19711149    h      1.000     0
 
       center of nuclear mass  :   -1.36575211    0.00000002   -0.02511814
       center of nuclear charge:   -1.22391370    0.00000002   -0.02210311

   *************************************************************************
   ADC(2) - opt by CAM-B3LYP gaussian                                       
   *************************************************************************



              +--------------------------------------------------+
              |               basis set information              |
              +--------------------------------------------------+

              we will work with the 1s 3p 5d 7f 9g ... basis set
              ...i.e. with spherical basis functions...

   type   atoms  prim   cont   basis
   ---------------------------------------------------------------------------
    c        6     52     37   def2-TZVPD   [6s3p3d1f|12s6p3d1f]
    h        6     11      9   def2-TZVPD   [3s2p|5s2p]
    n        2     52     37   def2-TZVPD   [6s3p3d1f|12s6p3d1f]
    o        2     55     40   def2-TZVPD   [6s4p3d1f|12s7p3d1f]
   ---------------------------------------------------------------------------
   total:   16    592    430
   ---------------------------------------------------------------------------

   total number of primitive shells          :   74
   total number of contracted shells         :  162
   total number of cartesian basis functions :  490
   total number of SCF-basis functions       :  430

 ==============================================================================
                      COSMO switched on
 ==============================================================================
 COSMO stati: segments per atom: H   32 other atoms   92

 symmetry group of the molecule :   c1 

 the group has the following generators :
   c1(z)

    1 symmetry operations found
 COSMO statistics: nps    668 npspher:    312

 symmetry group of the molecule :   c1 

 the group has the following generators :
   c1(z)

    1 symmetry operations found
 COSMO surface:
   number of segments:  668
   area (bohr**2):      573.159281
   volume (bohr**3):   1039.031615
 COSMO: check number of disjunct cavities:

       ... OK contiguous cavity found

 integral neglect threshold       :  0.68E-11
 integral storage threshold THIZE :  0.10E-04
 integral storage threshold THIME :         5


 DENSITY CONVERGENCE CHECK SWITCHED ON !
 SCF CONVERGENCE IF RMS(delta[D]) <     0.1000000000E-07


 symmetry group of the molecule :   c1 

 the group has the following generators :
   c1(z)

    1 symmetry operations found

 there are 1 real representations :   a   

 maximum number of shells which are related by symmetry :  1


    mo occupation :
   irrep   mo's   occupied
    a      430       36
 
 number of basis functions   :          430
 number of occupied orbitals :           36
 

          ------------------------
          nuclear repulsion energy  :   498.679625102    
          ------------------------

 
          -----------------
          -S,T+V- integrals
          -----------------

 1e-integrals will be neglected if expon. factor < 0.682033E-12
 
   Difference densities algorithm switched on.
   The maximal number of linear combinations of
   difference densities is          20 .

 automatic virtual orbital shift switched on 
      shift if e(lumo)-e(homo) < 0.10000000    


 DIIS switched on: error vector is FDS-SDF
 Max. Iterations for DIIS is     :   5
 DIIS matrix (see manual) 
    Scaling factor of diagonals  :  1.200
    threshold for scaling factor :  0.000

 scf convergence criterion : increment of total energy < .1000000D-06
                  and increment of one-electron energy < .1000000D-03


 <geterg> : there is no data group $energy 

  MOs are in ASCII format !


 reading orbital data $scfmo  from file mos . 

 orbital characterization : expanded
 
 mo provided and orthogonalized by Cholesky decomposition

 DSCF restart information will be dumped onto file mos

 
                                              current damping :  0.300
 ITERATION  ENERGY          1e-ENERGY        2e-ENERGY     RMS[dD(SAO)]   TOL
   1  -487.45671584043    -1642.1846788     656.04833782    0.000D+00 0.680D-11
                          Ediel =    -0.075318112472
          max. resid. norm for Fia-block=  4.109D-01 for orbital     22a         
          max. resid. fock norm         =  1.095D+01 for orbital    296a         
          Delta Eig. =   933.4853103569 eV 
 
                                              current damping :  0.250
 ITERATION  ENERGY          1e-ENERGY        2e-ENERGY     RMS[dD(SAO)]   TOL
   2  -489.21357672381    -1654.4108160     666.51761422    0.483D-01 0.672D-11
                          Ediel =    -0.035201686646
          Norm of current diis error:  2.5351    
          max. resid. norm for Fia-block=  1.495D-01 for orbital     11a         
          max. resid. fock norm         =  3.263D-01 for orbital    415a         
          Delta Eig. =   212.6284609831 eV 
 
                                              current damping :  0.150
 ITERATION  ENERGY          1e-ENERGY        2e-ENERGY     RMS[dD(SAO)]   TOL
   3  -489.37822781566    -1655.4312770     667.37342406    0.118D-01 0.441D-11
                          Ediel =    -0.030682452681
          Norm of current diis error: 0.98579    
          max. resid. norm for Fia-block=  6.131D-02 for orbital     24a         
          max. resid. fock norm         =  6.838D-02 for orbital     24a         
          Delta Eig. =    50.1750621586 eV 
 
                                              current damping :  0.100
 ITERATION  ENERGY          1e-ENERGY        2e-ENERGY     RMS[dD(SAO)]   TOL
   4  -489.41677165254    -1655.7314740     667.63507722    0.343D-02 0.346D-11
                          Ediel =    -0.026328616316
          Norm of current diis error: 0.27702    
          max. resid. norm for Fia-block=  1.736D-02 for orbital     22a         
          max. resid. fock norm         =  1.980D-02 for orbital     11a         
          Delta Eig. =     5.8337400752 eV 
 
                                              current damping :  0.100
 ITERATION  ENERGY          1e-ENERGY        2e-ENERGY     RMS[dD(SAO)]   TOL
   5  -489.42100245145    -1655.9600854     667.85945785    0.991D-03 0.310D-11
                          Ediel =    -0.025572941118
          Norm of current diis error: 0.83204E-01
          max. resid. norm for Fia-block=  6.497D-03 for orbital     36a         
          max. resid. fock norm         =  8.219D-03 for orbital    425a         
 mo-orthogonalization: Cholesky decomposition
          Delta Eig. =     0.6059501814 eV 
 
                                              current damping :  0.150
 ITERATION  ENERGY          1e-ENERGY        2e-ENERGY     RMS[dD(SAO)]   TOL
   6  -489.42162868761    -1655.9280897     667.82683593    0.327D-03 0.289D-11
                          Ediel =    -0.025122764087
          Norm of current diis error: 0.35534E-01
          max. resid. norm for Fia-block=  3.900D-03 for orbital     36a         
          max. resid. fock norm         =  4.047D-03 for orbital     36a         
          Delta Eig. =     0.0966615659 eV 
 
                                              current damping :  0.100
 ITERATION  ENERGY          1e-ENERGY        2e-ENERGY     RMS[dD(SAO)]   TOL
   7  -489.42178465023    -1655.9252210     667.82381122    0.169D-03 0.272D-11
                          Ediel =    -0.024820974377
          Norm of current diis error: 0.17181E-01
          max. resid. norm for Fia-block=  2.186D-03 for orbital     36a         
          max. resid. fock norm         =  2.287D-03 for orbital     36a         
          Delta Eig. =     0.0532927408 eV 
 
                                              current damping :  0.150
 ITERATION  ENERGY          1e-ENERGY        2e-ENERGY     RMS[dD(SAO)]   TOL
   8  -489.42182503772    -1655.9266001     667.82514991    0.918D-04 0.256D-11
                          Ediel =    -0.024631406774
          Norm of current diis error: 0.61621E-02
          max. resid. norm for Fia-block=  8.952D-04 for orbital     36a         
          max. resid. fock norm         =  9.136D-04 for orbital     36a         
          Delta Eig. =     0.0176522980 eV 
 
                                              current damping :  0.200
 ITERATION  ENERGY          1e-ENERGY        2e-ENERGY     RMS[dD(SAO)]   TOL
   9  -489.42183075546    -1655.9224814     667.82102557    0.303D-04 0.246D-11
                          Ediel =    -0.024522203989
          Norm of current diis error: 0.26136E-02
          max. resid. norm for Fia-block=  3.896D-04 for orbital     36a         
          max. resid. fock norm         =  3.968D-04 for orbital     36a         
          Delta Eig. =     0.0063884372 eV 
 
                                              current damping :  0.100
 ITERATION  ENERGY          1e-ENERGY        2e-ENERGY     RMS[dD(SAO)]   TOL
  10  -489.42183178388    -1655.9219226     667.82046572    0.108D-04 0.238D-11
                          Ediel =    -0.024473161367
          Norm of current diis error: 0.12010E-02
          max. resid. norm for Fia-block=  2.051D-04 for orbital     36a         
          max. resid. fock norm         =  2.061D-04 for orbital     36a         
 mo-orthogonalization: Cholesky decomposition
          Delta Eig. =     0.0026682827 eV 
 
                                              current damping :  0.100
 ITERATION  ENERGY          1e-ENERGY        2e-ENERGY     RMS[dD(SAO)]   TOL
  11  -489.42183205461    -1655.9213841     667.81992693    0.620D-05 0.229D-11
                          Ediel =    -0.024441597681
          Norm of current diis error: 0.55769E-03
          max. resid. norm for Fia-block=  9.238D-05 for orbital     36a         
          max. resid. fock norm         =  9.724D-05 for orbital     37a         
          Delta Eig. =     0.0018533480 eV 
 
                                              current damping :  0.100
 ITERATION  ENERGY          1e-ENERGY        2e-ENERGY     RMS[dD(SAO)]   TOL
  12  -489.42183211397    -1655.9210663     667.81960906    0.298D-05 0.220D-11
                          Ediel =    -0.024427446912
          Norm of current diis error: 0.26653E-03
          max. resid. norm for Fia-block=  4.405D-05 for orbital     36a         
          max. resid. fock norm         =  4.477D-05 for orbital     36a         
          Delta Eig. =     0.0010778085 eV 
 
                                              current damping :  0.100
 ITERATION  ENERGY          1e-ENERGY        2e-ENERGY     RMS[dD(SAO)]   TOL
  13  -489.42183212698    -1655.9210000     667.81954274    0.131D-05 0.213D-11
                          Ediel =    -0.024422174376
          Norm of current diis error: 0.14828E-03
          max. resid. norm for Fia-block=  2.193D-05 for orbital     36a         
          max. resid. fock norm         =  2.400D-05 for orbital     37a         
          Delta Eig. =     0.0005973781 eV 
 
                                              current damping :  0.100
 ITERATION  ENERGY          1e-ENERGY        2e-ENERGY     RMS[dD(SAO)]   TOL
  14  -489.42183213101    -1655.9209783     667.81952111    0.829D-06 0.205D-11
                          Ediel =    -0.024419531614
          Norm of current diis error: 0.72574E-04
          max. resid. norm for Fia-block=  1.093D-05 for orbital     36a         
          max. resid. fock norm         =  1.640D-05 for orbital    187a         
          Delta Eig. =     0.0002746295 eV 
 
                                              current damping :  0.100
 ITERATION  ENERGY          1e-ENERGY        2e-ENERGY     RMS[dD(SAO)]   TOL
  15  -489.42183213149    -1655.9209541     667.81949689    0.488D-06 0.198D-11
                          Ediel =    -0.024418820693
          Norm of current diis error: 0.31421E-04
          max. resid. norm for Fia-block=  4.690D-06 for orbital     35a         
          max. resid. fock norm         =  2.313D-05 for orbital    187a         
 mo-orthogonalization: Cholesky decomposition
          Delta Eig. =     0.0002594483 eV 
 
                                              current damping :  0.150
 ITERATION  ENERGY          1e-ENERGY        2e-ENERGY     RMS[dD(SAO)]   TOL
  16  -489.42183213183    -1655.9209640     667.81950679    0.388D-06 0.194D-11
                          Ediel =    -0.024418608061
          Norm of current diis error: 0.13175E-04
          max. resid. norm for Fia-block=  1.982D-06 for orbital     35a         
          max. resid. fock norm         =  9.056D-06 for orbital    187a         
          Delta Eig. =     0.0000852593 eV 

 ENERGY & DENSITY CONVERGED !

 
                                              current damping :  0.200
 ITERATION  ENERGY          1e-ENERGY        2e-ENERGY     RMS[dD(SAO)]   TOL
  17  -489.42183213186    -1655.9209619     667.81950463    0.165D-06 0.195D-11
                          Ediel =    -0.024418629968
          max. resid. norm for Fia-block=  3.538D-07 for orbital     35a         
          max. resid. fock norm         =  1.298D-05 for orbital    187a         
 COSMO: write data to file cosmo_transfer.tmp

 convergence criteria satisfied after 17 iterations


   *************************************************************************
   ADC(2) - opt by CAM-B3LYP gaussian                                       
   *************************************************************************


                  ------------------------------------------ 
                 |  total energy      =   -489.42183213186  |
                  ------------------------------------------ 
                 :  kinetic energy    =    488.91188523741  :
                 :  potential energy  =   -978.33371736927  :
                 :  virial theorem    =      1.99895806263  :
                 :  wavefunction norm =      1.00000000000  :
                  .......................................... 


 <geterg> : there is no data group $energy 


 <skperg> : $end is missing 


 orbitals $scfmo  will be written to file mos

    irrep                 32a         33a         34a         35a         36a   
 eigenvalues H         -0.49351    -0.47248    -0.46573    -0.36595    -0.31369
            eV         -13.4291    -12.8569    -12.6732     -9.9582     -8.5360
 occupation              2.0000      2.0000      2.0000      2.0000      2.0000 

    irrep                 37a         38a         39a         40a         41a   
 eigenvalues H          0.04485     0.06809     0.08004     0.08371     0.10261
            eV           1.2204      1.8527      2.1779      2.2778      2.7922
 
 ==============================================================================
                                  COSMO RESULTS
 ==============================================================================
  PARAMETER:
    nppa:      1082
    nspa:        92
    nsph:        32
    nps:        668
    npspher:    312
    disex:   10.0000    
    disex2:  4410.84    
    rsolv [A]: 1.3000
    routf:     0.8500
    phsran:    0.0    
    ampran:   0.10E-04
    cavity:  closed
    epsilon:    20.493
    refind:     1.300
    fepsi:      0.9285476
  CAVITY VOLUME/AREA [a.u.]:
    surface: V1.0, A matrix: V1.0
    area:   573.16
    volume:  1039.03
  SCREENING CHARGE:
    cosmo      :  -0.025665
    correction :   0.024886
    total      :  -0.000779
  ENERGIES [a.u.]:
    Total energy            =     -489.4218321319
    Total energy + OC corr. =     -489.4220947018
    Dielectric energy       =       -0.0244186300
    Diel. energy + OC corr. =       -0.0246811999
  ELEMENT RADIUS [A]: ATOM LIST
    c  2.00: 1-6
    h  1.30: 7-10,15,16
    n  1.83: 11,14
    o  1.72: 12,13
 ==============================================================================
 
 
 
 ==============================================================================
                           electrostatic moments
 ==============================================================================
 
              nuc           elec       ->  total
 ------------------------------------------------------------------------------
                          charge      
 ------------------------------------------------------------------------------
          72.000000     -72.000000      -0.000000
 
 ------------------------------------------------------------------------------
                       dipole moment  
 ------------------------------------------------------------------------------
   x     -88.121787      92.147935       4.026148
   y       0.000001      -0.000193      -0.000192
   z      -1.591424       1.808072       0.216648
 
   | dipole moment | =     4.0320 a.u. =    10.2483 debye 
 
 ------------------------------------------------------------------------------
                     quadrupole moment
 ------------------------------------------------------------------------------
  xx    1260.248019   -1313.247103     -52.999084
  yy     261.671628    -300.227784     -38.556156
  zz       0.151705     -45.534593     -45.382888
  xy      -0.000002      -0.000491      -0.000493
  xz       1.947765      -0.579399       1.368366
  yz      -0.000000      -0.000187      -0.000187
 
     1/3  trace=     -45.646043
     anisotropy=      12.736628
 
 ==============================================================================
 


    ------------------------------------------------------------------------
         total  cpu-time : 15 minutes and 21 seconds
         total wall-time : 15 minutes and 37 seconds
    ------------------------------------------------------------------------


   ****  dscf : all done  ****


    2023-03-29 01:25:03.422 

