 operating system is UNIX !
 hostname is         dlt19.abaxnet

 dscf (dlt19.abaxnet) : TURBOMOLE V6.6( 19103 ) 21 May 2014 at 15:45:05
 Copyright (C) 2014 TURBOMOLE GmbH, Karlsruhe


    2023-04-01 07:38:23.922 



                             d s c f - program

                   idea & directorship : reinhart ahlrichs
                   program development : marco haeser
                                         michael baer
                           dft version : oliver treutler


                          quantum chemistry group
                          universitaet  karlsruhe
                                  germany




                          References             
                                                 
          TURBOMOLE:                             
              R. Ahlrichs, M. Baer, M. Haeser, H. Horn, and
              C. Koelmel
              Electronic structure calculations on workstation
              computers: the program system TURBOMOLE
              Chem. Phys. Lett. 162: 165 (1989)
          Density Functional:                              
              O. Treutler and R. Ahlrichs                      
              Efficient Molecular Numerical Integration Schemes
              J. Chem. Phys. 102: 346 (1995)                   
          Parallel Version:                                
              Performance of parallel TURBOMOLE for Density    
              Functional Calculations                          
              M. v. Arnim and R. Ahlrichs                      
              J. Comp. Chem. 19: 1746 (1998)                   
                                         




              +--------------------------------------------------+
              | Atomic coordinate, charge and isotop information |
              +--------------------------------------------------+

                    atomic coordinates            atom    charge  isotop
         -1.25890656   -2.28309021   -0.02600539    c      6.000     0
         -2.55699122    0.00000087   -0.02473376    c      6.000     0
         -1.25890608    2.28309078   -0.02600807    c      6.000     0
          1.33242957    2.28461838   -0.02811468    c      6.000     0
          2.68675735    0.00000039   -0.02772325    c      6.000     0
          1.33242819   -2.28461807   -0.02811124    c      6.000     0
         -2.29825098   -4.03774811   -0.02331913    h      1.000     0
         -2.29824905    4.03774944   -0.02332432    h      1.000     0
          2.35149187    4.05688948   -0.03052902    h      1.000     0
          2.35149104   -4.05688882   -0.03052191    h      1.000     0
         -5.27421231    0.00000015   -0.01892527    n      7.000     0
         -6.38095344    2.02697624   -0.01645706    o      8.000     0
         -6.38095104   -2.02697725   -0.01646488    o      8.000     0
          5.24546036   -0.00000057   -0.07398941    n      7.000     0
          6.20368188    1.61649966    0.19711590    h      1.000     0
          6.20368041   -1.61650237    0.19711149    h      1.000     0
 
       center of nuclear mass  :   -1.36575211    0.00000002   -0.02511814
       center of nuclear charge:   -1.22391370    0.00000002   -0.02210311

   *************************************************************************
   ADC(2) - opt by CAM-B3LYP gaussian                                       
   *************************************************************************



              +--------------------------------------------------+
              |               basis set information              |
              +--------------------------------------------------+

              we will work with the 1s 3p 5d 7f 9g ... basis set
              ...i.e. with spherical basis functions...

   type   atoms  prim   cont   basis
   ---------------------------------------------------------------------------
    c        6     52     37   def2-TZVPD   [6s3p3d1f|12s6p3d1f]
    h        6     11      9   def2-TZVPD   [3s2p|5s2p]
    n        2     52     37   def2-TZVPD   [6s3p3d1f|12s6p3d1f]
    o        2     55     40   def2-TZVPD   [6s4p3d1f|12s7p3d1f]
   ---------------------------------------------------------------------------
   total:   16    592    430
   ---------------------------------------------------------------------------

   total number of primitive shells          :   74
   total number of contracted shells         :  162
   total number of cartesian basis functions :  490
   total number of SCF-basis functions       :  430

 ==============================================================================
                      COSMO switched on
 ==============================================================================
 COSMO: skip init. and read data from file
 This run uses frozen charges (from previous solvent iteration)
 Work to create reaction field =   2.107913785788618E-002

 integral neglect threshold       :  0.68E-11
 integral storage threshold THIZE :  0.10E-04
 integral storage threshold THIME :         5


 DENSITY CONVERGENCE CHECK SWITCHED ON !
 SCF CONVERGENCE IF RMS(delta[D]) <     0.1000000000E-07


 symmetry group of the molecule :   c1 

 the group has the following generators :
   c1(z)

    1 symmetry operations found

 there are 1 real representations :   a   

 maximum number of shells which are related by symmetry :  1


    mo occupation :
   irrep   mo's   occupied
    a      430       36
 
 number of basis functions   :          430
 number of occupied orbitals :           36
 

          ------------------------
          nuclear repulsion energy  :   498.679625102    
          ------------------------

 
          -----------------
          -S,T+V- integrals
          -----------------

 1e-integrals will be neglected if expon. factor < 0.682033E-12
 
   Difference densities algorithm switched on.
   The maximal number of linear combinations of
   difference densities is          20 .

 automatic virtual orbital shift switched on 
      shift if e(lumo)-e(homo) < 0.10000000    


 DIIS switched on: error vector is FDS-SDF
 Max. Iterations for DIIS is     :   5
 DIIS matrix (see manual) 
    Scaling factor of diagonals  :  1.200
    threshold for scaling factor :  0.000

 scf convergence criterion : increment of total energy < .1000000D-06
                  and increment of one-electron energy < .1000000D-03

  MOs are in ASCII format !


 reading orbital data $scfmo  from file mos . 

 orbital characterization : scfconv=7
 

 DSCF restart information will be dumped onto file mos

 COSMO: use frozen qcos
 
                                              current damping :  0.300
 ITERATION  ENERGY          1e-ENERGY        2e-ENERGY     RMS[dD(SAO)]   TOL
   1  -489.42146569014    -1655.9429269     667.84183608    0.000D+00 0.680D-11
                          Ediel =    -0.023517004866
          max. resid. norm for Fia-block=  2.272D-05 for orbital     36a         
          max. resid. fock norm         =  4.765D-05 for orbital    190a         
          Delta Eig. =     0.0011489661 eV 
 COSMO: use frozen qcos
 
                                              current damping :  0.300
 ITERATION  ENERGY          1e-ENERGY        2e-ENERGY     RMS[dD(SAO)]   TOL
   2  -489.42146569516    -1655.9429694     667.84187860    0.168D-05 0.431D-11
                          Ediel =    -0.023512092524
          Norm of current diis error: 0.11789E-03
          max. resid. norm for Fia-block=  8.049D-06 for orbital     31a         
          max. resid. fock norm         =  1.483D-05 for orbital    187a         
          Delta Eig. =     0.0004517662 eV 
 COSMO: use frozen qcos
 
                                              current damping :  0.350
 ITERATION  ENERGY          1e-ENERGY        2e-ENERGY     RMS[dD(SAO)]   TOL
   3  -489.42146569673    -1655.9429411     667.84185034    0.594D-06 0.345D-11
                          Ediel =    -0.023510566135
          Norm of current diis error: 0.55275E-04
          max. resid. norm for Fia-block=  7.029D-06 for orbital     36a         
          max. resid. fock norm         =  1.464D-05 for orbital    187a         
          Delta Eig. =     0.0001260016 eV 
 COSMO: use frozen qcos

 ENERGY & DENSITY CONVERGED !

 
                                              current damping :  0.200
 ITERATION  ENERGY          1e-ENERGY        2e-ENERGY     RMS[dD(SAO)]   TOL
   4  -489.42146569808    -1655.9429387     667.84184786    0.337D-06 0.302D-11
                          Ediel =    -0.023509592524
          max. resid. norm for Fia-block=  3.005D-06 for orbital     36a         
          max. resid. fock norm         =  1.028D-05 for orbital    131a         
 COSMO: write data to file cosmotransfer

 convergence criteria satisfied after  4 iterations


   *************************************************************************
   ADC(2) - opt by CAM-B3LYP gaussian                                       
   *************************************************************************


                  ------------------------------------------ 
                 |  total energy      =   -489.42146569808  |
                  ------------------------------------------ 
                 :  kinetic energy    =    488.91225319321  :
                 :  potential energy  =   -978.33371889130  :
                 :  virial theorem    =      1.99895956238  :
                 :  wavefunction norm =      1.00000000000  :
                  .......................................... 


 orbitals $scfmo  will be written to file mos

    irrep                 32a         33a         34a         35a         36a   
 eigenvalues H         -0.49149    -0.47354    -0.46251    -0.36729    -0.31434
            eV         -13.3742    -12.8857    -12.5855     -9.9945     -8.5536
 occupation              2.0000      2.0000      2.0000      2.0000      2.0000 

    irrep                 37a         38a         39a         40a         41a   
 eigenvalues H          0.04596     0.06831     0.08083     0.08374     0.10320
            eV           1.2507      1.8588      2.1995      2.2788      2.8084
 
 ==============================================================================
                                  COSMO RESULTS
 ==============================================================================
  PARAMETER:
    nppa:      1082
    nspa:        92
    nsph:        32
    nps:        668
    npspher:    312
    disex:   10.0000    
    disex2:  4410.84    
    rsolv [A]: 1.3000
    routf:     0.8500
    phsran:    0.0    
    ampran:   0.10E-04
    cavity:  closed
    epsilon:    20.493
    refind:     1.300
    fepsi:      0.9285476
  CAVITY VOLUME/AREA [a.u.]:
    surface: V1.0, A matrix: V1.0
    area:   573.16
    volume:  1039.03
  SCREENING CHARGE:
    cosmo      :  -0.029795
    correction :   0.029115
    total      :  -0.000679
  ENERGIES [a.u.]:
    Total energy            =     -489.4214656981
    Total energy + OC corr. =     -489.4211059983
    Dielectric energy       =       -0.0235095925
    Diel. energy + OC corr. =       -0.0231498927
  ELEMENT RADIUS [A]: ATOM LIST
    c  2.00: 1-6
    h  1.30: 7-10,15,16
    n  1.83: 11,14
    o  1.72: 12,13
 ==============================================================================
 
 
 
 ==============================================================================
                           electrostatic moments
 ==============================================================================
 
              nuc           elec       ->  total
 ------------------------------------------------------------------------------
                          charge      
 ------------------------------------------------------------------------------
          72.000000     -72.000000      -0.000000
 
 ------------------------------------------------------------------------------
                       dipole moment  
 ------------------------------------------------------------------------------
   x     -88.121787      92.090064       3.968277
   y       0.000001       0.000006       0.000008
   z      -1.591424       1.805521       0.214097
 
   | dipole moment | =     3.9740 a.u. =    10.1010 debye 
 
 ------------------------------------------------------------------------------
                     quadrupole moment
 ------------------------------------------------------------------------------
  xx    1260.248019   -1312.693761     -52.445741
  yy     261.671628    -300.254451     -38.582823
  zz       0.151705     -45.546541     -45.394836
  xy      -0.000002      -0.000689      -0.000691
  xz       1.947765      -0.589594       1.358171
  yz      -0.000000       0.000114       0.000114
 
     1/3  trace=     -45.474467
     anisotropy=      12.234522
 
 ==============================================================================
 


    ------------------------------------------------------------------------
         total  cpu-time :  3 minutes and 23 seconds
         total wall-time :  3 minutes and 27 seconds
    ------------------------------------------------------------------------


   ****  dscf : all done  ****


    2023-04-01 07:41:51.102 

