 operating system is UNIX !
 hostname is         dlt19.abaxnet

 dscf (dlt19.abaxnet) : TURBOMOLE V6.6( 19103 ) 21 May 2014 at 15:45:05
 Copyright (C) 2014 TURBOMOLE GmbH, Karlsruhe


    2023-03-30 08:56:15.574 



                             d s c f - program

                   idea & directorship : reinhart ahlrichs
                   program development : marco haeser
                                         michael baer
                           dft version : oliver treutler


                          quantum chemistry group
                          universitaet  karlsruhe
                                  germany




                          References             
                                                 
          TURBOMOLE:                             
              R. Ahlrichs, M. Baer, M. Haeser, H. Horn, and
              C. Koelmel
              Electronic structure calculations on workstation
              computers: the program system TURBOMOLE
              Chem. Phys. Lett. 162: 165 (1989)
          Density Functional:                              
              O. Treutler and R. Ahlrichs                      
              Efficient Molecular Numerical Integration Schemes
              J. Chem. Phys. 102: 346 (1995)                   
          Parallel Version:                                
              Performance of parallel TURBOMOLE for Density    
              Functional Calculations                          
              M. v. Arnim and R. Ahlrichs                      
              J. Comp. Chem. 19: 1746 (1998)                   
                                         




              +--------------------------------------------------+
              | Atomic coordinate, charge and isotop information |
              +--------------------------------------------------+

                    atomic coordinates            atom    charge  isotop
         -1.25890656   -2.28309021   -0.02600539    c      6.000     0
         -2.55699122    0.00000087   -0.02473376    c      6.000     0
         -1.25890608    2.28309078   -0.02600807    c      6.000     0
          1.33242957    2.28461838   -0.02811468    c      6.000     0
          2.68675735    0.00000039   -0.02772325    c      6.000     0
          1.33242819   -2.28461807   -0.02811124    c      6.000     0
         -2.29825098   -4.03774811   -0.02331913    h      1.000     0
         -2.29824905    4.03774944   -0.02332432    h      1.000     0
          2.35149187    4.05688948   -0.03052902    h      1.000     0
          2.35149104   -4.05688882   -0.03052191    h      1.000     0
         -5.27421231    0.00000015   -0.01892527    n      7.000     0
         -6.38095344    2.02697624   -0.01645706    o      8.000     0
         -6.38095104   -2.02697725   -0.01646488    o      8.000     0
          5.24546036   -0.00000057   -0.07398941    n      7.000     0
          6.20368188    1.61649966    0.19711590    h      1.000     0
          6.20368041   -1.61650237    0.19711149    h      1.000     0
 
       center of nuclear mass  :   -1.36575211    0.00000002   -0.02511814
       center of nuclear charge:   -1.22391370    0.00000002   -0.02210311

   *************************************************************************
   ADC(2) - opt by CAM-B3LYP gaussian                                       
   *************************************************************************



              +--------------------------------------------------+
              |               basis set information              |
              +--------------------------------------------------+

              we will work with the 1s 3p 5d 7f 9g ... basis set
              ...i.e. with spherical basis functions...

   type   atoms  prim   cont   basis
   ---------------------------------------------------------------------------
    c        6     52     37   def2-TZVPD   [6s3p3d1f|12s6p3d1f]
    h        6     11      9   def2-TZVPD   [3s2p|5s2p]
    n        2     52     37   def2-TZVPD   [6s3p3d1f|12s6p3d1f]
    o        2     55     40   def2-TZVPD   [6s4p3d1f|12s7p3d1f]
   ---------------------------------------------------------------------------
   total:   16    592    430
   ---------------------------------------------------------------------------

   total number of primitive shells          :   74
   total number of contracted shells         :  162
   total number of cartesian basis functions :  490
   total number of SCF-basis functions       :  430

 ==============================================================================
                      COSMO switched on
 ==============================================================================
 COSMO: skip init. and read data from file
 This run uses frozen charges (from previous solvent iteration)
 Work to create reaction field =   2.121572472483518E-002

 integral neglect threshold       :  0.68E-11
 integral storage threshold THIZE :  0.10E-04
 integral storage threshold THIME :         5


 DENSITY CONVERGENCE CHECK SWITCHED ON !
 SCF CONVERGENCE IF RMS(delta[D]) <     0.1000000000E-07


 symmetry group of the molecule :   c1 

 the group has the following generators :
   c1(z)

    1 symmetry operations found

 there are 1 real representations :   a   

 maximum number of shells which are related by symmetry :  1


    mo occupation :
   irrep   mo's   occupied
    a      430       36
 
 number of basis functions   :          430
 number of occupied orbitals :           36
 

          ------------------------
          nuclear repulsion energy  :   498.679625102    
          ------------------------

 
          -----------------
          -S,T+V- integrals
          -----------------

 1e-integrals will be neglected if expon. factor < 0.682033E-12
 
   Difference densities algorithm switched on.
   The maximal number of linear combinations of
   difference densities is          20 .

 automatic virtual orbital shift switched on 
      shift if e(lumo)-e(homo) < 0.10000000    


 DIIS switched on: error vector is FDS-SDF
 Max. Iterations for DIIS is     :   5
 DIIS matrix (see manual) 
    Scaling factor of diagonals  :  1.200
    threshold for scaling factor :  0.000

 scf convergence criterion : increment of total energy < .1000000D-06
                  and increment of one-electron energy < .1000000D-03

  MOs are in ASCII format !


 reading orbital data $scfmo  from file mos . 

 orbital characterization : scfconv=7
 

 DSCF restart information will be dumped onto file mos

 COSMO: use frozen qcos
 
                                              current damping :  0.300
 ITERATION  ENERGY          1e-ENERGY        2e-ENERGY     RMS[dD(SAO)]   TOL
   1  -489.42148240226    -1655.9395046     667.83839711    0.000D+00 0.680D-11
                          Ediel =    -0.023652292899
          max. resid. norm for Fia-block=  3.251D-04 for orbital     31a         
          max. resid. fock norm         =  7.009D-04 for orbital    120a         
          Delta Eig. =     0.0143993691 eV 
 COSMO: use frozen qcos
 
                                              current damping :  0.250
 ITERATION  ENERGY          1e-ENERGY        2e-ENERGY     RMS[dD(SAO)]   TOL
   2  -489.42148355578    -1655.9428919     667.84178326    0.395D-04 0.431D-11
                          Ediel =    -0.023600486069
          Norm of current diis error: 0.15848E-02
          max. resid. norm for Fia-block=  1.219D-04 for orbital     31a         
          max. resid. fock norm         =  1.506D-04 for orbital     31a         
          Delta Eig. =     0.0065553180 eV 
 COSMO: use frozen qcos
 
                                              current damping :  0.200
 ITERATION  ENERGY          1e-ENERGY        2e-ENERGY     RMS[dD(SAO)]   TOL
   3  -489.42148376054    -1655.9422960     667.84118718    0.132D-04 0.342D-11
                          Ediel =    -0.023580812296
          Norm of current diis error: 0.69872E-03
          max. resid. norm for Fia-block=  6.477D-05 for orbital     36a         
          max. resid. fock norm         =  8.679D-05 for orbital     37a         
          Delta Eig. =     0.0022066699 eV 
 COSMO: use frozen qcos
 
                                              current damping :  0.250
 ITERATION  ENERGY          1e-ENERGY        2e-ENERGY     RMS[dD(SAO)]   TOL
   4  -489.42148382296    -1655.9426161     667.84150718    0.507D-05 0.295D-11
                          Ediel =    -0.023569797844
          Norm of current diis error: 0.37414E-03
          max. resid. norm for Fia-block=  4.198D-05 for orbital     36a         
          max. resid. fock norm         =  4.945D-05 for orbital     37a         
          Delta Eig. =     0.0011350072 eV 
 COSMO: use frozen qcos
 
                                              current damping :  0.300
 ITERATION  ENERGY          1e-ENERGY        2e-ENERGY     RMS[dD(SAO)]   TOL
   5  -489.42148384104    -1655.9425543     667.84144532    0.189D-05 0.270D-11
                          Ediel =    -0.023564898554
          Norm of current diis error: 0.20851E-03
          max. resid. norm for Fia-block=  2.475D-05 for orbital     36a         
          max. resid. fock norm         =  3.143D-05 for orbital     37a         
 mo-orthogonalization: Cholesky decomposition
          Delta Eig. =     0.0006778592 eV 
 COSMO: use frozen qcos
 
                                              current damping :  0.150
 ITERATION  ENERGY          1e-ENERGY        2e-ENERGY     RMS[dD(SAO)]   TOL
   6  -489.42148384746    -1655.9425539     667.84144496    0.121D-05 0.252D-11
                          Ediel =    -0.023562543452
          Norm of current diis error: 0.11473E-03
          max. resid. norm for Fia-block=  1.878D-05 for orbital     36a         
          max. resid. fock norm         =  2.030D-05 for orbital     37a         
          Delta Eig. =     0.0002376936 eV 
 COSMO: use frozen qcos
 
                                              current damping :  0.100
 ITERATION  ENERGY          1e-ENERGY        2e-ENERGY     RMS[dD(SAO)]   TOL
   7  -489.42148385054    -1655.9425297     667.84142076    0.950D-06 0.234D-11
                          Ediel =    -0.023561086200
          Norm of current diis error: 0.54015E-04
          max. resid. norm for Fia-block=  8.448D-06 for orbital     36a         
          max. resid. fock norm         =  8.982D-06 for orbital     37a         
          Delta Eig. =     0.0001887024 eV 
 COSMO: use frozen qcos

 ENERGY & DENSITY CONVERGED !

 
                                              current damping :  0.100
 ITERATION  ENERGY          1e-ENERGY        2e-ENERGY     RMS[dD(SAO)]   TOL
   8  -489.42148385191    -1655.9425262     667.84141721    0.481D-06 0.221D-11
                          Ediel =    -0.023560568826
          max. resid. norm for Fia-block=  1.697D-06 for orbital     36a         
          max. resid. fock norm         =  6.436D-06 for orbital    187a         
 COSMO: write data to file cosmotransfer

 convergence criteria satisfied after  8 iterations


   *************************************************************************
   ADC(2) - opt by CAM-B3LYP gaussian                                       
   *************************************************************************


                  ------------------------------------------ 
                 |  total energy      =   -489.42148385191  |
                  ------------------------------------------ 
                 :  kinetic energy    =    488.91226328752  :
                 :  potential energy  =   -978.33374713943  :
                 :  virial theorem    =      1.99895954595  :
                 :  wavefunction norm =      1.00000000000  :
                  .......................................... 


 orbitals $scfmo  will be written to file mos

    irrep                 32a         33a         34a         35a         36a   
 eigenvalues H         -0.49158    -0.47346    -0.46265    -0.36720    -0.31426
            eV         -13.3768    -12.8836    -12.5895     -9.9920     -8.5516
 occupation              2.0000      2.0000      2.0000      2.0000      2.0000 

    irrep                 37a         38a         39a         40a         41a   
 eigenvalues H          0.04592     0.06832     0.08082     0.08376     0.10321
            eV           1.2494      1.8591      2.1991      2.2791      2.8085
 
 ==============================================================================
                                  COSMO RESULTS
 ==============================================================================
  PARAMETER:
    nppa:      1082
    nspa:        92
    nsph:        32
    nps:        668
    npspher:    312
    disex:   10.0000    
    disex2:  4410.84    
    rsolv [A]: 1.3000
    routf:     0.8500
    phsran:    0.0    
    ampran:   0.10E-04
    cavity:  closed
    epsilon:    20.493
    refind:     1.300
    fepsi:      0.9285476
  CAVITY VOLUME/AREA [a.u.]:
    surface: V1.0, A matrix: V1.0
    area:   573.16
    volume:  1039.03
  SCREENING CHARGE:
    cosmo      :  -0.029810
    correction :   0.029128
    total      :  -0.000682
  ENERGIES [a.u.]:
    Total energy            =     -489.4214838519
    Total energy + OC corr. =     -489.4211251869
    Dielectric energy       =       -0.0235605688
    Diel. energy + OC corr. =       -0.0232019038
  ELEMENT RADIUS [A]: ATOM LIST
    c  2.00: 1-6
    h  1.30: 7-10,15,16
    n  1.83: 11,14
    o  1.72: 12,13
 ==============================================================================
 
 
 
 ==============================================================================
                           electrostatic moments
 ==============================================================================
 
              nuc           elec       ->  total
 ------------------------------------------------------------------------------
                          charge      
 ------------------------------------------------------------------------------
          72.000000     -72.000000      -0.000000
 
 ------------------------------------------------------------------------------
                       dipole moment  
 ------------------------------------------------------------------------------
   x     -88.121787      92.094857       3.973070
   y       0.000001      -0.000015      -0.000013
   z      -1.591424       1.805690       0.214267
 
   | dipole moment | =     3.9788 a.u. =    10.1132 debye 
 
 ------------------------------------------------------------------------------
                     quadrupole moment
 ------------------------------------------------------------------------------
  xx    1260.248019   -1312.719344     -52.471325
  yy     261.671628    -300.253432     -38.581804
  zz       0.151705     -45.545603     -45.393899
  xy      -0.000002      -0.000687      -0.000690
  xz       1.947765      -0.589395       1.358370
  yz      -0.000000       0.000098       0.000098
 
     1/3  trace=     -45.482343
     anisotropy=      12.257333
 
 ==============================================================================
 


    ------------------------------------------------------------------------
         total  cpu-time :  6 minutes and 47 seconds
         total wall-time :  6 minutes and 54 seconds
    ------------------------------------------------------------------------


   ****  dscf : all done  ****


    2023-03-30 09:03:09.329 

