 hostname is         dlt19.abaxnet
 this is node-proc. number 0 running on node dlt19.abaxnet
 the total number of node-proc. spawned is   1

 ricc2 (dlt19.abaxnet) : TURBOMOLE V6.6( 19125 ) 27 May 2014 at 14:24:19
 Copyright (C) 2014 TURBOMOLE GmbH, Karlsruhe


    2023-03-29 01:27:38.948 



                              R I C C 2 - PROGRAM

                          the quantum chemistry groups
                             at the universities in
                           Karlsruhe, Bochum & Mainz
                                   Germany



   *-----------------------------------------------------------------------*
   |                     program will use  1 thread(s)                     |
   *-----------------------------------------------------------------------*


              +--------------------------------------------------+
              | Atomic coordinate, charge and isotop information |
              +--------------------------------------------------+

                    atomic coordinates            atom    charge  isotop
         -1.25890656   -2.28309021   -0.02600539    c      6.000     0
         -2.55699122    0.00000087   -0.02473376    c      6.000     0
         -1.25890608    2.28309078   -0.02600807    c      6.000     0
          1.33242957    2.28461838   -0.02811468    c      6.000     0
          2.68675735    0.00000039   -0.02772325    c      6.000     0
          1.33242819   -2.28461807   -0.02811124    c      6.000     0
         -2.29825098   -4.03774811   -0.02331913    h      1.000     0
         -2.29824905    4.03774944   -0.02332432    h      1.000     0
          2.35149187    4.05688948   -0.03052902    h      1.000     0
          2.35149104   -4.05688882   -0.03052191    h      1.000     0
         -5.27421231    0.00000015   -0.01892527    n      7.000     0
         -6.38095344    2.02697624   -0.01645706    o      8.000     0
         -6.38095104   -2.02697725   -0.01646488    o      8.000     0
          5.24546036   -0.00000057   -0.07398941    n      7.000     0
          6.20368188    1.61649966    0.19711590    h      1.000     0
          6.20368041   -1.61650237    0.19711149    h      1.000     0
 
       center of nuclear mass  :   -1.36575211    0.00000002   -0.02511814
       center of nuclear charge:   -1.22391370    0.00000002   -0.02210311

              +--------------------------------------------------+
              |               basis set information              |
              +--------------------------------------------------+

              we will work with the 1s 3p 5d 7f 9g ... basis set
              ...i.e. with spherical basis functions...

   type   atoms  prim   cont   basis
   ---------------------------------------------------------------------------
    c        6     52     37   def2-TZVPD   [6s3p3d1f|12s6p3d1f]
    h        6     11      9   def2-TZVPD   [3s2p|5s2p]
    n        2     52     37   def2-TZVPD   [6s3p3d1f|12s6p3d1f]
    o        2     55     40   def2-TZVPD   [6s4p3d1f|12s7p3d1f]
   ---------------------------------------------------------------------------
   total:   16    592    430
   ---------------------------------------------------------------------------

   total number of primitive shells          :   74
   total number of contracted shells         :  162
   total number of cartesian basis functions :  490
   total number of SCF-basis functions       :  430



   =========================================================================


     restricted closed shell calculation for the wavefunction models:
               ADC(2)     - Algebraic Diagrammatic Construction to 2. Order (strict)


     global parameters for ricc2 program:

        hard restart (reuse of interm.) :  disabled
        soft restart (reuse of vectors) :  disabled
        threshold for vector function   :    0.100000E-06
        convergence threshold energy    :    0.100000E-07
        linear dependence threshold     :    0.100000E-13
        global print level              :      1
        maximum number of iterations    :   500
        maximum number DIIS vectors     :    10
        max. dim. of reduced space      :   100
        core memory limit (MB)          :   500
        disk space limit (MB)           :   none


   =========================================================================
     "cartesian on" in $drvopt is ignored by $ricc2

    der. integral neglect threshold  :  0.10E-08
    integral neglect threshold       :  0.68E-12
    integral storage threshold THIZE :  0.10E-04
    integral storage threshold THIME :         5


                  +------------------------------------------+
                  |     Auxiliary basis set information      |
                  +------------------------------------------+

              we will work with the 1s 3p 5d 7f 9g ... basis set
              ...i.e. with spherical basis functions...

   type   atoms  prim   cont   basis
   ---------------------------------------------------------------------------
    c        6     97     92   def2-TZVPD   [9s7p5d4f1g|9s7p6d4f1g]
    h        6     32     24   def2-TZVPD   [5s3p2d|5s4p3d]
    n        2     97     92   def2-TZVPD   [9s7p5d4f1g|9s7p6d4f1g]
    o        2     97     92   def2-TZVPD   [9s7p5d4f1g|9s7p6d4f1g]
   ---------------------------------------------------------------------------
   total:   16   1162   1064
   ---------------------------------------------------------------------------

   total number of primitive shells          :   93
   total number of contracted shells         :  320
   total number of cartesian basis functions : 1306
   total number of SCF-basis functions       : 1064


 symmetry group of the molecule :   c1 

 the group has the following generators :
   c1(z)

    1 symmetry operations found

 there are 1 real representations :   a   

 maximum number of shells which are related by symmetry :  1


 The symmetry information takes   1 MB

*---------------------------------------------------------------------*
|               simplified C1 algorithm will be applied               |
*---------------------------------------------------------------------*
 ==============================================================================
                      COSMO switched on
 ==============================================================================
            ======================================================
                      COSMO settings in RICC2
                   --------------------------
             Solvent charges are equilibrated for ground state
             "cycle" indicates frozen COSMO charges,
             hence no COSMO CPHF contribution included
             COSMO linear response (LR) contribution included
             Outlying Charge Correction (OCC) is performed
             Using epsilon          =    20.493
             Using refractive index =     1.300
            ======================================================
        IMPORTANT NOTICE: The calculation of the solvent contributions will
         need the relaxed densities in general. Therefore the actual COSMO
         energies will be output only at the end of the run. Any energies
         or excitation energies quoted before that are only intermediate
         quantities and should be ignored unless you know what you are doing!

  MOs are in ASCII format !


 reading orbital data $scfmo  from file mos . 

 orbital characterization : scfconv=7
 

         --------------------------------------------------------------
                   checking mo's by calculating trace(D*S)

              number of electrons : 
                 from trace(D*S)         :   71.999999999997
                 from occupation numbers :   72.000000000000

              molecular charge           :    0.000000000000
         --------------------------------------------------------------

 time elapsed for calculating density matrices :   0.009 sec
 all orbitals will be active in the correlation treatment


   Molecular Orbital Statistic:
   ============================

   -----------------------------
   orbitals in total:
   -----------------------------
    frozen occupied :      0
    active occupied :     36
    active virtual  :    394
    frozen virtual  :      0
    all together    :    430
   -----------------------------


     time in riccmos       cpu:  0.13 sec    wall:  1.40 sec    ratio:  0.1

     total memory allocated for calculation of (Q|P)**(-1/2) : 13 MiB


     calculation of (P|Q) ...
     time in lp2sym        cpu:  0.02 sec    wall:  0.02 sec    ratio:  1.0


     calculation of the Cholesky decomposition of (P|Q)**(-1) ...
     time in invmetri      cpu:  0.07 sec    wall:  0.97 sec    ratio:  0.1

   threshold for RMS(d[D]) in SCF was     :  0.10E-07
   integral neglect threshold             :  0.68E-12
   derivative integral neglect threshold  :  0.10E-08


 setting up bound for integral derivative estimation

 increment for numerical differentiation : 0.00050000

   =========================================================================

     Energy of reference wave function is  -489.4218321290000
     Maximum orbital residual is           0.2416312336612E-04


     Number of symmetry-nonredundant auxiliary basis functions:     1064

     Block lengths for integral files:
        frozen occupied (BOI):        0 MiB
        active occupied (BJI):        1 MiB
        active virtual  (BAI):        4 MiB
        frozen virtual  (BGI):        0 MiB
               general  (BTI):        4 MiB

   =========================================================================




   **************************************************************************
   *                                                                        *
   *          OPTIMIZATION OF THE GROUND STATE CLUSTER AMPLITUDES           *
   *                                                                        *
   **************************************************************************


   Iter.   MP2 energy       Norm(Omega)    Norm(t1)  Norm(t2)     cpu    wall
   ...........................................................................
    1   -491.4251539350    0.1614024384     0.00000   0.44493    0.29    0.99
   ...........................................................................


     time in total         cpu: 17.40 sec    wall: 59.43 sec    ratio:  0.3


     **********************************************************************
     *                                                                    *
     *   RHF  energy                             :   -489.4218321290      *
     *   MP2 correlation energy                  :     -2.0033218060      *
     *                                                                    *
     *   Final MP2 energy                        :   -491.4251539350      *
     *                                                                    *
     *   Norm of MP1 T2 amplitudes               :      0.4449349489      *
     *                                                                    *
     *   D1 diagnostic                           :      0.0593            *
     *                                                                    *
     **********************************************************************

 Using refractive index n                   =    1.30000000000000     
 Screening function (n**2-1)/(n**2+0.5)     =   0.315068493150685     


 **************************************************************
 *                                                            *
 *    OPTIMIZATION OF THE EXCITED STATE CLUSTER AMPLITUDES    *
 *                                                            *
 **************************************************************


  preoptimize excitation energies/vectors using CCS:

  ==================================================


 ======== LINEAR CC RESPONSE SOLVER ========

    threshold for convergence: 0.10E-02
    maximum number of simultaneous jacoby matrix transformations: 15
                                                
     summary of start vectors generation:
     -------------------------------------------
     type of solution vectors      : RE0
     symmetry                      : a  
     number of vectors requested   :    15
     number of vectors generated   :    15
       -- guessed as rhs/(e_a-e_i) :    15
     -------------------------------------------
                                                

    Iter  #Vectors  time (min)    max. residual 
    --------------------------------------------
 COSMO cphf update
 COSMO cphf update
 COSMO cphf update
 COSMO cphf update
 COSMO cphf update
 COSMO cphf update
 COSMO cphf update
 COSMO cphf update
 COSMO cphf update
 COSMO cphf update
 COSMO cphf update
 COSMO cphf update
 COSMO cphf update
 COSMO cphf update
 COSMO cphf update
      1      15         4.79     0.14E+00  (  1)
 COSMO cphf update
 COSMO cphf update
 COSMO cphf update
 COSMO cphf update
 COSMO cphf update
 COSMO cphf update
 COSMO cphf update
 COSMO cphf update
 COSMO cphf update
 COSMO cphf update
 COSMO cphf update
 COSMO cphf update
 COSMO cphf update
 COSMO cphf update
 COSMO cphf update
      2      15         4.76     0.51E-01  (  1)
 COSMO cphf update
 COSMO cphf update
 COSMO cphf update
 COSMO cphf update
 COSMO cphf update
 COSMO cphf update
 COSMO cphf update
 COSMO cphf update
 COSMO cphf update
 COSMO cphf update
 COSMO cphf update
 COSMO cphf update
 COSMO cphf update
 COSMO cphf update
 COSMO cphf update
      3      15         4.75     0.82E-01  (  7)
 COSMO cphf update
 COSMO cphf update
 COSMO cphf update
 COSMO cphf update
 COSMO cphf update
 COSMO cphf update
 COSMO cphf update
 COSMO cphf update
 COSMO cphf update
 COSMO cphf update
 COSMO cphf update
 COSMO cphf update
 COSMO cphf update
 COSMO cphf update
 COSMO cphf update
      4      15         4.77     0.14E+00  ( 14)
 COSMO cphf update
 COSMO cphf update
 COSMO cphf update
 COSMO cphf update
 COSMO cphf update
 COSMO cphf update
 COSMO cphf update
 COSMO cphf update
 COSMO cphf update
 COSMO cphf update
 COSMO cphf update
 COSMO cphf update
 COSMO cphf update
 COSMO cphf update
 COSMO cphf update
      5      15         5.02     0.18E+00  ( 15)
 COSMO cphf update
 COSMO cphf update
 COSMO cphf update
 COSMO cphf update
 COSMO cphf update
 COSMO cphf update
 COSMO cphf update
 COSMO cphf update
 COSMO cphf update
 COSMO cphf update
 COSMO cphf update
 COSMO cphf update
 COSMO cphf update
 COSMO cphf update
      6      14         4.42     0.88E-01  (  3)
 COSMO cphf update
 COSMO cphf update
 COSMO cphf update
 COSMO cphf update
 COSMO cphf update
 COSMO cphf update
 COSMO cphf update
 COSMO cphf update
 COSMO cphf update
 COSMO cphf update
 COSMO cphf update
  dimension of red. space became too large.
  try internal restart...
      7      11         3.75     0.21E-01  (  2)
                                                
     summary of start vectors generation:
     -------------------------------------------
     type of solution vectors      : RE0
     symmetry                      : a  
     number of vectors requested   :    15
     number of vectors generated   :    15
       -- restarted from file      :    15
     -------------------------------------------
                                                

    Iter  #Vectors  time (min)    max. residual 
    --------------------------------------------
 COSMO cphf update
 COSMO cphf update
 COSMO cphf update
 COSMO cphf update
 COSMO cphf update
 COSMO cphf update
 COSMO cphf update
 COSMO cphf update
 COSMO cphf update
 COSMO cphf update
 COSMO cphf update
 COSMO cphf update
 COSMO cphf update
 COSMO cphf update
 COSMO cphf update
      8      15         4.77     0.21E-01  (  2)
 COSMO cphf update
 COSMO cphf update
 COSMO cphf update
 COSMO cphf update
 COSMO cphf update
 COSMO cphf update
 COSMO cphf update
 COSMO cphf update
 COSMO cphf update
      9       9         2.91     0.84E-02  (  2)
 COSMO cphf update
 COSMO cphf update
 COSMO cphf update
 COSMO cphf update
 COSMO cphf update
     10       5         1.66     0.30E-02  (  2)
 COSMO cphf update
 COSMO cphf update
 COSMO cphf update
     11       3         1.00     0.12E-02  ( 13)
 COSMO cphf update
     12       1         0.39     0.92E-03  ( 10)
    --------------------------------------------
    converged in 12 iterations

         Total time         43.02 minutes


 ===========================================




 Note that this is the intermediate result of a preoptimization!
 The convergence threshold was  0.1E-02 only!
 COSMO: note that the excitation energies below do not include
        the nonequilibrium contributions yet. These require the
        computation of the relaxed densities. See end of output
        for a final list of corrected excitations.


 +==================================================================+
 | sym | multi | state |          CCS excitation energies           |
 |     |       |       +--------------------------------------------+
 |     |       |       |   Hartree    |     eV       |     cm-1     |
 +==================================================================+
 | a   |   1   |   1   |    0.1791544 |      4.87504 |    39319.854 |
 | a   |   1   |   2   |    0.1980534 |      5.38931 |    43467.688 |
 | a   |   1   |   3   |    0.2038796 |      5.54785 |    44746.404 |
 | a   |   1   |   4   |    0.2131577 |      5.80032 |    46782.718 |
 | a   |   1   |   5   |    0.2301816 |      6.26356 |    50519.024 |
 | a   |   1   |   6   |    0.2454266 |      6.67840 |    53864.909 |
 | a   |   1   |   7   |    0.2574231 |      7.00484 |    56497.833 |
 | a   |   1   |   8   |    0.2584597 |      7.03305 |    56725.358 |
 | a   |   1   |   9   |    0.2626467 |      7.14698 |    57644.295 |
 | a   |   1   |  10   |    0.2664528 |      7.25055 |    58479.640 |
 | a   |   1   |  11   |    0.2793896 |      7.60258 |    61318.935 |
 | a   |   1   |  12   |    0.2831505 |      7.70492 |    62144.351 |
 | a   |   1   |  13   |    0.2852283 |      7.76146 |    62600.381 |
 | a   |   1   |  14   |    0.2928876 |      7.96988 |    64281.408 |
 | a   |   1   |  15   |    0.2953878 |      8.03791 |    64830.121 |
 +==================================================================+




  preoptimize ADC(2) excitation energies/vectors using a quasi linear algorithm:
  ==============================================================================


 ======== LINEAR CC RESPONSE SOLVER ========

    threshold for convergence: 0.10E-02
    maximum number of simultaneous jacoby matrix transformations: 15
                                                
     summary of start vectors generation:
     -------------------------------------------
     type of solution vectors      : RE0
     symmetry                      : a  
     number of vectors requested   :    15
     number of vectors generated   :    15
       -- restarted from file      :    15
     -------------------------------------------
                                                

    Iter  #Vectors  time (min)    max. residual 
    --------------------------------------------
 COSMO cphf update
 COSMO cphf update
 COSMO cphf update
 COSMO cphf update
 COSMO cphf update
 COSMO cphf update
 COSMO cphf update
 COSMO cphf update
 COSMO cphf update
 COSMO cphf update
 COSMO cphf update
 COSMO cphf update
 COSMO cphf update
 COSMO cphf update
 COSMO cphf update
 COSMO cphf update
 COSMO cphf update
 COSMO cphf update
 COSMO cphf update
 COSMO cphf update
 COSMO cphf update
 COSMO cphf update
 COSMO cphf update
 COSMO cphf update
 COSMO cphf update
 COSMO cphf update
 COSMO cphf update
 COSMO cphf update
 COSMO cphf update
 COSMO cphf update
 threshold for this macro iteration:  5.455294719979095E-002
      1      15        35.11     0.93E-01  (  2)
 COSMO cphf update
 COSMO cphf update
 COSMO cphf update
 COSMO cphf update
 COSMO cphf update
 COSMO cphf update
 COSMO cphf update
 COSMO cphf update
 COSMO cphf update
 COSMO cphf update
 COSMO cphf update
 COSMO cphf update
 COSMO cphf update
 COSMO cphf update
 COSMO cphf update
 COSMO cphf update
 ...adapted threshold to:  6.535595962394611E-002
      2       8        10.58     0.37E-01  ( 12)
                                                
     summary of start vectors generation:
     -------------------------------------------
     type of solution vectors      : RE0
     symmetry                      : a  
     number of vectors requested   :    15
     number of vectors generated   :    15
       -- restarted from file      :    15
     -------------------------------------------
                                                

    Iter  #Vectors  time (min)    max. residual 
    --------------------------------------------
 COSMO cphf update
 COSMO cphf update
 COSMO cphf update
 COSMO cphf update
 COSMO cphf update
 COSMO cphf update
 COSMO cphf update
 COSMO cphf update
 COSMO cphf update
 COSMO cphf update
 COSMO cphf update
 COSMO cphf update
 COSMO cphf update
 COSMO cphf update
 COSMO cphf update
 COSMO cphf update
 COSMO cphf update
 COSMO cphf update
 COSMO cphf update
 COSMO cphf update
 COSMO cphf update
 COSMO cphf update
 COSMO cphf update
 COSMO cphf update
 COSMO cphf update
 COSMO cphf update
 COSMO cphf update
 COSMO cphf update
 COSMO cphf update
 COSMO cphf update
 threshold for this macro iteration:  7.260278639743240E-003
      3      15        25.93     0.37E-01  ( 12)
 COSMO cphf update
 COSMO cphf update
 COSMO cphf update
 COSMO cphf update
 COSMO cphf update
 COSMO cphf update
 COSMO cphf update
 COSMO cphf update
 COSMO cphf update
 COSMO cphf update
 COSMO cphf update
 COSMO cphf update
 COSMO cphf update
 COSMO cphf update
 COSMO cphf update
 COSMO cphf update
 COSMO cphf update
 COSMO cphf update
 COSMO cphf update
 COSMO cphf update
 COSMO cphf update
 COSMO cphf update
 COSMO cphf update
 COSMO cphf update
 COSMO cphf update
 COSMO cphf update
 COSMO cphf update
 COSMO cphf update
 COSMO cphf update
 COSMO cphf update
      4      15        27.04     0.15E-01  ( 12)
 COSMO cphf update
 COSMO cphf update
 COSMO cphf update
 COSMO cphf update
 COSMO cphf update
 COSMO cphf update
 COSMO cphf update
 COSMO cphf update
 COSMO cphf update
 COSMO cphf update
 COSMO cphf update
 COSMO cphf update
 COSMO cphf update
 COSMO cphf update
 COSMO cphf update
 COSMO cphf update
 COSMO cphf update
 COSMO cphf update
 COSMO cphf update
 COSMO cphf update
 COSMO cphf update
 COSMO cphf update
 COSMO cphf update
 COSMO cphf update
 COSMO cphf update
 COSMO cphf update
 COSMO cphf update
 COSMO cphf update
      5      14        23.98     0.11E-01  ( 12)
 COSMO cphf update
 COSMO cphf update
 COSMO cphf update
 COSMO cphf update
 COSMO cphf update
 COSMO cphf update
 COSMO cphf update
 COSMO cphf update
      6       4         5.31     0.65E-01  ( 15)
 COSMO cphf update
 COSMO cphf update
 COSMO cphf update
 COSMO cphf update
 COSMO cphf update
 COSMO cphf update
      7       3         3.99     0.26E-01  ( 13)
 COSMO cphf update
 COSMO cphf update
 COSMO cphf update
 COSMO cphf update
      8       2         2.77     0.12E-01  ( 13)
 COSMO cphf update
 COSMO cphf update
      9       1         1.48     0.69E-02  ( 13)
                                                
     summary of start vectors generation:
     -------------------------------------------
     type of solution vectors      : RE0
     symmetry                      : a  
     number of vectors requested   :    15
     number of vectors generated   :    15
       -- restarted from file      :    15
     -------------------------------------------
                                                

    Iter  #Vectors  time (min)    max. residual 
    --------------------------------------------
 COSMO cphf update
 COSMO cphf update
 COSMO cphf update
 COSMO cphf update
 COSMO cphf update
 COSMO cphf update
 COSMO cphf update
 COSMO cphf update
 COSMO cphf update
 COSMO cphf update
 COSMO cphf update
 COSMO cphf update
 COSMO cphf update
 COSMO cphf update
 COSMO cphf update
 COSMO cphf update
 COSMO cphf update
 COSMO cphf update
 COSMO cphf update
 COSMO cphf update
 COSMO cphf update
 COSMO cphf update
 COSMO cphf update
 COSMO cphf update
 COSMO cphf update
 COSMO cphf update
 COSMO cphf update
 COSMO cphf update
 COSMO cphf update
 COSMO cphf update
 threshold for this macro iteration:  8.947554665624941E-003
     10      15        26.04     0.76E-02  ( 11)
                                                
     summary of start vectors generation:
     -------------------------------------------
     type of solution vectors      : RE0
     symmetry                      : a  
     number of vectors requested   :    15
     number of vectors generated   :    15
       -- restarted from file      :    15
     -------------------------------------------
                                                

    Iter  #Vectors  time (min)    max. residual 
    --------------------------------------------
 COSMO cphf update
 COSMO cphf update
 COSMO cphf update
 COSMO cphf update
 COSMO cphf update
 COSMO cphf update
 COSMO cphf update
 COSMO cphf update
 COSMO cphf update
 COSMO cphf update
 COSMO cphf update
 COSMO cphf update
 COSMO cphf update
 COSMO cphf update
 COSMO cphf update
 COSMO cphf update
 COSMO cphf update
 COSMO cphf update
 COSMO cphf update
 COSMO cphf update
 COSMO cphf update
 COSMO cphf update
 COSMO cphf update
 COSMO cphf update
 COSMO cphf update
 COSMO cphf update
 COSMO cphf update
 COSMO cphf update
 COSMO cphf update
 COSMO cphf update
 threshold for this macro iteration:  1.756957703150475E-002
     11      15        26.28     0.24E-01  ( 15)
 COSMO cphf update
 COSMO cphf update
     12       1         1.44     0.49E-02  ( 11)
                                                
     summary of start vectors generation:
     -------------------------------------------
     type of solution vectors      : RE0
     symmetry                      : a  
     number of vectors requested   :    15
     number of vectors generated   :    15
       -- restarted from file      :    15
     -------------------------------------------
                                                

    Iter  #Vectors  time (min)    max. residual 
    --------------------------------------------
 COSMO cphf update
 COSMO cphf update
 COSMO cphf update
 COSMO cphf update
 COSMO cphf update
 COSMO cphf update
 COSMO cphf update
 COSMO cphf update
 COSMO cphf update
 COSMO cphf update
 COSMO cphf update
 COSMO cphf update
 COSMO cphf update
 COSMO cphf update
 COSMO cphf update
 COSMO cphf update
 COSMO cphf update
 COSMO cphf update
 COSMO cphf update
 COSMO cphf update
 COSMO cphf update
 COSMO cphf update
 COSMO cphf update
 COSMO cphf update
 COSMO cphf update
 COSMO cphf update
 COSMO cphf update
 COSMO cphf update
 COSMO cphf update
 COSMO cphf update
 threshold for this macro iteration:  2.302874027310553E-003
     13      15        25.88     0.14E-01  ( 10)
 COSMO cphf update
 COSMO cphf update
 COSMO cphf update
 COSMO cphf update
 ...adapted threshold to:  4.035114207458779E-003
     14       2         2.76     0.99E-02  ( 10)
 COSMO cphf update
 COSMO cphf update
 ...adapted threshold to:  4.401331880303339E-003
     15       1         1.48     0.39E-02  ( 10)
                                                
     summary of start vectors generation:
     -------------------------------------------
     type of solution vectors      : RE0
     symmetry                      : a  
     number of vectors requested   :    15
     number of vectors generated   :    15
       -- restarted from file      :    15
     -------------------------------------------
                                                

    Iter  #Vectors  time (min)    max. residual 
    --------------------------------------------
 COSMO cphf update
 COSMO cphf update
 COSMO cphf update
 COSMO cphf update
 COSMO cphf update
 COSMO cphf update
 COSMO cphf update
 COSMO cphf update
 COSMO cphf update
 COSMO cphf update
 COSMO cphf update
 COSMO cphf update
 COSMO cphf update
 COSMO cphf update
 COSMO cphf update
 COSMO cphf update
 COSMO cphf update
 COSMO cphf update
 COSMO cphf update
 COSMO cphf update
 COSMO cphf update
 COSMO cphf update
 COSMO cphf update
 COSMO cphf update
 COSMO cphf update
 COSMO cphf update
 COSMO cphf update
 COSMO cphf update
 COSMO cphf update
 COSMO cphf update
 dabs(Rj-Ri):           1          12  0.122977365319775     
 dabs(Ij+Ii):           1          12  5.396035995463132E-004
 dabs(Rj-Ri):           2          12  0.117786754387944     
 dabs(Ij+Ii):           2          12  5.396035995463132E-004
 dabs(Rj-Ri):           3          12  8.818076725099100E-002
 dabs(Ij+Ii):           3          12  5.396035995463132E-004
 dabs(Rj-Ri):           4          12  8.739653212046936E-002
 dabs(Ij+Ii):           4          12  5.396035995463132E-004
 dabs(Rj-Ri):           5          12  6.424984877441769E-002
 dabs(Ij+Ii):           5          12  5.396035995463132E-004
 dabs(Rj-Ri):           6          12  4.466069162637770E-002
 dabs(Ij+Ii):           6          12  5.396035995463132E-004
 dabs(Rj-Ri):           7          12  4.440810872328657E-002
 dabs(Ij+Ii):           7          12  5.396035995463132E-004
 dabs(Rj-Ri):           8          12  3.609462495868909E-002
 dabs(Ij+Ii):           8          12  5.396035995463132E-004
 dabs(Rj-Ri):           9          12  2.060682616480924E-002
 dabs(Ij+Ii):           9          12  5.396035995463132E-004
 dabs(Rj-Ri):          10          12  1.164074794914818E-002
 dabs(Ij+Ii):          10          12  5.396035995463132E-004
 dabs(Rj-Ri):          11          12  4.751062446858911E-003
 dabs(Ij+Ii):          11          12  5.396035995463132E-004
 dabs(Rj-Ri):          13          12  0.000000000000000E+000
 dabs(Ij+Ii):          13          12  0.000000000000000E+000
 dabs(Rj-Ri):          14          12  1.241185359886371E-002
 dabs(Ij+Ii):          14          12  5.396035995463132E-004
 dabs(Rj-Ri):          15          12  1.414597909889614E-002
 dabs(Ij+Ii):          15          12  5.396035995463132E-004
 overlap matrix for complex pair:

              1             2
 
    1     0.07972553   -0.03084337
    2    -0.03084337    0.02442631
 real eigenvalues of metric:

              1
 
    1     0.09349831
    2     0.01065352
 eigenvectors of metric:

              1             2
 
    1     0.91310019    0.40773525
    2    -0.40773525    0.91310019
 inverse square root of overlap matrix:

              1             2
 
    1     4.33736734    2.38945988
    2     2.38945988    8.62144047
 recalculated overlap matrix for complex pair:

              1             2
 
    1     1.00000000    0.00000000
    2    -0.00000000    1.00000000
 dabs(Rj-Ri):           1          13  0.122977365319775     
 dabs(Ij+Ii):           1          13  5.396035995463132E-004
 dabs(Rj-Ri):           2          13  0.117786754387944     
 dabs(Ij+Ii):           2          13  5.396035995463132E-004
 dabs(Rj-Ri):           3          13  8.818076725099100E-002
 dabs(Ij+Ii):           3          13  5.396035995463132E-004
 dabs(Rj-Ri):           4          13  8.739653212046936E-002
 dabs(Ij+Ii):           4          13  5.396035995463132E-004
 dabs(Rj-Ri):           5          13  6.424984877441769E-002
 dabs(Ij+Ii):           5          13  5.396035995463132E-004
 dabs(Rj-Ri):           6          13  4.466069162637770E-002
 dabs(Ij+Ii):           6          13  5.396035995463132E-004
 dabs(Rj-Ri):           7          13  4.440810872328657E-002
 dabs(Ij+Ii):           7          13  5.396035995463132E-004
 dabs(Rj-Ri):           8          13  3.609462495868909E-002
 dabs(Ij+Ii):           8          13  5.396035995463132E-004
 dabs(Rj-Ri):           9          13  2.060682616480924E-002
 dabs(Ij+Ii):           9          13  5.396035995463132E-004
 dabs(Rj-Ri):          10          13  1.164074794914818E-002
 dabs(Ij+Ii):          10          13  5.396035995463132E-004
 dabs(Rj-Ri):          11          13  4.751062446858911E-003
 dabs(Ij+Ii):          11          13  5.396035995463132E-004
 dabs(Rj-Ri):          12          13  0.000000000000000E+000
 dabs(Ij+Ii):          12          13  0.000000000000000E+000
 dabs(Rj-Ri):          14          13  1.241185359886371E-002
 dabs(Ij+Ii):          14          13  5.396035995463132E-004
 dabs(Rj-Ri):          15          13  1.414597909889614E-002
 dabs(Ij+Ii):          15          13  5.396035995463132E-004
 overlap matrix for complex pair:

              1             2
 
    1     1.00000000   -0.00000000
    2     0.00000000    1.00000000
 real eigenvalues of metric:

              1
 
    1     1.00000000
    2     1.00000000
 eigenvectors of metric:

              1             2
 
    1     0.83377926    0.55209794
    2    -0.55209794    0.83377926
 inverse square root of overlap matrix:

              1             2
 
    1     1.00000000    0.00000000
    2     0.00000000    1.00000000
 recalculated overlap matrix for complex pair:

              1             2
 
    1     1.00000000   -0.00000000
    2     0.00000000    1.00000000
 warning> found low lying complex root...
 eigenvalues (imaginary parts) in redeig:

              1
 
    1     0.00000000
    2     0.00000000
    3     0.00000000
    4     0.00000000
    5     0.00000000
    6     0.00000000
    7     0.00000000
    8     0.00000000
    9     0.00000000
   10     0.00000000
   11     0.00000000
   12    -0.00053960
   13     0.00053960
   14     0.00000000
   15     0.00000000
 eigenvalues (real parts) in redeig:

              1
 
    1     0.13311735
    2     0.13830796
    3     0.16791395
    4     0.16869819
    5     0.19184487
    6     0.21143403
    7     0.21168661
    8     0.22000009
    9     0.23548789
   10     0.24445397
   11     0.25134366
   12     0.25609472
   13     0.25609472
   14     0.26850657
   15     0.27024070
 threshold for this macro iteration:  6.885137746916875E-003
     16      15        26.03     0.70E-02  ( 11)
 COSMO cphf update
 COSMO cphf update
 dabs(Rj-Ri):           1          12  0.122944859940313     
 dabs(Ij+Ii):           1          12  4.916639017712414E-004
 dabs(Rj-Ri):           2          12  0.117754199036712     
 dabs(Ij+Ii):           2          12  4.916639017712414E-004
 dabs(Rj-Ri):           3          12  8.814821003477624E-002
 dabs(Ij+Ii):           3          12  4.916639017712414E-004
 dabs(Rj-Ri):           4          12  8.736397676625493E-002
 dabs(Ij+Ii):           4          12  4.916639017712414E-004
 dabs(Rj-Ri):           5          12  6.421729342510285E-002
 dabs(Ij+Ii):           5          12  4.916639017712414E-004
 dabs(Rj-Ri):           6          12  4.462813732565976E-002
 dabs(Ij+Ii):           6          12  4.916639017712414E-004
 dabs(Rj-Ri):           7          12  4.437555505477131E-002
 dabs(Ij+Ii):           7          12  4.916639017712414E-004
 dabs(Rj-Ri):           8          12  3.606207972443318E-002
 dabs(Ij+Ii):           8          12  4.916639017712414E-004
 dabs(Rj-Ri):           9          12  2.057428168559874E-002
 dabs(Ij+Ii):           9          12  4.916639017712414E-004
 dabs(Rj-Ri):          10          12  1.161664385159963E-002
 dabs(Ij+Ii):          10          12  4.916639017712414E-004
 dabs(Rj-Ri):          11          12  5.430142450182085E-003
 dabs(Ij+Ii):          11          12  4.916639017712414E-004
 dabs(Rj-Ri):          13          12  0.000000000000000E+000
 dabs(Ij+Ii):          13          12  0.000000000000000E+000
 dabs(Rj-Ri):          14          12  1.244430859287116E-002
 dabs(Ij+Ii):          14          12  4.916639017712414E-004
 dabs(Rj-Ri):          15          12  1.417881318837005E-002
 dabs(Ij+Ii):          15          12  4.916639017712414E-004
 dabs(Rj-Ri):          16          12  0.192270876364768     
 dabs(Ij+Ii):          16          12  4.916639017712414E-004
 overlap matrix for complex pair:

              1             2
 
    1     0.48864411   -0.06188744
    2    -0.06188744    0.01441325
 real eigenvalues of metric:

              1
 
    1     0.49658741
    2     0.00646995
 eigenvectors of metric:

              1             2
 
    1     0.99186343    0.12730646
    2    -0.12730646    0.99186343
 inverse square root of overlap matrix:

              1             2
 
    1     1.59755444    1.39064122
    2     1.39064122   12.25375590
 recalculated overlap matrix for complex pair:

              1             2
 
    1     1.00000000   -0.00000000
    2    -0.00000000    1.00000000
 dabs(Rj-Ri):           1          13  0.122944859940313     
 dabs(Ij+Ii):           1          13  4.916639017712414E-004
 dabs(Rj-Ri):           2          13  0.117754199036712     
 dabs(Ij+Ii):           2          13  4.916639017712414E-004
 dabs(Rj-Ri):           3          13  8.814821003477624E-002
 dabs(Ij+Ii):           3          13  4.916639017712414E-004
 dabs(Rj-Ri):           4          13  8.736397676625493E-002
 dabs(Ij+Ii):           4          13  4.916639017712414E-004
 dabs(Rj-Ri):           5          13  6.421729342510285E-002
 dabs(Ij+Ii):           5          13  4.916639017712414E-004
 dabs(Rj-Ri):           6          13  4.462813732565976E-002
 dabs(Ij+Ii):           6          13  4.916639017712414E-004
 dabs(Rj-Ri):           7          13  4.437555505477131E-002
 dabs(Ij+Ii):           7          13  4.916639017712414E-004
 dabs(Rj-Ri):           8          13  3.606207972443318E-002
 dabs(Ij+Ii):           8          13  4.916639017712414E-004
 dabs(Rj-Ri):           9          13  2.057428168559874E-002
 dabs(Ij+Ii):           9          13  4.916639017712414E-004
 dabs(Rj-Ri):          10          13  1.161664385159963E-002
 dabs(Ij+Ii):          10          13  4.916639017712414E-004
 dabs(Rj-Ri):          11          13  5.430142450182085E-003
 dabs(Ij+Ii):          11          13  4.916639017712414E-004
 dabs(Rj-Ri):          12          13  0.000000000000000E+000
 dabs(Ij+Ii):          12          13  0.000000000000000E+000
 dabs(Rj-Ri):          14          13  1.244430859287116E-002
 dabs(Ij+Ii):          14          13  4.916639017712414E-004
 dabs(Rj-Ri):          15          13  1.417881318837005E-002
 dabs(Ij+Ii):          15          13  4.916639017712414E-004
 dabs(Rj-Ri):          16          13  0.192270876364768     
 dabs(Ij+Ii):          16          13  4.916639017712414E-004
 overlap matrix for complex pair:

              1             2
 
    1     1.00000000   -0.00000000
    2    -0.00000000    1.00000000
 real eigenvalues of metric:

              1
 
    1     1.00000000
    2     1.00000000
 eigenvectors of metric:

              1             2
 
    1     0.99522519   -0.09760539
    2     0.09760539    0.99522519
 inverse square root of overlap matrix:

              1             2
 
    1     1.00000000    0.00000000
    2     0.00000000    1.00000000
 recalculated overlap matrix for complex pair:

              1             2
 
    1     1.00000000    0.00000000
    2     0.00000000    1.00000000
 warning> found low lying complex root...
 eigenvalues (imaginary parts) in redeig:

              1
 
    1     0.00000000
    2     0.00000000
    3     0.00000000
    4     0.00000000
    5     0.00000000
    6     0.00000000
    7     0.00000000
    8     0.00000000
    9     0.00000000
   10     0.00000000
   11     0.00000000
   12    -0.00049166
   13     0.00049166
   14     0.00000000
   15     0.00000000
   16     0.00000000
 eigenvalues (real parts) in redeig:

              1
 
    1     0.13311730
    2     0.13830796
    3     0.16791395
    4     0.16869819
    5     0.19184487
    6     0.21143403
    7     0.21168661
    8     0.22000008
    9     0.23548788
   10     0.24444552
   11     0.25063202
   12     0.25606216
   13     0.25606216
   14     0.26850647
   15     0.27024098
   16     0.44833304
     17       1         1.48     0.28E-02  ( 11)
                                                
     summary of start vectors generation:
     -------------------------------------------
     type of solution vectors      : RE0
     symmetry                      : a  
     number of vectors requested   :    15
     number of vectors generated   :    15
       -- restarted from file      :    15
     -------------------------------------------
                                                

    Iter  #Vectors  time (min)    max. residual 
    --------------------------------------------
 COSMO cphf update
 COSMO cphf update
 COSMO cphf update
 COSMO cphf update
 COSMO cphf update
 COSMO cphf update
 COSMO cphf update
 COSMO cphf update
 COSMO cphf update
 COSMO cphf update
 COSMO cphf update
 COSMO cphf update
 COSMO cphf update
 COSMO cphf update
 COSMO cphf update
 COSMO cphf update
 COSMO cphf update
 COSMO cphf update
 COSMO cphf update
 COSMO cphf update
 COSMO cphf update
 COSMO cphf update
 COSMO cphf update
 COSMO cphf update
 COSMO cphf update
 COSMO cphf update
 COSMO cphf update
 COSMO cphf update
 COSMO cphf update
 COSMO cphf update
 threshold for this macro iteration:  1.526285934473570E-003
     18      15        26.11     0.32E-02  ( 11)
 COSMO cphf update
 COSMO cphf update
 COSMO cphf update
 COSMO cphf update
     19       2         2.71     0.11E-02  ( 11)
                                                
     summary of start vectors generation:
     -------------------------------------------
     type of solution vectors      : RE0
     symmetry                      : a  
     number of vectors requested   :    15
     number of vectors generated   :    15
       -- restarted from file      :    15
     -------------------------------------------
                                                

    Iter  #Vectors  time (min)    max. residual 
    --------------------------------------------
 COSMO cphf update
 COSMO cphf update
 COSMO cphf update
 COSMO cphf update
 COSMO cphf update
 COSMO cphf update
 COSMO cphf update
 COSMO cphf update
 COSMO cphf update
 COSMO cphf update
 COSMO cphf update
 COSMO cphf update
 COSMO cphf update
 COSMO cphf update
 COSMO cphf update
 COSMO cphf update
 COSMO cphf update
 COSMO cphf update
 COSMO cphf update
 COSMO cphf update
 COSMO cphf update
 COSMO cphf update
 COSMO cphf update
 COSMO cphf update
 COSMO cphf update
 COSMO cphf update
 COSMO cphf update
 COSMO cphf update
 COSMO cphf update
 COSMO cphf update
 threshold for this macro iteration:  5.880671447049235E-003
     20      15        25.91     0.16E-01  ( 13)
 COSMO cphf update
 COSMO cphf update
     21       1         1.47     0.18E-02  ( 11)
                                                
     summary of start vectors generation:
     -------------------------------------------
     type of solution vectors      : RE0
     symmetry                      : a  
     number of vectors requested   :    15
     number of vectors generated   :    15
       -- restarted from file      :    15
     -------------------------------------------
                                                

    Iter  #Vectors  time (min)    max. residual 
    --------------------------------------------
 COSMO cphf update
 COSMO cphf update
 COSMO cphf update
 COSMO cphf update
 COSMO cphf update
 COSMO cphf update
 COSMO cphf update
 COSMO cphf update
 COSMO cphf update
 COSMO cphf update
 COSMO cphf update
 COSMO cphf update
 COSMO cphf update
 COSMO cphf update
 COSMO cphf update
 COSMO cphf update
 COSMO cphf update
 COSMO cphf update
 COSMO cphf update
 COSMO cphf update
 COSMO cphf update
 COSMO cphf update
 COSMO cphf update
 COSMO cphf update
 COSMO cphf update
 COSMO cphf update
 COSMO cphf update
 COSMO cphf update
 COSMO cphf update
 COSMO cphf update
 threshold for this macro iteration:  3.089858113382293E-002
     22      15        26.57     0.29E-01  ( 15)
                                                
     summary of start vectors generation:
     -------------------------------------------
     type of solution vectors      : RE0
     symmetry                      : a  
     number of vectors requested   :    15
     number of vectors generated   :    15
       -- restarted from file      :    15
     -------------------------------------------
                                                

    Iter  #Vectors  time (min)    max. residual 
    --------------------------------------------
 COSMO cphf update
 COSMO cphf update
 COSMO cphf update
 COSMO cphf update
 COSMO cphf update
 COSMO cphf update
 COSMO cphf update
 COSMO cphf update
 COSMO cphf update
 COSMO cphf update
 COSMO cphf update
 COSMO cphf update
 COSMO cphf update
 COSMO cphf update
 COSMO cphf update
 COSMO cphf update
 COSMO cphf update
 COSMO cphf update
 COSMO cphf update
 COSMO cphf update
 COSMO cphf update
 COSMO cphf update
 COSMO cphf update
 COSMO cphf update
 COSMO cphf update
 COSMO cphf update
 COSMO cphf update
 COSMO cphf update
 COSMO cphf update
 COSMO cphf update
 threshold for this macro iteration:  2.736590277322520E-002
     23      15        26.18     0.35E-01  ( 15)
 COSMO cphf update
 COSMO cphf update
 ...adapted threshold to:  3.089622708822010E-002
     24       1         1.48     0.64E-02  ( 11)
                                                
     summary of start vectors generation:
     -------------------------------------------
     type of solution vectors      : RE0
     symmetry                      : a  
     number of vectors requested   :    15
     number of vectors generated   :    15
       -- restarted from file      :    15
     -------------------------------------------
                                                

    Iter  #Vectors  time (min)    max. residual 
    --------------------------------------------
 COSMO cphf update
 COSMO cphf update
 COSMO cphf update
 COSMO cphf update
 COSMO cphf update
 COSMO cphf update
 COSMO cphf update
 COSMO cphf update
 COSMO cphf update
 COSMO cphf update
 COSMO cphf update
 COSMO cphf update
 COSMO cphf update
 COSMO cphf update
 COSMO cphf update
 COSMO cphf update
 COSMO cphf update
 COSMO cphf update
 COSMO cphf update
 COSMO cphf update
 COSMO cphf update
 COSMO cphf update
 COSMO cphf update
 COSMO cphf update
 COSMO cphf update
 COSMO cphf update
 COSMO cphf update
 COSMO cphf update
 COSMO cphf update
 COSMO cphf update
 threshold for this macro iteration:  3.752005021615407E-003
     25      15        26.20     0.67E-02  ( 11)
 COSMO cphf update
 COSMO cphf update
     26       1         1.47     0.16E-02  ( 11)
                                                
     summary of start vectors generation:
     -------------------------------------------
     type of solution vectors      : RE0
     symmetry                      : a  
     number of vectors requested   :    15
     number of vectors generated   :    15
       -- restarted from file      :    15
     -------------------------------------------
                                                

    Iter  #Vectors  time (min)    max. residual 
    --------------------------------------------
 COSMO cphf update
 COSMO cphf update
 COSMO cphf update
 COSMO cphf update
 COSMO cphf update
 COSMO cphf update
 COSMO cphf update
 COSMO cphf update
 COSMO cphf update
 COSMO cphf update
 COSMO cphf update
 COSMO cphf update
 COSMO cphf update
 COSMO cphf update
 COSMO cphf update
 COSMO cphf update
 COSMO cphf update
 COSMO cphf update
 COSMO cphf update
 COSMO cphf update
 COSMO cphf update
 COSMO cphf update
 COSMO cphf update
 COSMO cphf update
 COSMO cphf update
 COSMO cphf update
 COSMO cphf update
 COSMO cphf update
 COSMO cphf update
 COSMO cphf update
 threshold for this macro iteration:  1.000000000000000E-003
     27      15        25.73     0.58E-02  ( 11)
 COSMO cphf update
 COSMO cphf update
     28       1         1.45     0.14E-02  ( 11)
 COSMO cphf update
 COSMO cphf update
     29       1         1.43     0.73E-03  ( 11)
    --------------------------------------------
    converged in 29 iterations

         Total time        414.63 minutes


 ===========================================




 Note that this is the intermediate result of a preoptimization!
 The convergence threshold was  0.1E-02 only!
 COSMO: note that the excitation energies below do not include
        the nonequilibrium contributions yet. These require the
        computation of the relaxed densities. See end of output
        for a final list of corrected excitations.


 +==================================================================+
 | sym | multi | state |          ADC(2) excitation energies        |
 |     |       |       +--------------------------------------------+
 |     |       |       |   Hartree    |     eV       |     cm-1     |
 +==================================================================+
 | a   |   1   |   1   |    0.1331158 |      3.62226 |    29215.535 |
 | a   |   1   |   2   |    0.1383079 |      3.76355 |    30355.065 |
 | a   |   1   |   3   |    0.1679139 |      4.56917 |    36852.841 |
 | a   |   1   |   4   |    0.1686979 |      4.59050 |    37024.920 |
 | a   |   1   |   5   |    0.1918445 |      5.22036 |    42105.009 |
 | a   |   1   |   6   |    0.2114334 |      5.75340 |    46404.269 |
 | a   |   1   |   7   |    0.2116871 |      5.76030 |    46459.952 |
 | a   |   1   |   8   |    0.2199993 |      5.98649 |    48284.265 |
 | a   |   1   |   9   |    0.2354890 |      6.40798 |    51683.867 |
 | a   |   1   |  10   |    0.2444992 |      6.65316 |    53661.370 |
 | a   |   1   |  11   |    0.2483995 |      6.75929 |    54517.387 |
 | a   |   1   |  12   |    0.2558467 |      6.96194 |    56151.863 |
 | a   |   1   |  13   |    0.2568358 |      6.98886 |    56368.933 |
 | a   |   1   |  14   |    0.2685127 |      7.30660 |    58931.728 |
 | a   |   1   |  15   |    0.2702372 |      7.35353 |    59310.201 |
 +==================================================================+





  solve for ADC(2) excitation energies/vectors using a DIIS algorithm:
  =================================================================
                                                
     summary of start vectors generation:
     -------------------------------------------
     type of solution vectors      : RE0
     symmetry                      : a  
     number of vectors requested   :    15
     number of vectors generated   :    15
       -- restarted from file      :    15
     -------------------------------------------
                                                


 ========= DIIS CC RESPONSE SOLVER =========

    threshold for convergence:0.10E-05
    max. nb. of DIIS vectors :      10
    maximum number of simultaneous jacoby matrix transformations: 15

    Iter  #Vectors  time (min)   residual
    --------------------------------------
 COSMO cphf update
 COSMO cphf update
 COSMO cphf update
 COSMO cphf update
 COSMO cphf update
 COSMO cphf update
 COSMO cphf update
 COSMO cphf update
 COSMO cphf update
 COSMO cphf update
 COSMO cphf update
 COSMO cphf update
 COSMO cphf update
 COSMO cphf update
 COSMO cphf update
 COSMO cphf update
 COSMO cphf update
 COSMO cphf update
 COSMO cphf update
 COSMO cphf update
 COSMO cphf update
 COSMO cphf update
 COSMO cphf update
 COSMO cphf update
 COSMO cphf update
 COSMO cphf update
 COSMO cphf update
 COSMO cphf update
 COSMO cphf update
 COSMO cphf update
      1      15        25.85     0.45E-02  ( 11)    0.19E+01
 COSMO cphf update
 COSMO cphf update
 COSMO cphf update
 COSMO cphf update
 COSMO cphf update
 COSMO cphf update
 COSMO cphf update
 COSMO cphf update
 COSMO cphf update
 COSMO cphf update
 COSMO cphf update
 COSMO cphf update
 COSMO cphf update
 COSMO cphf update
 COSMO cphf update
 COSMO cphf update
 COSMO cphf update
 COSMO cphf update
 COSMO cphf update
 COSMO cphf update
      2      10        17.29     0.20E-02  ( 11)    0.22E+00
 COSMO cphf update
 COSMO cphf update
 COSMO cphf update
 COSMO cphf update
 COSMO cphf update
 COSMO cphf update
 COSMO cphf update
 COSMO cphf update
 COSMO cphf update
 COSMO cphf update
 COSMO cphf update
 COSMO cphf update
 COSMO cphf update
 COSMO cphf update
 COSMO cphf update
 COSMO cphf update
 COSMO cphf update
 COSMO cphf update
 COSMO cphf update
 COSMO cphf update
      3      10        17.06     0.60E-03  ( 11)    0.16E+00
 COSMO cphf update
 COSMO cphf update
 COSMO cphf update
 COSMO cphf update
 COSMO cphf update
 COSMO cphf update
 COSMO cphf update
 COSMO cphf update
 COSMO cphf update
 COSMO cphf update
 COSMO cphf update
 COSMO cphf update
 COSMO cphf update
 COSMO cphf update
      4       7         9.08     0.40E-03  ( 11)    0.11E+00
 COSMO cphf update
 COSMO cphf update
 COSMO cphf update
 COSMO cphf update
 COSMO cphf update
 COSMO cphf update
 COSMO cphf update
 COSMO cphf update
 COSMO cphf update
 COSMO cphf update
 COSMO cphf update
 COSMO cphf update
 COSMO cphf update
 COSMO cphf update
      5       7         9.07     0.20E-03  ( 11)    0.84E-02
 COSMO cphf update
 COSMO cphf update
 COSMO cphf update
 COSMO cphf update
 COSMO cphf update
 COSMO cphf update
 COSMO cphf update
 COSMO cphf update
 COSMO cphf update
 COSMO cphf update
 COSMO cphf update
 COSMO cphf update
      6       6         7.79     0.18E-03  ( 11)    0.25E-01
 COSMO cphf update
 COSMO cphf update
 COSMO cphf update
 COSMO cphf update
 COSMO cphf update
 COSMO cphf update
 COSMO cphf update
 COSMO cphf update
 COSMO cphf update
 COSMO cphf update
 COSMO cphf update
 COSMO cphf update
      7       6         7.80     0.14E-03  ( 11)    0.15E-01
 COSMO cphf update
 COSMO cphf update
 COSMO cphf update
 COSMO cphf update
 COSMO cphf update
 COSMO cphf update
 COSMO cphf update
 COSMO cphf update
 COSMO cphf update
 COSMO cphf update
 COSMO cphf update
 COSMO cphf update
      8       6         7.79     0.12E-03  ( 14)    0.37E-02
 COSMO cphf update
 COSMO cphf update
 COSMO cphf update
 COSMO cphf update
 COSMO cphf update
 COSMO cphf update
 COSMO cphf update
 COSMO cphf update
 COSMO cphf update
 COSMO cphf update
      9       5         6.51     0.12E-03  ( 14)    0.37E-02
 COSMO cphf update
 COSMO cphf update
 COSMO cphf update
 COSMO cphf update
 COSMO cphf update
 COSMO cphf update
 COSMO cphf update
 COSMO cphf update
 COSMO cphf update
 COSMO cphf update
     10       5         6.54     0.12E-03  ( 14)    0.55E-02
 COSMO cphf update
 COSMO cphf update
 COSMO cphf update
 COSMO cphf update
 COSMO cphf update
 COSMO cphf update
 COSMO cphf update
 COSMO cphf update
 COSMO cphf update
 COSMO cphf update
     11       5         6.54     0.12E-03  ( 14)    0.70E-02
 COSMO cphf update
 COSMO cphf update
 COSMO cphf update
 COSMO cphf update
 COSMO cphf update
 COSMO cphf update
 COSMO cphf update
 COSMO cphf update
 COSMO cphf update
 COSMO cphf update
     12       5         6.70     0.12E-03  ( 14)    0.38E-02
 COSMO cphf update
 COSMO cphf update
 COSMO cphf update
 COSMO cphf update
 COSMO cphf update
 COSMO cphf update
 COSMO cphf update
 COSMO cphf update
 COSMO cphf update
 COSMO cphf update
     13       5         6.53     0.10E-03  ( 14)    0.36E-02
 COSMO cphf update
 COSMO cphf update
 COSMO cphf update
 COSMO cphf update
 COSMO cphf update
 COSMO cphf update
 COSMO cphf update
 COSMO cphf update
 COSMO cphf update
 COSMO cphf update
     14       5         6.51     0.83E-04  ( 14)    0.35E-02
 COSMO cphf update
 COSMO cphf update
 COSMO cphf update
 COSMO cphf update
 COSMO cphf update
 COSMO cphf update
 COSMO cphf update
 COSMO cphf update
 COSMO cphf update
 COSMO cphf update
     15       5         6.52     0.64E-04  ( 14)    0.35E-02
 COSMO cphf update
 COSMO cphf update
 COSMO cphf update
 COSMO cphf update
 COSMO cphf update
 COSMO cphf update
 COSMO cphf update
 COSMO cphf update
 COSMO cphf update
 COSMO cphf update
     16       5         6.51     0.47E-04  ( 14)    0.35E-02
 COSMO cphf update
 COSMO cphf update
 COSMO cphf update
 COSMO cphf update
 COSMO cphf update
 COSMO cphf update
 COSMO cphf update
 COSMO cphf update
 COSMO cphf update
 COSMO cphf update
     17       5         6.49     0.38E-04  ( 14)    0.35E-02
 COSMO cphf update
 COSMO cphf update
 COSMO cphf update
 COSMO cphf update
 COSMO cphf update
 COSMO cphf update
     18       3         3.97     0.29E-04  ( 14)    0.35E-02
 COSMO cphf update
 COSMO cphf update
 COSMO cphf update
 COSMO cphf update
     19       2         2.68     0.23E-04  ( 14)    0.35E-02
 COSMO cphf update
 COSMO cphf update
 COSMO cphf update
 COSMO cphf update
     20       2         2.71     0.16E-04  ( 14)    0.35E-02
 COSMO cphf update
 COSMO cphf update
 COSMO cphf update
 COSMO cphf update
     21       2         2.72     0.13E-04  ( 14)    0.35E-02
 COSMO cphf update
 COSMO cphf update
 COSMO cphf update
 COSMO cphf update
     22       2         2.70     0.11E-04  ( 14)    0.35E-02
 COSMO cphf update
 COSMO cphf update
 COSMO cphf update
 COSMO cphf update
     23       2         2.71     0.11E-04  ( 14)    0.35E-02
 COSMO cphf update
 COSMO cphf update
 COSMO cphf update
 COSMO cphf update
     24       2         2.69     0.96E-05  ( 14)    0.35E-02
 COSMO cphf update
 COSMO cphf update
 COSMO cphf update
 COSMO cphf update
     25       2         2.70     0.71E-05  ( 14)    0.35E-02
 COSMO cphf update
 COSMO cphf update
 COSMO cphf update
 COSMO cphf update
     26       2         2.70     0.65E-05  ( 15)    0.35E-02
 COSMO cphf update
 COSMO cphf update
 COSMO cphf update
 COSMO cphf update
     27       2         2.69     0.63E-05  ( 15)    0.35E-02
 COSMO cphf update
 COSMO cphf update
 COSMO cphf update
 COSMO cphf update
     28       2         2.69     0.63E-05  ( 15)    0.35E-02
 COSMO cphf update
 COSMO cphf update
 COSMO cphf update
 COSMO cphf update
     29       2         2.69     0.61E-05  ( 15)    0.35E-02
 COSMO cphf update
 COSMO cphf update
 COSMO cphf update
 COSMO cphf update
     30       2         2.69     0.55E-05  ( 15)    0.35E-02
 COSMO cphf update
 COSMO cphf update
 COSMO cphf update
 COSMO cphf update
     31       2         2.72     0.39E-05  ( 15)    0.35E-02
 COSMO cphf update
 COSMO cphf update
 COSMO cphf update
 COSMO cphf update
     32       2         2.71     0.27E-05  ( 15)    0.35E-02
 COSMO cphf update
 COSMO cphf update
     33       1         1.42     0.21E-05  ( 15)    0.35E-02
 COSMO cphf update
 COSMO cphf update
     34       1         1.41     0.17E-05  ( 15)    0.35E-02
 COSMO cphf update
 COSMO cphf update
     35       1         1.76     0.15E-05  ( 15)    0.35E-02
 COSMO cphf update
 COSMO cphf update
     36       1         1.43     0.13E-05  ( 15)    0.35E-02
 COSMO cphf update
 COSMO cphf update
     37       1         1.43     0.11E-05  ( 15)    0.35E-02
 COSMO cphf update
 COSMO cphf update
     38       1         1.45     0.10E-05  ( 15)    0.35E-02
 COSMO cphf update
 COSMO cphf update
     39       1         1.43     0.99E-06  ( 15)    0.35E-02
    --------------------------------------
    converged in  39 iterations

   Total time        212.68 minutes


 ===========================================


 COSMO: note that the excitation energies below do not include
        the nonequilibrium contributions yet. These require the
        computation of the relaxed densities. See end of output
        for a final list of corrected excitations.



 +================================================================================+
 | sym | multi | state |          ADC(2) excitation energies    |  %t1   |  %t2   |
 |     |       |       +----------------------------------------+--------+--------+
 |     |       |       |   Hartree    |    eV      |    cm-1    |    %   |    %   |
 +================================================================================+
 | a   |   1   |   1   |    0.1331158 |    3.62226 |  29215.535 |  87.53 |  12.47 |
 | a   |   1   |   2   |    0.1383079 |    3.76355 |  30355.065 |  89.68 |  10.32 |
 | a   |   1   |   3   |    0.1679139 |    4.56917 |  36852.841 |  90.14 |   9.86 |
 | a   |   1   |   4   |    0.1686979 |    4.59050 |  37024.920 |  89.70 |  10.30 |
 | a   |   1   |   5   |    0.1918445 |    5.22036 |  42105.009 |  88.21 |  11.79 |
 | a   |   1   |   6   |    0.2114334 |    5.75340 |  46404.269 |  88.86 |  11.14 |
 | a   |   1   |   7   |    0.2116871 |    5.76030 |  46459.951 |  91.89 |   8.11 |
 | a   |   1   |   8   |    0.2199993 |    5.98649 |  48284.264 |  89.66 |  10.34 |
 | a   |   1   |   9   |    0.2354890 |    6.40798 |  51683.854 |  91.41 |   8.59 |
 | a   |   1   |  10   |    0.2444577 |    6.65203 |  53652.266 |  91.40 |   8.60 |
 | a   |   1   |  11   |    0.2488746 |    6.77222 |  54621.659 |  85.20 |  14.80 |
 | a   |   1   |  12   |    0.2556982 |    6.95790 |  56119.260 |  91.23 |   8.77 |
 | a   |   1   |  13   |    0.2568105 |    6.98817 |  56363.383 |  91.69 |   8.31 |
 | a   |   1   |  14   |    0.2685100 |    7.30653 |  58931.131 |  90.96 |   9.04 |
 | a   |   1   |  15   |    0.2702468 |    7.35379 |  59312.313 |  91.76 |   8.24 |
 +================================================================================+


       Energy:     0.1331158 H      3.62226 eV    29215.535 cm-1

     +=======================================================================+
     | type: RE0                    symmetry: a               state:    1    |
     +-----------------------+-----------------------+-----------------------+
     | occ. orb.  index spin | vir. orb.  index spin |  coeff/|amp|     %    |
     +=======================+=======================+=======================+
     |   36 a       36       |   37 a       37       |   0.96635      93.4   |
     |   36 a       36       |   45 a       45       |  -0.12774       1.6   |
     +=======================+=======================+=======================+
     norm of printed elements:  0.95016


       Energy:     0.1383079 H      3.76355 eV    30355.065 cm-1

     +=======================================================================+
     | type: RE0                    symmetry: a               state:    2    |
     +-----------------------+-----------------------+-----------------------+
     | occ. orb.  index spin | vir. orb.  index spin |  coeff/|amp|     %    |
     +=======================+=======================+=======================+
     |   32 a       32       |   37 a       37       |   0.90979      82.8   |
     |   32 a       32       |   49 a       49       |  -0.30338       9.2   |
     |   30 a       30       |   37 a       37       |  -0.16671       2.8   |
     |   32 a       32       |   54 a       54       |  -0.13445       1.8   |
     +=======================+=======================+=======================+
     norm of printed elements:  0.96562


       Energy:     0.1679139 H      4.56917 eV    36852.841 cm-1

     +=======================================================================+
     | type: RE0                    symmetry: a               state:    3    |
     +-----------------------+-----------------------+-----------------------+
     | occ. orb.  index spin | vir. orb.  index spin |  coeff/|amp|     %    |
     +=======================+=======================+=======================+
     |   31 a       31       |   37 a       37       |   0.91187      83.2   |
     |   31 a       31       |   49 a       49       |  -0.29132       8.5   |
     |   28 a       28       |   37 a       37       |  -0.13969       2.0   |
     |   31 a       31       |   54 a       54       |  -0.12811       1.6   |
     +=======================+=======================+=======================+
     norm of printed elements:  0.95230


       Energy:     0.1686979 H      4.59050 eV    37024.920 cm-1

     +=======================================================================+
     | type: RE0                    symmetry: a               state:    4    |
     +-----------------------+-----------------------+-----------------------+
     | occ. orb.  index spin | vir. orb.  index spin |  coeff/|amp|     %    |
     +=======================+=======================+=======================+
     |   36 a       36       |   43 a       43       |   0.77174      59.6   |
     |   35 a       35       |   37 a       37       |   0.56606      32.0   |
     |   35 a       35       |   45 a       45       |  -0.14761       2.2   |
     |   36 a       36       |   50 a       50       |  -0.13746       1.9   |
     +=======================+=======================+=======================+
     norm of printed elements:  0.95670


       Energy:     0.1918445 H      5.22036 eV    42105.009 cm-1

     +=======================================================================+
     | type: RE0                    symmetry: a               state:    5    |
     +-----------------------+-----------------------+-----------------------+
     | occ. orb.  index spin | vir. orb.  index spin |  coeff/|amp|     %    |
     +=======================+=======================+=======================+
     |   35 a       35       |   37 a       37       |   0.73837      54.5   |
     |   36 a       36       |   43 a       43       |  -0.52363      27.4   |
     |   34 a       34       |   37 a       37       |   0.33726      11.4   |
     |   35 a       35       |   49 a       49       |  -0.09871       1.0   |
     |   33 a       33       |   43 a       43       |  -0.09284       0.9   |
     +=======================+=======================+=======================+
     norm of printed elements:  0.95149


       Energy:     0.2114334 H      5.75340 eV    46404.269 cm-1

     +=======================================================================+
     | type: RE0                    symmetry: a               state:    6    |
     +-----------------------+-----------------------+-----------------------+
     | occ. orb.  index spin | vir. orb.  index spin |  coeff/|amp|     %    |
     +=======================+=======================+=======================+
     |   34 a       34       |   37 a       37       |   0.87773      77.0   |
     |   35 a       35       |   37 a       37       |  -0.28045       7.9   |
     |   34 a       34       |   49 a       49       |  -0.21078       4.4   |
     |   36 a       36       |   43 a       43       |   0.18269       3.3   |
     |   33 a       33       |   43 a       43       |   0.09400       0.9   |
     |   34 a       34       |   54 a       54       |  -0.09112       0.8   |
     |   36 a       36       |   50 a       50       |  -0.06132       0.4   |
     |   34 a       34       |   73 a       73       |  -0.05476       0.3   |
     +=======================+=======================+=======================+
     norm of printed elements:  0.95077


       Energy:     0.2116871 H      5.76030 eV    46459.951 cm-1

     +=======================================================================+
     | type: RE0                    symmetry: a               state:    7    |
     +-----------------------+-----------------------+-----------------------+
     | occ. orb.  index spin | vir. orb.  index spin |  coeff/|amp|     %    |
     +=======================+=======================+=======================+
     |   36 a       36       |   38 a       38       |   0.75337      56.8   |
     |   36 a       36       |   39 a       39       |   0.55730      31.1   |
     |   36 a       36       |   44 a       44       |  -0.16277       2.6   |
     |   36 a       36       |   64 a       64       |  -0.15788       2.5   |
     |   33 a       33       |   39 a       39       |   0.12673       1.6   |
     |   36 a       36       |   63 a       63       |   0.08328       0.7   |
     +=======================+=======================+=======================+
     norm of printed elements:  0.95257


       Energy:     0.2199993 H      5.98649 eV    48284.264 cm-1

     +=======================================================================+
     | type: RE0                    symmetry: a               state:    8    |
     +-----------------------+-----------------------+-----------------------+
     | occ. orb.  index spin | vir. orb.  index spin |  coeff/|amp|     %    |
     +=======================+=======================+=======================+
     |   36 a       36       |   49 a       49       |   0.77218      59.6   |
     |   36 a       36       |   45 a       45       |  -0.39403      15.5   |
     |   33 a       33       |   37 a       37       |   0.28455       8.1   |
     |   35 a       35       |   43 a       43       |  -0.18595       3.5   |
     |   36 a       36       |   60 a       60       |  -0.18400       3.4   |
     |   36 a       36       |   54 a       54       |   0.18049       3.3   |
     |   33 a       33       |   49 a       49       |   0.08399       0.7   |
     |   33 a       33       |   45 a       45       |  -0.07151       0.5   |
     |   36 a       36       |   72 a       72       |  -0.06954       0.5   |
     +=======================+=======================+=======================+
     norm of printed elements:  0.95050


       Energy:     0.2354890 H      6.40798 eV    51683.854 cm-1

     +=======================================================================+
     | type: RE0                    symmetry: a               state:    9    |
     +-----------------------+-----------------------+-----------------------+
     | occ. orb.  index spin | vir. orb.  index spin |  coeff/|amp|     %    |
     +=======================+=======================+=======================+
     |   36 a       36       |   42 a       42       |   0.58677      34.4   |
     |   36 a       36       |   39 a       39       |  -0.54268      29.4   |
     |   36 a       36       |   38 a       38       |   0.44648      19.9   |
     |   36 a       36       |   44 a       44       |  -0.23858       5.7   |
     |   33 a       33       |   42 a       42       |   0.11842       1.4   |
     |   36 a       36       |   69 a       69       |   0.11303       1.3   |
     |   33 a       33       |   39 a       39       |  -0.11203       1.3   |
     |   36 a       36       |   58 a       58       |   0.10752       1.2   |
     |   36 a       36       |   64 a       64       |  -0.10210       1.0   |
     +=======================+=======================+=======================+
     norm of printed elements:  0.95639


       Energy:     0.2444577 H      6.65203 eV    53652.266 cm-1

     +=======================================================================+
     | type: RE0                    symmetry: a               state:   10    |
     +-----------------------+-----------------------+-----------------------+
     | occ. orb.  index spin | vir. orb.  index spin |  coeff/|amp|     %    |
     +=======================+=======================+=======================+
     |   36 a       36       |   40 a       40       |   0.82206      67.6   |
     |   36 a       36       |   41 a       41       |  -0.48361      23.4   |
     |   36 a       36       |   68 a       68       |   0.13450       1.8   |
     |   36 a       36       |   65 a       65       |  -0.10267       1.1   |
     |   33 a       33       |   41 a       41       |  -0.09941       1.0   |
     |   35 a       35       |   38 a       38       |   0.09938       1.0   |
     +=======================+=======================+=======================+
     norm of printed elements:  0.95804


       Energy:     0.2488746 H      6.77222 eV    54621.659 cm-1

     +=======================================================================+
     | type: RE0                    symmetry: a               state:   11    |
     +-----------------------+-----------------------+-----------------------+
     | occ. orb.  index spin | vir. orb.  index spin |  coeff/|amp|     %    |
     +=======================+=======================+=======================+
     |   33 a       33       |   37 a       37       |   0.92135      84.9   |
     |   36 a       36       |   49 a       49       |  -0.24721       6.1   |
     |   36 a       36       |   45 a       45       |   0.15039       2.3   |
     |   33 a       33       |   45 a       45       |  -0.13271       1.8   |
     +=======================+=======================+=======================+
     norm of printed elements:  0.95022


       Energy:     0.2556982 H      6.95790 eV    56119.260 cm-1

     +=======================================================================+
     | type: RE0                    symmetry: a               state:   12    |
     +-----------------------+-----------------------+-----------------------+
     | occ. orb.  index spin | vir. orb.  index spin |  coeff/|amp|     %    |
     +=======================+=======================+=======================+
     |   36 a       36       |   44 a       44       |   0.85796      73.6   |
     |   36 a       36       |   38 a       38       |   0.24063       5.8   |
     |   36 a       36       |   55 a       55       |  -0.22466       5.0   |
     |   36 a       36       |   63 a       63       |  -0.17734       3.1   |
     |   36 a       36       |   48 a       48       |  -0.17670       3.1   |
     |   36 a       36       |   70 a       70       |  -0.11206       1.3   |
     |   35 a       35       |   43 a       43       |   0.11204       1.3   |
     |   36 a       36       |   67 a       67       |  -0.10385       1.1   |
     |   36 a       36       |   39 a       39       |  -0.09366       0.9   |
     +=======================+=======================+=======================+
     norm of printed elements:  0.95180


       Energy:     0.2568105 H      6.98817 eV    56363.383 cm-1

     +=======================================================================+
     | type: RE0                    symmetry: a               state:   13    |
     +-----------------------+-----------------------+-----------------------+
     | occ. orb.  index spin | vir. orb.  index spin |  coeff/|amp|     %    |
     +=======================+=======================+=======================+
     |   35 a       35       |   43 a       43       |   0.92429      85.4   |
     |   35 a       35       |   50 a       50       |  -0.12728       1.6   |
     |   33 a       33       |   37 a       37       |   0.11712       1.4   |
     |   36 a       36       |   49 a       49       |   0.11396       1.3   |
     |   29 a       29       |   37 a       37       |  -0.11089       1.2   |
     |   36 a       36       |   44 a       44       |  -0.10350       1.1   |
     |   35 a       35       |   56 a       56       |   0.08987       0.8   |
     |   33 a       33       |   49 a       49       |   0.07602       0.6   |
     |   35 a       35       |   61 a       61       |  -0.07277       0.5   |
     |   36 a       36       |   45 a       45       |  -0.07014       0.5   |
     |   34 a       34       |   43 a       43       |   0.06189       0.4   |
     |   35 a       35       |   75 a       75       |   0.05846       0.3   |
     +=======================+=======================+=======================+
     norm of printed elements:  0.95155


       Energy:     0.2685100 H      7.30653 eV    58931.131 cm-1

     +=======================================================================+
     | type: RE0                    symmetry: a               state:   14    |
     +-----------------------+-----------------------+-----------------------+
     | occ. orb.  index spin | vir. orb.  index spin |  coeff/|amp|     %    |
     +=======================+=======================+=======================+
     |   36 a       36       |   42 a       42       |   0.66554      44.3   |
     |   36 a       36       |   39 a       39       |   0.49712      24.7   |
     |   36 a       36       |   48 a       48       |   0.30882       9.5   |
     |   36 a       36       |   38 a       38       |  -0.25640       6.6   |
     |   36 a       36       |   46 a       46       |  -0.21399       4.6   |
     |   36 a       36       |   44 a       44       |   0.13793       1.9   |
     |   36 a       36       |   62 a       62       |  -0.11940       1.4   |
     |   33 a       33       |   42 a       42       |   0.10674       1.1   |
     |   36 a       36       |   77 a       77       |  -0.08710       0.8   |
     |   36 a       36       |   64 a       64       |  -0.07256       0.5   |
     +=======================+=======================+=======================+
     norm of printed elements:  0.95449


       Energy:     0.2702468 H      7.35379 eV    59312.313 cm-1

     +=======================================================================+
     | type: RE0                    symmetry: a               state:   15    |
     +-----------------------+-----------------------+-----------------------+
     | occ. orb.  index spin | vir. orb.  index spin |  coeff/|amp|     %    |
     +=======================+=======================+=======================+
     |   35 a       35       |   38 a       38       |   0.70260      49.4   |
     |   36 a       36       |   41 a       41       |  -0.35932      12.9   |
     |   36 a       36       |   40 a       40       |  -0.34247      11.7   |
     |   35 a       35       |   39 a       39       |   0.32176      10.4   |
     |   36 a       36       |   47 a       47       |  -0.19294       3.7   |
     |   35 a       35       |   44 a       44       |  -0.17677       3.1   |
     |   35 a       35       |   64 a       64       |  -0.17275       3.0   |
     |   35 a       35       |   42 a       42       |   0.14774       2.2   |
     +=======================+=======================+=======================+
     norm of printed elements:  0.96371



     Info: copy ADC(2) right eigenvectors into left eigenvector files.


                    ========   CC DENSITY MODULE   ========

                      current wave-function model: ADC(2)  

  calculating overlap between   15 left and right vector(s)
    density nr.      cpu/min        wall/min    L     R
   ------------------------------------------------------
         1             0.37            0.77    LE0    RE0 
         2             0.37            0.77    LE0    RE0 
         3             0.37            0.77    LE0    RE0 
         4             0.37            0.77    LE0    RE0 
         5             0.37            0.77    LE0    RE0 
         6             0.37            0.77    LE0    RE0 
         7             0.37            0.77    LE0    RE0 
         8             0.37            0.77    LE0    RE0 
         9             0.37            0.77    LE0    RE0 
        10             0.37            0.77    LE0    RE0 
        11             0.37            0.77    LE0    RE0 
        12             0.37            0.77    LE0    RE0 
        13             0.37            0.77    LE0    RE0 
        14             0.37            0.77    LE0    RE0 
        15             0.37            0.77    LE0    RE0 
   ------------------------------------------------------
     time in cc_1den       cpu:  5 min 30 s  wall: 11 min 35 s  ratio:  0.5



     +==========================================================+
     |   contributions of excitation levels to excited states   |
     |     wavefunctions as computed from the <L|R> overlap     |
     +----------------------------------------------------------+
     | sym | multi | state |    E / eV  | % singles | % doubles |
     +==========================================================+
     | a   |   1   |   1   |    3.62226 |   87.53   |   12.47   |
     | a   |   1   |   2   |    3.76355 |   89.68   |   10.32   |
     | a   |   1   |   3   |    4.56917 |   90.14   |    9.86   |
     | a   |   1   |   4   |    4.59050 |   89.70   |   10.30   |
     | a   |   1   |   5   |    5.22036 |   88.21   |   11.79   |
[...]
 | E_exci (ground to x state)      |     0.23548897  |
 | Correction for fast part of RF  |    -0.00135614  |
 | Correction for update of eq. RF |     0.00019740  |
 +---------------------------------+-----------------+


  +=========================================================================+
  |  Excited state reached by transition:                   model: ADC(2)   |
  |    number, symmetry, multiplicity:   10 a    1                          |
  |    frequency :   0.2444577139 a.u.     6.65203 e.V.     53652.3 rcm     |
  +=========================================================================+

      Total energy of excited state:    -491.1806962211

   +-----------------+-----------------+-----------------+-----------------+
   | operator        | expect. value   | electr. contrib.| diff to gr.st.  |
   +-----------------+-----------------+-----------------+-----------------+
   | xdiplen (unrel) |      3.65540189 |     91.77718862 |     -0.34510439 |
   | xdiplen (relax) |      3.22847999 |     91.35026672 |       ---       |
   | ydiplen (unrel) |      0.00229993 |      0.00229877 |      0.00249476 |
   | ydiplen (relax) |      0.00202731 |      0.00202614 |       ---       |
   | zdiplen (unrel) |      0.13711219 |      1.72853581 |     -0.07731398 |
   | zdiplen (relax) |      0.14582934 |      1.73725297 |       ---       |
   +-----------------+-----------------+-----------------+-----------------+


     Analysis of relaxed properties:
     ===============================


     dipole moment:
     --------------

     x      3.22847999
     y      0.00202731
     z      0.14582934

     | dipole moment | =      3.23177248 a.u. =      8.21434551 debye
 


     Analysis of unrelaxed properties:
     =================================


     dipole moment:
     --------------

     x      3.65540189
     y      0.00229993
     z      0.13711219

     | dipole moment | =      3.65797321 a.u. =      9.29763961 debye
 

 +---------------------------------+-----------------+
 |   Nonequilibrium solvation      |                 |
 +---------------------------------+-----------------+
 |   E_x_(y) is the total free energy of target      |
 |   state x in the reaction field (RF)              |
 |   equilibrated for state y                        |
 +---------------------------------+-----------------+
 | E_x_(y)                         |  -491.18362740  |
 | E_x_(y) (+OCC)                  |  -491.18584102  |
 | Outlying charge correction(OCC) |    -0.00221362  |
 | E_SCF with RF of state y        |  -489.42214528  |
 | E_corr (ground state)           |    -2.00332181  |
 | E_exci (ground to x state)      |     0.24445771  |
 | Correction for fast part of RF  |    -0.00248826  |
 | Correction for update of eq. RF |    -0.00012975  |
 +---------------------------------+-----------------+


  +=========================================================================+
  |  Excited state reached by transition:                   model: ADC(2)   |
  |    number, symmetry, multiplicity:   11 a    1                          |
  |    frequency :   0.2488745913 a.u.     6.77222 e.V.     54621.7 rcm     |
  +=========================================================================+

      Total energy of excited state:    -491.1762793437

   +-----------------+-----------------+-----------------+-----------------+
   | operator        | expect. value   | electr. contrib.| diff to gr.st.  |
   +-----------------+-----------------+-----------------+-----------------+
   | xdiplen (unrel) |      7.30646178 |     95.42824851 |      3.30595550 |
   | xdiplen (relax) |      6.73003092 |     94.85181765 |       ---       |
   | ydiplen (unrel) |     -0.00002286 |     -0.00002403 |      0.00017196 |
   | ydiplen (relax) |     -0.00010841 |     -0.00010957 |       ---       |
   | zdiplen (unrel) |      0.18929010 |      1.78071372 |     -0.02513607 |
   | zdiplen (relax) |      0.19700452 |      1.78842814 |       ---       |
   +-----------------+-----------------+-----------------+-----------------+


     Analysis of relaxed properties:
     ===============================


     dipole moment:
     --------------

     x      6.73003092
     y     -0.00010841
     z      0.19700452

     | dipole moment | =      6.73291370 a.u. =     17.11335801 debye
 


     Analysis of unrelaxed properties:
     =================================


     dipole moment:
     --------------

     x      7.30646178
     y     -0.00002286
     z      0.18929010

     | dipole moment | =      7.30891335 a.u. =     18.57740295 debye
 

 +---------------------------------+-----------------+
 |   Nonequilibrium solvation      |                 |
 +---------------------------------+-----------------+
 |   E_x_(y) is the total free energy of target      |
 |   state x in the reaction field (RF)              |
 |   equilibrated for state y                        |
 +---------------------------------+-----------------+
 | E_x_(y)                         |  -491.17802229  |
 | E_x_(y) (+OCC)                  |  -491.17856069  |
 | Outlying charge correction(OCC) |    -0.00053840  |
 | E_SCF with RF of state y        |  -489.42214528  |
 | E_corr (ground state)           |    -2.00332181  |
 | E_exci (ground to x state)      |     0.24887459  |
 | Correction for fast part of RF  |    -0.00332572  |
 | Correction for update of eq. RF |     0.00189593  |
 +---------------------------------+-----------------+


  +=========================================================================+
  |  Excited state reached by transition:                   model: ADC(2)   |
  |    number, symmetry, multiplicity:   12 a    1                          |
  |    frequency :   0.2556981631 a.u.     6.95790 e.V.     56119.3 rcm     |
  +=========================================================================+

      Total energy of excited state:    -491.1694557719

   +-----------------+-----------------+-----------------+-----------------+
   | operator        | expect. value   | electr. contrib.| diff to gr.st.  |
   +-----------------+-----------------+-----------------+-----------------+
   | xdiplen (unrel) |      5.25613602 |     93.37792275 |      1.25562974 |
   | xdiplen (relax) |      4.69811097 |     92.81989770 |       ---       |
   | ydiplen (unrel) |     -0.00264534 |     -0.00264650 |     -0.00245052 |
   | ydiplen (relax) |     -0.00242973 |     -0.00243089 |       ---       |
   | zdiplen (unrel) |      0.15931289 |      1.75073651 |     -0.05511328 |
   | zdiplen (relax) |      0.16440940 |      1.75583302 |       ---       |
   +-----------------+-----------------+-----------------+-----------------+


     Analysis of relaxed properties:
     ===============================


     dipole moment:
     --------------

     x      4.69811097
     y     -0.00242973
     z      0.16440940

     | dipole moment | =      4.70098745 a.u. =     11.94871712 debye
 


     Analysis of unrelaxed properties:
     =================================


     dipole moment:
     --------------

     x      5.25613602
     y     -0.00264534
     z      0.15931289

     | dipole moment | =      5.25855051 a.u. =     13.36590092 debye
 

 +---------------------------------+-----------------+
 |   Nonequilibrium solvation      |                 |
 +---------------------------------+-----------------+
 |   E_x_(y) is the total free energy of target      |
 |   state x in the reaction field (RF)              |
 |   equilibrated for state y                        |
 +---------------------------------+-----------------+
 | E_x_(y)                         |  -491.17195444  |
 | E_x_(y) (+OCC)                  |  -491.17364726  |
 | Outlying charge correction(OCC) |    -0.00169282  |
 | E_SCF with RF of state y        |  -489.42214528  |
 | E_corr (ground state)           |    -2.00332181  |
 | E_exci (ground to x state)      |     0.25569816  |
 | Correction for fast part of RF  |    -0.00187103  |
 | Correction for update of eq. RF |    -0.00031447  |
 +---------------------------------+-----------------+


  +=========================================================================+
  |  Excited state reached by transition:                   model: ADC(2)   |
  |    number, symmetry, multiplicity:   13 a    1                          |
  |    frequency :   0.2568104687 a.u.     6.98817 e.V.     56363.4 rcm     |
  +=========================================================================+

      Total energy of excited state:    -491.1683434663

   +-----------------+-----------------+-----------------+-----------------+
   | operator        | expect. value   | electr. contrib.| diff to gr.st.  |
   +-----------------+-----------------+-----------------+-----------------+
   | xdiplen (unrel) |      4.15344338 |     92.27523011 |      0.15293710 |
   | xdiplen (relax) |      3.72595216 |     91.84773889 |       ---       |
   | ydiplen (unrel) |     -0.00060643 |     -0.00060759 |     -0.00041160 |
   | ydiplen (relax) |     -0.00041794 |     -0.00041910 |       ---       |
   | zdiplen (unrel) |      0.22199261 |      1.81341624 |      0.00756644 |
   | zdiplen (relax) |      0.22034810 |      1.81177172 |       ---       |
   +-----------------+-----------------+-----------------+-----------------+


     Analysis of relaxed properties:
     ===============================


     dipole moment:
     --------------

     x      3.72595216
     y     -0.00041794
     z      0.22034810

     | dipole moment | =      3.73246205 a.u. =      9.48697134 debye
 


     Analysis of unrelaxed properties:
     =================================


     dipole moment:
     --------------

     x      4.15344338
     y     -0.00060643
     z      0.22199261

     | dipole moment | =      4.15937171 a.u. =     10.57206735 debye
 

 +---------------------------------+-----------------+
 |   Nonequilibrium solvation      |                 |
 +---------------------------------+-----------------+
 |   E_x_(y) is the total free energy of target      |
 |   state x in the reaction field (RF)              |
 |   equilibrated for state y                        |
 +---------------------------------+-----------------+
 | E_x_(y)                         |  -491.16879106  |
 | E_x_(y) (+OCC)                  |  -491.16914138  |
 | Outlying charge correction(OCC) |    -0.00035032  |
 | E_SCF with RF of state y        |  -489.42214528  |
 | E_corr (ground state)           |    -2.00332181  |
 | E_exci (ground to x state)      |     0.25681047  |
 | Correction for fast part of RF  |    -0.00010718  |
 | Correction for update of eq. RF |    -0.00002726  |
 +---------------------------------+-----------------+


  +=========================================================================+
  |  Excited state reached by transition:                   model: ADC(2)   |
  |    number, symmetry, multiplicity:   14 a    1                          |
  |    frequency :   0.2685099895 a.u.     7.30653 e.V.     58931.1 rcm     |
  +=========================================================================+

      Total energy of excited state:    -491.1566439455

   +-----------------+-----------------+-----------------+-----------------+
   | operator        | expect. value   | electr. contrib.| diff to gr.st.  |
   +-----------------+-----------------+-----------------+-----------------+
   | xdiplen (unrel) |      7.66060747 |     95.78239420 |      3.66010119 |
   | xdiplen (relax) |      6.95992640 |     95.08171313 |       ---       |
   | ydiplen (unrel) |      0.00026940 |      0.00026824 |      0.00046423 |
   | ydiplen (relax) |      0.00020882 |      0.00020765 |       ---       |
   | zdiplen (unrel) |      0.11673905 |      1.70816267 |     -0.09768712 |
   | zdiplen (relax) |      0.12479111 |      1.71621474 |       ---       |
   +-----------------+-----------------+-----------------+-----------------+


     Analysis of relaxed properties:
     ===============================


     dipole moment:
     --------------

     x      6.95992640
     y      0.00020882
     z      0.12479111

     | dipole moment | =      6.96104506 a.u. =     17.69321004 debye
 


     Analysis of unrelaxed properties:
     =================================


     dipole moment:
     --------------

     x      7.66060747
     y      0.00026940
     z      0.11673905

     | dipole moment | =      7.66149691 a.u. =     19.47358087 debye
 

 +---------------------------------+-----------------+
 |   Nonequilibrium solvation      |                 |
 +---------------------------------+-----------------+
 |   E_x_(y) is the total free energy of target      |
 |   state x in the reaction field (RF)              |
 |   equilibrated for state y                        |
 +---------------------------------+-----------------+
 | E_x_(y)                         |  -491.15869556  |
 | E_x_(y) (+OCC)                  |  -491.16070273  |
 | Outlying charge correction(OCC) |    -0.00200716  |
 | E_SCF with RF of state y        |  -489.42214528  |
 | E_corr (ground state)           |    -2.00332181  |
 | E_exci (ground to x state)      |     0.26850999  |
 | Correction for fast part of RF  |    -0.00324243  |
 | Correction for update of eq. RF |     0.00150397  |
 +---------------------------------+-----------------+


  +=========================================================================+
  |  Excited state reached by transition:                   model: ADC(2)   |
  |    number, symmetry, multiplicity:   15 a    1                          |
  |    frequency :   0.2702467827 a.u.     7.35379 e.V.     59312.3 rcm     |
  +=========================================================================+

      Total energy of excited state:    -491.1549071523

   +-----------------+-----------------+-----------------+-----------------+
   | operator        | expect. value   | electr. contrib.| diff to gr.st.  |
   +-----------------+-----------------+-----------------+-----------------+
   | xdiplen (unrel) |      4.98949634 |     93.11128307 |      0.98899006 |
   | xdiplen (relax) |      4.56745909 |     92.68924582 |       ---       |
   | ydiplen (unrel) |     -0.00001536 |     -0.00001652 |      0.00017946 |
   | ydiplen (relax) |     -0.00003716 |     -0.00003832 |       ---       |
   | zdiplen (unrel) |      0.17412706 |      1.76555068 |     -0.04029911 |
   | zdiplen (relax) |      0.17432398 |      1.76574760 |       ---       |
   +-----------------+-----------------+-----------------+-----------------+


     Analysis of relaxed properties:
     ===============================


     dipole moment:
     --------------

     x      4.56745909
     y     -0.00003716
     z      0.17432398

     | dipole moment | =      4.57078455 a.u. =     11.61777439 debye
 


     Analysis of unrelaxed properties:
     =================================


     dipole moment:
     --------------

     x      4.98949634
     y     -0.00001536
     z      0.17412706

     | dipole moment | =      4.99253382 a.u. =     12.68975401 debye
 

 +---------------------------------+-----------------+
 |   Nonequilibrium solvation      |                 |
 +---------------------------------+-----------------+
 |   E_x_(y) is the total free energy of target      |
 |   state x in the reaction field (RF)              |
 |   equilibrated for state y                        |
 +---------------------------------+-----------------+
 | E_x_(y)                         |  -491.15574344  |
 | E_x_(y) (+OCC)                  |  -491.15583353  |
 | Outlying charge correction(OCC) |    -0.00009009  |
 | E_SCF with RF of state y        |  -489.42214528  |
 | E_corr (ground state)           |    -2.00332181  |
 | E_exci (ground to x state)      |     0.27024678  |
 | Correction for fast part of RF  |    -0.00088239  |
 | Correction for update of eq. RF |     0.00035925  |
 +---------------------------------+-----------------+
 Exporting excited state densities


 =============================================
 | SUMMARY OF RELAXED EXCITATIONS WITH COSMO |
 =============================================

 Explanation of the quantities below:

       E(diff)_x = E_x - E*_y
       E(exci)_x = E_x - E_gs

  E_x  : noneq.        energy of state x
  E*_y : eq.           energy of state y
  E_gs : noneq. or eq. energy of groundstate
  OCC  : outlying charge correction

 The * in column 'sym' marks the equilibrated state

 +=================================================================================+
 | sym | multi | state | COSMO-ADC(2) energy differences                           |
 |     |       |       +-----------------------------------------------------------+
 |     |       |       | E(Total)/au. |  E(diff)/eV  |  E(exci)/eV  |E(exc(OCC))/eV|
 +=================================================================================+
 |*a   |   1   |   0   | -491.4254671 |            - |            - |            - |
 +-----+-------+-------+--------------+--------------+--------------+--------------+
 | a   |   1   |   1   | -491.2942763 |      3.56988 |      3.56988 |      3.56365 |
 +-----+-------+-------+--------------+--------------+--------------+--------------+
 | a   |   1   |   2   | -491.2880075 |      3.74047 |      3.74047 |      3.74048 |
 +-----+-------+-------+--------------+--------------+--------------+--------------+
 | a   |   1   |   3   | -491.2584969 |      4.54349 |      4.54349 |      4.54295 |
 +-----+-------+-------+--------------+--------------+--------------+--------------+
 | a   |   1   |   4   | -491.2567488 |      4.59106 |      4.59106 |      4.59062 |
 +-----+-------+-------+--------------+--------------+--------------+--------------+
 | a   |   1   |   5   | -491.2338220 |      5.21493 |      5.21493 |      5.21214 |
 +-----+-------+-------+--------------+--------------+--------------+--------------+
 | a   |   1   |   6   | -491.2139690 |      5.75516 |      5.75516 |      5.75472 |
 +-----+-------+-------+--------------+--------------+--------------+--------------+
 | a   |   1   |   7   | -491.2147126 |      5.73492 |      5.73492 |      5.72536 |
 +-----+-------+-------+--------------+--------------+--------------+--------------+
 | a   |   1   |   8   | -491.2057161 |      5.97973 |      5.97973 |      5.97947 |
 +-----+-------+-------+--------------+--------------+--------------+--------------+
 | a   |   1   |   9   | -491.1911369 |      6.37645 |      6.37645 |      6.36792 |
 +-----+-------+-------+--------------+--------------+--------------+--------------+
 | a   |   1   |  10   | -491.1836274 |      6.58079 |      6.58079 |      6.52964 |
 +-----+-------+-------+--------------+--------------+--------------+--------------+
 | a   |   1   |  11   | -491.1780223 |      6.73332 |      6.73332 |      6.72775 |
 +-----+-------+-------+--------------+--------------+--------------+--------------+
 | a   |   1   |  12   | -491.1719544 |      6.89843 |      6.89843 |      6.86145 |
 +-----+-------+-------+--------------+--------------+--------------+--------------+
 | a   |   1   |  13   | -491.1687911 |      6.98451 |      6.98451 |      6.98406 |
 +-----+-------+-------+--------------+--------------+--------------+--------------+
 | a   |   1   |  14   | -491.1586956 |      7.25922 |      7.25922 |      7.21369 |
 +-----+-------+-------+--------------+--------------+--------------+--------------+
 | a   |   1   |  15   | -491.1557434 |      7.33955 |      7.33955 |      7.34618 |
 +=================================================================================+



    ------------------------------------------------------------------------
         total  cpu-time :  4 hours  4 minutes and 23 seconds
         total wall-time : 16 hours 50 minutes and  6 seconds
    ------------------------------------------------------------------------


   ****  ricc2 : all done  ****


    2023-03-29 18:17:45.353 

