 operating system is UNIX !
 hostname is         dlt19.abaxnet

 dscf (dlt19.abaxnet) : TURBOMOLE V6.6( 19103 ) 21 May 2014 at 15:45:05
 Copyright (C) 2014 TURBOMOLE GmbH, Karlsruhe


    2023-03-21 19:01:20.139 



                             d s c f - program

                   idea & directorship : reinhart ahlrichs
                   program development : marco haeser
                                         michael baer
                           dft version : oliver treutler


                          quantum chemistry group
                          universitaet  karlsruhe
                                  germany




                          References             
                                                 
          TURBOMOLE:                             
              R. Ahlrichs, M. Baer, M. Haeser, H. Horn, and
              C. Koelmel
              Electronic structure calculations on workstation
              computers: the program system TURBOMOLE
              Chem. Phys. Lett. 162: 165 (1989)
          Density Functional:                              
              O. Treutler and R. Ahlrichs                      
              Efficient Molecular Numerical Integration Schemes
              J. Chem. Phys. 102: 346 (1995)                   
          Parallel Version:                                
              Performance of parallel TURBOMOLE for Density    
              Functional Calculations                          
              M. v. Arnim and R. Ahlrichs                      
              J. Comp. Chem. 19: 1746 (1998)                   
                                         




              +--------------------------------------------------+
              | Atomic coordinate, charge and isotop information |
              +--------------------------------------------------+

                    atomic coordinates            atom    charge  isotop
          1.25897108    2.28255516   -0.02810580    c      6.000     0
          2.55589237    0.00000080   -0.02681200    c      6.000     0
          1.25897007   -2.28255733   -0.02813934    c      6.000     0
         -1.33317556   -2.28375619   -0.03047017    c      6.000     0
         -2.68660099    0.00000277   -0.03031113    c      6.000     0
         -1.33317837    2.28375729   -0.03043298    c      6.000     0
          2.29932227    4.03663792   -0.02521679    h      1.000     0
          2.29931977   -4.03664088   -0.02527372    h      1.000     0
         -2.35209669   -4.05620705   -0.03323531    h      1.000     0
         -2.35209002    4.05621365   -0.03315997    h      1.000     0
          5.27622553    0.00000026   -0.02078360    n      7.000     0
          6.38036802   -2.02707200   -0.01818823    o      8.000     0
          6.38036929    2.02707185   -0.01828296    o      8.000     0
         -5.24842481   -0.00000067   -0.08128959    n      7.000     0
         -6.20193517   -1.61497920    0.21484055    h      1.000     0
         -6.20193679    1.61497363    0.21486103    h      1.000     0
 
       center of nuclear mass  :    1.36535189    0.00000014   -0.02744662
       center of nuclear charge:    1.22356053    0.00000012   -0.02415409

   *************************************************************************
   ADC(2) - opt by CAM-B3LYP gaussian                                       
   *************************************************************************



              +--------------------------------------------------+
              |               basis set information              |
              +--------------------------------------------------+

              we will work with the 1s 3p 5d 7f 9g ... basis set
              ...i.e. with spherical basis functions...

   type   atoms  prim   cont   basis
   ---------------------------------------------------------------------------
    c        6     52     37   def2-TZVPD   [6s3p3d1f|12s6p3d1f]
    h        6     11      9   def2-TZVPD   [3s2p|5s2p]
    n        2     52     37   def2-TZVPD   [6s3p3d1f|12s6p3d1f]
    o        2     55     40   def2-TZVPD   [6s4p3d1f|12s7p3d1f]
   ---------------------------------------------------------------------------
   total:   16    592    430
   ---------------------------------------------------------------------------

   total number of primitive shells          :   74
   total number of contracted shells         :  162
   total number of cartesian basis functions :  490
   total number of SCF-basis functions       :  430

 ==============================================================================
                      COSMO switched on
 ==============================================================================
 COSMO stati: segments per atom: H   32 other atoms   92

 symmetry group of the molecule :   c1 

 the group has the following generators :
   c1(z)

    1 symmetry operations found
 COSMO statistics: nps    666 npspher:    312

 symmetry group of the molecule :   c1 

 the group has the following generators :
   c1(z)

    1 symmetry operations found
 COSMO surface:
   number of segments:  666
   area (bohr**2):      573.730492
   volume (bohr**3):   1039.447202
 COSMO: check number of disjunct cavities:

       ... OK contiguous cavity found

 integral neglect threshold       :  0.68E-11
 integral storage threshold THIZE :  0.10E-04
 integral storage threshold THIME :         5


 DENSITY CONVERGENCE CHECK SWITCHED ON !
 SCF CONVERGENCE IF RMS(delta[D]) <     0.1000000000E-07


 symmetry group of the molecule :   c1 

 the group has the following generators :
   c1(z)

    1 symmetry operations found

 there are 1 real representations :   a   

 maximum number of shells which are related by symmetry :  1


    mo occupation :
   irrep   mo's   occupied
    a      430       36
 
 number of basis functions   :          430
 number of occupied orbitals :           36
 

          ------------------------
          nuclear repulsion energy  :   498.672430119    
          ------------------------

 
          -----------------
          -S,T+V- integrals
          -----------------

 1e-integrals will be neglected if expon. factor < 0.682033E-12
 
   Difference densities algorithm switched on.
   The maximal number of linear combinations of
   difference densities is          20 .

 automatic virtual orbital shift switched on 
      shift if e(lumo)-e(homo) < 0.10000000    


 DIIS switched on: error vector is FDS-SDF
 Max. Iterations for DIIS is     :   5
 DIIS matrix (see manual) 
    Scaling factor of diagonals  :  1.200
    threshold for scaling factor :  0.000

 scf convergence criterion : increment of total energy < .1000000D-06
                  and increment of one-electron energy < .1000000D-03


 <geterg> : there is no data group $energy 

  MOs are in ASCII format !


 reading orbital data $scfmo  from file mos . 

 orbital characterization : expanded
 
 mo provided and orthogonalized by Cholesky decomposition

 DSCF restart information will be dumped onto file mos

 
                                              current damping :  0.300
 ITERATION  ENERGY          1e-ENERGY        2e-ENERGY     RMS[dD(SAO)]   TOL
   1  -487.45124337194    -1642.1547360     656.03106250    0.000D+00 0.680D-11
                          Ediel =    -0.069187946842
          max. resid. norm for Fia-block=  4.116D-01 for orbital     22a         
          max. resid. fock norm         =  9.174D+00 for orbital    168a         
          Delta Eig. =   933.5460305608 eV 
 
                                              current damping :  0.250
 ITERATION  ENERGY          1e-ENERGY        2e-ENERGY     RMS[dD(SAO)]   TOL
   2  -489.21145489472    -1654.4132100     666.52932495    0.487D-01 0.673D-11
                          Ediel =    -0.031565221888
          Norm of current diis error:  2.5369    
          max. resid. norm for Fia-block=  1.497D-01 for orbital     11a         
          max. resid. fock norm         =  3.272D-01 for orbital    415a         
          Delta Eig. =   212.6383685152 eV 
 
                                              current damping :  0.150
 ITERATION  ENERGY          1e-ENERGY        2e-ENERGY     RMS[dD(SAO)]   TOL
   3  -489.37639184426    -1655.3878393     667.33901730    0.116D-01 0.438D-11
                          Ediel =    -0.027295782172
          Norm of current diis error: 0.98849    
          max. resid. norm for Fia-block=  6.193D-02 for orbital     24a         
          max. resid. fock norm         =  6.917D-02 for orbital     24a         
          Delta Eig. =    50.1529130392 eV 
 
                                              current damping :  0.100
 ITERATION  ENERGY          1e-ENERGY        2e-ENERGY     RMS[dD(SAO)]   TOL
   4  -489.41508056590    -1655.6903609     667.60285023    0.337D-02 0.345D-11
                          Ediel =    -0.023257490389
          Norm of current diis error: 0.27792    
          max. resid. norm for Fia-block=  1.730D-02 for orbital     22a         
          max. resid. fock norm         =  1.987D-02 for orbital     11a         
          Delta Eig. =     5.8331294730 eV 
 
                                              current damping :  0.100
 ITERATION  ENERGY          1e-ENERGY        2e-ENERGY     RMS[dD(SAO)]   TOL
   5  -489.41931353599    -1655.9152555     667.82351182    0.973D-03 0.310D-11
                          Ediel =    -0.022609456930
          Norm of current diis error: 0.83521E-01
          max. resid. norm for Fia-block=  6.478D-03 for orbital     36a         
          max. resid. fock norm         =  8.614D-03 for orbital    425a         
 mo-orthogonalization: Cholesky decomposition
          Delta Eig. =     0.6010871581 eV 
 
                                              current damping :  0.150
 ITERATION  ENERGY          1e-ENERGY        2e-ENERGY     RMS[dD(SAO)]   TOL
   6  -489.41993338896    -1655.8818047     667.78944119    0.322D-03 0.290D-11
                          Ediel =    -0.022227994882
          Norm of current diis error: 0.35353E-01
          max. resid. norm for Fia-block=  3.838D-03 for orbital     36a         
          max. resid. fock norm         =  3.988D-03 for orbital     36a         
          Delta Eig. =     0.0991593144 eV 
 
                                              current damping :  0.100
 ITERATION  ENERGY          1e-ENERGY        2e-ENERGY     RMS[dD(SAO)]   TOL
   7  -489.42008463482    -1655.8786621     667.78614733    0.168D-03 0.273D-11
                          Ediel =    -0.021981855209
          Norm of current diis error: 0.16949E-01
          max. resid. norm for Fia-block=  2.127D-03 for orbital     36a         
          max. resid. fock norm         =  2.233D-03 for orbital     36a         
          Delta Eig. =     0.0535574987 eV 
 
                                              current damping :  0.150
 ITERATION  ENERGY          1e-ENERGY        2e-ENERGY     RMS[dD(SAO)]   TOL
   8  -489.42012296116    -1655.8801087     667.78755559    0.896D-04 0.257D-11
                          Ediel =    -0.021834014469
          Norm of current diis error: 0.59669E-02
          max. resid. norm for Fia-block=  8.507D-04 for orbital     36a         
          max. resid. fock norm         =  8.685D-04 for orbital     36a         
          Delta Eig. =     0.0158842485 eV 
 
                                              current damping :  0.200
 ITERATION  ENERGY          1e-ENERGY        2e-ENERGY     RMS[dD(SAO)]   TOL
   9  -489.42012814431    -1655.8761586     667.78360033    0.292D-04 0.247D-11
                          Ediel =    -0.021747984865
          Norm of current diis error: 0.24684E-02
          max. resid. norm for Fia-block=  3.574D-04 for orbital     36a         
          max. resid. fock norm         =  3.657D-04 for orbital     36a         
          Delta Eig. =     0.0060509857 eV 
 
                                              current damping :  0.100
 ITERATION  ENERGY          1e-ENERGY        2e-ENERGY     RMS[dD(SAO)]   TOL
  10  -489.42012902220    -1655.8757259     667.78316675    0.101D-04 0.239D-11
                          Ediel =    -0.021711028906
          Norm of current diis error: 0.11157E-02
          max. resid. norm for Fia-block=  1.847D-04 for orbital     36a         
          max. resid. fock norm         =  1.858D-04 for orbital     36a         
 mo-orthogonalization: Cholesky decomposition
          Delta Eig. =     0.0026694344 eV 
 
                                              current damping :  0.100
 ITERATION  ENERGY          1e-ENERGY        2e-ENERGY     RMS[dD(SAO)]   TOL
  11  -489.42012924636    -1655.8752793     667.78271991    0.572D-05 0.230D-11
                          Ediel =    -0.021687378045
          Norm of current diis error: 0.52546E-03
          max. resid. norm for Fia-block=  8.151D-05 for orbital     36a         
          max. resid. fock norm         =  8.673D-05 for orbital     37a         
          Delta Eig. =     0.0019648042 eV 
 
                                              current damping :  0.100
 ITERATION  ENERGY          1e-ENERGY        2e-ENERGY     RMS[dD(SAO)]   TOL
  12  -489.42012929587    -1655.8750181     667.78245868    0.274D-05 0.221D-11
                          Ediel =    -0.021676777195
          Norm of current diis error: 0.25443E-03
          max. resid. norm for Fia-block=  3.997D-05 for orbital     36a         
          max. resid. fock norm         =  4.074D-05 for orbital     36a         
          Delta Eig. =     0.0010463468 eV 
 
                                              current damping :  0.100
 ITERATION  ENERGY          1e-ENERGY        2e-ENERGY     RMS[dD(SAO)]   TOL
  13  -489.42012930713    -1655.8749565     667.78239710    0.117D-05 0.214D-11
                          Ediel =    -0.021672846880
          Norm of current diis error: 0.14285E-03
          max. resid. norm for Fia-block=  2.038D-05 for orbital     36a         
          max. resid. fock norm         =  2.259D-05 for orbital     37a         
          Delta Eig. =     0.0005420670 eV 
 
                                              current damping :  0.100
 ITERATION  ENERGY          1e-ENERGY        2e-ENERGY     RMS[dD(SAO)]   TOL
  14  -489.42012931210    -1655.8749444     667.78238495    0.678D-06 0.207D-11
                          Ediel =    -0.021670740105
          Norm of current diis error: 0.68495E-04
          max. resid. norm for Fia-block=  1.031D-05 for orbital     36a         
          max. resid. fock norm         =  1.056D-05 for orbital    145a         
          Delta Eig. =     0.0002736645 eV 
 
                                              current damping :  0.100
 ITERATION  ENERGY          1e-ENERGY        2e-ENERGY     RMS[dD(SAO)]   TOL
  15  -489.42012931449    -1655.8749194     667.78236000    0.381D-06 0.200D-11
                          Ediel =    -0.021670167759
          Norm of current diis error: 0.29231E-04
          max. resid. norm for Fia-block=  4.368D-06 for orbital     35a         
          max. resid. fock norm         =  1.223D-05 for orbital    187a         
 mo-orthogonalization: Cholesky decomposition
          Delta Eig. =     0.0001411842 eV 
 
                                              current damping :  0.150
 ITERATION  ENERGY          1e-ENERGY        2e-ENERGY     RMS[dD(SAO)]   TOL
  16  -489.42012931749    -1655.8749287     667.78236923    0.328D-06 0.194D-11
                          Ediel =    -0.021670004229
          Norm of current diis error: 0.12343E-04
          max. resid. norm for Fia-block=  1.839D-06 for orbital     35a         
          max. resid. fock norm         =  1.473D-05 for orbital    187a         
          Delta Eig. =     0.0001150270 eV 

 ENERGY & DENSITY CONVERGED !

 
                                              current damping :  0.200
 ITERATION  ENERGY          1e-ENERGY        2e-ENERGY     RMS[dD(SAO)]   TOL
  17  -489.42012931927    -1655.8749267     667.78236728    0.360D-06 0.194D-11
                          Ediel =    -0.021670020877
          max. resid. norm for Fia-block=  3.386D-07 for orbital     35a         
          max. resid. fock norm         =  1.100D-05 for orbital    187a         
 COSMO: write data to file cosmo_transfer.tmp

 convergence criteria satisfied after 17 iterations


   *************************************************************************
   ADC(2) - opt by CAM-B3LYP gaussian                                       
   *************************************************************************


                  ------------------------------------------ 
                 |  total energy      =   -489.42012931927  |
                  ------------------------------------------ 
                 :  kinetic energy    =    488.91282734658  :
                 :  potential energy  =   -978.33295666586  :
                 :  virial theorem    =      1.99896346320  :
                 :  wavefunction norm =      1.00000000000  :
                  .......................................... 


 <geterg> : there is no data group $energy 


 <skperg> : $end is missing 


 orbitals $scfmo  will be written to file mos

    irrep                 32a         33a         34a         35a         36a   
 eigenvalues H         -0.49227    -0.47347    -0.46359    -0.36637    -0.31506
            eV         -13.3955    -12.8838    -12.6149     -9.9696     -8.5734
 occupation              2.0000      2.0000      2.0000      2.0000      2.0000 

    irrep                 37a         38a         39a         40a         41a   
 eigenvalues H          0.04616     0.06829     0.07983     0.08370     0.10219
            eV           1.2562      1.8583      2.1724      2.2777      2.7807
 
 ==============================================================================
                                  COSMO RESULTS
 ==============================================================================
  PARAMETER:
    nppa:      1082
    nspa:        92
    nsph:        32
    nps:        666
    npspher:    312
    disex:   10.0000    
    disex2:  4410.84    
    rsolv [A]: 1.3000
    routf:     0.8500
    phsran:    0.0    
    ampran:   0.10E-04
    cavity:  closed
    epsilon:    10.125
    refind:     1.300
    fepsi:      0.8588235
  CAVITY VOLUME/AREA [a.u.]:
    surface: V1.0, A matrix: V1.0
    area:   573.73
    volume:  1039.45
  SCREENING CHARGE:
    cosmo      :  -0.025654
    correction :   0.024881
    total      :  -0.000773
  ENERGIES [a.u.]:
    Total energy            =     -489.4201293193
    Total energy + OC corr. =     -489.4203538409
    Dielectric energy       =       -0.0216700209
    Diel. energy + OC corr. =       -0.0218945425
  ELEMENT RADIUS [A]: ATOM LIST
    c  2.00: 1-6
    h  1.30: 7-10,15,16
    n  1.83: 11,14
    o  1.72: 12,13
 ==============================================================================
 
 
 
 ==============================================================================
                           electrostatic moments
 ==============================================================================
 
              nuc           elec       ->  total
 ------------------------------------------------------------------------------
                          charge      
 ------------------------------------------------------------------------------
          72.000000     -72.000000      -0.000000
 
 ------------------------------------------------------------------------------
                       dipole moment  
 ------------------------------------------------------------------------------
   x      88.096358     -91.984193      -3.887835
   y       0.000009       0.000275       0.000284
   z      -1.739095       1.970267       0.231173
 
   | dipole moment | =     3.8947 a.u. =     9.8993 debye 
 
 ------------------------------------------------------------------------------
                     quadrupole moment
 ------------------------------------------------------------------------------
  xx    1260.454636   -1313.274340     -52.819704
  yy     261.562521    -300.166400     -38.603879
  zz       0.180845     -45.546478     -45.365633
  xy       0.000011      -0.000712      -0.000700
  xz      -2.127888       0.654422      -1.473466
  yz      -0.000000       0.000636       0.000636
 
     1/3  trace=     -45.596405
     anisotropy=      12.577774
 
 ==============================================================================
 


    ------------------------------------------------------------------------
         total  cpu-time : 15 minutes and 20 seconds
         total wall-time : 15 minutes and 35 seconds
    ------------------------------------------------------------------------


   ****  dscf : all done  ****


    2023-03-21 19:16:54.983 

