 operating system is UNIX !
 hostname is         dlt19.abaxnet

 dscf (dlt19.abaxnet) : TURBOMOLE V6.6( 19103 ) 21 May 2014 at 15:45:05
 Copyright (C) 2014 TURBOMOLE GmbH, Karlsruhe


    2023-03-23 04:11:26.120 



                             d s c f - program

                   idea & directorship : reinhart ahlrichs
                   program development : marco haeser
                                         michael baer
                           dft version : oliver treutler


                          quantum chemistry group
                          universitaet  karlsruhe
                                  germany




                          References             
                                                 
          TURBOMOLE:                             
              R. Ahlrichs, M. Baer, M. Haeser, H. Horn, and
              C. Koelmel
              Electronic structure calculations on workstation
              computers: the program system TURBOMOLE
              Chem. Phys. Lett. 162: 165 (1989)
          Density Functional:                              
              O. Treutler and R. Ahlrichs                      
              Efficient Molecular Numerical Integration Schemes
              J. Chem. Phys. 102: 346 (1995)                   
          Parallel Version:                                
              Performance of parallel TURBOMOLE for Density    
              Functional Calculations                          
              M. v. Arnim and R. Ahlrichs                      
              J. Comp. Chem. 19: 1746 (1998)                   
                                         




              +--------------------------------------------------+
              | Atomic coordinate, charge and isotop information |
              +--------------------------------------------------+

                    atomic coordinates            atom    charge  isotop
          1.25897108    2.28255516   -0.02810580    c      6.000     0
          2.55589237    0.00000080   -0.02681200    c      6.000     0
          1.25897007   -2.28255733   -0.02813934    c      6.000     0
         -1.33317556   -2.28375619   -0.03047017    c      6.000     0
         -2.68660099    0.00000277   -0.03031113    c      6.000     0
         -1.33317837    2.28375729   -0.03043298    c      6.000     0
          2.29932227    4.03663792   -0.02521679    h      1.000     0
          2.29931977   -4.03664088   -0.02527372    h      1.000     0
         -2.35209669   -4.05620705   -0.03323531    h      1.000     0
         -2.35209002    4.05621365   -0.03315997    h      1.000     0
          5.27622553    0.00000026   -0.02078360    n      7.000     0
          6.38036802   -2.02707200   -0.01818823    o      8.000     0
          6.38036929    2.02707185   -0.01828296    o      8.000     0
         -5.24842481   -0.00000067   -0.08128959    n      7.000     0
         -6.20193517   -1.61497920    0.21484055    h      1.000     0
         -6.20193679    1.61497363    0.21486103    h      1.000     0
 
       center of nuclear mass  :    1.36535189    0.00000014   -0.02744662
       center of nuclear charge:    1.22356053    0.00000012   -0.02415409

   *************************************************************************
   ADC(2) - opt by CAM-B3LYP gaussian                                       
   *************************************************************************



              +--------------------------------------------------+
              |               basis set information              |
              +--------------------------------------------------+

              we will work with the 1s 3p 5d 7f 9g ... basis set
              ...i.e. with spherical basis functions...

   type   atoms  prim   cont   basis
   ---------------------------------------------------------------------------
    c        6     52     37   def2-TZVPD   [6s3p3d1f|12s6p3d1f]
    h        6     11      9   def2-TZVPD   [3s2p|5s2p]
    n        2     52     37   def2-TZVPD   [6s3p3d1f|12s6p3d1f]
    o        2     55     40   def2-TZVPD   [6s4p3d1f|12s7p3d1f]
   ---------------------------------------------------------------------------
   total:   16    592    430
   ---------------------------------------------------------------------------

   total number of primitive shells          :   74
   total number of contracted shells         :  162
   total number of cartesian basis functions :  490
   total number of SCF-basis functions       :  430

 ==============================================================================
                      COSMO switched on
 ==============================================================================
 COSMO: skip init. and read data from file
 This run uses frozen charges (from previous solvent iteration)
 Work to create reaction field =   1.869921815192976E-002

 integral neglect threshold       :  0.68E-11
 integral storage threshold THIZE :  0.10E-04
 integral storage threshold THIME :         5


 DENSITY CONVERGENCE CHECK SWITCHED ON !
 SCF CONVERGENCE IF RMS(delta[D]) <     0.1000000000E-07


 symmetry group of the molecule :   c1 

 the group has the following generators :
   c1(z)

    1 symmetry operations found

 there are 1 real representations :   a   

 maximum number of shells which are related by symmetry :  1


    mo occupation :
   irrep   mo's   occupied
    a      430       36
 
 number of basis functions   :          430
 number of occupied orbitals :           36
 

          ------------------------
          nuclear repulsion energy  :   498.672430119    
          ------------------------

 
          -----------------
          -S,T+V- integrals
          -----------------

 1e-integrals will be neglected if expon. factor < 0.682033E-12
 
   Difference densities algorithm switched on.
   The maximal number of linear combinations of
   difference densities is          20 .

 automatic virtual orbital shift switched on 
      shift if e(lumo)-e(homo) < 0.10000000    


 DIIS switched on: error vector is FDS-SDF
 Max. Iterations for DIIS is     :   5
 DIIS matrix (see manual) 
    Scaling factor of diagonals  :  1.200
    threshold for scaling factor :  0.000

 scf convergence criterion : increment of total energy < .1000000D-06
                  and increment of one-electron energy < .1000000D-03

  MOs are in ASCII format !


 reading orbital data $scfmo  from file mos . 

 orbital characterization : scfconv=7
 

 DSCF restart information will be dumped onto file mos

 COSMO: use frozen qcos
 
                                              current damping :  0.300
 ITERATION  ENERGY          1e-ENERGY        2e-ENERGY     RMS[dD(SAO)]   TOL
   1  -489.41980127564    -1655.8914041     667.79917272    0.000D+00 0.680D-11
                          Ediel =    -0.020979993487
          max. resid. norm for Fia-block=  2.815D-04 for orbital     31a         
          max. resid. fock norm         =  6.127D-04 for orbital    120a         
          Delta Eig. =     0.0128124566 eV 
 COSMO: use frozen qcos
 
                                              current damping :  0.250
 ITERATION  ENERGY          1e-ENERGY        2e-ENERGY     RMS[dD(SAO)]   TOL
   2  -489.41980213697    -1655.8941428     667.80191055    0.339D-04 0.431D-11
                          Ediel =    -0.020938790942
          Norm of current diis error: 0.13619E-02
          max. resid. norm for Fia-block=  1.067D-04 for orbital     31a         
          max. resid. fock norm         =  1.300D-04 for orbital     31a         
          Delta Eig. =     0.0057267421 eV 
 COSMO: use frozen qcos
 
                                              current damping :  0.200
 ITERATION  ENERGY          1e-ENERGY        2e-ENERGY     RMS[dD(SAO)]   TOL
   3  -489.41980228964    -1655.8936282     667.80139580    0.115D-04 0.342D-11
                          Ediel =    -0.020923356920
          Norm of current diis error: 0.59953E-03
          max. resid. norm for Fia-block=  5.639D-05 for orbital     36a         
          max. resid. fock norm         =  7.474D-05 for orbital     37a         
          Delta Eig. =     0.0018682708 eV 
 COSMO: use frozen qcos
 
                                              current damping :  0.250
 ITERATION  ENERGY          1e-ENERGY        2e-ENERGY     RMS[dD(SAO)]   TOL
   4  -489.41980233560    -1655.8939022     667.80166972    0.441D-05 0.295D-11
                          Ediel =    -0.020914699188
          Norm of current diis error: 0.31972E-03
          max. resid. norm for Fia-block=  3.592D-05 for orbital     36a         
          max. resid. fock norm         =  4.215D-05 for orbital     37a         
          Delta Eig. =     0.0009958523 eV 
 COSMO: use frozen qcos
 
                                              current damping :  0.300
 ITERATION  ENERGY          1e-ENERGY        2e-ENERGY     RMS[dD(SAO)]   TOL
   5  -489.41980234896    -1655.8938410     667.80160856    0.163D-05 0.269D-11
                          Ediel =    -0.020910982843
          Norm of current diis error: 0.17745E-03
          max. resid. norm for Fia-block=  2.117D-05 for orbital     36a         
          max. resid. fock norm         =  2.671D-05 for orbital     37a         
 mo-orthogonalization: Cholesky decomposition
          Delta Eig. =     0.0005821003 eV 
 COSMO: use frozen qcos
 
                                              current damping :  0.350
 ITERATION  ENERGY          1e-ENERGY        2e-ENERGY     RMS[dD(SAO)]   TOL
   6  -489.41980235361    -1655.8938428     667.80161036    0.104D-05 0.251D-11
                          Ediel =    -0.020909196463
          Norm of current diis error: 0.98116E-04
          max. resid. norm for Fia-block=  1.602D-05 for orbital     36a         
          max. resid. fock norm         =  3.123D-05 for orbital    187a         
          Delta Eig. =     0.0002831277 eV 
 COSMO: use frozen qcos
 
                                              current damping :  0.400
 ITERATION  ENERGY          1e-ENERGY        2e-ENERGY     RMS[dD(SAO)]   TOL
   7  -489.41980235542    -1655.8938251     667.80159259    0.744D-06 0.235D-11
                          Ediel =    -0.020908282458
          Norm of current diis error: 0.52293E-04
          max. resid. norm for Fia-block=  8.887D-06 for orbital     36a         
          max. resid. fock norm         =  2.220D-05 for orbital    187a         
          Delta Eig. =     0.0001957702 eV 
 COSMO: use frozen qcos

 ENERGY & DENSITY CONVERGED !

 
                                              current damping :  0.250
 ITERATION  ENERGY          1e-ENERGY        2e-ENERGY     RMS[dD(SAO)]   TOL
   8  -489.41980235509    -1655.8938209     667.80158838    0.445D-06 0.221D-11
                          Ediel =    -0.020907880069
          max. resid. norm for Fia-block=  2.024D-06 for orbital     36a         
          max. resid. fock norm         =  1.206D-05 for orbital    132a         
 COSMO: write data to file cosmotransfer

 convergence criteria satisfied after  8 iterations


   *************************************************************************
   ADC(2) - opt by CAM-B3LYP gaussian                                       
   *************************************************************************


                  ------------------------------------------ 
                 |  total energy      =   -489.41980235509  |
                  ------------------------------------------ 
                 :  kinetic energy    =    488.91315901194  :
                 :  potential energy  =   -978.33296136704  :
                 :  virial theorem    =      1.99896480825  :
                 :  wavefunction norm =      1.00000000000  :
                  .......................................... 


 orbitals $scfmo  will be written to file mos

    irrep                 32a         33a         34a         35a         36a   
 eigenvalues H         -0.49039    -0.47440    -0.46065    -0.36753    -0.31563
            eV         -13.3443    -12.9093    -12.5351    -10.0011     -8.5888
 occupation              2.0000      2.0000      2.0000      2.0000      2.0000 

    irrep                 37a         38a         39a         40a         41a   
 eigenvalues H          0.04717     0.06825     0.08067     0.08363     0.10278
            eV           1.2835      1.8573      2.1952      2.2758      2.7969
 
 ==============================================================================
                                  COSMO RESULTS
 ==============================================================================
  PARAMETER:
    nppa:      1082
    nspa:        92
    nsph:        32
    nps:        666
    npspher:    312
    disex:   10.0000    
    disex2:  4410.84    
    rsolv [A]: 1.3000
    routf:     0.8500
    phsran:    0.0    
    ampran:   0.10E-04
    cavity:  closed
    epsilon:    10.125
    refind:     1.300
    fepsi:      0.8588235
  CAVITY VOLUME/AREA [a.u.]:
    surface: V1.0, A matrix: V1.0
    area:   573.73
    volume:  1039.45
  SCREENING CHARGE:
    cosmo      :  -0.029800
    correction :   0.029124
    total      :  -0.000675
  ENERGIES [a.u.]:
    Total energy            =     -489.4198023551
    Total energy + OC corr. =     -489.4194507482
    Dielectric energy       =       -0.0209078801
    Diel. energy + OC corr. =       -0.0205562732
  ELEMENT RADIUS [A]: ATOM LIST
    c  2.00: 1-6
    h  1.30: 7-10,15,16
    n  1.83: 11,14
    o  1.72: 12,13
 ==============================================================================
 
 
 
 ==============================================================================
                           electrostatic moments
 ==============================================================================
 
              nuc           elec       ->  total
 ------------------------------------------------------------------------------
                          charge      
 ------------------------------------------------------------------------------
          72.000000     -72.000000      -0.000000
 
 ------------------------------------------------------------------------------
                       dipole moment  
 ------------------------------------------------------------------------------
   x      88.096358     -91.933144      -3.836785
   y       0.000009       0.000108       0.000117
   z      -1.739095       1.967938       0.228843
 
   | dipole moment | =     3.8436 a.u. =     9.7695 debye 
 
 ------------------------------------------------------------------------------
                     quadrupole moment
 ------------------------------------------------------------------------------
  xx    1260.454636   -1312.792112     -52.337476
  yy     261.562521    -300.190434     -38.627913
  zz       0.180845     -45.556370     -45.375525
  xy       0.000011      -0.000830      -0.000819
  xz      -2.127888       0.664220      -1.463667
  yz      -0.000000       0.000273       0.000273
 
     1/3  trace=     -45.446971
     anisotropy=      12.140946
 
 ==============================================================================
 


    ------------------------------------------------------------------------
         total  cpu-time :  6 minutes and 43 seconds
         total wall-time :  6 minutes and 51 seconds
    ------------------------------------------------------------------------


   ****  dscf : all done  ****


    2023-03-23 04:18:16.709 

