 hostname is         dlt19.abaxnet
 this is node-proc. number 0 running on node dlt19.abaxnet
 the total number of node-proc. spawned is   1

 ricc2 (dlt19.abaxnet) : TURBOMOLE V6.6( 19125 ) 27 May 2014 at 14:24:19
 Copyright (C) 2014 TURBOMOLE GmbH, Karlsruhe


    2023-03-24 19:37:29.063 



                              R I C C 2 - PROGRAM

                          the quantum chemistry groups
                             at the universities in
                           Karlsruhe, Bochum & Mainz
                                   Germany



   *-----------------------------------------------------------------------*
   |                     program will use  1 thread(s)                     |
   *-----------------------------------------------------------------------*


              +--------------------------------------------------+
              | Atomic coordinate, charge and isotop information |
              +--------------------------------------------------+

                    atomic coordinates            atom    charge  isotop
          1.25897108    2.28255516   -0.02810580    c      6.000     0
          2.55589237    0.00000080   -0.02681200    c      6.000     0
          1.25897007   -2.28255733   -0.02813934    c      6.000     0
         -1.33317556   -2.28375619   -0.03047017    c      6.000     0
         -2.68660099    0.00000277   -0.03031113    c      6.000     0
         -1.33317837    2.28375729   -0.03043298    c      6.000     0
          2.29932227    4.03663792   -0.02521679    h      1.000     0
          2.29931977   -4.03664088   -0.02527372    h      1.000     0
         -2.35209669   -4.05620705   -0.03323531    h      1.000     0
         -2.35209002    4.05621365   -0.03315997    h      1.000     0
          5.27622553    0.00000026   -0.02078360    n      7.000     0
          6.38036802   -2.02707200   -0.01818823    o      8.000     0
          6.38036929    2.02707185   -0.01828296    o      8.000     0
         -5.24842481   -0.00000067   -0.08128959    n      7.000     0
         -6.20193517   -1.61497920    0.21484055    h      1.000     0
         -6.20193679    1.61497363    0.21486103    h      1.000     0
 
       center of nuclear mass  :    1.36535189    0.00000014   -0.02744662
       center of nuclear charge:    1.22356053    0.00000012   -0.02415409

              +--------------------------------------------------+
              |               basis set information              |
              +--------------------------------------------------+

              we will work with the 1s 3p 5d 7f 9g ... basis set
              ...i.e. with spherical basis functions...

   type   atoms  prim   cont   basis
   ---------------------------------------------------------------------------
    c        6     52     37   def2-TZVPD   [6s3p3d1f|12s6p3d1f]
    h        6     11      9   def2-TZVPD   [3s2p|5s2p]
    n        2     52     37   def2-TZVPD   [6s3p3d1f|12s6p3d1f]
    o        2     55     40   def2-TZVPD   [6s4p3d1f|12s7p3d1f]
   ---------------------------------------------------------------------------
   total:   16    592    430
   ---------------------------------------------------------------------------

   total number of primitive shells          :   74
   total number of contracted shells         :  162
   total number of cartesian basis functions :  490
   total number of SCF-basis functions       :  430



   =========================================================================


     restricted closed shell calculation for the wavefunction models:
               ADC(2)     - Algebraic Diagrammatic Construction to 2. Order (strict)


     global parameters for ricc2 program:

        hard restart (reuse of interm.) :  enabled 
        soft restart (reuse of vectors) :  disabled
        threshold for vector function   :    0.100000E-06
        convergence threshold energy    :    0.100000E-07
        linear dependence threshold     :    0.100000E-13
        global print level              :      1
        maximum number of iterations    :   500
        maximum number DIIS vectors     :    10
        max. dim. of reduced space      :   100
        core memory limit (MB)          :   500
        disk space limit (MB)           :   none


   =========================================================================
     "cartesian on" in $drvopt is ignored by $ricc2

    der. integral neglect threshold  :  0.10E-08
    integral neglect threshold       :  0.68E-12
    integral storage threshold THIZE :  0.10E-04
    integral storage threshold THIME :         5


                  +------------------------------------------+
                  |     Auxiliary basis set information      |
                  +------------------------------------------+

              we will work with the 1s 3p 5d 7f 9g ... basis set
              ...i.e. with spherical basis functions...

   type   atoms  prim   cont   basis
   ---------------------------------------------------------------------------
    c        6     97     92   def2-TZVPD   [9s7p5d4f1g|9s7p6d4f1g]
    h        6     32     24   def2-TZVPD   [5s3p2d|5s4p3d]
    n        2     97     92   def2-TZVPD   [9s7p5d4f1g|9s7p6d4f1g]
    o        2     97     92   def2-TZVPD   [9s7p5d4f1g|9s7p6d4f1g]
   ---------------------------------------------------------------------------
   total:   16   1162   1064
   ---------------------------------------------------------------------------

   total number of primitive shells          :   93
   total number of contracted shells         :  320
   total number of cartesian basis functions : 1306
   total number of SCF-basis functions       : 1064


 symmetry group of the molecule :   c1 

 the group has the following generators :
   c1(z)

    1 symmetry operations found

 there are 1 real representations :   a   

 maximum number of shells which are related by symmetry :  1


 The symmetry information takes   1 MB

*---------------------------------------------------------------------*
|               simplified C1 algorithm will be applied               |
*---------------------------------------------------------------------*
 ==============================================================================
                      COSMO switched on
 ==============================================================================
            ======================================================
                      COSMO settings in RICC2
                   --------------------------
             Solvent charges are equilibrated for ground state
             "cycle" indicates frozen COSMO charges,
             hence no COSMO CPHF contribution included
             COSMO linear response (LR) contribution included
             Outlying Charge Correction (OCC) is performed
             Using epsilon          =    10.125
             Using refractive index =     1.300
            ======================================================
        IMPORTANT NOTICE: The calculation of the solvent contributions will
         need the relaxed densities in general. Therefore the actual COSMO
         energies will be output only at the end of the run. Any energies
         or excitation energies quoted before that are only intermediate
         quantities and should be ignored unless you know what you are doing!

  MOs are in ASCII format !


 reading orbital data $scfmo  from file mos . 

 orbital characterization : scfconv=7
 

         --------------------------------------------------------------
                   checking mo's by calculating trace(D*S)

              number of electrons : 
                 from trace(D*S)         :   71.999999999997
                 from occupation numbers :   72.000000000000

              molecular charge           :    0.000000000000
         --------------------------------------------------------------

 time elapsed for calculating density matrices :   0.009 sec
 all orbitals will be active in the correlation treatment

  ----------------------------------------------------------------------------
  hard_restart flag is disabled because the check sum for the
  molecular orbitals "$chkmos" differs from the reference value:
  reference value:     4983261.68037958    
  computed value :     4983261.68031762    
  relative error :    0.124326810285028E-10
  tolerance      :    0.100000000000000E-11
  the calculation will proceed...
  ----------------------------------------------------------------------------


   Molecular Orbital Statistic:
   ============================

   -----------------------------
   orbitals in total:
   -----------------------------
    frozen occupied :      0
    active occupied :     36
    active virtual  :    394
    frozen virtual  :      0
    all together    :    430
   -----------------------------


     time in riccmos       cpu:  0.14 sec    wall:  1.55 sec    ratio:  0.1

     total memory allocated for calculation of (Q|P)**(-1/2) : 13 MiB


     calculation of (P|Q) ...
     time in lp2sym        cpu:  0.04 sec    wall:  0.04 sec    ratio:  1.0


     calculation of the Cholesky decomposition of (P|Q)**(-1) ...
     time in invmetri      cpu:  0.07 sec    wall:  0.97 sec    ratio:  0.1

   threshold for RMS(d[D]) in SCF was     :  0.10E-07
   integral neglect threshold             :  0.68E-12
   derivative integral neglect threshold  :  0.10E-08


 setting up bound for integral derivative estimation

 increment for numerical differentiation : 0.00050000

   =========================================================================

     Energy of reference wave function is  -489.4197879308000
     Maximum orbital residual is           0.1410209405469E-04


     Number of symmetry-nonredundant auxiliary basis functions:     1064

     Block lengths for integral files:
        frozen occupied (BOI):        0 MiB
        active occupied (BJI):        1 MiB
        active virtual  (BAI):        4 MiB
        frozen virtual  (BGI):        0 MiB
               general  (BTI):        4 MiB

   =========================================================================




   **************************************************************************
   *                                                                        *
   *          OPTIMIZATION OF THE GROUND STATE CLUSTER AMPLITUDES           *
   *                                                                        *
   **************************************************************************


   Iter.   MP2 energy       Norm(Omega)    Norm(t1)  Norm(t2)     cpu    wall
   ...........................................................................
    1   -491.4240274996    0.1615677333     0.00000   0.44521    0.29    0.99
   ...........................................................................


     time in total         cpu:  0 min 18 s  wall:  1 min  0 s  ratio:  0.3


     **********************************************************************
     *                                                                    *
     *   RHF  energy                             :   -489.4197879308      *
     *   MP2 correlation energy                  :     -2.0042395688      *
     *                                                                    *
     *   Final MP2 energy                        :   -491.4240274996      *
     *                                                                    *
     *   Norm of MP1 T2 amplitudes               :      0.4452140256      *
     *                                                                    *
     *   D1 diagnostic                           :      0.0591            *
     *                                                                    *
     **********************************************************************

 Using refractive index n                   =    1.30000000000000     
 Screening function (n**2-1)/(n**2+0.5)     =   0.315068493150685     


 **************************************************************
 *                                                            *
 *    OPTIMIZATION OF THE EXCITED STATE CLUSTER AMPLITUDES    *
 *                                                            *
 **************************************************************


  preoptimize excitation energies/vectors using CCS:

  ==================================================


 ======== LINEAR CC RESPONSE SOLVER ========

    threshold for convergence: 0.10E-02
    maximum number of simultaneous jacoby matrix transformations: 15
                                                
     summary of start vectors generation:
     -------------------------------------------
     type of solution vectors      : RE0
     symmetry                      : a  
     number of vectors requested   :    15
     number of vectors generated   :    15
       -- guessed as rhs/(e_a-e_i) :    15
     -------------------------------------------
                                                

    Iter  #Vectors  time (min)    max. residual 
    --------------------------------------------
 COSMO cphf update
 COSMO cphf update
 COSMO cphf update
 COSMO cphf update
 COSMO cphf update
 COSMO cphf update
 COSMO cphf update
 COSMO cphf update
 COSMO cphf update
 COSMO cphf update
 COSMO cphf update
 COSMO cphf update
 COSMO cphf update
 COSMO cphf update
 COSMO cphf update
      1      15         4.68     0.14E+00  (  1)
 COSMO cphf update
 COSMO cphf update
 COSMO cphf update
 COSMO cphf update
 COSMO cphf update
 COSMO cphf update
 COSMO cphf update
 COSMO cphf update
 COSMO cphf update
 COSMO cphf update
 COSMO cphf update
 COSMO cphf update
 COSMO cphf update
 COSMO cphf update
 COSMO cphf update
      2      15         4.69     0.52E-01  ( 10)
 COSMO cphf update
 COSMO cphf update
 COSMO cphf update
 COSMO cphf update
 COSMO cphf update
 COSMO cphf update
 COSMO cphf update
 COSMO cphf update
 COSMO cphf update
 COSMO cphf update
 COSMO cphf update
 COSMO cphf update
 COSMO cphf update
 COSMO cphf update
 COSMO cphf update
      3      15         4.66     0.77E-01  (  7)
 COSMO cphf update
 COSMO cphf update
 COSMO cphf update
 COSMO cphf update
 COSMO cphf update
 COSMO cphf update
 COSMO cphf update
 COSMO cphf update
 COSMO cphf update
 COSMO cphf update
 COSMO cphf update
 COSMO cphf update
 COSMO cphf update
 COSMO cphf update
 COSMO cphf update
      4      15         4.69     0.15E+00  ( 13)
 COSMO cphf update
 COSMO cphf update
 COSMO cphf update
 COSMO cphf update
 COSMO cphf update
 COSMO cphf update
 COSMO cphf update
 COSMO cphf update
 COSMO cphf update
 COSMO cphf update
 COSMO cphf update
 COSMO cphf update
 COSMO cphf update
 COSMO cphf update
 COSMO cphf update
      5      15         4.75     0.16E+00  (  4)
 COSMO cphf update
 COSMO cphf update
 COSMO cphf update
 COSMO cphf update
 COSMO cphf update
 COSMO cphf update
 COSMO cphf update
 COSMO cphf update
 COSMO cphf update
 COSMO cphf update
 COSMO cphf update
 COSMO cphf update
 COSMO cphf update
 COSMO cphf update
 COSMO cphf update
  dimension of red. space became too large.
  try internal restart...
      6      15         4.74     0.87E-01  (  2)
                                                
     summary of start vectors generation:
     -------------------------------------------
     type of solution vectors      : RE0
     symmetry                      : a  
     number of vectors requested   :    15
     number of vectors generated   :    15
       -- restarted from file      :    15
     -------------------------------------------
                                                

    Iter  #Vectors  time (min)    max. residual 
    --------------------------------------------
 COSMO cphf update
 COSMO cphf update
 COSMO cphf update
 COSMO cphf update
 COSMO cphf update
 COSMO cphf update
 COSMO cphf update
 COSMO cphf update
 COSMO cphf update
 COSMO cphf update
 COSMO cphf update
 COSMO cphf update
 COSMO cphf update
 COSMO cphf update
 COSMO cphf update
      7      15         4.74     0.87E-01  (  2)
 COSMO cphf update
 COSMO cphf update
 COSMO cphf update
 COSMO cphf update
 COSMO cphf update
 COSMO cphf update
 COSMO cphf update
 COSMO cphf update
 COSMO cphf update
 COSMO cphf update
 COSMO cphf update
 COSMO cphf update
 COSMO cphf update
      8      13         4.13     0.30E-01  (  2)
 COSMO cphf update
 COSMO cphf update
 COSMO cphf update
 COSMO cphf update
 COSMO cphf update
 COSMO cphf update
 COSMO cphf update
 COSMO cphf update
 COSMO cphf update
      9       9         2.88     0.76E-02  (  2)
 COSMO cphf update
 COSMO cphf update
 COSMO cphf update
 COSMO cphf update
 COSMO cphf update
     10       5         1.61     0.27E-02  ( 13)
 COSMO cphf update
 COSMO cphf update
 COSMO cphf update
 COSMO cphf update
     11       4         1.31     0.12E-02  ( 13)
 COSMO cphf update
     12       1         0.40     0.76E-03  (  2)
    --------------------------------------------
    converged in 12 iterations

         Total time         43.33 minutes


 ===========================================




 Note that this is the intermediate result of a preoptimization!
 The convergence threshold was  0.1E-02 only!
 COSMO: note that the excitation energies below do not include
        the nonequilibrium contributions yet. These require the
        computation of the relaxed densities. See end of output
        for a final list of corrected excitations.


 +==================================================================+
 | sym | multi | state |          CCS excitation energies           |
 |     |       |       +--------------------------------------------+
 |     |       |       |   Hartree    |     eV       |     cm-1     |
 +==================================================================+
 | a   |   1   |   1   |    0.1822606 |      4.95956 |    40001.574 |
 | a   |   1   |   2   |    0.1964581 |      5.34590 |    43117.577 |
 | a   |   1   |   3   |    0.2045032 |      5.56482 |    44883.270 |
 | a   |   1   |   4   |    0.2116248 |      5.75860 |    46446.270 |
 | a   |   1   |   5   |    0.2299299 |      6.25671 |    50463.775 |
 | a   |   1   |   6   |    0.2466420 |      6.71147 |    54131.655 |
 | a   |   1   |   7   |    0.2579745 |      7.01984 |    56618.847 |
 | a   |   1   |   8   |    0.2591746 |      7.05250 |    56882.243 |
 | a   |   1   |   9   |    0.2624393 |      7.14134 |    57598.766 |
 | a   |   1   |  10   |    0.2660515 |      7.23963 |    58391.552 |
 | a   |   1   |  11   |    0.2794079 |      7.60307 |    61322.939 |
 | a   |   1   |  12   |    0.2831561 |      7.70507 |    62145.583 |
 | a   |   1   |  13   |    0.2857601 |      7.77593 |    62717.089 |
 | a   |   1   |  14   |    0.2961398 |      8.05837 |    64995.180 |
 | a   |   1   |  15   |    0.2967108 |      8.07391 |    65120.488 |
 +==================================================================+




  preoptimize ADC(2) excitation energies/vectors using a quasi linear algorithm:
  ==============================================================================


 ======== LINEAR CC RESPONSE SOLVER ========

    threshold for convergence: 0.10E-02
    maximum number of simultaneous jacoby matrix transformations: 15
                                                
     summary of start vectors generation:
     -------------------------------------------
     type of solution vectors      : RE0
     symmetry                      : a  
     number of vectors requested   :    15
     number of vectors generated   :    15
       -- restarted from file      :    15
     -------------------------------------------
                                                

    Iter  #Vectors  time (min)    max. residual 
    --------------------------------------------
 COSMO cphf update
 COSMO cphf update
 COSMO cphf update
 COSMO cphf update
 COSMO cphf update
 COSMO cphf update
 COSMO cphf update
 COSMO cphf update
 COSMO cphf update
 COSMO cphf update
 COSMO cphf update
 COSMO cphf update
 COSMO cphf update
 COSMO cphf update
 COSMO cphf update
 COSMO cphf update
 COSMO cphf update
 COSMO cphf update
 COSMO cphf update
 COSMO cphf update
 COSMO cphf update
 COSMO cphf update
 COSMO cphf update
 COSMO cphf update
 COSMO cphf update
 COSMO cphf update
 COSMO cphf update
 COSMO cphf update
 COSMO cphf update
 COSMO cphf update
 threshold for this macro iteration:  5.337303895354686E-002
      1      15        25.86     0.93E-01  (  2)
 COSMO cphf update
 COSMO cphf update
 COSMO cphf update
 COSMO cphf update
 COSMO cphf update
 COSMO cphf update
 COSMO cphf update
 COSMO cphf update
 COSMO cphf update
 COSMO cphf update
 COSMO cphf update
 COSMO cphf update
 COSMO cphf update
 COSMO cphf update
 COSMO cphf update
 COSMO cphf update
 ...adapted threshold to:  6.316835503567575E-002
      2       8        10.40     0.37E-01  ( 12)
                                                
     summary of start vectors generation:
     -------------------------------------------
     type of solution vectors      : RE0
     symmetry                      : a  
     number of vectors requested   :    15
     number of vectors generated   :    15
       -- restarted from file      :    15
     -------------------------------------------
                                                

    Iter  #Vectors  time (min)    max. residual 
    --------------------------------------------
 COSMO cphf update
 COSMO cphf update
 COSMO cphf update
 COSMO cphf update
 COSMO cphf update
 COSMO cphf update
 COSMO cphf update
 COSMO cphf update
 COSMO cphf update
 COSMO cphf update
 COSMO cphf update
 COSMO cphf update
 COSMO cphf update
 COSMO cphf update
 COSMO cphf update
 COSMO cphf update
 COSMO cphf update
 COSMO cphf update
 COSMO cphf update
 COSMO cphf update
 COSMO cphf update
 COSMO cphf update
 COSMO cphf update
 COSMO cphf update
 COSMO cphf update
 COSMO cphf update
 COSMO cphf update
 COSMO cphf update
 COSMO cphf update
 COSMO cphf update
 threshold for this macro iteration:  6.913660475591360E-003
      3      15        25.72     0.37E-01  ( 12)
 COSMO cphf update
 COSMO cphf update
 COSMO cphf update
 COSMO cphf update
 COSMO cphf update
 COSMO cphf update
 COSMO cphf update
 COSMO cphf update
 COSMO cphf update
 COSMO cphf update
 COSMO cphf update
 COSMO cphf update
 COSMO cphf update
 COSMO cphf update
 COSMO cphf update
 COSMO cphf update
 COSMO cphf update
 COSMO cphf update
 COSMO cphf update
 COSMO cphf update
 COSMO cphf update
 COSMO cphf update
 COSMO cphf update
 COSMO cphf update
 COSMO cphf update
 COSMO cphf update
 COSMO cphf update
 COSMO cphf update
 COSMO cphf update
 COSMO cphf update
      4      15        25.82     0.15E-01  ( 11)
 COSMO cphf update
 COSMO cphf update
 COSMO cphf update
 COSMO cphf update
 COSMO cphf update
 COSMO cphf update
 COSMO cphf update
 COSMO cphf update
 COSMO cphf update
 COSMO cphf update
 COSMO cphf update
 COSMO cphf update
 COSMO cphf update
 COSMO cphf update
 COSMO cphf update
 COSMO cphf update
 COSMO cphf update
 COSMO cphf update
 COSMO cphf update
 COSMO cphf update
 COSMO cphf update
 COSMO cphf update
 COSMO cphf update
 COSMO cphf update
 COSMO cphf update
 COSMO cphf update
 COSMO cphf update
 COSMO cphf update
      5      14        24.06     0.12E-01  ( 14)
 COSMO cphf update
 COSMO cphf update
 COSMO cphf update
 COSMO cphf update
 COSMO cphf update
 COSMO cphf update
      6       3         4.00     0.10E-01  ( 14)
 COSMO cphf update
 COSMO cphf update
      7       1         1.49     0.19E-01  ( 14)
 COSMO cphf update
 COSMO cphf update
      8       1         1.45     0.22E-01  ( 13)
 COSMO cphf update
 COSMO cphf update
 COSMO cphf update
 COSMO cphf update
      9       2         2.71     0.11E-01  ( 13)
 COSMO cphf update
 COSMO cphf update
     10       1         1.48     0.66E-02  (  4)
                                                
     summary of start vectors generation:
     -------------------------------------------
     type of solution vectors      : RE0
     symmetry                      : a  
     number of vectors requested   :    15
     number of vectors generated   :    15
       -- restarted from file      :    15
     -------------------------------------------
                                                

    Iter  #Vectors  time (min)    max. residual 
    --------------------------------------------
 COSMO cphf update
 COSMO cphf update
 COSMO cphf update
 COSMO cphf update
 COSMO cphf update
 COSMO cphf update
 COSMO cphf update
 COSMO cphf update
 COSMO cphf update
 COSMO cphf update
 COSMO cphf update
 COSMO cphf update
 COSMO cphf update
 COSMO cphf update
 COSMO cphf update
 COSMO cphf update
 COSMO cphf update
 COSMO cphf update
 COSMO cphf update
 COSMO cphf update
 COSMO cphf update
 COSMO cphf update
 COSMO cphf update
 COSMO cphf update
 COSMO cphf update
 COSMO cphf update
 COSMO cphf update
 COSMO cphf update
 COSMO cphf update
 COSMO cphf update
 threshold for this macro iteration:  1.210495809102907E-002
     11      15        25.84     0.74E-02  ( 11)
                                                
     summary of start vectors generation:
     -------------------------------------------
     type of solution vectors      : RE0
     symmetry                      : a  
     number of vectors requested   :    15
     number of vectors generated   :    15
       -- restarted from file      :    15
     -------------------------------------------
                                                

    Iter  #Vectors  time (min)    max. residual 
    --------------------------------------------
 COSMO cphf update
 COSMO cphf update
 COSMO cphf update
 COSMO cphf update
 COSMO cphf update
 COSMO cphf update
 COSMO cphf update
 COSMO cphf update
 COSMO cphf update
 COSMO cphf update
 COSMO cphf update
 COSMO cphf update
 COSMO cphf update
 COSMO cphf update
 COSMO cphf update
 COSMO cphf update
 COSMO cphf update
 COSMO cphf update
 COSMO cphf update
 COSMO cphf update
 COSMO cphf update
 COSMO cphf update
 COSMO cphf update
 COSMO cphf update
 COSMO cphf update
 COSMO cphf update
 COSMO cphf update
 COSMO cphf update
 COSMO cphf update
 COSMO cphf update
 dabs(Rj-Ri):           1          11  0.117603032105339     
 dabs(Ij+Ii):           1          11  1.293814052045738E-003
 dabs(Rj-Ri):           2          11  0.117060066163207     
 dabs(Ij+Ii):           2          11  1.293814052045738E-003
 dabs(Rj-Ri):           3          11  8.841051777251832E-002
 dabs(Ij+Ii):           3          11  1.293814052045738E-003
 dabs(Rj-Ri):           4          11  8.590655287734666E-002
 dabs(Ij+Ii):           4          11  1.293814052045738E-003
 dabs(Rj-Ri):           5          11  6.038267833324293E-002
 dabs(Ij+Ii):           5          11  1.293814052045738E-003
 dabs(Rj-Ri):           6          11  4.386371526362773E-002
 dabs(Ij+Ii):           6          11  1.293814052045738E-003
 dabs(Rj-Ri):           7          11  4.291577113688166E-002
 dabs(Ij+Ii):           7          11  1.293814052045738E-003
 dabs(Rj-Ri):           8          11  3.321894696870653E-002
 dabs(Ij+Ii):           8          11  1.293814052045738E-003
 dabs(Rj-Ri):           9          11  1.913120174373492E-002
 dabs(Ij+Ii):           9          11  1.293814052045738E-003
 dabs(Rj-Ri):          10          11  1.105552664271939E-002
 dabs(Ij+Ii):          10          11  1.293814052045738E-003
 dabs(Rj-Ri):          12          11  0.000000000000000E+000
 dabs(Ij+Ii):          12          11  0.000000000000000E+000
 dabs(Rj-Ri):          13          11  1.252252396431730E-003
 dabs(Ij+Ii):          13          11  1.293814052045738E-003
 dabs(Rj-Ri):          14          11  1.555410794572870E-002
 dabs(Ij+Ii):          14          11  1.293814052045738E-003
 dabs(Rj-Ri):          15          11  1.736602073052634E-002
 dabs(Ij+Ii):          15          11  1.293814052045738E-003
 overlap matrix for complex pair:

              1             2
 
    1     0.11043293   -0.01082507
    2    -0.01082507    0.00125505
 real eigenvalues of metric:

              1
 
    1     0.11149589
    2     0.00019209
 eigenvectors of metric:

              1             2
 
    1     0.99521349    0.09772471
    2    -0.09772471    0.99521349
 inverse square root of overlap matrix:

              1             2
 
    1     3.65527890    6.72602353
    2     6.72602353   71.49161622
 recalculated overlap matrix for complex pair:

              1             2
 
    1     1.00000000    0.00000000
    2     0.00000000    1.00000000
 dabs(Rj-Ri):           1          12  0.117603032105339     
 dabs(Ij+Ii):           1          12  1.293814052045738E-003
 dabs(Rj-Ri):           2          12  0.117060066163207     
 dabs(Ij+Ii):           2          12  1.293814052045738E-003
 dabs(Rj-Ri):           3          12  8.841051777251832E-002
 dabs(Ij+Ii):           3          12  1.293814052045738E-003
 dabs(Rj-Ri):           4          12  8.590655287734666E-002
 dabs(Ij+Ii):           4          12  1.293814052045738E-003
 dabs(Rj-Ri):           5          12  6.038267833324293E-002
 dabs(Ij+Ii):           5          12  1.293814052045738E-003
 dabs(Rj-Ri):           6          12  4.386371526362773E-002
 dabs(Ij+Ii):           6          12  1.293814052045738E-003
 dabs(Rj-Ri):           7          12  4.291577113688166E-002
 dabs(Ij+Ii):           7          12  1.293814052045738E-003
 dabs(Rj-Ri):           8          12  3.321894696870653E-002
 dabs(Ij+Ii):           8          12  1.293814052045738E-003
 dabs(Rj-Ri):           9          12  1.913120174373492E-002
 dabs(Ij+Ii):           9          12  1.293814052045738E-003
 dabs(Rj-Ri):          10          12  1.105552664271939E-002
 dabs(Ij+Ii):          10          12  1.293814052045738E-003
 dabs(Rj-Ri):          11          12  0.000000000000000E+000
 dabs(Ij+Ii):          11          12  0.000000000000000E+000
 dabs(Rj-Ri):          13          12  1.252252396431730E-003
 dabs(Ij+Ii):          13          12  1.293814052045738E-003
 dabs(Rj-Ri):          14          12  1.555410794572870E-002
 dabs(Ij+Ii):          14          12  1.293814052045738E-003
 dabs(Rj-Ri):          15          12  1.736602073052634E-002
 dabs(Ij+Ii):          15          12  1.293814052045738E-003
 overlap matrix for complex pair:

              1             2
 
    1     1.00000000    0.00000000
    2     0.00000000    1.00000000
 real eigenvalues of metric:

              1
 
    1     1.00000000
    2     1.00000000
 eigenvectors of metric:

              1             2
 
    1     0.98892572   -0.14841131
    2     0.14841131    0.98892572
 inverse square root of overlap matrix:

              1             2
 
    1     1.00000000   -0.00000000
    2    -0.00000000    1.00000000
 recalculated overlap matrix for complex pair:

              1             2
 
    1     1.00000000   -0.00000000
    2    -0.00000000    1.00000000
 warning> found low lying complex root...
 eigenvalues (imaginary parts) in redeig:

              1
 
    1     0.00000000
    2     0.00000000
    3     0.00000000
    4     0.00000000
    5     0.00000000
    6     0.00000000
    7     0.00000000
    8     0.00000000
    9     0.00000000
   10     0.00000000
   11    -0.00129381
   12     0.00129381
   13     0.00000000
   14     0.00000000
   15     0.00000000
 eigenvalues (real parts) in redeig:

              1
 
    1     0.13763972
    2     0.13818269
    3     0.16683224
    4     0.16933620
    5     0.19486008
    6     0.21137904
    7     0.21232698
    8     0.22202381
    9     0.23611155
   10     0.24418723
   11     0.25524275
   12     0.25524275
   13     0.25649501
   14     0.27079686
   15     0.27260877
 threshold for this macro iteration:  4.203753579757330E-003
     12      15        25.76     0.35E-01  ( 12)
 COSMO cphf update
 COSMO cphf update
 COSMO cphf update
 COSMO cphf update
 dabs(Rj-Ri):           1          11  0.116734870105954     
 dabs(Ij+Ii):           1          11  8.567147138162989E-004
 dabs(Rj-Ri):           2          11  0.116191750581344     
 dabs(Ij+Ii):           2          11  8.567147138162989E-004
 dabs(Rj-Ri):           3          11  8.754236247091168E-002
 dabs(Ij+Ii):           3          11  8.567147138162989E-004
 dabs(Rj-Ri):           4          11  8.503839087849954E-002
 dabs(Ij+Ii):           4          11  8.567147138162989E-004
 dabs(Rj-Ri):           5          11  5.951451633418495E-002
 dabs(Ij+Ii):           5          11  8.567147138162989E-004
 dabs(Rj-Ri):           6          11  4.299550493046403E-002
 dabs(Ij+Ii):           6          11  8.567147138162989E-004
 dabs(Rj-Ri):           7          11  4.204760913772887E-002
 dabs(Ij+Ii):           7          11  8.567147138162989E-004
 dabs(Rj-Ri):           8          11  3.235057889223686E-002
 dabs(Ij+Ii):           8          11  8.567147138162989E-004
 dabs(Rj-Ri):           9          11  1.826238837793825E-002
 dabs(Ij+Ii):           9          11  8.567147138162989E-004
 dabs(Rj-Ri):          10          11  1.018736464366546E-002
 dabs(Ij+Ii):          10          11  8.567147138162989E-004
 dabs(Rj-Ri):          12          11  0.000000000000000E+000
 dabs(Ij+Ii):          12          11  0.000000000000000E+000
 dabs(Rj-Ri):          13          11  2.136166320350019E-003
 dabs(Ij+Ii):          13          11  8.567147138162989E-004
 dabs(Rj-Ri):          14          11  1.642226905917071E-002
 dabs(Ij+Ii):          14          11  8.567147138162989E-004
 dabs(Rj-Ri):          15          11  1.804181127008125E-002
 dabs(Ij+Ii):          15          11  8.567147138162989E-004
 dabs(Rj-Ri):          16          11  0.160489834397910     
 dabs(Ij+Ii):          16          11  8.567147138162989E-004
 dabs(Rj-Ri):          17          11  0.197975696623875     
 dabs(Ij+Ii):          17          11  8.567147138162989E-004
 overlap matrix for complex pair:

              1             2
 
    1     0.01316691   -0.03519308
    2    -0.03519308    0.09451708
 real eigenvalues of metric:

              1
 
    1     0.00005524
    2     0.10762876
 eigenvectors of metric:

              1             2
 
    1     0.93707752   -0.34912135
    2     0.34912135    0.93707752
 inverse square root of overlap matrix:

              1             2
 
    1   118.52209276   43.02143468
    2    43.02143468   19.07638403
 recalculated overlap matrix for complex pair:

              1             2
 
    1     1.00000000    0.00000000
    2     0.00000000    1.00000000
 dabs(Rj-Ri):           1          12  0.116734870105954     
 dabs(Ij+Ii):           1          12  8.567147138162989E-004
 dabs(Rj-Ri):           2          12  0.116191750581344     
 dabs(Ij+Ii):           2          12  8.567147138162989E-004
 dabs(Rj-Ri):           3          12  8.754236247091168E-002
 dabs(Ij+Ii):           3          12  8.567147138162989E-004
 dabs(Rj-Ri):           4          12  8.503839087849954E-002
 dabs(Ij+Ii):           4          12  8.567147138162989E-004
 dabs(Rj-Ri):           5          12  5.951451633418495E-002
 dabs(Ij+Ii):           5          12  8.567147138162989E-004
 dabs(Rj-Ri):           6          12  4.299550493046403E-002
 dabs(Ij+Ii):           6          12  8.567147138162989E-004
 dabs(Rj-Ri):           7          12  4.204760913772887E-002
 dabs(Ij+Ii):           7          12  8.567147138162989E-004
 dabs(Rj-Ri):           8          12  3.235057889223686E-002
 dabs(Ij+Ii):           8          12  8.567147138162989E-004
 dabs(Rj-Ri):           9          12  1.826238837793825E-002
 dabs(Ij+Ii):           9          12  8.567147138162989E-004
 dabs(Rj-Ri):          10          12  1.018736464366546E-002
 dabs(Ij+Ii):          10          12  8.567147138162989E-004
 dabs(Rj-Ri):          11          12  0.000000000000000E+000
 dabs(Ij+Ii):          11          12  0.000000000000000E+000
 dabs(Rj-Ri):          13          12  2.136166320350019E-003
 dabs(Ij+Ii):          13          12  8.567147138162989E-004
 dabs(Rj-Ri):          14          12  1.642226905917071E-002
 dabs(Ij+Ii):          14          12  8.567147138162989E-004
 dabs(Rj-Ri):          15          12  1.804181127008125E-002
 dabs(Ij+Ii):          15          12  8.567147138162989E-004
 dabs(Rj-Ri):          16          12  0.160489834397910     
 dabs(Ij+Ii):          16          12  8.567147138162989E-004
 dabs(Rj-Ri):          17          12  0.197975696623875     
 dabs(Ij+Ii):          17          12  8.567147138162989E-004
 overlap matrix for complex pair:

              1             2
 
    1     1.00000000    0.00000000
    2     0.00000000    1.00000000
 real eigenvalues of metric:

              1
 
    1     1.00000000
    2     1.00000000
 eigenvectors of metric:

              1             2
 
    1     0.89474552    0.44657637
    2    -0.44657637    0.89474552
 inverse square root of overlap matrix:

              1             2
 
    1     1.00000000   -0.00000000
    2    -0.00000000    1.00000000
 recalculated overlap matrix for complex pair:

              1             2
 
    1     1.00000000   -0.00000000
    2     0.00000000    1.00000000
 warning> found low lying complex root...
 eigenvalues (imaginary parts) in redeig:

              1
 
    1     0.00000000
    2     0.00000000
    3     0.00000000
    4     0.00000000
    5     0.00000000
    6     0.00000000
    7     0.00000000
    8     0.00000000
    9     0.00000000
   10     0.00000000
   11    -0.00085671
   12     0.00085671
   13     0.00000000
   14     0.00000000
   15     0.00000000
   16     0.00000000
   17     0.00000000
 eigenvalues (real parts) in redeig:

              1
 
    1     0.13763972
    2     0.13818284
    3     0.16683223
    4     0.16933620
    5     0.19486008
    6     0.21137909
    7     0.21232698
    8     0.22202401
    9     0.23611220
   10     0.24418723
   11     0.25437459
   12     0.25437459
   13     0.25651076
   14     0.27079686
   15     0.27241640
   16     0.41486443
   17     0.45235029
     13       2         2.74     0.28E-01  ( 11)
 COSMO cphf update
 COSMO cphf update
 COSMO cphf update
 COSMO cphf update
 COSMO cphf update
 COSMO cphf update
 dabs(Rj-Ri):           1          11  0.116593550899150     
 dabs(Ij+Ii):           1          11  1.078186599388306E-003
 dabs(Rj-Ri):           2          11  0.116050152392073     
 dabs(Ij+Ii):           2          11  1.078186599388306E-003
 dabs(Rj-Ri):           3          11  8.740103313853223E-002
 dabs(Ij+Ii):           3          11  1.078186599388306E-003
 dabs(Rj-Ri):           4          11  8.489707172373506E-002
 dabs(Ij+Ii):           4          11  1.078186599388306E-003
 dabs(Rj-Ri):           5          11  5.937319713317338E-002
 dabs(Ij+Ii):           5          11  1.078186599388306E-003
 dabs(Rj-Ri):           6          11  4.285408397068469E-002
 dabs(Ij+Ii):           6          11  1.078186599388306E-003
 dabs(Rj-Ri):           7          11  4.190628993915133E-002
 dabs(Ij+Ii):           7          11  1.078186599388306E-003
 dabs(Rj-Ri):           8          11  3.220915845311376E-002
 dabs(Ij+Ii):           8          11  1.078186599388306E-003
 dabs(Rj-Ri):           9          11  1.812073863652669E-002
 dabs(Ij+Ii):           9          11  1.078186599388306E-003
 dabs(Rj-Ri):          10          11  1.004604543740764E-002
 dabs(Ij+Ii):          10          11  1.078186599388306E-003
 dabs(Rj-Ri):          12          11  0.000000000000000E+000
 dabs(Ij+Ii):          12          11  0.000000000000000E+000
 dabs(Rj-Ri):          13          11  2.280102412452356E-003
 dabs(Ij+Ii):          13          11  1.078186599388306E-003
 dabs(Rj-Ri):          14          11  1.656358811076358E-002
 dabs(Ij+Ii):          14          11  1.078186599388306E-003
 dabs(Rj-Ri):          15          11  1.815194496034916E-002
 dabs(Ij+Ii):          15          11  1.078186599388306E-003
 dabs(Rj-Ri):          16          11  6.325732873356921E-002
 dabs(Ij+Ii):          16          11  1.078186599388306E-003
 dabs(Rj-Ri):          17          11  0.112577615997013     
 dabs(Ij+Ii):          17          11  1.078186599388306E-003
 dabs(Rj-Ri):          18          11  0.138852879217702     
 dabs(Ij+Ii):          18          11  1.078186599388306E-003
 dabs(Rj-Ri):          19          11  0.448638144305477     
 dabs(Ij+Ii):          19          11  1.078186599388306E-003
 dabs(Rj-Ri):          20          11  0.753425234345393     
 dabs(Ij+Ii):          20          11  1.078186599388306E-003
 overlap matrix for complex pair:

              1             2
 
    1     0.02082661   -0.05171223
    2    -0.05171223    0.13025361
 real eigenvalues of metric:

              1
 
    1     0.00025584
    2     0.15082439
 eigenvectors of metric:

              1             2
 
    1     0.92918209   -0.36962229
    2     0.36962229    0.92918209
 inverse square root of overlap matrix:

              1             2
 
    1    54.33001755   20.58782293
    2    20.58782293   10.76461808
 recalculated overlap matrix for complex pair:

              1             2
 
    1     1.00000000    0.00000000
    2     0.00000000    1.00000000
 dabs(Rj-Ri):           1          12  0.116593550899150     
 dabs(Ij+Ii):           1          12  1.078186599388306E-003
 dabs(Rj-Ri):           2          12  0.116050152392073     
 dabs(Ij+Ii):           2          12  1.078186599388306E-003
 dabs(Rj-Ri):           3          12  8.740103313853223E-002
 dabs(Ij+Ii):           3          12  1.078186599388306E-003
 dabs(Rj-Ri):           4          12  8.489707172373506E-002
 dabs(Ij+Ii):           4          12  1.078186599388306E-003
 dabs(Rj-Ri):           5          12  5.937319713317338E-002
 dabs(Ij+Ii):           5          12  1.078186599388306E-003
 dabs(Rj-Ri):           6          12  4.285408397068469E-002
 dabs(Ij+Ii):           6          12  1.078186599388306E-003
 dabs(Rj-Ri):           7          12  4.190628993915133E-002
 dabs(Ij+Ii):           7          12  1.078186599388306E-003
 dabs(Rj-Ri):           8          12  3.220915845311376E-002
 dabs(Ij+Ii):           8          12  1.078186599388306E-003
 dabs(Rj-Ri):           9          12  1.812073863652669E-002
 dabs(Ij+Ii):           9          12  1.078186599388306E-003
 dabs(Rj-Ri):          10          12  1.004604543740764E-002
 dabs(Ij+Ii):          10          12  1.078186599388306E-003
 dabs(Rj-Ri):          11          12  0.000000000000000E+000
 dabs(Ij+Ii):          11          12  0.000000000000000E+000
 dabs(Rj-Ri):          13          12  2.280102412452356E-003
 dabs(Ij+Ii):          13          12  1.078186599388306E-003
 dabs(Rj-Ri):          14          12  1.656358811076358E-002
 dabs(Ij+Ii):          14          12  1.078186599388306E-003
 dabs(Rj-Ri):          15          12  1.815194496034916E-002
 dabs(Ij+Ii):          15          12  1.078186599388306E-003
 dabs(Rj-Ri):          16          12  6.325732873356921E-002
 dabs(Ij+Ii):          16          12  1.078186599388306E-003
 dabs(Rj-Ri):          17          12  0.112577615997013     
 dabs(Ij+Ii):          17          12  1.078186599388306E-003
 dabs(Rj-Ri):          18          12  0.138852879217702     
 dabs(Ij+Ii):          18          12  1.078186599388306E-003
 dabs(Rj-Ri):          19          12  0.448638144305477     
 dabs(Ij+Ii):          19          12  1.078186599388306E-003
 dabs(Rj-Ri):          20          12  0.753425234345393     
 dabs(Ij+Ii):          20          12  1.078186599388306E-003
 overlap matrix for complex pair:

              1             2
 
    1     1.00000000    0.00000000
    2     0.00000000    1.00000000
 real eigenvalues of metric:

              1
 
    1     1.00000000
    2     1.00000000
 eigenvectors of metric:

              1             2
 
    1     0.98131589   -0.19240355
    2     0.19240355    0.98131589
 inverse square root of overlap matrix:

              1             2
 
    1     1.00000000   -0.00000000
    2    -0.00000000    1.00000000
 recalculated overlap matrix for complex pair:

              1             2
 
    1     1.00000000   -0.00000000
    2     0.00000000    1.00000000
 warning> found low lying complex root...
 eigenvalues (imaginary parts) in redeig:

              1
 
    1     0.00000000
    2     0.00000000
    3     0.00000000
    4     0.00000000
    5     0.00000000
    6     0.00000000
    7     0.00000000
    8     0.00000000
    9     0.00000000
   10     0.00000000
   11    -0.00107819
   12     0.00107819
   13     0.00000000
   14     0.00000000
   15     0.00000000
   16     0.00000000
   17     0.00000000
   18     0.00000000
   19     0.00000000
   20     0.00000000
 eigenvalues (real parts) in redeig:

              1
 
    1     0.13763972
    2     0.13818312
    3     0.16683224
    4     0.16933620
    5     0.19486008
    6     0.21137919
    7     0.21232698
    8     0.22202411
    9     0.23611253
   10     0.24418723
   11     0.25423327
   12     0.25423327
   13     0.25651337
   14     0.27079686
   15     0.27238522
   16     0.31749060
   17     0.36681089
   18     0.39308615
   19     0.70287142
   20     1.00765851
     14       3         3.98     0.23E-01  ( 11)
 COSMO cphf update
 COSMO cphf update
 COSMO cphf update
 COSMO cphf update
 dabs(Rj-Ri):           1          11  0.116593855900080     
 dabs(Ij+Ii):           1          11  1.059862633760376E-003
 dabs(Rj-Ri):           2          11  0.116050405846332     
 dabs(Ij+Ii):           2          11  1.059862633760376E-003
 dabs(Rj-Ri):           3          11  8.740121833013986E-002
 dabs(Ij+Ii):           3          11  1.059862633760376E-003
 dabs(Rj-Ri):           4          11  8.489737686895960E-002
 dabs(Ij+Ii):           4          11  1.059862633760376E-003
 dabs(Rj-Ri):           5          11  5.937350215234521E-002
 dabs(Ij+Ii):           5          11  1.059862633760376E-003
 dabs(Rj-Ri):           6          11  4.285439882290926E-002
 dabs(Ij+Ii):           6          11  1.059862633760376E-003
 dabs(Rj-Ri):           7          11  4.190659496467034E-002
 dabs(Ij+Ii):           7          11  1.059862633760376E-003
 dabs(Rj-Ri):           8          11  3.220941647703909E-002
 dabs(Ij+Ii):           8          11  1.059862633760376E-003
 dabs(Rj-Ri):           9          11  1.812115961527688E-002
 dabs(Ij+Ii):           9          11  1.059862633760376E-003
 dabs(Rj-Ri):          10          11  1.004635043767751E-002
 dabs(Ij+Ii):          10          11  1.059862633760376E-003
 dabs(Rj-Ri):          12          11  0.000000000000000E+000
 dabs(Ij+Ii):          12          11  0.000000000000000E+000
 dabs(Rj-Ri):          13          11  2.279148837731004E-003
 dabs(Ij+Ii):          13          11  1.059862633760376E-003
 dabs(Rj-Ri):          14          11  1.656328311697403E-002
 dabs(Ij+Ii):          14          11  1.059862633760376E-003
 dabs(Rj-Ri):          15          11  1.815113061395002E-002
 dabs(Ij+Ii):          15          11  1.059862633760376E-003
 dabs(Rj-Ri):          16          11  5.265638772153863E-002
 dabs(Ij+Ii):          16          11  1.059862633760376E-003
 dabs(Rj-Ri):          17          11  0.103463638796512     
 dabs(Ij+Ii):          17          11  1.059862633760376E-003
 dabs(Rj-Ri):          18          11  0.111293137362525     
 dabs(Ij+Ii):          18          11  1.059862633760376E-003
 dabs(Rj-Ri):          19          11  0.185822533320450     
 dabs(Ij+Ii):          19          11  1.059862633760376E-003
 dabs(Rj-Ri):          20          11  0.266034530397138     
 dabs(Ij+Ii):          20          11  1.059862633760376E-003
 dabs(Rj-Ri):          21          11  0.458941279723865     
 dabs(Ij+Ii):          21          11  1.059862633760376E-003
 dabs(Rj-Ri):          22          11   1.23562171550959     
 dabs(Ij+Ii):          22          11  1.059862633760376E-003
 overlap matrix for complex pair:

              1             2
 
    1     0.00959987   -0.02924300
    2    -0.02924300    0.08975307
 real eigenvalues of metric:

              1
 
    1     0.00006511
    2     0.09928783
 eigenvectors of metric:

              1             2
 
    1     0.95073944   -0.30999117
    2     0.30999117    0.95073944
 inverse square root of overlap matrix:

              1             2
 
    1   112.32167473   35.58802543
    2    35.58802543   14.77717057
 recalculated overlap matrix for complex pair:

              1             2
 
    1     1.00000000   -0.00000000
    2    -0.00000000    1.00000000
 dabs(Rj-Ri):           1          12  0.116593855900080     
 dabs(Ij+Ii):           1          12  1.059862633760376E-003
 dabs(Rj-Ri):           2          12  0.116050405846332     
 dabs(Ij+Ii):           2          12  1.059862633760376E-003
 dabs(Rj-Ri):           3          12  8.740121833013986E-002
 dabs(Ij+Ii):           3          12  1.059862633760376E-003
 dabs(Rj-Ri):           4          12  8.489737686895960E-002
 dabs(Ij+Ii):           4          12  1.059862633760376E-003
 dabs(Rj-Ri):           5          12  5.937350215234521E-002
 dabs(Ij+Ii):           5          12  1.059862633760376E-003
 dabs(Rj-Ri):           6          12  4.285439882290926E-002
 dabs(Ij+Ii):           6          12  1.059862633760376E-003
 dabs(Rj-Ri):           7          12  4.190659496467034E-002
 dabs(Ij+Ii):           7          12  1.059862633760376E-003
 dabs(Rj-Ri):           8          12  3.220941647703909E-002
 dabs(Ij+Ii):           8          12  1.059862633760376E-003
 dabs(Rj-Ri):           9          12  1.812115961527688E-002
 dabs(Ij+Ii):           9          12  1.059862633760376E-003
 dabs(Rj-Ri):          10          12  1.004635043767751E-002
 dabs(Ij+Ii):          10          12  1.059862633760376E-003
 dabs(Rj-Ri):          11          12  0.000000000000000E+000
 dabs(Ij+Ii):          11          12  0.000000000000000E+000
 dabs(Rj-Ri):          13          12  2.279148837731004E-003
 dabs(Ij+Ii):          13          12  1.059862633760376E-003
 dabs(Rj-Ri):          14          12  1.656328311697403E-002
 dabs(Ij+Ii):          14          12  1.059862633760376E-003
 dabs(Rj-Ri):          15          12  1.815113061395002E-002
 dabs(Ij+Ii):          15          12  1.059862633760376E-003
 dabs(Rj-Ri):          16          12  5.265638772153863E-002
 dabs(Ij+Ii):          16          12  1.059862633760376E-003
 dabs(Rj-Ri):          17          12  0.103463638796512     
 dabs(Ij+Ii):          17          12  1.059862633760376E-003
 dabs(Rj-Ri):          18          12  0.111293137362525     
 dabs(Ij+Ii):          18          12  1.059862633760376E-003
 dabs(Rj-Ri):          19          12  0.185822533320450     
 dabs(Ij+Ii):          19          12  1.059862633760376E-003
 dabs(Rj-Ri):          20          12  0.266034530397138     
 dabs(Ij+Ii):          20          12  1.059862633760376E-003
 dabs(Rj-Ri):          21          12  0.458941279723865     
 dabs(Ij+Ii):          21          12  1.059862633760376E-003
 dabs(Rj-Ri):          22          12   1.23562171550959     
 dabs(Ij+Ii):          22          12  1.059862633760376E-003
 overlap matrix for complex pair:

              1             2
 
    1     1.00000000   -0.00000000
    2    -0.00000000    1.00000000
 real eigenvalues of metric:

              1
 
    1     1.00000000
    2     1.00000000
 eigenvectors of metric:

              1             2
 
    1     0.88604153    0.46360587
    2    -0.46360587    0.88604153
 inverse square root of overlap matrix:

              1             2
 
    1     1.00000000    0.00000000
    2     0.00000000    1.00000000
 recalculated overlap matrix for complex pair:

              1             2
 
    1     1.00000000   -0.00000000
    2     0.00000000    1.00000000
 warning> found low lying complex root...
 eigenvalues (imaginary parts) in redeig:

              1
 
    1     0.00000000
    2     0.00000000
    3     0.00000000
    4     0.00000000
    5     0.00000000
    6     0.00000000
    7     0.00000000
    8     0.00000000
    9     0.00000000
   10     0.00000000
   11    -0.00105986
   12     0.00105986
   13     0.00000000
   14     0.00000000
   15     0.00000000
   16     0.00000000
   17     0.00000000
   18     0.00000000
   19     0.00000000
   20     0.00000000
   21     0.00000000
   22     0.00000000
 eigenvalues (real parts) in redeig:

              1
 
    1     0.13763972
    2     0.13818317
    3     0.16683236
    4     0.16933620
    5     0.19486008
    6     0.21137918
    7     0.21232698
    8     0.22202416
    9     0.23611242
   10     0.24418723
   11     0.25423358
   12     0.25423358
   13     0.25651273
   14     0.27079686
   15     0.27238471
   16     0.30688996
   17     0.35769722
   18     0.36552671
   19     0.44005611
   20     0.52026811
   21     0.71317486
   22     1.48985529
     15       2         2.75     0.25E-01  ( 11)
 COSMO cphf update
 COSMO cphf update
 COSMO cphf update
 COSMO cphf update
 dabs(Rj-Ri):           1          11  0.116592721227200     
 dabs(Ij+Ii):           1          11  1.026839229984210E-003
 dabs(Rj-Ri):           2          11  0.116049512880455     
 dabs(Ij+Ii):           2          11  1.026839229984210E-003
 dabs(Rj-Ri):           3          11  8.740001247316720E-002
 dabs(Ij+Ii):           3          11  1.026839229984210E-003
 dabs(Rj-Ri):           4          11  8.489624242927285E-002
 dabs(Ij+Ii):           4          11  1.026839229984210E-003
 dabs(Rj-Ri):           5          11  5.937236751407043E-002
 dabs(Ij+Ii):           5          11  1.026839229984210E-003
 dabs(Rj-Ri):           6          11  4.285326836271111E-002
 dabs(Ij+Ii):           6          11  1.026839229984210E-003
 dabs(Rj-Ri):           7          11  4.190546034282736E-002
 dabs(Ij+Ii):           7          11  1.026839229984210E-003
 dabs(Rj-Ri):           8          11  3.220846373101091E-002
 dabs(Ij+Ii):           8          11  1.026839229984210E-003
 dabs(Rj-Ri):           9          11  1.812024899824732E-002
 dabs(Ij+Ii):           9          11  1.026839229984210E-003
 dabs(Rj-Ri):          10          11  1.004521576289269E-002
 dabs(Ij+Ii):          10          11  1.026839229984210E-003
 dabs(Rj-Ri):          12          11  0.000000000000000E+000
 dabs(Ij+Ii):          12          11  0.000000000000000E+000
 dabs(Rj-Ri):          13          11  2.279556539227512E-003
 dabs(Ij+Ii):          13          11  1.026839229984210E-003
 dabs(Rj-Ri):          14          11  1.656441779256629E-002
 dabs(Ij+Ii):          14          11  1.026839229984210E-003
 dabs(Rj-Ri):          15          11  1.814947819496598E-002
 dabs(Ij+Ii):          15          11  1.026839229984210E-003
 dabs(Rj-Ri):          16          11  2.828544832529456E-002
 dabs(Ij+Ii):          16          11  1.026839229984210E-003
 dabs(Rj-Ri):          17          11  7.124889056250577E-002
 dabs(Ij+Ii):          17          11  1.026839229984210E-003
 dabs(Rj-Ri):          18          11  7.790983252311257E-002
 dabs(Ij+Ii):          18          11  1.026839229984210E-003
 dabs(Rj-Ri):          19          11  0.111462277807987     
 dabs(Ij+Ii):          19          11  1.026839229984210E-003
 dabs(Rj-Ri):          20          11  0.185369811940917     
 dabs(Ij+Ii):          20          11  1.026839229984210E-003
 dabs(Rj-Ri):          21          11  0.394474856446289     
 dabs(Ij+Ii):          21          11  1.026839229984210E-003
 dabs(Rj-Ri):          22          11  0.468029252453525     
 dabs(Ij+Ii):          22          11  1.026839229984210E-003
 dabs(Rj-Ri):          23          11  0.679883289855728     
 dabs(Ij+Ii):          23          11  1.026839229984210E-003
 dabs(Rj-Ri):          24          11   1.46291126433553     
 dabs(Ij+Ii):          24          11  1.026839229984210E-003
 overlap matrix for complex pair:

              1             2
 
    1     0.82703868    0.11758664
    2     0.11758664    0.01684104
 real eigenvalues of metric:

              1
 
    1     0.84375934
    2     0.00012038
 eigenvectors of metric:

              1             2
 
    1     0.99004056   -0.14078241
    2     0.14078241    0.99004056
 inverse square root of overlap matrix:

              1             2
 
    1     2.87350102  -12.55177371
    2   -12.55177371   89.35796142
 recalculated overlap matrix for complex pair:

              1             2
 
    1     1.00000000   -0.00000000
    2     0.00000000    1.00000000
 dabs(Rj-Ri):           1          12  0.116592721227200     
 dabs(Ij+Ii):           1          12  1.026839229984210E-003
 dabs(Rj-Ri):           2          12  0.116049512880455     
 dabs(Ij+Ii):           2          12  1.026839229984210E-003
 dabs(Rj-Ri):           3          12  8.740001247316720E-002
 dabs(Ij+Ii):           3          12  1.026839229984210E-003
 dabs(Rj-Ri):           4          12  8.489624242927285E-002
 dabs(Ij+Ii):           4          12  1.026839229984210E-003
 dabs(Rj-Ri):           5          12  5.937236751407043E-002
 dabs(Ij+Ii):           5          12  1.026839229984210E-003
 dabs(Rj-Ri):           6          12  4.285326836271111E-002
 dabs(Ij+Ii):           6          12  1.026839229984210E-003
 dabs(Rj-Ri):           7          12  4.190546034282736E-002
 dabs(Ij+Ii):           7          12  1.026839229984210E-003
 dabs(Rj-Ri):           8          12  3.220846373101091E-002
 dabs(Ij+Ii):           8          12  1.026839229984210E-003
 dabs(Rj-Ri):           9          12  1.812024899824732E-002
 dabs(Ij+Ii):           9          12  1.026839229984210E-003
 dabs(Rj-Ri):          10          12  1.004521576289269E-002
 dabs(Ij+Ii):          10          12  1.026839229984210E-003
 dabs(Rj-Ri):          11          12  0.000000000000000E+000
 dabs(Ij+Ii):          11          12  0.000000000000000E+000
 dabs(Rj-Ri):          13          12  2.279556539227512E-003
 dabs(Ij+Ii):          13          12  1.026839229984210E-003
 dabs(Rj-Ri):          14          12  1.656441779256629E-002
 dabs(Ij+Ii):          14          12  1.026839229984210E-003
 dabs(Rj-Ri):          15          12  1.814947819496598E-002
 dabs(Ij+Ii):          15          12  1.026839229984210E-003
 dabs(Rj-Ri):          16          12  2.828544832529456E-002
 dabs(Ij+Ii):          16          12  1.026839229984210E-003
 dabs(Rj-Ri):          17          12  7.124889056250577E-002
 dabs(Ij+Ii):          17          12  1.026839229984210E-003
 dabs(Rj-Ri):          18          12  7.790983252311257E-002
 dabs(Ij+Ii):          18          12  1.026839229984210E-003
 dabs(Rj-Ri):          19          12  0.111462277807987     
 dabs(Ij+Ii):          19          12  1.026839229984210E-003
 dabs(Rj-Ri):          20          12  0.185369811940917     
 dabs(Ij+Ii):          20          12  1.026839229984210E-003
 dabs(Rj-Ri):          21          12  0.394474856446289     
 dabs(Ij+Ii):          21          12  1.026839229984210E-003
 dabs(Rj-Ri):          22          12  0.468029252453525     
 dabs(Ij+Ii):          22          12  1.026839229984210E-003
 dabs(Rj-Ri):          23          12  0.679883289855728     
 dabs(Ij+Ii):          23          12  1.026839229984210E-003
 dabs(Rj-Ri):          24          12   1.46291126433553     
 dabs(Ij+Ii):          24          12  1.026839229984210E-003
 overlap matrix for complex pair:

              1             2
 
    1     1.00000000    0.00000000
    2    -0.00000000    1.00000000
 real eigenvalues of metric:

              1
 
    1     1.00000000
    2     1.00000000
 eigenvectors of metric:

              1             2
 
    1     0.73610881   -0.67686322
    2     0.67686322    0.73610881
 inverse square root of overlap matrix:

              1             2
 
    1     1.00000000   -0.00000000
    2    -0.00000000    1.00000000
 recalculated overlap matrix for complex pair:

              1             2
 
    1     1.00000000    0.00000000
    2    -0.00000000    1.00000000
 warning> found low lying complex root...
 eigenvalues (imaginary parts) in redeig:

              1
 
    1     0.00000000
    2     0.00000000
    3     0.00000000
    4     0.00000000
    5     0.00000000
    6     0.00000000
    7     0.00000000
    8     0.00000000
    9     0.00000000
   10     0.00000000
   11    -0.00102684
   12     0.00102684
   13     0.00000000
   14     0.00000000
   15     0.00000000
   16     0.00000000
   17     0.00000000
   18     0.00000000
   19     0.00000000
   20     0.00000000
   21     0.00000000
   22     0.00000000
   23     0.00000000
   24     0.00000000
 eigenvalues (real parts) in redeig:

              1
 
    1     0.13763972
    2     0.13818293
    3     0.16683243
    4     0.16933620
    5     0.19486007
    6     0.21137917
    7     0.21232698
    8     0.22202398
    9     0.23611219
   10     0.24418723
   11     0.25423244
   12     0.25423244
   13     0.25651200
   14     0.27079686
   15     0.27238192
   16     0.28251789
   17     0.32548133
   18     0.33214228
   19     0.36569472
   20     0.43960225
   21     0.64870730
   22     0.72226169
   23     0.93411573
   24     1.71714371
     16       2         2.75     0.25E-01  ( 12)
 COSMO cphf update
 COSMO cphf update
 COSMO cphf update
 COSMO cphf update
 dabs(Rj-Ri):           1          11  0.116593619734818     
 dabs(Ij+Ii):           1          11  1.014619612244467E-003
 dabs(Rj-Ri):           2          11  0.116050387232222     
 dabs(Ij+Ii):           2          11  1.014619612244467E-003
 dabs(Rj-Ri):           3          11  8.740139954454856E-002
 dabs(Ij+Ii):           3          11  1.014619612244467E-003
 dabs(Rj-Ri):           4          11  8.489714106423005E-002
 dabs(Ij+Ii):           4          11  1.014619612244467E-003
 dabs(Rj-Ri):           5          11  5.937326605694820E-002
 dabs(Ij+Ii):           5          11  1.014619612244467E-003
 dabs(Rj-Ri):           6          11  4.285414212576019E-002
 dabs(Ij+Ii):           6          11  1.014619612244467E-003
 dabs(Rj-Ri):           7          11  4.190635889648128E-002
 dabs(Ij+Ii):           7          11  1.014619612244467E-003
 dabs(Rj-Ri):           8          11  3.220936410367392E-002
 dabs(Ij+Ii):           8          11  1.014619612244467E-003
 dabs(Rj-Ri):           9          11  1.812124452771294E-002
 dabs(Ij+Ii):           9          11  1.014619612244467E-003
 dabs(Rj-Ri):          10          11  1.004611426741436E-002
 dabs(Ij+Ii):          10          11  1.014619612244467E-003
 dabs(Rj-Ri):          12          11  0.000000000000000E+000
 dabs(Ij+Ii):          12          11  0.000000000000000E+000
 dabs(Rj-Ri):          13          11  2.277923300386175E-003
 dabs(Ij+Ii):          13          11  1.014619612244467E-003
 dabs(Rj-Ri):          14          11  1.106412520841371E-002
 dabs(Ij+Ii):          14          11  1.014619612244467E-003
 dabs(Rj-Ri):          15          11  1.656351928965416E-002
 dabs(Ij+Ii):          15          11  1.014619612244467E-003
 dabs(Rj-Ri):          16          11  1.815414193178144E-002
 dabs(Ij+Ii):          16          11  1.014619612244467E-003
 dabs(Rj-Ri):          17          11  6.276963364793658E-002
 dabs(Ij+Ii):          17          11  1.014619612244467E-003
 dabs(Rj-Ri):          18          11  6.668822916066414E-002
 dabs(Ij+Ii):          18          11  1.014619612244467E-003
 dabs(Rj-Ri):          19          11  0.107695170009151     
 dabs(Ij+Ii):          19          11  1.014619612244467E-003
 dabs(Rj-Ri):          20          11  0.150545432445757     
 dabs(Ij+Ii):          20          11  1.014619612244467E-003
 dabs(Rj-Ri):          21          11  0.246247033187468     
 dabs(Ij+Ii):          21          11  1.014619612244467E-003
 dabs(Rj-Ri):          22          11  0.334486868033938     
 dabs(Ij+Ii):          22          11  1.014619612244467E-003
 dabs(Rj-Ri):          23          11  0.480382994958235     
 dabs(Ij+Ii):          23          11  1.014619612244467E-003
 dabs(Rj-Ri):          24          11  0.863620483010412     
 dabs(Ij+Ii):          24          11  1.014619612244467E-003
 dabs(Rj-Ri):          25          11   1.05829915202929     
 dabs(Ij+Ii):          25          11  1.014619612244467E-003
 dabs(Rj-Ri):          26          11   1.50845068637156     
 dabs(Ij+Ii):          26          11  1.014619612244467E-003
 overlap matrix for complex pair:

              1             2
 
    1     0.04019589    0.00933173
    2     0.00933173    0.00225909
 real eigenvalues of metric:

              1
 
    1     0.04236706
    2     0.00008792
 eigenvectors of metric:

              1             2
 
    1     0.97398501   -0.22661243
    2     0.22661243    0.97398501
 inverse square root of overlap matrix:

              1             2
 
    1    10.08560361  -22.46698791
    2   -22.46698791  101.42190543
 recalculated overlap matrix for complex pair:

              1             2
 
    1     1.00000000   -0.00000000
    2    -0.00000000    1.00000000
 dabs(Rj-Ri):           1          12  0.116593619734818     
 dabs(Ij+Ii):           1          12  1.014619612244467E-003
 dabs(Rj-Ri):           2          12  0.116050387232222     
 dabs(Ij+Ii):           2          12  1.014619612244467E-003
 dabs(Rj-Ri):           3          12  8.740139954454856E-002
 dabs(Ij+Ii):           3          12  1.014619612244467E-003
 dabs(Rj-Ri):           4          12  8.489714106423005E-002
 dabs(Ij+Ii):           4          12  1.014619612244467E-003
 dabs(Rj-Ri):           5          12  5.937326605694820E-002
 dabs(Ij+Ii):           5          12  1.014619612244467E-003
 dabs(Rj-Ri):           6          12  4.285414212576019E-002
 dabs(Ij+Ii):           6          12  1.014619612244467E-003
 dabs(Rj-Ri):           7          12  4.190635889648128E-002
 dabs(Ij+Ii):           7          12  1.014619612244467E-003
 dabs(Rj-Ri):           8          12  3.220936410367392E-002
 dabs(Ij+Ii):           8          12  1.014619612244467E-003
 dabs(Rj-Ri):           9          12  1.812124452771294E-002
 dabs(Ij+Ii):           9          12  1.014619612244467E-003
 dabs(Rj-Ri):          10          12  1.004611426741436E-002
 dabs(Ij+Ii):          10          12  1.014619612244467E-003
 dabs(Rj-Ri):          11          12  0.000000000000000E+000
 dabs(Ij+Ii):          11          12  0.000000000000000E+000
 dabs(Rj-Ri):          13          12  2.277923300386175E-003
 dabs(Ij+Ii):          13          12  1.014619612244467E-003
 dabs(Rj-Ri):          14          12  1.106412520841371E-002
 dabs(Ij+Ii):          14          12  1.014619612244467E-003
 dabs(Rj-Ri):          15          12  1.656351928965416E-002
 dabs(Ij+Ii):          15          12  1.014619612244467E-003
 dabs(Rj-Ri):          16          12  1.815414193178144E-002
 dabs(Ij+Ii):          16          12  1.014619612244467E-003
 dabs(Rj-Ri):          17          12  6.276963364793658E-002
 dabs(Ij+Ii):          17          12  1.014619612244467E-003
 dabs(Rj-Ri):          18          12  6.668822916066414E-002
 dabs(Ij+Ii):          18          12  1.014619612244467E-003
 dabs(Rj-Ri):          19          12  0.107695170009151     
 dabs(Ij+Ii):          19          12  1.014619612244467E-003
 dabs(Rj-Ri):          20          12  0.150545432445757     
 dabs(Ij+Ii):          20          12  1.014619612244467E-003
 dabs(Rj-Ri):          21          12  0.246247033187468     
 dabs(Ij+Ii):          21          12  1.014619612244467E-003
 dabs(Rj-Ri):          22          12  0.334486868033938     
 dabs(Ij+Ii):          22          12  1.014619612244467E-003
 dabs(Rj-Ri):          23          12  0.480382994958235     
 dabs(Ij+Ii):          23          12  1.014619612244467E-003
 dabs(Rj-Ri):          24          12  0.863620483010412     
 dabs(Ij+Ii):          24          12  1.014619612244467E-003
 dabs(Rj-Ri):          25          12   1.05829915202929     
 dabs(Ij+Ii):          25          12  1.014619612244467E-003
 dabs(Rj-Ri):          26          12   1.50845068637156     
 dabs(Ij+Ii):          26          12  1.014619612244467E-003
 overlap matrix for complex pair:

              1             2
 
    1     1.00000000   -0.00000000
    2    -0.00000000    1.00000000
 real eigenvalues of metric:

              1
 
    1     1.00000000
    2     1.00000000
 eigenvectors of metric:

              1             2
 
    1     0.97241551    0.23325537
    2    -0.23325537    0.97241551
 inverse square root of overlap matrix:

              1             2
 
    1     1.00000000    0.00000000
    2     0.00000000    1.00000000
 recalculated overlap matrix for complex pair:

              1             2
 
    1     1.00000000    0.00000000
    2     0.00000000    1.00000000
 warning> found low lying complex root...
 eigenvalues (imaginary parts) in redeig:

              1
 
    1     0.00000000
    2     0.00000000
    3     0.00000000
    4     0.00000000
    5     0.00000000
    6     0.00000000
    7     0.00000000
    8     0.00000000
    9     0.00000000
   10     0.00000000
   11    -0.00101462
   12     0.00101462
   13     0.00000000
   14     0.00000000
   15     0.00000000
   16     0.00000000
   17     0.00000000
   18     0.00000000
   19     0.00000000
   20     0.00000000
   21     0.00000000
   22     0.00000000
   23     0.00000000
   24     0.00000000
   25     0.00000000
   26     0.00000000
 eigenvalues (real parts) in redeig:

              1
 
    1     0.13763972
    2     0.13818295
    3     0.16683194
    4     0.16933620
    5     0.19486007
    6     0.21137920
    7     0.21232698
    8     0.22202398
    9     0.23611210
   10     0.24418723
   11     0.25423334
   12     0.25423334
   13     0.25651126
   14     0.26529747
   15     0.27079686
   16     0.27238748
   17     0.31700297
   18     0.32092157
   19     0.36192851
   20     0.40477877
   21     0.50048037
   22     0.58872021
   23     0.73461634
   24     1.11785382
   25     1.31253249
   26     1.76268403
 ...adapted threshold to:  5.531487469453922E-003
     17       2         2.70     0.47E-01  ( 14)
 COSMO cphf update
 COSMO cphf update
 COSMO cphf update
 COSMO cphf update
 COSMO cphf update
 COSMO cphf update
 dabs(Rj-Ri):           1          11  0.116596857864040     
 dabs(Ij+Ii):           1          11  9.912064477286063E-004
 dabs(Rj-Ri):           2          11  0.116053540241926     
 dabs(Ij+Ii):           2          11  9.912064477286063E-004
 dabs(Rj-Ri):           3          11  8.740539292440522E-002
 dabs(Ij+Ii):           3          11  9.912064477286063E-004
 dabs(Rj-Ri):           4          11  8.490037968268371E-002
 dabs(Ij+Ii):           4          11  9.912064477286063E-004
 dabs(Rj-Ri):           5          11  5.937650425377358E-002
 dabs(Ij+Ii):           5          11  9.912064477286063E-004
 dabs(Rj-Ri):           6          11  4.285738114579046E-002
 dabs(Ij+Ii):           6          11  9.912064477286063E-004
 dabs(Rj-Ri):           7          11  4.190959708166139E-002
 dabs(Ij+Ii):           7          11  9.912064477286063E-004
 dabs(Rj-Ri):           8          11  3.221258418379869E-002
 dabs(Ij+Ii):           8          11  9.912064477286063E-004
 dabs(Rj-Ri):           9          11  1.812449633388533E-002
 dabs(Ij+Ii):           9          11  9.912064477286063E-004
 dabs(Rj-Ri):          10          11  1.004935238058699E-002
 dabs(Ij+Ii):          10          11  9.912064477286063E-004
 dabs(Rj-Ri):          12          11  0.000000000000000E+000
 dabs(Ij+Ii):          12          11  0.000000000000000E+000
 dabs(Rj-Ri):          13          11  2.274880715063987E-003
 dabs(Ij+Ii):          13          11  9.912064477286063E-004
 dabs(Rj-Ri):          14          11  6.753513507145315E-003
 dabs(Ij+Ii):          14          11  9.912064477286063E-004
 dabs(Rj-Ri):          15          11  1.656028118492175E-002
 dabs(Ij+Ii):          15          11  9.912064477286063E-004
 dabs(Rj-Ri):          16          11  1.815060235493116E-002
 dabs(Ij+Ii):          16          11  9.912064477286063E-004
 dabs(Rj-Ri):          17          11  5.750784823885940E-002
 dabs(Ij+Ii):          17          11  9.912064477286063E-004
 dabs(Rj-Ri):          18          11  6.279432611548885E-002
 dabs(Ij+Ii):          18          11  9.912064477286063E-004
 dabs(Rj-Ri):          19          11  8.963114917532816E-002
 dabs(Ij+Ii):          19          11  9.912064477286063E-004
 dabs(Rj-Ri):          20          11  0.116801017902305     
 dabs(Ij+Ii):          20          11  9.912064477286063E-004
 dabs(Rj-Ri):          21          11  0.195203546933861     
 dabs(Ij+Ii):          21          11  9.912064477286063E-004
 dabs(Rj-Ri):          22          11  0.224509681945703     
 dabs(Ij+Ii):          22          11  9.912064477286063E-004
 dabs(Rj-Ri):          23          11  0.251561863760561     
 dabs(Ij+Ii):          23          11  9.912064477286063E-004
 dabs(Rj-Ri):          24          11  0.351545061939329     
 dabs(Ij+Ii):          24          11  9.912064477286063E-004
 dabs(Rj-Ri):          25          11  0.477278472801276     
 dabs(Ij+Ii):          25          11  9.912064477286063E-004
 dabs(Rj-Ri):          26          11  0.808992882188924     
 dabs(Ij+Ii):          26          11  9.912064477286063E-004
 dabs(Rj-Ri):          27          11   1.01668242749558     
 dabs(Ij+Ii):          27          11  9.912064477286063E-004
 dabs(Rj-Ri):          28          11   1.41481578183202     
 dabs(Ij+Ii):          28          11  9.912064477286063E-004
 dabs(Rj-Ri):          29          11   1.52896421174424     
 dabs(Ij+Ii):          29          11  9.912064477286063E-004
 overlap matrix for complex pair:

              1             2
 
    1     0.02508754   -0.02208491
    2    -0.02208491    0.01999033
 real eigenvalues of metric:

              1
 
    1     0.04477041
    2     0.00030746
 eigenvectors of metric:

              1             2
 
    1     0.74653853    0.66534219
    2    -0.66534219    0.74653853
 inverse square root of overlap matrix:

              1             2
 
    1    27.88024238   25.97978462
    2    25.97978462   33.87639540
 recalculated overlap matrix for complex pair:

              1             2
 
    1     1.00000000    0.00000000
    2    -0.00000000    1.00000000
 dabs(Rj-Ri):           1          12  0.116596857864040     
 dabs(Ij+Ii):           1          12  9.912064477286063E-004
 dabs(Rj-Ri):           2          12  0.116053540241926     
 dabs(Ij+Ii):           2          12  9.912064477286063E-004
 dabs(Rj-Ri):           3          12  8.740539292440522E-002
 dabs(Ij+Ii):           3          12  9.912064477286063E-004
 dabs(Rj-Ri):           4          12  8.490037968268371E-002
 dabs(Ij+Ii):           4          12  9.912064477286063E-004
 dabs(Rj-Ri):           5          12  5.937650425377358E-002
 dabs(Ij+Ii):           5          12  9.912064477286063E-004
 dabs(Rj-Ri):           6          12  4.285738114579046E-002
 dabs(Ij+Ii):           6          12  9.912064477286063E-004
 dabs(Rj-Ri):           7          12  4.190959708166139E-002
 dabs(Ij+Ii):           7          12  9.912064477286063E-004
 dabs(Rj-Ri):           8          12  3.221258418379869E-002
 dabs(Ij+Ii):           8          12  9.912064477286063E-004
 dabs(Rj-Ri):           9          12  1.812449633388533E-002
 dabs(Ij+Ii):           9          12  9.912064477286063E-004
 dabs(Rj-Ri):          10          12  1.004935238058699E-002
 dabs(Ij+Ii):          10          12  9.912064477286063E-004
 dabs(Rj-Ri):          11          12  0.000000000000000E+000
 dabs(Ij+Ii):          11          12  0.000000000000000E+000
 dabs(Rj-Ri):          13          12  2.274880715063987E-003
 dabs(Ij+Ii):          13          12  9.912064477286063E-004
 dabs(Rj-Ri):          14          12  6.753513507145315E-003
 dabs(Ij+Ii):          14          12  9.912064477286063E-004
 dabs(Rj-Ri):          15          12  1.656028118492175E-002
 dabs(Ij+Ii):          15          12  9.912064477286063E-004
 dabs(Rj-Ri):          16          12  1.815060235493116E-002
 dabs(Ij+Ii):          16          12  9.912064477286063E-004
 dabs(Rj-Ri):          17          12  5.750784823885940E-002
 dabs(Ij+Ii):          17          12  9.912064477286063E-004
 dabs(Rj-Ri):          18          12  6.279432611548885E-002
 dabs(Ij+Ii):          18          12  9.912064477286063E-004
 dabs(Rj-Ri):          19          12  8.963114917532816E-002
 dabs(Ij+Ii):          19          12  9.912064477286063E-004
 dabs(Rj-Ri):          20          12  0.116801017902305     
 dabs(Ij+Ii):          20          12  9.912064477286063E-004
 dabs(Rj-Ri):          21          12  0.195203546933861     
 dabs(Ij+Ii):          21          12  9.912064477286063E-004
 dabs(Rj-Ri):          22          12  0.224509681945703     
 dabs(Ij+Ii):          22          12  9.912064477286063E-004
 dabs(Rj-Ri):          23          12  0.251561863760561     
 dabs(Ij+Ii):          23          12  9.912064477286063E-004
 dabs(Rj-Ri):          24          12  0.351545061939329     
 dabs(Ij+Ii):          24          12  9.912064477286063E-004
 dabs(Rj-Ri):          25          12  0.477278472801276     
 dabs(Ij+Ii):          25          12  9.912064477286063E-004
 dabs(Rj-Ri):          26          12  0.808992882188924     
 dabs(Ij+Ii):          26          12  9.912064477286063E-004
 dabs(Rj-Ri):          27          12   1.01668242749558     
 dabs(Ij+Ii):          27          12  9.912064477286063E-004
 dabs(Rj-Ri):          28          12   1.41481578183202     
 dabs(Ij+Ii):          28          12  9.912064477286063E-004
 dabs(Rj-Ri):          29          12   1.52896421174424     
 dabs(Ij+Ii):          29          12  9.912064477286063E-004
 overlap matrix for complex pair:

              1             2
 
    1     1.00000000   -0.00000000
    2     0.00000000    1.00000000
 real eigenvalues of metric:

              1
 
    1     1.00000000
    2     1.00000000
 eigenvectors of metric:

              1             2
 
    1     0.75850660   -0.65166535
    2     0.65166535    0.75850660
 inverse square root of overlap matrix:

              1             2
 
    1     1.00000000    0.00000000
    2     0.00000000    1.00000000
 recalculated overlap matrix for complex pair:

              1             2
 
    1     1.00000000   -0.00000000
    2     0.00000000    1.00000000
 warning> found low lying complex root...
 eigenvalues (imaginary parts) in redeig:

              1
 
    1     0.00000000
    2     0.00000000
    3     0.00000000
    4     0.00000000
    5     0.00000000
    6     0.00000000
    7     0.00000000
    8     0.00000000
    9     0.00000000
   10     0.00000000
   11    -0.00099121
   12     0.00099121
   13     0.00000000
   14     0.00000000
   15     0.00000000
   16     0.00000000
   17     0.00000000
   18     0.00000000
   19     0.00000000
   20     0.00000000
   21     0.00000000
   22     0.00000000
   23     0.00000000
   24     0.00000000
   25     0.00000000
   26     0.00000000
   27     0.00000000
   28     0.00000000
   29     0.00000000
 eigenvalues (real parts) in redeig:

              1
 
    1     0.13763972
    2     0.13818304
    3     0.16683119
    4     0.16933620
    5     0.19486007
    6     0.21137920
    7     0.21232698
    8     0.22202399
    9     0.23611208
   10     0.24418723
   11     0.25423658
   12     0.25423658
   13     0.25651146
   14     0.26099009
   15     0.27079686
   16     0.27238718
   17     0.31174443
   18     0.31703091
   19     0.34386773
   20     0.37103760
   21     0.44944013
   22     0.47874626
   23     0.50579844
   24     0.60578164
   25     0.73151505
   26     1.06322946
   27     1.27091901
   28     1.66905236
   29     1.78320079
[...]
 | E_exci (ground to x state)      |     0.23610742  |
 | Correction for fast part of RF  |    -0.00129436  |
 | Correction for update of eq. RF |     0.00000152  |
 +---------------------------------+-----------------+


  +=========================================================================+
  |  Excited state reached by transition:                   model: ADC(2)   |
  |    number, symmetry, multiplicity:   10 a    1                          |
  |    frequency :   0.2441870433 a.u.     6.64467 e.V.     53592.9 rcm     |
  +=========================================================================+

      Total energy of excited state:    -491.1798404562

   +-----------------+-----------------+-----------------+-----------------+
   | operator        | expect. value   | electr. contrib.| diff to gr.st.  |
   +-----------------+-----------------+-----------------+-----------------+
   | xdiplen (unrel) |     -3.21031880 |    -91.30667730 |      0.59371117 |
   | xdiplen (relax) |     -2.79721452 |    -90.89357302 |       ---       |
   | ydiplen (unrel) |     -0.00168264 |     -0.00169162 |     -0.00177978 |
   | ydiplen (relax) |     -0.00150890 |     -0.00151788 |       ---       |
   | zdiplen (unrel) |      0.13026782 |      1.86936240 |     -0.09592973 |
   | zdiplen (relax) |      0.14108479 |      1.88017937 |       ---       |
   +-----------------+-----------------+-----------------+-----------------+


     Analysis of relaxed properties:
     ===============================


     dipole moment:
     --------------

     x     -2.79721452
     y     -0.00150890
     z      0.14108479

     | dipole moment | =      2.80077066 a.u. =      7.11884826 debye
 


     Analysis of unrelaxed properties:
     =================================


     dipole moment:
     --------------

     x     -3.21031880
     y     -0.00168264
     z      0.13026782

     | dipole moment | =      3.21296115 a.u. =      8.16653188 debye
 

 +---------------------------------+-----------------+
 |   Nonequilibrium solvation      |                 |
 +---------------------------------+-----------------+
 |   E_x_(y) is the total free energy of target      |
 |   state x in the reaction field (RF)              |
 |   equilibrated for state y                        |
 +---------------------------------+-----------------+
 | E_x_(y)                         |  -491.18235370  |
 | E_x_(y) (+OCC)                  |  -491.18462659  |
 | Outlying charge correction(OCC) |    -0.00227289  |
 | E_SCF with RF of state y        |  -489.41978793  |
 | E_corr (ground state)           |    -2.00423957  |
 | E_exci (ground to x state)      |     0.24418704  |
 | Correction for fast part of RF  |    -0.00251338  |
 | Correction for update of eq. RF |     0.00000014  |
 +---------------------------------+-----------------+


  +=========================================================================+
  |  Excited state reached by transition:                   model: ADC(2)   |
  |    number, symmetry, multiplicity:   11 a    1                          |
  |    frequency :   0.2535329275 a.u.     6.89898 e.V.     55644.0 rcm     |
  +=========================================================================+

      Total energy of excited state:    -491.1704945720

   +-----------------+-----------------+-----------------+-----------------+
   | operator        | expect. value   | electr. contrib.| diff to gr.st.  |
   +-----------------+-----------------+-----------------+-----------------+
   | xdiplen (unrel) |     -6.87502072 |    -94.97137922 |     -3.07099075 |
   | xdiplen (relax) |     -6.36029842 |    -94.45665692 |       ---       |
   | ydiplen (unrel) |      0.00003604 |      0.00002705 |     -0.00006111 |
   | ydiplen (relax) |      0.00009806 |      0.00008908 |       ---       |
   | zdiplen (unrel) |      0.19045173 |      1.92954631 |     -0.03574582 |
   | zdiplen (relax) |      0.19937912 |      1.93847370 |       ---       |
   +-----------------+-----------------+-----------------+-----------------+


     Analysis of relaxed properties:
     ===============================


     dipole moment:
     --------------

     x     -6.36029842
     y      0.00009806
     z      0.19937912

     | dipole moment | =      6.36342267 a.u. =     16.17420557 debye
 


     Analysis of unrelaxed properties:
     =================================


     dipole moment:
     --------------

     x     -6.87502072
     y      0.00003604
     z      0.19045173

     | dipole moment | =      6.87765816 a.u. =     17.48126169 debye
 

 +---------------------------------+-----------------+
 |   Nonequilibrium solvation      |                 |
 +---------------------------------+-----------------+
 |   E_x_(y) is the total free energy of target      |
 |   state x in the reaction field (RF)              |
 |   equilibrated for state y                        |
 +---------------------------------+-----------------+
 | E_x_(y)                         |  -491.17349967  |
 | E_x_(y) (+OCC)                  |  -491.17393703  |
 | Outlying charge correction(OCC) |    -0.00043736  |
 | E_SCF with RF of state y        |  -489.41978793  |
 | E_corr (ground state)           |    -2.00423957  |
 | E_exci (ground to x state)      |     0.25353293  |
 | Correction for fast part of RF  |    -0.00301038  |
 | Correction for update of eq. RF |     0.00000529  |
 +---------------------------------+-----------------+


  +=========================================================================+
  |  Excited state reached by transition:                   model: ADC(2)   |
  |    number, symmetry, multiplicity:   12 a    1                          |
  |    frequency :   0.2558053976 a.u.     6.96082 e.V.     56142.8 rcm     |
  +=========================================================================+

      Total energy of excited state:    -491.1682221019

   +-----------------+-----------------+-----------------+-----------------+
   | operator        | expect. value   | electr. contrib.| diff to gr.st.  |
   +-----------------+-----------------+-----------------+-----------------+
   | xdiplen (unrel) |     -4.86498927 |    -92.96134777 |     -1.06095930 |
   | xdiplen (relax) |     -4.31288150 |    -92.40924000 |       ---       |
   | ydiplen (unrel) |      0.00214285 |      0.00213387 |      0.00204571 |
   | ydiplen (relax) |      0.00193942 |      0.00193043 |       ---       |
   | zdiplen (unrel) |      0.17082605 |      1.90992063 |     -0.05537150 |
   | zdiplen (relax) |      0.17594884 |      1.91504342 |       ---       |
   +-----------------+-----------------+-----------------+-----------------+


     Analysis of relaxed properties:
     ===============================


     dipole moment:
     --------------

     x     -4.31288150
     y      0.00193942
     z      0.17594884

     | dipole moment | =      4.31646946 a.u. =     10.97136998 debye
 


     Analysis of unrelaxed properties:
     =================================


     dipole moment:
     --------------

     x     -4.86498927
     y      0.00214285
     z      0.17082605

     | dipole moment | =      4.86798796 a.u. =     12.37319003 debye
 

 +---------------------------------+-----------------+
 |   Nonequilibrium solvation      |                 |
 +---------------------------------+-----------------+
 |   E_x_(y) is the total free energy of target      |
 |   state x in the reaction field (RF)              |
 |   equilibrated for state y                        |
 +---------------------------------+-----------------+
 | E_x_(y)                         |  -491.17011862  |
 | E_x_(y) (+OCC)                  |  -491.17190552  |
 | Outlying charge correction(OCC) |    -0.00178690  |
 | E_SCF with RF of state y        |  -489.41978793  |
 | E_corr (ground state)           |    -2.00423957  |
 | E_exci (ground to x state)      |     0.25580540  |
 | Correction for fast part of RF  |    -0.00189743  |
 | Correction for update of eq. RF |     0.00000091  |
 +---------------------------------+-----------------+


  +=========================================================================+
  |  Excited state reached by transition:                   model: ADC(2)   |
  |    number, symmetry, multiplicity:   13 a    1                          |
  |    frequency :   0.2565144680 a.u.     6.98011 e.V.     56298.4 rcm     |
  +=========================================================================+

      Total energy of excited state:    -491.1675130316

   +-----------------+-----------------+-----------------+-----------------+
   | operator        | expect. value   | electr. contrib.| diff to gr.st.  |
   +-----------------+-----------------+-----------------+-----------------+
   | xdiplen (unrel) |     -3.98064672 |    -92.07700521 |     -0.17661674 |
   | xdiplen (relax) |     -3.53874071 |    -91.63509921 |       ---       |
   | ydiplen (unrel) |      0.00039650 |      0.00038752 |      0.00029936 |
   | ydiplen (relax) |      0.00021475 |      0.00020577 |       ---       |
   | zdiplen (unrel) |      0.23442045 |      1.97351503 |      0.00822289 |
   | zdiplen (relax) |      0.23282951 |      1.97192409 |       ---       |
   +-----------------+-----------------+-----------------+-----------------+


     Analysis of relaxed properties:
     ===============================


     dipole moment:
     --------------

     x     -3.53874071
     y      0.00021475
     z      0.23282951

     | dipole moment | =      3.54639189 a.u. =      9.01402822 debye
 


     Analysis of unrelaxed properties:
     =================================


     dipole moment:
     --------------

     x     -3.98064672
     y      0.00039650
     z      0.23442045

     | dipole moment | =      3.98754328 a.u. =     10.13532308 debye
 

 +---------------------------------+-----------------+
 |   Nonequilibrium solvation      |                 |
 +---------------------------------+-----------------+
 |   E_x_(y) is the total free energy of target      |
 |   state x in the reaction field (RF)              |
 |   equilibrated for state y                        |
 +---------------------------------+-----------------+
 | E_x_(y)                         |  -491.16761669  |
 | E_x_(y) (+OCC)                  |  -491.16789845  |
 | Outlying charge correction(OCC) |    -0.00028177  |
 | E_SCF with RF of state y        |  -489.41978793  |
 | E_corr (ground state)           |    -2.00423957  |
 | E_exci (ground to x state)      |     0.25651447  |
 | Correction for fast part of RF  |    -0.00010356  |
 | Correction for update of eq. RF |    -0.00000009  |
 +---------------------------------+-----------------+


  +=========================================================================+
  |  Excited state reached by transition:                   model: ADC(2)   |
  |    number, symmetry, multiplicity:   14 a    1                          |
  |    frequency :   0.2586493898 a.u.     7.03821 e.V.     56767.0 rcm     |
  +=========================================================================+

      Total energy of excited state:    -491.1653781098

   +-----------------+-----------------+-----------------+-----------------+
   | operator        | expect. value   | electr. contrib.| diff to gr.st.  |
   +-----------------+-----------------+-----------------+-----------------+
   | xdiplen (unrel) |      1.38320138 |    -86.71315711 |      5.18723136 |
   | xdiplen (relax) |     -0.68751323 |    -88.78387173 |       ---       |
   | ydiplen (unrel) |      0.00014041 |      0.00013143 |      0.00004327 |
   | ydiplen (relax) |      0.00013429 |      0.00012530 |       ---       |
   | zdiplen (unrel) |      0.23238986 |      1.97148444 |      0.00619231 |
   | zdiplen (relax) |      0.22229893 |      1.96139351 |       ---       |
   +-----------------+-----------------+-----------------+-----------------+


     Analysis of relaxed properties:
     ===============================


     dipole moment:
     --------------

     x     -0.68751323
     y      0.00013429
     z      0.22229893

     | dipole moment | =      0.72255884 a.u. =      1.83656121 debye
 


     Analysis of unrelaxed properties:
     =================================


     dipole moment:
     --------------

     x      1.38320138
     y      0.00014041
     z      0.23238986

     | dipole moment | =      1.40258730 a.u. =      3.56502098 debye
 

 +---------------------------------+-----------------+
 |   Nonequilibrium solvation      |                 |
 +---------------------------------+-----------------+
 |   E_x_(y) is the total free energy of target      |
 |   state x in the reaction field (RF)              |
 |   equilibrated for state y                        |
 +---------------------------------+-----------------+
 | E_x_(y)                         |  -491.17078148  |
 | E_x_(y) (+OCC)                  |  -491.17126926  |
 | Outlying charge correction(OCC) |    -0.00048778  |
 | E_SCF with RF of state y        |  -489.41978793  |
 | E_corr (ground state)           |    -2.00423957  |
 | E_exci (ground to x state)      |     0.25864939  |
 | Correction for fast part of RF  |    -0.00539656  |
 | Correction for update of eq. RF |    -0.00000681  |
 +---------------------------------+-----------------+


  +=========================================================================+
  |  Excited state reached by transition:                   model: ADC(2)   |
  |    number, symmetry, multiplicity:   15 a    1                          |
  |    frequency :   0.2707863592 a.u.     7.36847 e.V.     59430.7 rcm     |
  +=========================================================================+

      Total energy of excited state:    -491.1532411403

   +-----------------+-----------------+-----------------+-----------------+
   | operator        | expect. value   | electr. contrib.| diff to gr.st.  |
   +-----------------+-----------------+-----------------+-----------------+
   | xdiplen (unrel) |     -3.83946929 |    -91.93582779 |     -0.03543932 |
   | xdiplen (relax) |     -3.52107794 |    -91.61743644 |       ---       |
   | ydiplen (unrel) |      0.00013781 |      0.00012883 |      0.00004067 |
   | ydiplen (relax) |      0.00013240 |      0.00012341 |       ---       |
   | zdiplen (unrel) |      0.17887136 |      1.91796594 |     -0.04732619 |
   | zdiplen (relax) |      0.17804806 |      1.91714264 |       ---       |
   +-----------------+-----------------+-----------------+-----------------+


     Analysis of relaxed properties:
     ===============================


     dipole moment:
     --------------

     x     -3.52107794
     y      0.00013240
     z      0.17804806

     | dipole moment | =      3.52557669 a.u. =      8.96112126 debye
 


     Analysis of unrelaxed properties:
     =================================


     dipole moment:
     --------------

     x     -3.83946929
     y      0.00013781
     z      0.17887136

     | dipole moment | =      3.84363362 a.u. =      9.76954127 debye
 

 +---------------------------------+-----------------+
 |   Nonequilibrium solvation      |                 |
 +---------------------------------+-----------------+
 |   E_x_(y) is the total free energy of target      |
 |   state x in the reaction field (RF)              |
 |   equilibrated for state y                        |
 +---------------------------------+-----------------+
 | E_x_(y)                         |  -491.15388255  |
 | E_x_(y) (+OCC)                  |  -491.15404198  |
 | Outlying charge correction(OCC) |    -0.00015944  |
 | E_SCF with RF of state y        |  -489.41978793  |
 | E_corr (ground state)           |    -2.00423957  |
 | E_exci (ground to x state)      |     0.27078636  |
 | Correction for fast part of RF  |    -0.00064171  |
 | Correction for update of eq. RF |     0.00000030  |
 +---------------------------------+-----------------+
 Exporting excited state densities


 =============================================
 | SUMMARY OF RELAXED EXCITATIONS WITH COSMO |
 =============================================

 Explanation of the quantities below:

       E(diff)_x = E_x - E*_y
       E(exci)_x = E_x - E_gs

  E_x  : noneq.        energy of state x
  E*_y : eq.           energy of state y
  E_gs : noneq. or eq. energy of groundstate
  OCC  : outlying charge correction

 The * in column 'sym' marks the equilibrated state

 +=================================================================================+
 | sym | multi | state | COSMO-ADC(2) energy differences                           |
 |     |       |       +-----------------------------------------------------------+
 |     |       |       | E(Total)/au. |  E(diff)/eV  |  E(exci)/eV  |E(exc(OCC))/eV|
 +=================================================================================+
 |*a   |   1   |   0   | -491.4240275 |            - |            - |            - |
 +-----+-------+-------+--------------+--------------+--------------+--------------+
 | a   |   1   |   1   | -491.2867964 |      3.73425 |      3.73425 |      3.73425 |
 +-----+-------+-------+--------------+--------------+--------------+--------------+
 | a   |   1   |   2   | -491.2895969 |      3.65804 |      3.65804 |      3.65213 |
 +-----+-------+-------+--------------+--------------+--------------+--------------+
 | a   |   1   |   3   | -491.2577143 |      4.52561 |      4.52561 |      4.52508 |
 +-----+-------+-------+--------------+--------------+--------------+--------------+
 | a   |   1   |   4   | -491.2549365 |      4.60120 |      4.60120 |      4.60062 |
 +-----+-------+-------+--------------+--------------+--------------+--------------+
 | a   |   1   |   5   | -491.2304124 |      5.26853 |      5.26853 |      5.26580 |
 +-----+-------+-------+--------------+--------------+--------------+--------------+
 | a   |   1   |   6   | -491.2134045 |      5.73134 |      5.73134 |      5.71989 |
 +-----+-------+-------+--------------+--------------+--------------+--------------+
 | a   |   1   |   7   | -491.2117604 |      5.77608 |      5.77608 |      5.77536 |
 +-----+-------+-------+--------------+--------------+--------------+--------------+
 | a   |   1   |   8   | -491.2029750 |      6.01514 |      6.01514 |      6.01489 |
 +-----+-------+-------+--------------+--------------+--------------+--------------+
 | a   |   1   |   9   | -491.1892129 |      6.38963 |      6.38963 |      6.37929 |
 +-----+-------+-------+--------------+--------------+--------------+--------------+
 | a   |   1   |  10   | -491.1823537 |      6.57628 |      6.57628 |      6.52165 |
 +-----+-------+-------+--------------+--------------+--------------+--------------+
 | a   |   1   |  11   | -491.1734997 |      6.81721 |      6.81721 |      6.81253 |
 +-----+-------+-------+--------------+--------------+--------------+--------------+
 | a   |   1   |  12   | -491.1701186 |      6.90921 |      6.90921 |      6.86781 |
 +-----+-------+-------+--------------+--------------+--------------+--------------+
 | a   |   1   |  13   | -491.1676167 |      6.97729 |      6.97729 |      6.97684 |
 +-----+-------+-------+--------------+--------------+--------------+--------------+
 | a   |   1   |  14   | -491.1707815 |      6.89117 |      6.89117 |      6.88512 |
 +-----+-------+-------+--------------+--------------+--------------+--------------+
 | a   |   1   |  15   | -491.1538825 |      7.35102 |      7.35102 |      7.35390 |
 +=================================================================================+



    ------------------------------------------------------------------------
         total  cpu-time :  4 hours 35 minutes and 55 seconds
         total wall-time : 18 hours  3 minutes and 58 seconds
    ------------------------------------------------------------------------


   ****  ricc2 : all done  ****


    2023-03-25 13:41:27.404 

