 hostname is         dlt19.abaxnet
 this is node-proc. number 0 running on node dlt19.abaxnet
 the total number of node-proc. spawned is   1

 ricc2 (dlt19.abaxnet) : TURBOMOLE V6.6( 19125 ) 27 May 2014 at 14:24:19
 Copyright (C) 2014 TURBOMOLE GmbH, Karlsruhe


    2023-03-23 04:18:17.436 



                              R I C C 2 - PROGRAM

                          the quantum chemistry groups
                             at the universities in
                           Karlsruhe, Bochum & Mainz
                                   Germany



   *-----------------------------------------------------------------------*
   |                     program will use  1 thread(s)                     |
   *-----------------------------------------------------------------------*


              +--------------------------------------------------+
              | Atomic coordinate, charge and isotop information |
              +--------------------------------------------------+

                    atomic coordinates            atom    charge  isotop
          1.25897108    2.28255516   -0.02810580    c      6.000     0
          2.55589237    0.00000080   -0.02681200    c      6.000     0
          1.25897007   -2.28255733   -0.02813934    c      6.000     0
         -1.33317556   -2.28375619   -0.03047017    c      6.000     0
         -2.68660099    0.00000277   -0.03031113    c      6.000     0
         -1.33317837    2.28375729   -0.03043298    c      6.000     0
          2.29932227    4.03663792   -0.02521679    h      1.000     0
          2.29931977   -4.03664088   -0.02527372    h      1.000     0
         -2.35209669   -4.05620705   -0.03323531    h      1.000     0
         -2.35209002    4.05621365   -0.03315997    h      1.000     0
          5.27622553    0.00000026   -0.02078360    n      7.000     0
          6.38036802   -2.02707200   -0.01818823    o      8.000     0
          6.38036929    2.02707185   -0.01828296    o      8.000     0
         -5.24842481   -0.00000067   -0.08128959    n      7.000     0
         -6.20193517   -1.61497920    0.21484055    h      1.000     0
         -6.20193679    1.61497363    0.21486103    h      1.000     0
 
       center of nuclear mass  :    1.36535189    0.00000014   -0.02744662
       center of nuclear charge:    1.22356053    0.00000012   -0.02415409

              +--------------------------------------------------+
              |               basis set information              |
              +--------------------------------------------------+

              we will work with the 1s 3p 5d 7f 9g ... basis set
              ...i.e. with spherical basis functions...

   type   atoms  prim   cont   basis
   ---------------------------------------------------------------------------
    c        6     52     37   def2-TZVPD   [6s3p3d1f|12s6p3d1f]
    h        6     11      9   def2-TZVPD   [3s2p|5s2p]
    n        2     52     37   def2-TZVPD   [6s3p3d1f|12s6p3d1f]
    o        2     55     40   def2-TZVPD   [6s4p3d1f|12s7p3d1f]
   ---------------------------------------------------------------------------
   total:   16    592    430
   ---------------------------------------------------------------------------

   total number of primitive shells          :   74
   total number of contracted shells         :  162
   total number of cartesian basis functions :  490
   total number of SCF-basis functions       :  430



   =========================================================================


     restricted closed shell calculation for the wavefunction models:
               ADC(2)     - Algebraic Diagrammatic Construction to 2. Order (strict)


     global parameters for ricc2 program:

        hard restart (reuse of interm.) :  enabled 
        soft restart (reuse of vectors) :  disabled
        threshold for vector function   :    0.100000E-06
        convergence threshold energy    :    0.100000E-07
        linear dependence threshold     :    0.100000E-13
        global print level              :      1
        maximum number of iterations    :   500
        maximum number DIIS vectors     :    10
        max. dim. of reduced space      :   100
        core memory limit (MB)          :   500
        disk space limit (MB)           :   none


   =========================================================================
     "cartesian on" in $drvopt is ignored by $ricc2

    der. integral neglect threshold  :  0.10E-08
    integral neglect threshold       :  0.68E-12
    integral storage threshold THIZE :  0.10E-04
    integral storage threshold THIME :         5


                  +------------------------------------------+
                  |     Auxiliary basis set information      |
                  +------------------------------------------+

              we will work with the 1s 3p 5d 7f 9g ... basis set
              ...i.e. with spherical basis functions...

   type   atoms  prim   cont   basis
   ---------------------------------------------------------------------------
    c        6     97     92   def2-TZVPD   [9s7p5d4f1g|9s7p6d4f1g]
    h        6     32     24   def2-TZVPD   [5s3p2d|5s4p3d]
    n        2     97     92   def2-TZVPD   [9s7p5d4f1g|9s7p6d4f1g]
    o        2     97     92   def2-TZVPD   [9s7p5d4f1g|9s7p6d4f1g]
   ---------------------------------------------------------------------------
   total:   16   1162   1064
   ---------------------------------------------------------------------------

   total number of primitive shells          :   93
   total number of contracted shells         :  320
   total number of cartesian basis functions : 1306
   total number of SCF-basis functions       : 1064


 symmetry group of the molecule :   c1 

 the group has the following generators :
   c1(z)

    1 symmetry operations found

 there are 1 real representations :   a   

 maximum number of shells which are related by symmetry :  1


 The symmetry information takes   1 MB

*---------------------------------------------------------------------*
|               simplified C1 algorithm will be applied               |
*---------------------------------------------------------------------*
 ==============================================================================
                      COSMO switched on
 ==============================================================================
            ======================================================
                      COSMO settings in RICC2
                   --------------------------
             Solvent charges are equilibrated for ground state
             "cycle" indicates frozen COSMO charges,
             hence no COSMO CPHF contribution included
             COSMO linear response (LR) contribution included
             Outlying Charge Correction (OCC) is performed
             Using epsilon          =    10.125
             Using refractive index =     1.300
            ======================================================
        IMPORTANT NOTICE: The calculation of the solvent contributions will
         need the relaxed densities in general. Therefore the actual COSMO
         energies will be output only at the end of the run. Any energies
         or excitation energies quoted before that are only intermediate
         quantities and should be ignored unless you know what you are doing!

  MOs are in ASCII format !


 reading orbital data $scfmo  from file mos . 

 orbital characterization : scfconv=7
 

         --------------------------------------------------------------
                   checking mo's by calculating trace(D*S)

              number of electrons : 
                 from trace(D*S)         :   71.999999999996
                 from occupation numbers :   72.000000000000

              molecular charge           :    0.000000000000
         --------------------------------------------------------------

 time elapsed for calculating density matrices :   0.010 sec
 all orbitals will be active in the correlation treatment

  ----------------------------------------------------------------------------
  hard_restart flag is disabled because the check sum for the
  molecular orbitals "$chkmos" differs from the reference value:
  reference value:     4983261.68013252    
  computed value :     4983261.68028504    
  relative error :    0.306068146752723E-10
  tolerance      :    0.100000000000000E-11
  the calculation will proceed...
  ----------------------------------------------------------------------------


   Molecular Orbital Statistic:
   ============================

   -----------------------------
   orbitals in total:
   -----------------------------
    frozen occupied :      0
    active occupied :     36
    active virtual  :    394
    frozen virtual  :      0
    all together    :    430
   -----------------------------


     time in riccmos       cpu:  0.14 sec    wall:  1.43 sec    ratio:  0.1

     total memory allocated for calculation of (Q|P)**(-1/2) : 13 MiB


     calculation of (P|Q) ...
     time in lp2sym        cpu:  0.02 sec    wall:  0.02 sec    ratio:  1.0


     calculation of the Cholesky decomposition of (P|Q)**(-1) ...
     time in invmetri      cpu:  0.07 sec    wall:  0.97 sec    ratio:  0.1

   threshold for RMS(d[D]) in SCF was     :  0.10E-07
   integral neglect threshold             :  0.68E-12
   derivative integral neglect threshold  :  0.10E-08


 setting up bound for integral derivative estimation

 increment for numerical differentiation : 0.00050000

   =========================================================================

     Energy of reference wave function is  -489.4198023551000
     Maximum orbital residual is           0.1206100595012E-04


     Number of symmetry-nonredundant auxiliary basis functions:     1064

     Block lengths for integral files:
        frozen occupied (BOI):        0 MiB
        active occupied (BJI):        1 MiB
        active virtual  (BAI):        4 MiB
        frozen virtual  (BGI):        0 MiB
               general  (BTI):        4 MiB

   =========================================================================




   **************************************************************************
   *                                                                        *
   *          OPTIMIZATION OF THE GROUND STATE CLUSTER AMPLITUDES           *
   *                                                                        *
   **************************************************************************


   Iter.   MP2 energy       Norm(Omega)    Norm(t1)  Norm(t2)     cpu    wall
   ...........................................................................
    1   -491.4240269849    0.1615643768     0.00000   0.44521    0.29    0.98
   ...........................................................................


     time in total         cpu: 17.34 sec    wall: 59.15 sec    ratio:  0.3


     **********************************************************************
     *                                                                    *
     *   RHF  energy                             :   -489.4198023551      *
     *   MP2 correlation energy                  :     -2.0042246298      *
     *                                                                    *
     *   Final MP2 energy                        :   -491.4240269849      *
     *                                                                    *
     *   Norm of MP1 T2 amplitudes               :      0.4452086715      *
     *                                                                    *
     *   D1 diagnostic                           :      0.0591            *
     *                                                                    *
     **********************************************************************

 Using refractive index n                   =    1.30000000000000     
 Screening function (n**2-1)/(n**2+0.5)     =   0.315068493150685     


 **************************************************************
 *                                                            *
 *    OPTIMIZATION OF THE EXCITED STATE CLUSTER AMPLITUDES    *
 *                                                            *
 **************************************************************


  preoptimize excitation energies/vectors using CCS:

  ==================================================


 ======== LINEAR CC RESPONSE SOLVER ========

    threshold for convergence: 0.10E-02
    maximum number of simultaneous jacoby matrix transformations: 15
                                                
     summary of start vectors generation:
     -------------------------------------------
     type of solution vectors      : RE0
     symmetry                      : a  
     number of vectors requested   :    15
     number of vectors generated   :    15
       -- guessed as rhs/(e_a-e_i) :    15
     -------------------------------------------
                                                

    Iter  #Vectors  time (min)    max. residual 
    --------------------------------------------
 COSMO cphf update
 COSMO cphf update
 COSMO cphf update
 COSMO cphf update
 COSMO cphf update
 COSMO cphf update
 COSMO cphf update
 COSMO cphf update
 COSMO cphf update
 COSMO cphf update
 COSMO cphf update
 COSMO cphf update
 COSMO cphf update
 COSMO cphf update
 COSMO cphf update
      1      15         4.79     0.14E+00  (  1)
 COSMO cphf update
 COSMO cphf update
 COSMO cphf update
 COSMO cphf update
 COSMO cphf update
 COSMO cphf update
 COSMO cphf update
 COSMO cphf update
 COSMO cphf update
 COSMO cphf update
 COSMO cphf update
 COSMO cphf update
 COSMO cphf update
 COSMO cphf update
 COSMO cphf update
      2      15         4.73     0.52E-01  ( 10)
 COSMO cphf update
 COSMO cphf update
 COSMO cphf update
 COSMO cphf update
 COSMO cphf update
 COSMO cphf update
 COSMO cphf update
 COSMO cphf update
 COSMO cphf update
 COSMO cphf update
 COSMO cphf update
 COSMO cphf update
 COSMO cphf update
 COSMO cphf update
 COSMO cphf update
      3      15         4.72     0.77E-01  (  7)
 COSMO cphf update
 COSMO cphf update
 COSMO cphf update
 COSMO cphf update
 COSMO cphf update
 COSMO cphf update
 COSMO cphf update
 COSMO cphf update
 COSMO cphf update
 COSMO cphf update
 COSMO cphf update
 COSMO cphf update
 COSMO cphf update
 COSMO cphf update
 COSMO cphf update
      4      15         4.70     0.15E+00  ( 13)
 COSMO cphf update
 COSMO cphf update
 COSMO cphf update
 COSMO cphf update
 COSMO cphf update
 COSMO cphf update
 COSMO cphf update
 COSMO cphf update
 COSMO cphf update
 COSMO cphf update
 COSMO cphf update
 COSMO cphf update
 COSMO cphf update
 COSMO cphf update
 COSMO cphf update
      5      15         4.73     0.16E+00  (  4)
 COSMO cphf update
 COSMO cphf update
 COSMO cphf update
 COSMO cphf update
 COSMO cphf update
 COSMO cphf update
 COSMO cphf update
 COSMO cphf update
 COSMO cphf update
 COSMO cphf update
 COSMO cphf update
 COSMO cphf update
 COSMO cphf update
 COSMO cphf update
 COSMO cphf update
  dimension of red. space became too large.
  try internal restart...
      6      15         4.72     0.87E-01  (  2)
                                                
     summary of start vectors generation:
     -------------------------------------------
     type of solution vectors      : RE0
     symmetry                      : a  
     number of vectors requested   :    15
     number of vectors generated   :    15
       -- restarted from file      :    15
     -------------------------------------------
                                                

    Iter  #Vectors  time (min)    max. residual 
    --------------------------------------------
 COSMO cphf update
 COSMO cphf update
 COSMO cphf update
 COSMO cphf update
 COSMO cphf update
 COSMO cphf update
 COSMO cphf update
 COSMO cphf update
 COSMO cphf update
 COSMO cphf update
 COSMO cphf update
 COSMO cphf update
 COSMO cphf update
 COSMO cphf update
 COSMO cphf update
      7      15         4.72     0.87E-01  (  2)
 COSMO cphf update
 COSMO cphf update
 COSMO cphf update
 COSMO cphf update
 COSMO cphf update
 COSMO cphf update
 COSMO cphf update
 COSMO cphf update
 COSMO cphf update
 COSMO cphf update
 COSMO cphf update
 COSMO cphf update
 COSMO cphf update
      8      13         4.11     0.30E-01  (  2)
 COSMO cphf update
 COSMO cphf update
 COSMO cphf update
 COSMO cphf update
 COSMO cphf update
 COSMO cphf update
 COSMO cphf update
 COSMO cphf update
 COSMO cphf update
      9       9         2.90     0.76E-02  (  2)
 COSMO cphf update
 COSMO cphf update
 COSMO cphf update
 COSMO cphf update
 COSMO cphf update
     10       5         1.59     0.27E-02  ( 13)
 COSMO cphf update
 COSMO cphf update
 COSMO cphf update
 COSMO cphf update
     11       4         1.29     0.12E-02  ( 13)
 COSMO cphf update
     12       1         0.39     0.76E-03  (  2)
    --------------------------------------------
    converged in 12 iterations

         Total time         43.43 minutes


 ===========================================




 Note that this is the intermediate result of a preoptimization!
 The convergence threshold was  0.1E-02 only!
 COSMO: note that the excitation energies below do not include
        the nonequilibrium contributions yet. These require the
        computation of the relaxed densities. See end of output
        for a final list of corrected excitations.


 +==================================================================+
 | sym | multi | state |          CCS excitation energies           |
 |     |       |       +--------------------------------------------+
 |     |       |       |   Hartree    |     eV       |     cm-1     |
 +==================================================================+
 | a   |   1   |   1   |    0.1821969 |      4.95783 |    39987.591 |
 | a   |   1   |   2   |    0.1965001 |      5.34704 |    43126.781 |
 | a   |   1   |   3   |    0.2044896 |      5.56444 |    44880.275 |
 | a   |   1   |   4   |    0.2116594 |      5.75955 |    46453.879 |
 | a   |   1   |   5   |    0.2299472 |      6.25718 |    50467.574 |
 | a   |   1   |   6   |    0.2466147 |      6.71073 |    54125.675 |
 | a   |   1   |   7   |    0.2579582 |      7.01940 |    56615.282 |
 | a   |   1   |   8   |    0.2591498 |      7.05183 |    56876.813 |
 | a   |   1   |   9   |    0.2624388 |      7.14132 |    57598.653 |
 | a   |   1   |  10   |    0.2660606 |      7.23988 |    58393.559 |
 | a   |   1   |  11   |    0.2794032 |      7.60295 |    61321.923 |
 | a   |   1   |  12   |    0.2831544 |      7.70502 |    62145.207 |
 | a   |   1   |  13   |    0.2857459 |      7.77554 |    62713.973 |
 | a   |   1   |  14   |    0.2960638 |      8.05630 |    64978.486 |
 | a   |   1   |  15   |    0.2966714 |      8.07284 |    65111.842 |
 +==================================================================+




  preoptimize ADC(2) excitation energies/vectors using a quasi linear algorithm:
  ==============================================================================


 ======== LINEAR CC RESPONSE SOLVER ========

    threshold for convergence: 0.10E-02
    maximum number of simultaneous jacoby matrix transformations: 15
                                                
     summary of start vectors generation:
     -------------------------------------------
     type of solution vectors      : RE0
     symmetry                      : a  
     number of vectors requested   :    15
     number of vectors generated   :    15
       -- restarted from file      :    15
     -------------------------------------------
                                                

    Iter  #Vectors  time (min)    max. residual 
    --------------------------------------------
 COSMO cphf update
 COSMO cphf update
 COSMO cphf update
 COSMO cphf update
 COSMO cphf update
 COSMO cphf update
 COSMO cphf update
 COSMO cphf update
 COSMO cphf update
 COSMO cphf update
 COSMO cphf update
 COSMO cphf update
 COSMO cphf update
 COSMO cphf update
 COSMO cphf update
 COSMO cphf update
 COSMO cphf update
 COSMO cphf update
 COSMO cphf update
 COSMO cphf update
 COSMO cphf update
 COSMO cphf update
 COSMO cphf update
 COSMO cphf update
 COSMO cphf update
 COSMO cphf update
 COSMO cphf update
 COSMO cphf update
 COSMO cphf update
 COSMO cphf update
 threshold for this macro iteration:  5.339097847553045E-002
      1      15        25.67     0.93E-01  (  2)
 COSMO cphf update
 COSMO cphf update
 COSMO cphf update
 COSMO cphf update
 COSMO cphf update
 COSMO cphf update
 COSMO cphf update
 COSMO cphf update
 COSMO cphf update
 COSMO cphf update
 COSMO cphf update
 COSMO cphf update
 COSMO cphf update
 COSMO cphf update
 COSMO cphf update
 COSMO cphf update
 ...adapted threshold to:  6.332473913081690E-002
      2       8        10.36     0.37E-01  ( 12)
                                                
     summary of start vectors generation:
     -------------------------------------------
     type of solution vectors      : RE0
     symmetry                      : a  
     number of vectors requested   :    15
     number of vectors generated   :    15
       -- restarted from file      :    15
     -------------------------------------------
                                                

    Iter  #Vectors  time (min)    max. residual 
    --------------------------------------------
 COSMO cphf update
 COSMO cphf update
 COSMO cphf update
 COSMO cphf update
 COSMO cphf update
 COSMO cphf update
 COSMO cphf update
 COSMO cphf update
 COSMO cphf update
 COSMO cphf update
 COSMO cphf update
 COSMO cphf update
 COSMO cphf update
 COSMO cphf update
 COSMO cphf update
 COSMO cphf update
 COSMO cphf update
 COSMO cphf update
 COSMO cphf update
 COSMO cphf update
 COSMO cphf update
 COSMO cphf update
 COSMO cphf update
 COSMO cphf update
 COSMO cphf update
 COSMO cphf update
 COSMO cphf update
 COSMO cphf update
 COSMO cphf update
 COSMO cphf update
 threshold for this macro iteration:  6.915367182727533E-003
      3      15        25.63     0.37E-01  ( 12)
 COSMO cphf update
 COSMO cphf update
 COSMO cphf update
 COSMO cphf update
 COSMO cphf update
 COSMO cphf update
 COSMO cphf update
 COSMO cphf update
 COSMO cphf update
 COSMO cphf update
 COSMO cphf update
 COSMO cphf update
 COSMO cphf update
 COSMO cphf update
 COSMO cphf update
 COSMO cphf update
 COSMO cphf update
 COSMO cphf update
 COSMO cphf update
 COSMO cphf update
 COSMO cphf update
 COSMO cphf update
 COSMO cphf update
 COSMO cphf update
 COSMO cphf update
 COSMO cphf update
 COSMO cphf update
 COSMO cphf update
 COSMO cphf update
 COSMO cphf update
      4      15        25.73     0.15E-01  ( 11)
 COSMO cphf update
 COSMO cphf update
 COSMO cphf update
 COSMO cphf update
 COSMO cphf update
 COSMO cphf update
 COSMO cphf update
 COSMO cphf update
 COSMO cphf update
 COSMO cphf update
 COSMO cphf update
 COSMO cphf update
 COSMO cphf update
 COSMO cphf update
 COSMO cphf update
 COSMO cphf update
 COSMO cphf update
 COSMO cphf update
 COSMO cphf update
 COSMO cphf update
 COSMO cphf update
 COSMO cphf update
 COSMO cphf update
 COSMO cphf update
 COSMO cphf update
 COSMO cphf update
 COSMO cphf update
 COSMO cphf update
      5      14        23.86     0.12E-01  ( 14)
 COSMO cphf update
 COSMO cphf update
 COSMO cphf update
 COSMO cphf update
 COSMO cphf update
 COSMO cphf update
      6       3         3.97     0.10E-01  ( 14)
 COSMO cphf update
 COSMO cphf update
      7       1         1.48     0.19E-01  ( 14)
 COSMO cphf update
 COSMO cphf update
      8       1         1.46     0.22E-01  ( 13)
 COSMO cphf update
 COSMO cphf update
 COSMO cphf update
 COSMO cphf update
      9       2         2.71     0.11E-01  ( 13)
 COSMO cphf update
 COSMO cphf update
     10       1         1.47     0.66E-02  (  4)
                                                
     summary of start vectors generation:
     -------------------------------------------
     type of solution vectors      : RE0
     symmetry                      : a  
     number of vectors requested   :    15
     number of vectors generated   :    15
       -- restarted from file      :    15
     -------------------------------------------
                                                

    Iter  #Vectors  time (min)    max. residual 
    --------------------------------------------
 COSMO cphf update
 COSMO cphf update
 COSMO cphf update
 COSMO cphf update
 COSMO cphf update
 COSMO cphf update
 COSMO cphf update
 COSMO cphf update
 COSMO cphf update
 COSMO cphf update
 COSMO cphf update
 COSMO cphf update
 COSMO cphf update
 COSMO cphf update
 COSMO cphf update
 COSMO cphf update
 COSMO cphf update
 COSMO cphf update
 COSMO cphf update
 COSMO cphf update
 COSMO cphf update
 COSMO cphf update
 COSMO cphf update
 COSMO cphf update
 COSMO cphf update
 COSMO cphf update
 COSMO cphf update
 COSMO cphf update
 COSMO cphf update
 COSMO cphf update
 threshold for this macro iteration:  1.202572965331250E-002
     11      15        25.91     0.74E-02  ( 11)
                                                
     summary of start vectors generation:
     -------------------------------------------
     type of solution vectors      : RE0
     symmetry                      : a  
     number of vectors requested   :    15
     number of vectors generated   :    15
       -- restarted from file      :    15
     -------------------------------------------
                                                

    Iter  #Vectors  time (min)    max. residual 
    --------------------------------------------
 COSMO cphf update
 COSMO cphf update
 COSMO cphf update
 COSMO cphf update
 COSMO cphf update
 COSMO cphf update
 COSMO cphf update
 COSMO cphf update
 COSMO cphf update
 COSMO cphf update
 COSMO cphf update
 COSMO cphf update
 COSMO cphf update
 COSMO cphf update
 COSMO cphf update
 COSMO cphf update
 COSMO cphf update
 COSMO cphf update
 COSMO cphf update
 COSMO cphf update
 COSMO cphf update
 COSMO cphf update
 COSMO cphf update
 COSMO cphf update
 COSMO cphf update
 COSMO cphf update
 COSMO cphf update
 COSMO cphf update
 COSMO cphf update
 COSMO cphf update
 dabs(Rj-Ri):           1          11  0.117670117104247     
 dabs(Ij+Ii):           1          11  1.340779933564490E-003
 dabs(Rj-Ri):           2          11  0.117264567956751     
 dabs(Ij+Ii):           2          11  1.340779933564490E-003
 dabs(Rj-Ri):           3          11  8.847307866179524E-002
 dabs(Ij+Ii):           3          11  1.340779933564490E-003
 dabs(Rj-Ri):           4          11  8.601193689018660E-002
 dabs(Ij+Ii):           4          11  1.340779933564490E-003
 dabs(Rj-Ri):           5          11  6.054544741370818E-002
 dabs(Ij+Ii):           5          11  1.340779933564490E-003
 dabs(Rj-Ri):           6          11  4.394686716103297E-002
 dabs(Ij+Ii):           6          11  1.340779933564490E-003
 dabs(Rj-Ri):           7          11  4.302325765806872E-002
 dabs(Ij+Ii):           7          11  1.340779933564490E-003
 dabs(Rj-Ri):           8          11  3.335610517095666E-002
 dabs(Ij+Ii):           8          11  1.340779933564490E-003
 dabs(Rj-Ri):           9          11  1.925202053083755E-002
 dabs(Ij+Ii):           9          11  1.340779933564490E-003
 dabs(Rj-Ri):          10          11  1.115355864984147E-002
 dabs(Ij+Ii):          10          11  1.340779933564490E-003
 dabs(Rj-Ri):          12          11  0.000000000000000E+000
 dabs(Ij+Ii):          12          11  0.000000000000000E+000
 dabs(Rj-Ri):          13          11  1.144290769476253E-003
 dabs(Ij+Ii):          13          11  1.340779933564490E-003
 dabs(Rj-Ri):          14          11  1.544638642671581E-002
 dabs(Ij+Ii):          14          11  1.340779933564490E-003
 dabs(Rj-Ri):          15          11  1.726805803146841E-002
 dabs(Ij+Ii):          15          11  1.340779933564490E-003
 overlap matrix for complex pair:

              1             2
 
    1     0.90396068    0.06533210
    2     0.06533210    0.00484449
 real eigenvalues of metric:

              1
 
    1     0.90868307
    2     0.00012210
 eigenvectors of metric:

              1             2
 
    1     0.99739778   -0.07209484
    2     0.07209484    0.99739778
 inverse square root of overlap matrix:

              1             2
 
    1     1.51398062   -6.43217437
    2    -6.43217437   90.03511737
 recalculated overlap matrix for complex pair:

              1             2
 
    1     1.00000000   -0.00000000
    2    -0.00000000    1.00000000
 dabs(Rj-Ri):           1          12  0.117670117104247     
 dabs(Ij+Ii):           1          12  1.340779933564490E-003
 dabs(Rj-Ri):           2          12  0.117264567956751     
 dabs(Ij+Ii):           2          12  1.340779933564490E-003
 dabs(Rj-Ri):           3          12  8.847307866179524E-002
 dabs(Ij+Ii):           3          12  1.340779933564490E-003
 dabs(Rj-Ri):           4          12  8.601193689018660E-002
 dabs(Ij+Ii):           4          12  1.340779933564490E-003
 dabs(Rj-Ri):           5          12  6.054544741370818E-002
 dabs(Ij+Ii):           5          12  1.340779933564490E-003
 dabs(Rj-Ri):           6          12  4.394686716103297E-002
 dabs(Ij+Ii):           6          12  1.340779933564490E-003
 dabs(Rj-Ri):           7          12  4.302325765806872E-002
 dabs(Ij+Ii):           7          12  1.340779933564490E-003
 dabs(Rj-Ri):           8          12  3.335610517095666E-002
 dabs(Ij+Ii):           8          12  1.340779933564490E-003
 dabs(Rj-Ri):           9          12  1.925202053083755E-002
 dabs(Ij+Ii):           9          12  1.340779933564490E-003
 dabs(Rj-Ri):          10          12  1.115355864984147E-002
 dabs(Ij+Ii):          10          12  1.340779933564490E-003
 dabs(Rj-Ri):          11          12  0.000000000000000E+000
 dabs(Ij+Ii):          11          12  0.000000000000000E+000
 dabs(Rj-Ri):          13          12  1.144290769476253E-003
 dabs(Ij+Ii):          13          12  1.340779933564490E-003
 dabs(Rj-Ri):          14          12  1.544638642671581E-002
 dabs(Ij+Ii):          14          12  1.340779933564490E-003
 dabs(Rj-Ri):          15          12  1.726805803146841E-002
 dabs(Ij+Ii):          15          12  1.340779933564490E-003
 overlap matrix for complex pair:

              1             2
 
    1     1.00000000   -0.00000000
    2    -0.00000000    1.00000000
 real eigenvalues of metric:

              1
 
    1     1.00000000
    2     1.00000000
 eigenvectors of metric:

              1             2
 
    1     0.99859535    0.05298420
    2    -0.05298420    0.99859535
 inverse square root of overlap matrix:

              1             2
 
    1     1.00000000    0.00000000
    2     0.00000000    1.00000000
 recalculated overlap matrix for complex pair:

              1             2
 
    1     1.00000000   -0.00000000
    2    -0.00000000    1.00000000
 warning> found low lying complex root...
 eigenvalues (imaginary parts) in redeig:

              1
 
    1     0.00000000
    2     0.00000000
    3     0.00000000
    4     0.00000000
    5     0.00000000
    6     0.00000000
    7     0.00000000
    8     0.00000000
    9     0.00000000
   10     0.00000000
   11    -0.00134078
   12     0.00134078
   13     0.00000000
   14     0.00000000
   15     0.00000000
 eigenvalues (real parts) in redeig:

              1
 
    1     0.13766947
    2     0.13807502
    3     0.16686651
    4     0.16932765
    5     0.19479414
    6     0.21139272
    7     0.21231633
    8     0.22198348
    9     0.23608756
   10     0.24418603
   11     0.25533958
   12     0.25533958
   13     0.25648388
   14     0.27078597
   15     0.27260764
 threshold for this macro iteration:  4.402251614554431E-003
     12      15        25.53     0.39E-01  ( 12)
 COSMO cphf update
 COSMO cphf update
 COSMO cphf update
 COSMO cphf update
 dabs(Rj-Ri):           1          11  0.116627727381551     
 dabs(Ij+Ii):           1          11  8.487424934682541E-004
 dabs(Rj-Ri):           2          11  0.116222002495117     
 dabs(Ij+Ii):           2          11  8.487424934682541E-004
 dabs(Rj-Ri):           3          11  8.743069594070527E-002
 dabs(Ij+Ii):           3          11  8.487424934682541E-004
 dabs(Rj-Ri):           4          11  8.496954716829350E-002
 dabs(Ij+Ii):           4          11  8.487424934682541E-004
 dabs(Rj-Ri):           5          11  5.950305769162240E-002
 dabs(Ij+Ii):           5          11  8.487424934682541E-004
 dabs(Rj-Ri):           6          11  4.290442098835620E-002
 dabs(Ij+Ii):           6          11  8.487424934682541E-004
 dabs(Rj-Ri):           7          11  4.198086793584663E-002
 dabs(Ij+Ii):           7          11  8.487424934682541E-004
 dabs(Rj-Ri):           8          11  3.231346763506610E-002
 dabs(Ij+Ii):           8          11  8.487424934682541E-004
 dabs(Rj-Ri):           9          11  1.820876055835519E-002
 dabs(Ij+Ii):           9          11  8.487424934682541E-004
 dabs(Rj-Ri):          10          11  1.011116892723182E-002
 dabs(Ij+Ii):          10          11  8.487424934682541E-004
 dabs(Rj-Ri):          12          11  0.000000000000000E+000
 dabs(Ij+Ii):          12          11  0.000000000000000E+000
 dabs(Rj-Ri):          13          11  2.209307719427400E-003
 dabs(Ij+Ii):          13          11  8.487424934682541E-004
 dabs(Rj-Ri):          14          11  1.648877514755398E-002
 dabs(Ij+Ii):          14          11  8.487424934682541E-004
 dabs(Rj-Ri):          15          11  1.806680130185045E-002
 dabs(Ij+Ii):          15          11  8.487424934682541E-004
 dabs(Rj-Ri):          16          11  0.160870308211625     
 dabs(Ij+Ii):          16          11  8.487424934682541E-004
 dabs(Rj-Ri):          17          11  0.197550692426839     
 dabs(Ij+Ii):          17          11  8.487424934682541E-004
 overlap matrix for complex pair:

              1             2
 
    1     0.03420087   -0.00321380
    2    -0.00321380    0.00045849
 real eigenvalues of metric:

              1
 
    1     0.03450424
    2     0.00015512
 eigenvectors of metric:

              1             2
 
    1     0.99557422    0.09397860
    2    -0.09397860    0.99557422
 inverse square root of overlap matrix:

              1             2
 
    1     6.04505903    7.00843773
    2     7.00843773   79.62825901
 recalculated overlap matrix for complex pair:

              1             2
 
    1     1.00000000    0.00000000
    2     0.00000000    1.00000000
 dabs(Rj-Ri):           1          12  0.116627727381551     
 dabs(Ij+Ii):           1          12  8.487424934682541E-004
 dabs(Rj-Ri):           2          12  0.116222002495117     
 dabs(Ij+Ii):           2          12  8.487424934682541E-004
 dabs(Rj-Ri):           3          12  8.743069594070527E-002
 dabs(Ij+Ii):           3          12  8.487424934682541E-004
 dabs(Rj-Ri):           4          12  8.496954716829350E-002
 dabs(Ij+Ii):           4          12  8.487424934682541E-004
 dabs(Rj-Ri):           5          12  5.950305769162240E-002
 dabs(Ij+Ii):           5          12  8.487424934682541E-004
 dabs(Rj-Ri):           6          12  4.290442098835620E-002
 dabs(Ij+Ii):           6          12  8.487424934682541E-004
 dabs(Rj-Ri):           7          12  4.198086793584663E-002
 dabs(Ij+Ii):           7          12  8.487424934682541E-004
 dabs(Rj-Ri):           8          12  3.231346763506610E-002
 dabs(Ij+Ii):           8          12  8.487424934682541E-004
 dabs(Rj-Ri):           9          12  1.820876055835519E-002
 dabs(Ij+Ii):           9          12  8.487424934682541E-004
 dabs(Rj-Ri):          10          12  1.011116892723182E-002
 dabs(Ij+Ii):          10          12  8.487424934682541E-004
 dabs(Rj-Ri):          11          12  0.000000000000000E+000
 dabs(Ij+Ii):          11          12  0.000000000000000E+000
 dabs(Rj-Ri):          13          12  2.209307719427400E-003
 dabs(Ij+Ii):          13          12  8.487424934682541E-004
 dabs(Rj-Ri):          14          12  1.648877514755398E-002
 dabs(Ij+Ii):          14          12  8.487424934682541E-004
 dabs(Rj-Ri):          15          12  1.806680130185045E-002
 dabs(Ij+Ii):          15          12  8.487424934682541E-004
 dabs(Rj-Ri):          16          12  0.160870308211625     
 dabs(Ij+Ii):          16          12  8.487424934682541E-004
 dabs(Rj-Ri):          17          12  0.197550692426839     
 dabs(Ij+Ii):          17          12  8.487424934682541E-004
 overlap matrix for complex pair:

              1             2
 
    1     1.00000000    0.00000000
    2     0.00000000    1.00000000
 real eigenvalues of metric:

              1
 
    1     1.00000000
    2     1.00000000
 eigenvectors of metric:

              1             2
 
    1     0.99025927   -0.13923566
    2     0.13923566    0.99025927
 inverse square root of overlap matrix:

              1             2
 
    1     1.00000000   -0.00000000
    2    -0.00000000    1.00000000
 recalculated overlap matrix for complex pair:

              1             2
 
    1     1.00000000    0.00000000
    2     0.00000000    1.00000000
 warning> found low lying complex root...
 eigenvalues (imaginary parts) in redeig:

              1
 
    1     0.00000000
    2     0.00000000
    3     0.00000000
    4     0.00000000
    5     0.00000000
    6     0.00000000
    7     0.00000000
    8     0.00000000
    9     0.00000000
   10     0.00000000
   11    -0.00084874
   12     0.00084874
   13     0.00000000
   14     0.00000000
   15     0.00000000
   16     0.00000000
   17     0.00000000
 eigenvalues (real parts) in redeig:

              1
 
    1     0.13766947
    2     0.13807519
    3     0.16686650
    4     0.16932765
    5     0.19479414
    6     0.21139277
    7     0.21231633
    8     0.22198373
    9     0.23608843
   10     0.24418603
   11     0.25429720
   12     0.25429720
   13     0.25650650
   14     0.27078597
   15     0.27236400
   16     0.41516750
   17     0.45184789
     13       2         2.73     0.33E-01  ( 12)
 COSMO cphf update
 COSMO cphf update
 COSMO cphf update
 COSMO cphf update
 dabs(Rj-Ri):           1          11  0.116510684416249     
 dabs(Ij+Ii):           1          11  7.982604729163841E-004
 dabs(Rj-Ri):           2          11  0.116104805320606     
 dabs(Ij+Ii):           2          11  7.982604729163841E-004
 dabs(Rj-Ri):           3          11  8.731370268127756E-002
 dabs(Ij+Ii):           3          11  7.982604729163841E-004
 dabs(Rj-Ri):           4          11  8.485250420438417E-002
 dabs(Ij+Ii):           4          11  7.982604729163841E-004
 dabs(Rj-Ri):           5          11  5.938601472707608E-002
 dabs(Ij+Ii):           5          11  7.982604729163841E-004
 dabs(Rj-Ri):           6          11  4.278736382749809E-002
 dabs(Ij+Ii):           6          11  7.982604729163841E-004
 dabs(Rj-Ri):           7          11  4.186382497128693E-002
 dabs(Ij+Ii):           7          11  7.982604729163841E-004
 dabs(Rj-Ri):           8          11  3.219632769059497E-002
 dabs(Ij+Ii):           8          11  7.982604729163841E-004
 dabs(Rj-Ri):           9          11  1.809157417783799E-002
 dabs(Ij+Ii):           9          11  7.982604729163841E-004
 dabs(Rj-Ri):          10          11  9.994125962340394E-003
 dabs(Ij+Ii):          10          11  7.982604729163841E-004
 dabs(Rj-Ri):          12          11  0.000000000000000E+000
 dabs(Ij+Ii):          12          11  0.000000000000000E+000
 dabs(Rj-Ri):          13          11  2.328091492993456E-003
 dabs(Ij+Ii):          13          11  7.982604729163841E-004
 dabs(Rj-Ri):          14          11  1.660581800679262E-002
 dabs(Ij+Ii):          14          11  7.982604729163841E-004
 dabs(Rj-Ri):          15          11  1.815891078646231E-002
 dabs(Ij+Ii):          15          11  7.982604729163841E-004
 dabs(Rj-Ri):          16          11  0.103234911384243     
 dabs(Ij+Ii):          16          11  7.982604729163841E-004
 dabs(Rj-Ri):          17          11  0.128082523405948     
 dabs(Ij+Ii):          17          11  7.982604729163841E-004
 dabs(Rj-Ri):          18          11  0.434601201448729     
 dabs(Ij+Ii):          18          11  7.982604729163841E-004
 dabs(Rj-Ri):          19          11  0.674348585702597     
 dabs(Ij+Ii):          19          11  7.982604729163841E-004
 overlap matrix for complex pair:

              1             2
 
    1     0.03755106    0.01121334
    2     0.01121334    0.00341327
 real eigenvalues of metric:

              1
 
    1     0.04090485
    2     0.00005948
 eigenvectors of metric:

              1             2
 
    1     0.95806602   -0.28654755
    2     0.28654755    0.95806602
 inverse square root of overlap matrix:

              1             2
 
    1    15.18493562  -34.23906593
    2   -34.23906593  119.42202504
 recalculated overlap matrix for complex pair:

              1             2
 
    1     1.00000000   -0.00000000
    2     0.00000000    1.00000000
 dabs(Rj-Ri):           1          12  0.116510684416249     
 dabs(Ij+Ii):           1          12  7.982604729163841E-004
 dabs(Rj-Ri):           2          12  0.116104805320606     
 dabs(Ij+Ii):           2          12  7.982604729163841E-004
 dabs(Rj-Ri):           3          12  8.731370268127756E-002
 dabs(Ij+Ii):           3          12  7.982604729163841E-004
 dabs(Rj-Ri):           4          12  8.485250420438417E-002
 dabs(Ij+Ii):           4          12  7.982604729163841E-004
 dabs(Rj-Ri):           5          12  5.938601472707608E-002
 dabs(Ij+Ii):           5          12  7.982604729163841E-004
 dabs(Rj-Ri):           6          12  4.278736382749809E-002
 dabs(Ij+Ii):           6          12  7.982604729163841E-004
 dabs(Rj-Ri):           7          12  4.186382497128693E-002
 dabs(Ij+Ii):           7          12  7.982604729163841E-004
 dabs(Rj-Ri):           8          12  3.219632769059497E-002
 dabs(Ij+Ii):           8          12  7.982604729163841E-004
 dabs(Rj-Ri):           9          12  1.809157417783799E-002
 dabs(Ij+Ii):           9          12  7.982604729163841E-004
 dabs(Rj-Ri):          10          12  9.994125962340394E-003
 dabs(Ij+Ii):          10          12  7.982604729163841E-004
 dabs(Rj-Ri):          11          12  0.000000000000000E+000
 dabs(Ij+Ii):          11          12  0.000000000000000E+000
 dabs(Rj-Ri):          13          12  2.328091492993456E-003
 dabs(Ij+Ii):          13          12  7.982604729163841E-004
 dabs(Rj-Ri):          14          12  1.660581800679262E-002
 dabs(Ij+Ii):          14          12  7.982604729163841E-004
 dabs(Rj-Ri):          15          12  1.815891078646231E-002
 dabs(Ij+Ii):          15          12  7.982604729163841E-004
 dabs(Rj-Ri):          16          12  0.103234911384243     
 dabs(Ij+Ii):          16          12  7.982604729163841E-004
 dabs(Rj-Ri):          17          12  0.128082523405948     
 dabs(Ij+Ii):          17          12  7.982604729163841E-004
 dabs(Rj-Ri):          18          12  0.434601201448729     
 dabs(Ij+Ii):          18          12  7.982604729163841E-004
 dabs(Rj-Ri):          19          12  0.674348585702597     
 dabs(Ij+Ii):          19          12  7.982604729163841E-004
 overlap matrix for complex pair:

              1             2
 
    1     1.00000000    0.00000000
    2    -0.00000000    1.00000000
 real eigenvalues of metric:

              1
 
    1     1.00000000
    2     1.00000000
 eigenvectors of metric:

              1             2
 
    1     0.96459550    0.26373379
    2    -0.26373379    0.96459550
 inverse square root of overlap matrix:

              1             2
 
    1     1.00000000   -0.00000000
    2    -0.00000000    1.00000000
 recalculated overlap matrix for complex pair:

              1             2
 
    1     1.00000000   -0.00000000
    2    -0.00000000    1.00000000
 warning> found low lying complex root...
 eigenvalues (imaginary parts) in redeig:

              1
 
    1     0.00000000
    2     0.00000000
    3     0.00000000
    4     0.00000000
    5     0.00000000
    6     0.00000000
    7     0.00000000
    8     0.00000000
    9     0.00000000
   10     0.00000000
   11    -0.00079826
   12     0.00079826
   13     0.00000000
   14     0.00000000
   15     0.00000000
   16     0.00000000
   17     0.00000000
   18     0.00000000
   19     0.00000000
 eigenvalues (real parts) in redeig:

              1
 
    1     0.13766947
    2     0.13807535
    3     0.16686645
    4     0.16932765
    5     0.19479414
    6     0.21139279
    7     0.21231633
    8     0.22198382
    9     0.23608858
   10     0.24418603
   11     0.25418015
   12     0.25418015
   13     0.25650824
   14     0.27078597
   15     0.27233906
   16     0.35741506
   17     0.38226268
   18     0.68878135
   19     0.92852874
     14       2         2.75     0.28E-01  ( 12)
 COSMO cphf update
 COSMO cphf update
 COSMO cphf update
 COSMO cphf update
 dabs(Rj-Ri):           1          11  0.116451981721538     
 dabs(Ij+Ii):           1          11  1.108971106365186E-003
 dabs(Rj-Ri):           2          11  0.116045928208338     
 dabs(Ij+Ii):           2          11  1.108971106365186E-003
 dabs(Rj-Ri):           3          11  8.725496969775992E-002
 dabs(Ij+Ii):           3          11  1.108971106365186E-003
 dabs(Rj-Ri):           4          11  8.479380159078689E-002
 dabs(Ij+Ii):           4          11  1.108971106365186E-003
 dabs(Rj-Ri):           5          11  5.932731204297326E-002
 dabs(Ij+Ii):           5          11  1.108971106365186E-003
 dabs(Rj-Ri):           6          11  4.272853937123358E-002
 dabs(Ij+Ii):           6          11  1.108971106365186E-003
 dabs(Rj-Ri):           7          11  4.180512229073993E-002
 dabs(Ij+Ii):           7          11  1.108971106365186E-003
 dabs(Rj-Ri):           8          11  3.213756236771464E-002
 dabs(Ij+Ii):           8          11  1.108971106365186E-003
 dabs(Rj-Ri):           9          11  1.803255684763019E-002
 dabs(Ij+Ii):           9          11  1.108971106365186E-003
 dabs(Rj-Ri):          10          11  9.935423267679488E-003
 dabs(Ij+Ii):          10          11  1.108971106365186E-003
 dabs(Rj-Ri):          12          11  0.000000000000000E+000
 dabs(Ij+Ii):          12          11  0.000000000000000E+000
 dabs(Rj-Ri):          13          11  2.388104594264751E-003
 dabs(Ij+Ii):          13          11  1.108971106365186E-003
 dabs(Rj-Ri):          14          11  1.666452063628171E-002
 dabs(Ij+Ii):          14          11  1.108971106365186E-003
 dabs(Rj-Ri):          15          11  1.820304369715919E-002
 dabs(Ij+Ii):          15          11  1.108971106365186E-003
 dabs(Rj-Ri):          16          11  6.379244741719903E-002
 dabs(Ij+Ii):          16          11  1.108971106365186E-003
 dabs(Rj-Ri):          17          11  0.105355680698868     
 dabs(Ij+Ii):          17          11  1.108971106365186E-003
 dabs(Rj-Ri):          18          11  0.109042898918652     
 dabs(Ij+Ii):          18          11  1.108971106365186E-003
 dabs(Rj-Ri):          19          11  0.262144989658291     
 dabs(Ij+Ii):          19          11  1.108971106365186E-003
 dabs(Rj-Ri):          20          11  0.448626870050944     
 dabs(Ij+Ii):          20          11  1.108971106365186E-003
 dabs(Rj-Ri):          21          11   1.23428715550360     
 dabs(Ij+Ii):          21          11  1.108971106365186E-003
 overlap matrix for complex pair:

              1             2
 
    1     0.01408689   -0.07130397
    2    -0.07130397    0.36316530
 real eigenvalues of metric:

              1
 
    1     0.00008382
    2     0.37716838
 eigenvectors of metric:

              1             2
 
    1     0.98125680   -0.19270470
    2     0.19270470    0.98125680
 inverse square root of overlap matrix:

              1             2
 
    1   105.22937433   20.34576009
    2    20.34576009    5.62390647
 recalculated overlap matrix for complex pair:

              1             2
 
    1     1.00000000   -0.00000000
    2    -0.00000000    1.00000000
 dabs(Rj-Ri):           1          12  0.116451981721538     
 dabs(Ij+Ii):           1          12  1.108971106365186E-003
 dabs(Rj-Ri):           2          12  0.116045928208338     
 dabs(Ij+Ii):           2          12  1.108971106365186E-003
 dabs(Rj-Ri):           3          12  8.725496969775992E-002
 dabs(Ij+Ii):           3          12  1.108971106365186E-003
 dabs(Rj-Ri):           4          12  8.479380159078689E-002
 dabs(Ij+Ii):           4          12  1.108971106365186E-003
 dabs(Rj-Ri):           5          12  5.932731204297326E-002
 dabs(Ij+Ii):           5          12  1.108971106365186E-003
 dabs(Rj-Ri):           6          12  4.272853937123358E-002
 dabs(Ij+Ii):           6          12  1.108971106365186E-003
 dabs(Rj-Ri):           7          12  4.180512229073993E-002
 dabs(Ij+Ii):           7          12  1.108971106365186E-003
 dabs(Rj-Ri):           8          12  3.213756236771464E-002
 dabs(Ij+Ii):           8          12  1.108971106365186E-003
 dabs(Rj-Ri):           9          12  1.803255684763019E-002
 dabs(Ij+Ii):           9          12  1.108971106365186E-003
 dabs(Rj-Ri):          10          12  9.935423267679488E-003
 dabs(Ij+Ii):          10          12  1.108971106365186E-003
 dabs(Rj-Ri):          11          12  0.000000000000000E+000
 dabs(Ij+Ii):          11          12  0.000000000000000E+000
 dabs(Rj-Ri):          13          12  2.388104594264751E-003
 dabs(Ij+Ii):          13          12  1.108971106365186E-003
 dabs(Rj-Ri):          14          12  1.666452063628171E-002
 dabs(Ij+Ii):          14          12  1.108971106365186E-003
 dabs(Rj-Ri):          15          12  1.820304369715919E-002
 dabs(Ij+Ii):          15          12  1.108971106365186E-003
 dabs(Rj-Ri):          16          12  6.379244741719903E-002
 dabs(Ij+Ii):          16          12  1.108971106365186E-003
 dabs(Rj-Ri):          17          12  0.105355680698868     
 dabs(Ij+Ii):          17          12  1.108971106365186E-003
 dabs(Rj-Ri):          18          12  0.109042898918652     
 dabs(Ij+Ii):          18          12  1.108971106365186E-003
 dabs(Rj-Ri):          19          12  0.262144989658291     
 dabs(Ij+Ii):          19          12  1.108971106365186E-003
 dabs(Rj-Ri):          20          12  0.448626870050944     
 dabs(Ij+Ii):          20          12  1.108971106365186E-003
 dabs(Rj-Ri):          21          12   1.23428715550360     
 dabs(Ij+Ii):          21          12  1.108971106365186E-003
 overlap matrix for complex pair:

              1             2
 
    1     1.00000000   -0.00000000
    2    -0.00000000    1.00000000
 real eigenvalues of metric:

              1
 
    1     1.00000000
    2     1.00000000
 eigenvectors of metric:

              1             2
 
    1     0.94959246    0.31348709
    2    -0.31348709    0.94959246
 inverse square root of overlap matrix:

              1             2
 
    1     1.00000000    0.00000000
    2     0.00000000    1.00000000
 recalculated overlap matrix for complex pair:

              1             2
 
    1     1.00000000    0.00000000
    2     0.00000000    1.00000000
 warning> found low lying complex root...
 eigenvalues (imaginary parts) in redeig:

              1
 
    1     0.00000000
    2     0.00000000
    3     0.00000000
    4     0.00000000
    5     0.00000000
    6     0.00000000
    7     0.00000000
    8     0.00000000
    9     0.00000000
   10     0.00000000
   11    -0.00110897
   12     0.00110897
   13     0.00000000
   14     0.00000000
   15     0.00000000
   16     0.00000000
   17     0.00000000
   18     0.00000000
   19     0.00000000
   20     0.00000000
   21     0.00000000
 eigenvalues (real parts) in redeig:

              1
 
    1     0.13766947
    2     0.13807552
    3     0.16686648
    4     0.16932765
    5     0.19479414
    6     0.21139291
    7     0.21231633
    8     0.22198389
    9     0.23608889
   10     0.24418603
   11     0.25412145
   12     0.25412145
   13     0.25650955
   14     0.27078597
   15     0.27232449
   16     0.31791390
   17     0.35947713
   18     0.36316435
   19     0.51626644
   20     0.70274832
   21     1.48840860
     15       2         2.71     0.28E-01  ( 11)
 COSMO cphf update
 COSMO cphf update
 COSMO cphf update
 COSMO cphf update
 dabs(Rj-Ri):           1          11  0.116451210955422     
 dabs(Ij+Ii):           1          11  1.089796004317127E-003
 dabs(Rj-Ri):           2          11  0.116045154287611     
 dabs(Ij+Ii):           2          11  1.089796004317127E-003
 dabs(Rj-Ri):           3          11  8.725416261124258E-002
 dabs(Ij+Ii):           3          11  1.089796004317127E-003
 dabs(Rj-Ri):           4          11  8.479303098905297E-002
 dabs(Ij+Ii):           4          11  1.089796004317127E-003
 dabs(Rj-Ri):           5          11  5.932654130252893E-002
 dabs(Ij+Ii):           5          11  1.089796004317127E-003
 dabs(Rj-Ri):           6          11  4.272777667648317E-002
 dabs(Ij+Ii):           6          11  1.089796004317127E-003
 dabs(Rj-Ri):           7          11  4.180435155644849E-002
 dabs(Ij+Ii):           7          11  1.089796004317127E-003
 dabs(Rj-Ri):           8          11  3.213677853840563E-002
 dabs(Ij+Ii):           8          11  1.089796004317127E-003
 dabs(Rj-Ri):           9          11  1.803194761106933E-002
 dabs(Ij+Ii):           9          11  1.089796004317127E-003
 dabs(Rj-Ri):          10          11  9.934652500882823E-003
 dabs(Ij+Ii):          10          11  1.089796004317127E-003
 dabs(Rj-Ri):          12          11  0.000000000000000E+000
 dabs(Ij+Ii):          12          11  0.000000000000000E+000
 dabs(Rj-Ri):          13          11  2.388182455580923E-003
 dabs(Ij+Ii):          13          11  1.089796004317127E-003
 dabs(Rj-Ri):          14          11  1.666529140517414E-002
 dabs(Ij+Ii):          14          11  1.089796004317127E-003
 dabs(Rj-Ri):          15          11  1.820254150801415E-002
 dabs(Ij+Ii):          15          11  1.089796004317127E-003
 dabs(Rj-Ri):          16          11  4.906665944895167E-002
 dabs(Ij+Ii):          16          11  1.089796004317127E-003
 dabs(Rj-Ri):          17          11  7.700848401259641E-002
 dabs(Ij+Ii):          17          11  1.089796004317127E-003
 dabs(Rj-Ri):          18          11  0.110167492023774     
 dabs(Ij+Ii):          18          11  1.089796004317127E-003
 dabs(Rj-Ri):          19          11  0.184071248445392     
 dabs(Ij+Ii):          19          11  1.089796004317127E-003
 dabs(Rj-Ri):          20          11  0.205886593509911     
 dabs(Ij+Ii):          20          11  1.089796004317127E-003
 dabs(Rj-Ri):          21          11  0.467935870379333     
 dabs(Ij+Ii):          21          11  1.089796004317127E-003
 dabs(Rj-Ri):          22          11  0.665892515771283     
 dabs(Ij+Ii):          22          11  1.089796004317127E-003
 dabs(Rj-Ri):          23          11   1.47092913631183     
 dabs(Ij+Ii):          23          11  1.089796004317127E-003
 overlap matrix for complex pair:

              1             2
 
    1     0.00329328   -0.01154206
    2    -0.01154206    0.04130398
 real eigenvalues of metric:

              1
 
    1     0.00006301
    2     0.04453424
 eigenvectors of metric:

              1             2
 
    1     0.96299680   -0.26951281
    2     0.26951281    0.96299680
 inverse square root of overlap matrix:

              1             2
 
    1   117.16782527   31.46542986
    2    31.46542986   13.54482589
 recalculated overlap matrix for complex pair:

              1             2
 
    1     1.00000000    0.00000000
    2     0.00000000    1.00000000
 dabs(Rj-Ri):           1          12  0.116451210955422     
 dabs(Ij+Ii):           1          12  1.089796004317127E-003
 dabs(Rj-Ri):           2          12  0.116045154287611     
 dabs(Ij+Ii):           2          12  1.089796004317127E-003
 dabs(Rj-Ri):           3          12  8.725416261124258E-002
 dabs(Ij+Ii):           3          12  1.089796004317127E-003
 dabs(Rj-Ri):           4          12  8.479303098905297E-002
 dabs(Ij+Ii):           4          12  1.089796004317127E-003
 dabs(Rj-Ri):           5          12  5.932654130252893E-002
 dabs(Ij+Ii):           5          12  1.089796004317127E-003
 dabs(Rj-Ri):           6          12  4.272777667648317E-002
 dabs(Ij+Ii):           6          12  1.089796004317127E-003
 dabs(Rj-Ri):           7          12  4.180435155644849E-002
 dabs(Ij+Ii):           7          12  1.089796004317127E-003
 dabs(Rj-Ri):           8          12  3.213677853840563E-002
 dabs(Ij+Ii):           8          12  1.089796004317127E-003
 dabs(Rj-Ri):           9          12  1.803194761106933E-002
 dabs(Ij+Ii):           9          12  1.089796004317127E-003
 dabs(Rj-Ri):          10          12  9.934652500882823E-003
 dabs(Ij+Ii):          10          12  1.089796004317127E-003
 dabs(Rj-Ri):          11          12  0.000000000000000E+000
 dabs(Ij+Ii):          11          12  0.000000000000000E+000
 dabs(Rj-Ri):          13          12  2.388182455580923E-003
 dabs(Ij+Ii):          13          12  1.089796004317127E-003
 dabs(Rj-Ri):          14          12  1.666529140517414E-002
 dabs(Ij+Ii):          14          12  1.089796004317127E-003
 dabs(Rj-Ri):          15          12  1.820254150801415E-002
 dabs(Ij+Ii):          15          12  1.089796004317127E-003
 dabs(Rj-Ri):          16          12  4.906665944895167E-002
 dabs(Ij+Ii):          16          12  1.089796004317127E-003
 dabs(Rj-Ri):          17          12  7.700848401259641E-002
 dabs(Ij+Ii):          17          12  1.089796004317127E-003
 dabs(Rj-Ri):          18          12  0.110167492023774     
 dabs(Ij+Ii):          18          12  1.089796004317127E-003
 dabs(Rj-Ri):          19          12  0.184071248445392     
 dabs(Ij+Ii):          19          12  1.089796004317127E-003
 dabs(Rj-Ri):          20          12  0.205886593509911     
 dabs(Ij+Ii):          20          12  1.089796004317127E-003
 dabs(Rj-Ri):          21          12  0.467935870379333     
 dabs(Ij+Ii):          21          12  1.089796004317127E-003
 dabs(Rj-Ri):          22          12  0.665892515771283     
 dabs(Ij+Ii):          22          12  1.089796004317127E-003
 dabs(Rj-Ri):          23          12   1.47092913631183     
 dabs(Ij+Ii):          23          12  1.089796004317127E-003
 overlap matrix for complex pair:

              1             2
 
    1     1.00000000    0.00000000
    2     0.00000000    1.00000000
 real eigenvalues of metric:

              1
 
    1     1.00000000
    2     1.00000000
 eigenvectors of metric:

              1             2
 
    1     0.98072429    0.19539671
    2    -0.19539671    0.98072429
 inverse square root of overlap matrix:

              1             2
 
    1     1.00000000   -0.00000000
    2    -0.00000000    1.00000000
 recalculated overlap matrix for complex pair:

              1             2
 
    1     1.00000000    0.00000000
    2     0.00000000    1.00000000
 warning> found low lying complex root...
 eigenvalues (imaginary parts) in redeig:

              1
 
    1     0.00000000
    2     0.00000000
    3     0.00000000
    4     0.00000000
    5     0.00000000
    6     0.00000000
    7     0.00000000
    8     0.00000000
    9     0.00000000
   10     0.00000000
   11    -0.00108980
   12     0.00108980
   13     0.00000000
   14     0.00000000
   15     0.00000000
   16     0.00000000
   17     0.00000000
   18     0.00000000
   19     0.00000000
   20     0.00000000
   21     0.00000000
   22     0.00000000
   23     0.00000000
 eigenvalues (real parts) in redeig:

              1
 
    1     0.13766947
    2     0.13807552
    3     0.16686652
    4     0.16932765
    5     0.19479414
    6     0.21139290
    7     0.21231633
    8     0.22198390
    9     0.23608873
   10     0.24418603
   11     0.25412068
   12     0.25412068
   13     0.25650886
   14     0.27078597
   15     0.27232322
   16     0.30318734
   17     0.33112916
   18     0.36428817
   19     0.43819193
   20     0.46000727
   21     0.72205655
   22     0.92001319
   23     1.72504981
     16       2         2.70     0.28E-01  ( 11)
 COSMO cphf update
 COSMO cphf update
 COSMO cphf update
 COSMO cphf update
 dabs(Rj-Ri):           1          11  0.116452290533016     
 dabs(Ij+Ii):           1          11  1.051555536820699E-003
 dabs(Rj-Ri):           2          11  0.116046420199201     
 dabs(Ij+Ii):           2          11  1.051555536820699E-003
 dabs(Rj-Ri):           3          11  8.725545762819176E-002
 dabs(Ij+Ii):           3          11  1.051555536820699E-003
 dabs(Rj-Ri):           4          11  8.479411085452762E-002
 dabs(Ij+Ii):           4          11  1.051555536820699E-003
 dabs(Rj-Ri):           5          11  5.932762093126001E-002
 dabs(Ij+Ii):           5          11  1.051555536820699E-003
 dabs(Rj-Ri):           6          11  4.272889594005894E-002
 dabs(Ij+Ii):           6          11  1.051555536820699E-003
 dabs(Rj-Ri):           7          11  4.180543120167138E-002
 dabs(Ij+Ii):           7          11  1.051555536820699E-003
 dabs(Rj-Ri):           8          11  3.213803337858631E-002
 dabs(Ij+Ii):           8          11  1.051555536820699E-003
 dabs(Rj-Ri):           9          11  1.803326846765263E-002
 dabs(Ij+Ii):           9          11  1.051555536820699E-003
 dabs(Rj-Ri):          10          11  9.935732074915493E-003
 dabs(Ij+Ii):          10          11  1.051555536820699E-003
 dabs(Rj-Ri):          12          11  0.000000000000000E+000
 dabs(Ij+Ii):          12          11  0.000000000000000E+000
 dabs(Rj-Ri):          13          11  2.386981342616556E-003
 dabs(Ij+Ii):          13          11  1.051555536820699E-003
 dabs(Rj-Ri):          14          11  1.666421183264627E-002
 dabs(Ij+Ii):          14          11  1.051555536820699E-003
 dabs(Rj-Ri):          15          11  1.819393853429557E-002
 dabs(Ij+Ii):          15          11  1.051555536820699E-003
 dabs(Rj-Ri):          16          11  2.481685228708458E-002
 dabs(Ij+Ii):          16          11  1.051555536820699E-003
 dabs(Rj-Ri):          17          11  6.630982347834619E-002
 dabs(Ij+Ii):          17          11  1.051555536820699E-003
 dabs(Rj-Ri):          18          11  7.606049128825515E-002
 dabs(Ij+Ii):          18          11  1.051555536820699E-003
 dabs(Rj-Ri):          19          11  0.109370822795813     
 dabs(Ij+Ii):          19          11  1.051555536820699E-003
 dabs(Rj-Ri):          20          11  0.148311734878655     
 dabs(Ij+Ii):          20          11  1.051555536820699E-003
 dabs(Rj-Ri):          21          11  0.265484362059566     
 dabs(Ij+Ii):          21          11  1.051555536820699E-003
 dabs(Rj-Ri):          22          11  0.423278895688696     
 dabs(Ij+Ii):          22          11  1.051555536820699E-003
 dabs(Rj-Ri):          23          11  0.524549617835067     
 dabs(Ij+Ii):          23          11  1.051555536820699E-003
 dabs(Rj-Ri):          24          11   1.05551427823632     
 dabs(Ij+Ii):          24          11  1.051555536820699E-003
 dabs(Rj-Ri):          25          11   1.52211236911419     
 dabs(Ij+Ii):          25          11  1.051555536820699E-003
 overlap matrix for complex pair:

              1             2
 
    1     0.00073089    0.00392561
    2     0.00392561    0.02747049
 real eigenvalues of metric:

              1
 
    1     0.00016649
    2     0.02803489
 eigenvectors of metric:

              1             2
 
    1     0.98982203    0.14231076
    2    -0.14231076    0.98982203
 inverse square root of overlap matrix:

              1             2
 
    1    76.05147967  -10.07555251
    2   -10.07555251    7.42102690
 recalculated overlap matrix for complex pair:

              1             2
 
    1     1.00000000   -0.00000000
    2    -0.00000000    1.00000000
 dabs(Rj-Ri):           1          12  0.116452290533016     
 dabs(Ij+Ii):           1          12  1.051555536820699E-003
 dabs(Rj-Ri):           2          12  0.116046420199201     
 dabs(Ij+Ii):           2          12  1.051555536820699E-003
 dabs(Rj-Ri):           3          12  8.725545762819176E-002
 dabs(Ij+Ii):           3          12  1.051555536820699E-003
 dabs(Rj-Ri):           4          12  8.479411085452762E-002
 dabs(Ij+Ii):           4          12  1.051555536820699E-003
 dabs(Rj-Ri):           5          12  5.932762093126001E-002
 dabs(Ij+Ii):           5          12  1.051555536820699E-003
 dabs(Rj-Ri):           6          12  4.272889594005894E-002
 dabs(Ij+Ii):           6          12  1.051555536820699E-003
 dabs(Rj-Ri):           7          12  4.180543120167138E-002
 dabs(Ij+Ii):           7          12  1.051555536820699E-003
 dabs(Rj-Ri):           8          12  3.213803337858631E-002
 dabs(Ij+Ii):           8          12  1.051555536820699E-003
 dabs(Rj-Ri):           9          12  1.803326846765263E-002
 dabs(Ij+Ii):           9          12  1.051555536820699E-003
 dabs(Rj-Ri):          10          12  9.935732074915493E-003
 dabs(Ij+Ii):          10          12  1.051555536820699E-003
 dabs(Rj-Ri):          11          12  0.000000000000000E+000
 dabs(Ij+Ii):          11          12  0.000000000000000E+000
 dabs(Rj-Ri):          13          12  2.386981342616556E-003
 dabs(Ij+Ii):          13          12  1.051555536820699E-003
 dabs(Rj-Ri):          14          12  1.666421183264627E-002
 dabs(Ij+Ii):          14          12  1.051555536820699E-003
 dabs(Rj-Ri):          15          12  1.819393853429557E-002
 dabs(Ij+Ii):          15          12  1.051555536820699E-003
 dabs(Rj-Ri):          16          12  2.481685228708458E-002
 dabs(Ij+Ii):          16          12  1.051555536820699E-003
 dabs(Rj-Ri):          17          12  6.630982347834619E-002
 dabs(Ij+Ii):          17          12  1.051555536820699E-003
 dabs(Rj-Ri):          18          12  7.606049128825515E-002
 dabs(Ij+Ii):          18          12  1.051555536820699E-003
 dabs(Rj-Ri):          19          12  0.109370822795813     
 dabs(Ij+Ii):          19          12  1.051555536820699E-003
 dabs(Rj-Ri):          20          12  0.148311734878655     
 dabs(Ij+Ii):          20          12  1.051555536820699E-003
 dabs(Rj-Ri):          21          12  0.265484362059566     
 dabs(Ij+Ii):          21          12  1.051555536820699E-003
 dabs(Rj-Ri):          22          12  0.423278895688696     
 dabs(Ij+Ii):          22          12  1.051555536820699E-003
 dabs(Rj-Ri):          23          12  0.524549617835067     
 dabs(Ij+Ii):          23          12  1.051555536820699E-003
 dabs(Rj-Ri):          24          12   1.05551427823632     
 dabs(Ij+Ii):          24          12  1.051555536820699E-003
 dabs(Rj-Ri):          25          12   1.52211236911419     
 dabs(Ij+Ii):          25          12  1.051555536820699E-003
 overlap matrix for complex pair:

              1             2
 
    1     1.00000000   -0.00000000
    2    -0.00000000    1.00000000
 real eigenvalues of metric:

              1
 
    1     1.00000000
    2     1.00000000
 eigenvectors of metric:

              1             2
 
    1     0.95893339    0.28363136
    2    -0.28363136    0.95893339
 inverse square root of overlap matrix:

              1             2
 
    1     1.00000000    0.00000000
    2     0.00000000    1.00000000
 recalculated overlap matrix for complex pair:

              1             2
 
    1     1.00000000    0.00000000
    2     0.00000000    1.00000000
 warning> found low lying complex root...
 eigenvalues (imaginary parts) in redeig:

              1
 
    1     0.00000000
    2     0.00000000
    3     0.00000000
    4     0.00000000
    5     0.00000000
    6     0.00000000
    7     0.00000000
    8     0.00000000
    9     0.00000000
   10     0.00000000
   11    -0.00105156
   12     0.00105156
   13     0.00000000
   14     0.00000000
   15     0.00000000
   16     0.00000000
   17     0.00000000
   18     0.00000000
   19     0.00000000
   20     0.00000000
   21     0.00000000
   22     0.00000000
   23     0.00000000
   24     0.00000000
   25     0.00000000
 eigenvalues (real parts) in redeig:

              1
 
    1     0.13766947
    2     0.13807534
    3     0.16686630
    4     0.16932765
    5     0.19479414
    6     0.21139286
    7     0.21231633
    8     0.22198372
    9     0.23608849
   10     0.24418603
   11     0.25412176
   12     0.25412176
   13     0.25650874
   14     0.27078597
   15     0.27231570
   16     0.27893861
   17     0.32043158
   18     0.33018225
   19     0.36349258
   20     0.40243349
   21     0.51960612
   22     0.67740065
   23     0.77867138
   24     1.30963604
   25     1.77623413
     17       2         2.73     0.29E-01  ( 11)
 COSMO cphf update
 COSMO cphf update
 dabs(Rj-Ri):           1          11  0.116452446635866     
 dabs(Ij+Ii):           1          11  1.052637230375347E-003
 dabs(Rj-Ri):           2          11  0.116046557423174     
 dabs(Ij+Ii):           2          11  1.052637230375347E-003
 dabs(Rj-Ri):           3          11  8.725555427458181E-002
 dabs(Ij+Ii):           3          11  1.052637230375347E-003
 dabs(Rj-Ri):           4          11  8.479426696056597E-002
 dabs(Ij+Ii):           4          11  1.052637230375347E-003
 dabs(Rj-Ri):           5          11  5.932777703599015E-002
 dabs(Ij+Ii):           5          11  1.052637230375347E-003
 dabs(Rj-Ri):           6          11  4.272901443832722E-002
 dabs(Ij+Ii):           6          11  1.052637230375347E-003
 dabs(Rj-Ri):           7          11  4.180558730509265E-002
 dabs(Ij+Ii):           7          11  1.052637230375347E-003
 dabs(Rj-Ri):           8          11  3.213818086693504E-002
 dabs(Ij+Ii):           8          11  1.052637230375347E-003
 dabs(Rj-Ri):           9          11  1.803343038775013E-002
 dabs(Ij+Ii):           9          11  1.052637230375347E-003
 dabs(Rj-Ri):          10          11  9.935888177806412E-003
 dabs(Ij+Ii):          10          11  1.052637230375347E-003
 dabs(Rj-Ri):          12          11  0.000000000000000E+000
 dabs(Ij+Ii):          12          11  0.000000000000000E+000
 dabs(Rj-Ri):          13          11  2.386355419770170E-003
 dabs(Ij+Ii):          13          11  1.052637230375347E-003
 dabs(Rj-Ri):          14          11  1.666405572691437E-002
 dabs(Ij+Ii):          14          11  1.052637230375347E-003
 dabs(Rj-Ri):          15          11  1.818564491888214E-002
 dabs(Ij+Ii):          15          11  1.052637230375347E-003
 dabs(Rj-Ri):          16          11  2.057189959524042E-002
 dabs(Ij+Ii):          16          11  1.052637230375347E-003
 dabs(Rj-Ri):          17          11  6.104605930746582E-002
 dabs(Ij+Ii):          17          11  1.052637230375347E-003
 dabs(Rj-Ri):          18          11  6.761168902217440E-002
 dabs(Ij+Ii):          18          11  1.052637230375347E-003
 dabs(Rj-Ri):          19          11  0.108845800805581     
 dabs(Ij+Ii):          19          11  1.052637230375347E-003
 dabs(Rj-Ri):          20          11  0.143145649357700     
 dabs(Ij+Ii):          20          11  1.052637230375347E-003
 dabs(Rj-Ri):          21          11  0.257118360730095     
 dabs(Ij+Ii):          21          11  1.052637230375347E-003
 dabs(Rj-Ri):          22          11  0.304965620235665     
 dabs(Ij+Ii):          22          11  1.052637230375347E-003
 dabs(Rj-Ri):          23          11  0.478525125510036     
 dabs(Ij+Ii):          23          11  1.052637230375347E-003
 dabs(Rj-Ri):          24          11  0.735585280141316     
 dabs(Ij+Ii):          24          11  1.052637230375347E-003
 dabs(Rj-Ri):          25          11   1.28666218960818     
 dabs(Ij+Ii):          25          11  1.052637230375347E-003
 dabs(Rj-Ri):          26          11   1.52247863715293     
 dabs(Ij+Ii):          26          11  1.052637230375347E-003
 overlap matrix for complex pair:

              1             2
 
    1     0.01598329   -0.10452160
    2    -0.10452160    0.68776893
 real eigenvalues of metric:

              1
 
    1     0.00009671
    2     0.70365552
 eigenvectors of metric:

              1             2
 
    1     0.98864537   -0.15026751
    2     0.15026751    0.98864537
 inverse square root of overlap matrix:

              1             2
 
    1    99.41990700   14.92996936
    2    14.92996936    3.46137583
 recalculated overlap matrix for complex pair:

              1             2
 
    1     1.00000000   -0.00000000
    2    -0.00000000    1.00000000
 dabs(Rj-Ri):           1          12  0.116452446635866     
 dabs(Ij+Ii):           1          12  1.052637230375347E-003
 dabs(Rj-Ri):           2          12  0.116046557423174     
 dabs(Ij+Ii):           2          12  1.052637230375347E-003
 dabs(Rj-Ri):           3          12  8.725555427458181E-002
 dabs(Ij+Ii):           3          12  1.052637230375347E-003
 dabs(Rj-Ri):           4          12  8.479426696056597E-002
 dabs(Ij+Ii):           4          12  1.052637230375347E-003
 dabs(Rj-Ri):           5          12  5.932777703599015E-002
 dabs(Ij+Ii):           5          12  1.052637230375347E-003
 dabs(Rj-Ri):           6          12  4.272901443832722E-002
 dabs(Ij+Ii):           6          12  1.052637230375347E-003
 dabs(Rj-Ri):           7          12  4.180558730509265E-002
 dabs(Ij+Ii):           7          12  1.052637230375347E-003
 dabs(Rj-Ri):           8          12  3.213818086693504E-002
 dabs(Ij+Ii):           8          12  1.052637230375347E-003
 dabs(Rj-Ri):           9          12  1.803343038775013E-002
 dabs(Ij+Ii):           9          12  1.052637230375347E-003
 dabs(Rj-Ri):          10          12  9.935888177806412E-003
 dabs(Ij+Ii):          10          12  1.052637230375347E-003
 dabs(Rj-Ri):          11          12  0.000000000000000E+000
 dabs(Ij+Ii):          11          12  0.000000000000000E+000
 dabs(Rj-Ri):          13          12  2.386355419770170E-003
 dabs(Ij+Ii):          13          12  1.052637230375347E-003
 dabs(Rj-Ri):          14          12  1.666405572691437E-002
 dabs(Ij+Ii):          14          12  1.052637230375347E-003
 dabs(Rj-Ri):          15          12  1.818564491888214E-002
 dabs(Ij+Ii):          15          12  1.052637230375347E-003
 dabs(Rj-Ri):          16          12  2.057189959524042E-002
 dabs(Ij+Ii):          16          12  1.052637230375347E-003
 dabs(Rj-Ri):          17          12  6.104605930746582E-002
 dabs(Ij+Ii):          17          12  1.052637230375347E-003
 dabs(Rj-Ri):          18          12  6.761168902217440E-002
 dabs(Ij+Ii):          18          12  1.052637230375347E-003
 dabs(Rj-Ri):          19          12  0.108845800805581     
 dabs(Ij+Ii):          19          12  1.052637230375347E-003
 dabs(Rj-Ri):          20          12  0.143145649357700     
 dabs(Ij+Ii):          20          12  1.052637230375347E-003
 dabs(Rj-Ri):          21          12  0.257118360730095     
 dabs(Ij+Ii):          21          12  1.052637230375347E-003
 dabs(Rj-Ri):          22          12  0.304965620235665     
 dabs(Ij+Ii):          22          12  1.052637230375347E-003
 dabs(Rj-Ri):          23          12  0.478525125510036     
 dabs(Ij+Ii):          23          12  1.052637230375347E-003
 dabs(Rj-Ri):          24          12  0.735585280141316     
 dabs(Ij+Ii):          24          12  1.052637230375347E-003
 dabs(Rj-Ri):          25          12   1.28666218960818     
 dabs(Ij+Ii):          25          12  1.052637230375347E-003
 dabs(Rj-Ri):          26          12   1.52247863715293     
 dabs(Ij+Ii):          26          12  1.052637230375347E-003
 overlap matrix for complex pair:

              1             2
 
    1     1.00000000   -0.00000000
    2    -0.00000000    1.00000000
 real eigenvalues of metric:

              1
 
    1     1.00000000
    2     1.00000000
 eigenvectors of metric:

              1             2
 
    1     0.99096259    0.13413852
    2    -0.13413852    0.99096259
 inverse square root of overlap matrix:

              1             2
 
    1     1.00000000    0.00000000
    2     0.00000000    1.00000000
 recalculated overlap matrix for complex pair:

              1             2
 
    1     1.00000000    0.00000000
    2     0.00000000    1.00000000
 warning> found low lying complex root...
 eigenvalues (imaginary parts) in redeig:

              1
 
    1     0.00000000
    2     0.00000000
    3     0.00000000
    4     0.00000000
    5     0.00000000
    6     0.00000000
    7     0.00000000
    8     0.00000000
    9     0.00000000
   10     0.00000000
   11    -0.00105264
   12     0.00105264
   13     0.00000000
   14     0.00000000
   15     0.00000000
   16     0.00000000
   17     0.00000000
   18     0.00000000
   19     0.00000000
   20     0.00000000
   21     0.00000000
   22     0.00000000
   23     0.00000000
   24     0.00000000
   25     0.00000000
   26     0.00000000
 eigenvalues (real parts) in redeig:

              1
 
    1     0.13766947
    2     0.13807536
    3     0.16686636
    4     0.16932765
    5     0.19479414
    6     0.21139290
    7     0.21231633
    8     0.22198373
    9     0.23608848
   10     0.24418603
   11     0.25412191
   12     0.25412191
   13     0.25650827
   14     0.27078597
   15     0.27230756
   16     0.27469381
   17     0.31516797
   18     0.32173360
   19     0.36296772
   20     0.39726756
   21     0.51124028
   22     0.55908753
   23     0.73264704
   24     0.98970719
   25     1.54078410
   26     1.77660055
     18       1         1.44     0.28E-01  ( 11)
 COSMO cphf update
 COSMO cphf update
 COSMO cphf update
 COSMO cphf update
 COSMO cphf update
 COSMO cphf update
 dabs(Rj-Ri):           1          11  0.116454994932611     
 dabs(Ij+Ii):           1          11  1.034843262491266E-003
 dabs(Rj-Ri):           2          11  0.116049451143214     
 dabs(Ij+Ii):           2          11  1.034843262491266E-003
 dabs(Rj-Ri):           3          11  8.725884191463260E-002
 dabs(Ij+Ii):           3          11  1.034843262491266E-003
 dabs(Rj-Ri):           4          11  8.479681565252348E-002
 dabs(Ij+Ii):           4          11  1.034843262491266E-003
 dabs(Rj-Ri):           5          11  5.933032542974176E-002
 dabs(Ij+Ii):           5          11  1.034843262491266E-003
 dabs(Rj-Ri):           6          11  4.273154851729097E-002
 dabs(Ij+Ii):           6          11  1.034843262491266E-003
 dabs(Rj-Ri):           7          11  4.180813569618899E-002
 dabs(Ij+Ii):           7          11  1.034843262491266E-003
 dabs(Rj-Ri):           8          11  3.214070241496605E-002
 dabs(Ij+Ii):           8          11  1.034843262491266E-003
 dabs(Rj-Ri):           9          11  1.803601308589170E-002
 dabs(Ij+Ii):           9          11  1.034843262491266E-003
 dabs(Rj-Ri):          10          11  9.938436461607136E-003
 dabs(Ij+Ii):          10          11  1.034843262491266E-003
 dabs(Rj-Ri):          12          11  0.000000000000000E+000
 dabs(Ij+Ii):          12          11  0.000000000000000E+000
 dabs(Rj-Ri):          13          11  2.382053376116133E-003
 dabs(Ij+Ii):          13          11  1.034843262491266E-003
 dabs(Rj-Ri):          14          11  8.852682508264598E-003
 dabs(Ij+Ii):          14          11  1.034843262491266E-003
 dabs(Rj-Ri):          15          11  1.666150744119754E-002
 dabs(Ij+Ii):          15          11  1.034843262491266E-003
 dabs(Rj-Ri):          16          11  1.820492733405193E-002
 dabs(Ij+Ii):          16          11  1.034843262491266E-003
 dabs(Rj-Ri):          17          11  5.500041114016374E-002
 dabs(Ij+Ii):          17          11  1.034843262491266E-003
[...]
 | E_exci (ground to x state)      |     0.23608272  |
 | Correction for fast part of RF  |    -0.00129592  |
 | Correction for update of eq. RF |     0.00001916  |
 +---------------------------------+-----------------+


  +=========================================================================+
  |  Excited state reached by transition:                   model: ADC(2)   |
  |    number, symmetry, multiplicity:   10 a    1                          |
  |    frequency :   0.2441858440 a.u.     6.64463 e.V.     53592.6 rcm     |
  +=========================================================================+

      Total energy of excited state:    -491.1798411409

   +-----------------+-----------------+-----------------+-----------------+
   | operator        | expect. value   | electr. contrib.| diff to gr.st.  |
   +-----------------+-----------------+-----------------+-----------------+
   | xdiplen (unrel) |     -3.21862468 |    -91.31498318 |      0.58928950 |
   | xdiplen (relax) |     -2.80520854 |    -90.90156703 |       ---       |
   | ydiplen (unrel) |     -0.00155156 |     -0.00156054 |     -0.00167120 |
   | ydiplen (relax) |     -0.00139288 |     -0.00140187 |       ---       |
   | zdiplen (unrel) |      0.13059041 |      1.86968499 |     -0.09575521 |
   | zdiplen (relax) |      0.14137785 |      1.88047243 |       ---       |
   +-----------------+-----------------+-----------------+-----------------+


     Analysis of relaxed properties:
     ===============================


     dipole moment:
     --------------

     x     -2.80520854
     y     -0.00139288
     z      0.14137785

     | dipole moment | =      2.80876923 a.u. =      7.13917859 debye
 


     Analysis of unrelaxed properties:
     =================================


     dipole moment:
     --------------

     x     -3.21862468
     y     -0.00155156
     z      0.13059041

     | dipole moment | =      3.22127321 a.u. =      8.18765904 debye
 

 +---------------------------------+-----------------+
 |   Nonequilibrium solvation      |                 |
 +---------------------------------+-----------------+
 |   E_x_(y) is the total free energy of target      |
 |   state x in the reaction field (RF)              |
 |   equilibrated for state y                        |
 +---------------------------------+-----------------+
 | E_x_(y)                         |  -491.18235347  |
 | E_x_(y) (+OCC)                  |  -491.18462483  |
 | Outlying charge correction(OCC) |    -0.00227136  |
 | E_SCF with RF of state y        |  -489.41980262  |
 | E_corr (ground state)           |    -2.00422463  |
 | E_exci (ground to x state)      |     0.24418584  |
 | Correction for fast part of RF  |    -0.00251321  |
 | Correction for update of eq. RF |     0.00000114  |
 +---------------------------------+-----------------+


  +=========================================================================+
  |  Excited state reached by transition:                   model: ADC(2)   |
  |    number, symmetry, multiplicity:   11 a    1                          |
  |    frequency :   0.2534347151 a.u.     6.89631 e.V.     55622.5 rcm     |
  +=========================================================================+

      Total energy of excited state:    -491.1705922698

   +-----------------+-----------------+-----------------+-----------------+
   | operator        | expect. value   | electr. contrib.| diff to gr.st.  |
   +-----------------+-----------------+-----------------+-----------------+
   | xdiplen (unrel) |     -6.88907850 |    -94.98543700 |     -3.08116432 |
   | xdiplen (relax) |     -6.37190060 |    -94.46825909 |       ---       |
   | ydiplen (unrel) |      0.00004488 |      0.00003589 |     -0.00007477 |
   | ydiplen (relax) |      0.00011178 |      0.00010279 |       ---       |
   | zdiplen (unrel) |      0.19114282 |      1.93023740 |     -0.03520281 |
   | zdiplen (relax) |      0.20002124 |      1.93911582 |       ---       |
   +-----------------+-----------------+-----------------+-----------------+


     Analysis of relaxed properties:
     ===============================


     dipole moment:
     --------------

     x     -6.37190060
     y      0.00011178
     z      0.20002124

     | dipole moment | =      6.37503927 a.u. =     16.20373203 debye
 


     Analysis of unrelaxed properties:
     =================================


     dipole moment:
     --------------

     x     -6.88907850
     y      0.00004488
     z      0.19114282

     | dipole moment | =      6.89172969 a.u. =     17.51702796 debye
 

 +---------------------------------+-----------------+
 |   Nonequilibrium solvation      |                 |
 +---------------------------------+-----------------+
 |   E_x_(y) is the total free energy of target      |
 |   state x in the reaction field (RF)              |
 |   equilibrated for state y                        |
 +---------------------------------+-----------------+
 | E_x_(y)                         |  -491.17353866  |
 | E_x_(y) (+OCC)                  |  -491.17397811  |
 | Outlying charge correction(OCC) |    -0.00043945  |
 | E_SCF with RF of state y        |  -489.41980262  |
 | E_corr (ground state)           |    -2.00422463  |
 | E_exci (ground to x state)      |     0.25343472  |
 | Correction for fast part of RF  |    -0.00302505  |
 | Correction for update of eq. RF |     0.00007892  |
 +---------------------------------+-----------------+


  +=========================================================================+
  |  Excited state reached by transition:                   model: ADC(2)   |
  |    number, symmetry, multiplicity:   12 a    1                          |
  |    frequency :   0.2558011511 a.u.     6.96070 e.V.     56141.9 rcm     |
  +=========================================================================+

      Total energy of excited state:    -491.1682258338

   +-----------------+-----------------+-----------------+-----------------+
   | operator        | expect. value   | electr. contrib.| diff to gr.st.  |
   +-----------------+-----------------+-----------------+-----------------+
   | xdiplen (unrel) |     -4.87071593 |    -92.96707443 |     -1.06280175 |
   | xdiplen (relax) |     -4.31846117 |    -92.41481967 |       ---       |
   | ydiplen (unrel) |      0.00205109 |      0.00204210 |      0.00193144 |
   | ydiplen (relax) |      0.00185462 |      0.00184563 |       ---       |
   | zdiplen (unrel) |      0.17034488 |      1.90943946 |     -0.05600074 |
   | zdiplen (relax) |      0.17553592 |      1.91463050 |       ---       |
   +-----------------+-----------------+-----------------+-----------------+


     Analysis of relaxed properties:
     ===============================


     dipole moment:
     --------------

     x     -4.31846117
     y      0.00185462
     z      0.17553592

     | dipole moment | =      4.32202767 a.u. =     10.98549754 debye
 


     Analysis of unrelaxed properties:
     =================================


     dipole moment:
     --------------

     x     -4.87071593
     y      0.00205109
     z      0.17034488

     | dipole moment | =      4.87369421 a.u. =     12.38769388 debye
 

 +---------------------------------+-----------------+
 |   Nonequilibrium solvation      |                 |
 +---------------------------------+-----------------+
 |   E_x_(y) is the total free energy of target      |
 |   state x in the reaction field (RF)              |
 |   equilibrated for state y                        |
 +---------------------------------+-----------------+
 | E_x_(y)                         |  -491.17012061  |
 | E_x_(y) (+OCC)                  |  -491.17190640  |
 | Outlying charge correction(OCC) |    -0.00178579  |
 | E_SCF with RF of state y        |  -489.41980262  |
 | E_corr (ground state)           |    -2.00422463  |
 | E_exci (ground to x state)      |     0.25580115  |
 | Correction for fast part of RF  |    -0.00189671  |
 | Correction for update of eq. RF |     0.00000220  |
 +---------------------------------+-----------------+


  +=========================================================================+
  |  Excited state reached by transition:                   model: ADC(2)   |
  |    number, symmetry, multiplicity:   13 a    1                          |
  |    frequency :   0.2565148494 a.u.     6.98012 e.V.     56298.5 rcm     |
  +=========================================================================+

      Total energy of excited state:    -491.1675121355

   +-----------------+-----------------+-----------------+-----------------+
   | operator        | expect. value   | electr. contrib.| diff to gr.st.  |
   +-----------------+-----------------+-----------------+-----------------+
   | xdiplen (unrel) |     -3.98262088 |    -92.07897938 |     -0.17470670 |
   | xdiplen (relax) |     -3.54174759 |    -91.63810609 |       ---       |
   | ydiplen (unrel) |      0.00042978 |      0.00042079 |      0.00031014 |
   | ydiplen (relax) |      0.00024231 |      0.00023333 |       ---       |
   | zdiplen (unrel) |      0.23477529 |      1.97386987 |      0.00842967 |
   | zdiplen (relax) |      0.23315636 |      1.97225094 |       ---       |
   +-----------------+-----------------+-----------------+-----------------+


     Analysis of relaxed properties:
     ===============================


     dipole moment:
     --------------

     x     -3.54174759
     y      0.00024231
     z      0.23315636

     | dipole moment | =      3.54941375 a.u. =      9.02170901 debye
 


     Analysis of unrelaxed properties:
     =================================


     dipole moment:
     --------------

     x     -3.98262088
     y      0.00042978
     z      0.23477529

     | dipole moment | =      3.98953490 a.u. =     10.14038529 debye
 

 +---------------------------------+-----------------+
 |   Nonequilibrium solvation      |                 |
 +---------------------------------+-----------------+
 |   E_x_(y) is the total free energy of target      |
 |   state x in the reaction field (RF)              |
 |   equilibrated for state y                        |
 +---------------------------------+-----------------+
 | E_x_(y)                         |  -491.16761650  |
 | E_x_(y) (+OCC)                  |  -491.16789891  |
 | Outlying charge correction(OCC) |    -0.00028241  |
 | E_SCF with RF of state y        |  -489.41980262  |
 | E_corr (ground state)           |    -2.00422463  |
 | E_exci (ground to x state)      |     0.25651485  |
 | Correction for fast part of RF  |    -0.00010371  |
 | Correction for update of eq. RF |    -0.00000039  |
 +---------------------------------+-----------------+


  +=========================================================================+
  |  Excited state reached by transition:                   model: ADC(2)   |
  |    number, symmetry, multiplicity:   14 a    1                          |
  |    frequency :   0.2587934054 a.u.     7.04213 e.V.     56798.6 rcm     |
  +=========================================================================+

      Total energy of excited state:    -491.1652335795

   +-----------------+-----------------+-----------------+-----------------+
   | operator        | expect. value   | electr. contrib.| diff to gr.st.  |
   +-----------------+-----------------+-----------------+-----------------+
   | xdiplen (unrel) |      1.37939809 |    -86.71696040 |      5.18731228 |
   | xdiplen (relax) |     -0.69383477 |    -88.79019326 |       ---       |
   | ydiplen (unrel) |      0.00015931 |      0.00015033 |      0.00003967 |
   | ydiplen (relax) |      0.00014380 |      0.00013481 |       ---       |
   | zdiplen (unrel) |      0.23255459 |      1.97164917 |      0.00620897 |
   | zdiplen (relax) |      0.22243261 |      1.96152719 |       ---       |
   +-----------------+-----------------+-----------------+-----------------+


     Analysis of relaxed properties:
     ===============================


     dipole moment:
     --------------

     x     -0.69383477
     y      0.00014380
     z      0.22243261

     | dipole moment | =      0.72861716 a.u. =      1.85195992 debye
 


     Analysis of unrelaxed properties:
     =================================


     dipole moment:
     --------------

     x      1.37939809
     y      0.00015931
     z      0.23255459

     | dipole moment | =      1.39886410 a.u. =      3.55555755 debye
 

 +---------------------------------+-----------------+
 |   Nonequilibrium solvation      |                 |
 +---------------------------------+-----------------+
 |   E_x_(y) is the total free energy of target      |
 |   state x in the reaction field (RF)              |
 |   equilibrated for state y                        |
 +---------------------------------+-----------------+
 | E_x_(y)                         |  -491.17074006  |
 | E_x_(y) (+OCC)                  |  -491.17122813  |
 | Outlying charge correction(OCC) |    -0.00048807  |
 | E_SCF with RF of state y        |  -489.41980262  |
 | E_corr (ground state)           |    -2.00422463  |
 | E_exci (ground to x state)      |     0.25879341  |
 | Correction for fast part of RF  |    -0.00539117  |
 | Correction for update of eq. RF |    -0.00011505  |
 +---------------------------------+-----------------+


  +=========================================================================+
  |  Excited state reached by transition:                   model: ADC(2)   |
  |    number, symmetry, multiplicity:   15 a    1                          |
  |    frequency :   0.2695199579 a.u.     7.33401 e.V.     59152.8 rcm     |
  +=========================================================================+

      Total energy of excited state:    -491.1545070270

   +-----------------+-----------------+-----------------+-----------------+
   | operator        | expect. value   | electr. contrib.| diff to gr.st.  |
   +-----------------+-----------------+-----------------+-----------------+
   | xdiplen (unrel) |     -6.09488415 |    -94.19124265 |     -2.28696997 |
   | xdiplen (relax) |     -5.49397005 |    -93.59032854 |       ---       |
   | ydiplen (unrel) |      0.00010464 |      0.00009566 |     -0.00001500 |
   | ydiplen (relax) |      0.00012365 |      0.00011467 |       ---       |
   | zdiplen (unrel) |      0.22969193 |      1.96878651 |      0.00334631 |
   | zdiplen (relax) |      0.22667318 |      1.96576776 |       ---       |
   +-----------------+-----------------+-----------------+-----------------+


     Analysis of relaxed properties:
     ===============================


     dipole moment:
     --------------

     x     -5.49397005
     y      0.00012365
     z      0.22667318

     | dipole moment | =      5.49864416 a.u. =     13.97615807 debye
 


     Analysis of unrelaxed properties:
     =================================


     dipole moment:
     --------------

     x     -6.09488415
     y      0.00010464
     z      0.22969193

     | dipole moment | =      6.09921070 a.u. =     15.50264580 debye
 

 +---------------------------------+-----------------+
 |   Nonequilibrium solvation      |                 |
 +---------------------------------+-----------------+
 |   E_x_(y) is the total free energy of target      |
 |   state x in the reaction field (RF)              |
 |   equilibrated for state y                        |
 +---------------------------------+-----------------+
 | E_x_(y)                         |  -491.15669753  |
 | E_x_(y) (+OCC)                  |  -491.15708249  |
 | Outlying charge correction(OCC) |    -0.00038496  |
 | E_SCF with RF of state y        |  -489.41980262  |
 | E_corr (ground state)           |    -2.00422463  |
 | E_exci (ground to x state)      |     0.26951996  |
 | Correction for fast part of RF  |    -0.00225696  |
 | Correction for update of eq. RF |     0.00006671  |
 +---------------------------------+-----------------+
 Exporting excited state densities


 =============================================
 | SUMMARY OF RELAXED EXCITATIONS WITH COSMO |
 =============================================

 Explanation of the quantities below:

       E(diff)_x = E_x - E*_y
       E(exci)_x = E_x - E_gs

  E_x  : noneq.        energy of state x
  E*_y : eq.           energy of state y
  E_gs : noneq. or eq. energy of groundstate
  OCC  : outlying charge correction

 The * in column 'sym' marks the equilibrated state

 +=================================================================================+
 | sym | multi | state | COSMO-ADC(2) energy differences                           |
 |     |       |       +-----------------------------------------------------------+
 |     |       |       | E(Total)/au. |  E(diff)/eV  |  E(exci)/eV  |E(exc(OCC))/eV|
 +=================================================================================+
 |*a   |   1   |   0   | -491.4240272 |            - |            - |            - |
 +-----+-------+-------+--------------+--------------+--------------+--------------+
 | a   |   1   |   1   | -491.2867886 |      3.73445 |      3.73445 |      3.73446 |
 +-----+-------+-------+--------------+--------------+--------------+--------------+
 | a   |   1   |   2   | -491.2896267 |      3.65723 |      3.65723 |      3.65130 |
 +-----+-------+-------+--------------+--------------+--------------+--------------+
 | a   |   1   |   3   | -491.2577060 |      4.52583 |      4.52583 |      4.52530 |
 +-----+-------+-------+--------------+--------------+--------------+--------------+
 | a   |   1   |   4   | -491.2549377 |      4.60116 |      4.60116 |      4.60059 |
 +-----+-------+-------+--------------+--------------+--------------+--------------+
 | a   |   1   |   5   | -491.2304359 |      5.26789 |      5.26789 |      5.26515 |
 +-----+-------+-------+--------------+--------------+--------------+--------------+
 | a   |   1   |   6   | -491.2133994 |      5.73147 |      5.73147 |      5.72008 |
 +-----+-------+-------+--------------+--------------+--------------+--------------+
 | a   |   1   |   7   | -491.2117617 |      5.77604 |      5.77604 |      5.77533 |
 +-----+-------+-------+--------------+--------------+--------------+--------------+
 | a   |   1   |   8   | -491.2029845 |      6.01488 |      6.01488 |      6.01463 |
 +-----+-------+-------+--------------+--------------+--------------+--------------+
 | a   |   1   |   9   | -491.1892213 |      6.38940 |      6.38940 |      6.37910 |
 +-----+-------+-------+--------------+--------------+--------------+--------------+
 | a   |   1   |  10   | -491.1823535 |      6.57628 |      6.57628 |      6.52171 |
 +-----+-------+-------+--------------+--------------+--------------+--------------+
 | a   |   1   |  11   | -491.1735387 |      6.81614 |      6.81614 |      6.81142 |
 +-----+-------+-------+--------------+--------------+--------------+--------------+
 | a   |   1   |  12   | -491.1701206 |      6.90915 |      6.90915 |      6.86779 |
 +-----+-------+-------+--------------+--------------+--------------+--------------+
 | a   |   1   |  13   | -491.1676165 |      6.97729 |      6.97729 |      6.97684 |
 +-----+-------+-------+--------------+--------------+--------------+--------------+
 | a   |   1   |  14   | -491.1707401 |      6.89229 |      6.89229 |      6.88625 |
 +-----+-------+-------+--------------+--------------+--------------+--------------+
 | a   |   1   |  15   | -491.1566975 |      7.27441 |      7.27441 |      7.27117 |
 +=================================================================================+



    ------------------------------------------------------------------------
         total  cpu-time :  4 hours 31 minutes and  0 seconds
         total wall-time : 17 hours  8 minutes and 24 seconds
    ------------------------------------------------------------------------


   ****  ricc2 : all done  ****


    2023-03-23 21:26:41.909 

