 hostname is         dlt19.abaxnet
 this is node-proc. number 0 running on node dlt19.abaxnet
 the total number of node-proc. spawned is   1

 ricc2 (dlt19.abaxnet) : TURBOMOLE V6.6( 19125 ) 27 May 2014 at 14:24:19
 Copyright (C) 2014 TURBOMOLE GmbH, Karlsruhe


    2023-03-23 21:31:45.675 



                              R I C C 2 - PROGRAM

                          the quantum chemistry groups
                             at the universities in
                           Karlsruhe, Bochum & Mainz
                                   Germany



   *-----------------------------------------------------------------------*
   |                     program will use  1 thread(s)                     |
   *-----------------------------------------------------------------------*


              +--------------------------------------------------+
              | Atomic coordinate, charge and isotop information |
              +--------------------------------------------------+

                    atomic coordinates            atom    charge  isotop
          1.25897108    2.28255516   -0.02810580    c      6.000     0
          2.55589237    0.00000080   -0.02681200    c      6.000     0
          1.25897007   -2.28255733   -0.02813934    c      6.000     0
         -1.33317556   -2.28375619   -0.03047017    c      6.000     0
         -2.68660099    0.00000277   -0.03031113    c      6.000     0
         -1.33317837    2.28375729   -0.03043298    c      6.000     0
          2.29932227    4.03663792   -0.02521679    h      1.000     0
          2.29931977   -4.03664088   -0.02527372    h      1.000     0
         -2.35209669   -4.05620705   -0.03323531    h      1.000     0
         -2.35209002    4.05621365   -0.03315997    h      1.000     0
          5.27622553    0.00000026   -0.02078360    n      7.000     0
          6.38036802   -2.02707200   -0.01818823    o      8.000     0
          6.38036929    2.02707185   -0.01828296    o      8.000     0
         -5.24842481   -0.00000067   -0.08128959    n      7.000     0
         -6.20193517   -1.61497920    0.21484055    h      1.000     0
         -6.20193679    1.61497363    0.21486103    h      1.000     0
 
       center of nuclear mass  :    1.36535189    0.00000014   -0.02744662
       center of nuclear charge:    1.22356053    0.00000012   -0.02415409

              +--------------------------------------------------+
              |               basis set information              |
              +--------------------------------------------------+

              we will work with the 1s 3p 5d 7f 9g ... basis set
              ...i.e. with spherical basis functions...

   type   atoms  prim   cont   basis
   ---------------------------------------------------------------------------
    c        6     52     37   def2-TZVPD   [6s3p3d1f|12s6p3d1f]
    h        6     11      9   def2-TZVPD   [3s2p|5s2p]
    n        2     52     37   def2-TZVPD   [6s3p3d1f|12s6p3d1f]
    o        2     55     40   def2-TZVPD   [6s4p3d1f|12s7p3d1f]
   ---------------------------------------------------------------------------
   total:   16    592    430
   ---------------------------------------------------------------------------

   total number of primitive shells          :   74
   total number of contracted shells         :  162
   total number of cartesian basis functions :  490
   total number of SCF-basis functions       :  430



   =========================================================================


     restricted closed shell calculation for the wavefunction models:
               ADC(2)     - Algebraic Diagrammatic Construction to 2. Order (strict)


     global parameters for ricc2 program:

        hard restart (reuse of interm.) :  enabled 
        soft restart (reuse of vectors) :  disabled
        threshold for vector function   :    0.100000E-06
        convergence threshold energy    :    0.100000E-07
        linear dependence threshold     :    0.100000E-13
        global print level              :      1
        maximum number of iterations    :   500
        maximum number DIIS vectors     :    10
        max. dim. of reduced space      :   100
        core memory limit (MB)          :   500
        disk space limit (MB)           :   none


   =========================================================================
     "cartesian on" in $drvopt is ignored by $ricc2

    der. integral neglect threshold  :  0.10E-08
    integral neglect threshold       :  0.68E-12
    integral storage threshold THIZE :  0.10E-04
    integral storage threshold THIME :         5


                  +------------------------------------------+
                  |     Auxiliary basis set information      |
                  +------------------------------------------+

              we will work with the 1s 3p 5d 7f 9g ... basis set
              ...i.e. with spherical basis functions...

   type   atoms  prim   cont   basis
   ---------------------------------------------------------------------------
    c        6     97     92   def2-TZVPD   [9s7p5d4f1g|9s7p6d4f1g]
    h        6     32     24   def2-TZVPD   [5s3p2d|5s4p3d]
    n        2     97     92   def2-TZVPD   [9s7p5d4f1g|9s7p6d4f1g]
    o        2     97     92   def2-TZVPD   [9s7p5d4f1g|9s7p6d4f1g]
   ---------------------------------------------------------------------------
   total:   16   1162   1064
   ---------------------------------------------------------------------------

   total number of primitive shells          :   93
   total number of contracted shells         :  320
   total number of cartesian basis functions : 1306
   total number of SCF-basis functions       : 1064


 symmetry group of the molecule :   c1 

 the group has the following generators :
   c1(z)

    1 symmetry operations found

 there are 1 real representations :   a   

 maximum number of shells which are related by symmetry :  1


 The symmetry information takes   1 MB

*---------------------------------------------------------------------*
|               simplified C1 algorithm will be applied               |
*---------------------------------------------------------------------*
 ==============================================================================
                      COSMO switched on
 ==============================================================================
            ======================================================
                      COSMO settings in RICC2
                   --------------------------
             Solvent charges are equilibrated for ground state
             "cycle" indicates frozen COSMO charges,
             hence no COSMO CPHF contribution included
             COSMO linear response (LR) contribution included
             Outlying Charge Correction (OCC) is performed
             Using epsilon          =    10.125
             Using refractive index =     1.300
            ======================================================
        IMPORTANT NOTICE: The calculation of the solvent contributions will
         need the relaxed densities in general. Therefore the actual COSMO
         energies will be output only at the end of the run. Any energies
         or excitation energies quoted before that are only intermediate
         quantities and should be ignored unless you know what you are doing!

  MOs are in ASCII format !


 reading orbital data $scfmo  from file mos . 

 orbital characterization : scfconv=7
 

         --------------------------------------------------------------
                   checking mo's by calculating trace(D*S)

              number of electrons : 
                 from trace(D*S)         :   71.999999999997
                 from occupation numbers :   72.000000000000

              molecular charge           :    0.000000000000
         --------------------------------------------------------------

 time elapsed for calculating density matrices :   0.010 sec
 all orbitals will be active in the correlation treatment

  ----------------------------------------------------------------------------
  hard_restart flag is disabled because the check sum for the
  molecular orbitals "$chkmos" differs from the reference value:
  reference value:     4983261.68028504    
  computed value :     4983261.68037958    
  relative error :    0.189708463992725E-10
  tolerance      :    0.100000000000000E-11
  the calculation will proceed...
  ----------------------------------------------------------------------------


   Molecular Orbital Statistic:
   ============================

   -----------------------------
   orbitals in total:
   -----------------------------
    frozen occupied :      0
    active occupied :     36
    active virtual  :    394
    frozen virtual  :      0
    all together    :    430
   -----------------------------


     time in riccmos       cpu:  0.14 sec    wall:  1.72 sec    ratio:  0.1

     total memory allocated for calculation of (Q|P)**(-1/2) : 13 MiB


     calculation of (P|Q) ...
     time in lp2sym        cpu:  0.02 sec    wall:  0.02 sec    ratio:  1.0


     calculation of the Cholesky decomposition of (P|Q)**(-1) ...
     time in invmetri      cpu:  0.07 sec    wall:  0.97 sec    ratio:  0.1

   threshold for RMS(d[D]) in SCF was     :  0.10E-07
   integral neglect threshold             :  0.68E-12
   derivative integral neglect threshold  :  0.10E-08


 setting up bound for integral derivative estimation

 increment for numerical differentiation : 0.00050000

   =========================================================================

     Energy of reference wave function is  -489.4197903350000
     Maximum orbital residual is           0.1697940136379E-04


     Number of symmetry-nonredundant auxiliary basis functions:     1064

     Block lengths for integral files:
        frozen occupied (BOI):        0 MiB
        active occupied (BJI):        1 MiB
        active virtual  (BAI):        4 MiB
        frozen virtual  (BGI):        0 MiB
               general  (BTI):        4 MiB

   =========================================================================




   **************************************************************************
   *                                                                        *
   *          OPTIMIZATION OF THE GROUND STATE CLUSTER AMPLITUDES           *
   *                                                                        *
   **************************************************************************


   Iter.   MP2 energy       Norm(Omega)    Norm(t1)  Norm(t2)     cpu    wall
   ...........................................................................
    1   -491.4240274531    0.1615671672     0.00000   0.44521    0.29    0.99
   ...........................................................................


     time in total         cpu: 17.33 sec    wall: 59.40 sec    ratio:  0.3


     **********************************************************************
     *                                                                    *
     *   RHF  energy                             :   -489.4197903350      *
     *   MP2 correlation energy                  :     -2.0042371181      *
     *                                                                    *
     *   Final MP2 energy                        :   -491.4240274531      *
     *                                                                    *
     *   Norm of MP1 T2 amplitudes               :      0.4452131195      *
     *                                                                    *
     *   D1 diagnostic                           :      0.0591            *
     *                                                                    *
     **********************************************************************

 Using refractive index n                   =    1.30000000000000     
 Screening function (n**2-1)/(n**2+0.5)     =   0.315068493150685     


 **************************************************************
 *                                                            *
 *    OPTIMIZATION OF THE EXCITED STATE CLUSTER AMPLITUDES    *
 *                                                            *
 **************************************************************


  preoptimize excitation energies/vectors using CCS:

  ==================================================


 ======== LINEAR CC RESPONSE SOLVER ========

    threshold for convergence: 0.10E-02
    maximum number of simultaneous jacoby matrix transformations: 15
                                                
     summary of start vectors generation:
     -------------------------------------------
     type of solution vectors      : RE0
     symmetry                      : a  
     number of vectors requested   :    15
     number of vectors generated   :    15
       -- guessed as rhs/(e_a-e_i) :    15
     -------------------------------------------
                                                

    Iter  #Vectors  time (min)    max. residual 
    --------------------------------------------
 COSMO cphf update
 COSMO cphf update
 COSMO cphf update
 COSMO cphf update
 COSMO cphf update
 COSMO cphf update
 COSMO cphf update
 COSMO cphf update
 COSMO cphf update
 COSMO cphf update
 COSMO cphf update
 COSMO cphf update
 COSMO cphf update
 COSMO cphf update
 COSMO cphf update
      1      15         4.82     0.14E+00  (  1)
 COSMO cphf update
 COSMO cphf update
 COSMO cphf update
 COSMO cphf update
 COSMO cphf update
 COSMO cphf update
 COSMO cphf update
 COSMO cphf update
 COSMO cphf update
 COSMO cphf update
 COSMO cphf update
 COSMO cphf update
 COSMO cphf update
 COSMO cphf update
 COSMO cphf update
      2      15         4.81     0.52E-01  ( 10)
 COSMO cphf update
 COSMO cphf update
 COSMO cphf update
 COSMO cphf update
 COSMO cphf update
 COSMO cphf update
 COSMO cphf update
 COSMO cphf update
 COSMO cphf update
 COSMO cphf update
 COSMO cphf update
 COSMO cphf update
 COSMO cphf update
 COSMO cphf update
 COSMO cphf update
      3      15         4.78     0.77E-01  (  7)
 COSMO cphf update
 COSMO cphf update
 COSMO cphf update
 COSMO cphf update
 COSMO cphf update
 COSMO cphf update
 COSMO cphf update
 COSMO cphf update
 COSMO cphf update
 COSMO cphf update
 COSMO cphf update
 COSMO cphf update
 COSMO cphf update
 COSMO cphf update
 COSMO cphf update
      4      15         4.76     0.15E+00  ( 13)
 COSMO cphf update
 COSMO cphf update
 COSMO cphf update
 COSMO cphf update
 COSMO cphf update
 COSMO cphf update
 COSMO cphf update
 COSMO cphf update
 COSMO cphf update
 COSMO cphf update
 COSMO cphf update
 COSMO cphf update
 COSMO cphf update
 COSMO cphf update
 COSMO cphf update
      5      15         4.81     0.16E+00  (  4)
 COSMO cphf update
 COSMO cphf update
 COSMO cphf update
 COSMO cphf update
 COSMO cphf update
 COSMO cphf update
 COSMO cphf update
 COSMO cphf update
 COSMO cphf update
 COSMO cphf update
 COSMO cphf update
 COSMO cphf update
 COSMO cphf update
 COSMO cphf update
 COSMO cphf update
  dimension of red. space became too large.
  try internal restart...
      6      15         4.87     0.87E-01  (  2)
                                                
     summary of start vectors generation:
     -------------------------------------------
     type of solution vectors      : RE0
     symmetry                      : a  
     number of vectors requested   :    15
     number of vectors generated   :    15
       -- restarted from file      :    15
     -------------------------------------------
                                                

    Iter  #Vectors  time (min)    max. residual 
    --------------------------------------------
 COSMO cphf update
 COSMO cphf update
 COSMO cphf update
 COSMO cphf update
 COSMO cphf update
 COSMO cphf update
 COSMO cphf update
 COSMO cphf update
 COSMO cphf update
 COSMO cphf update
 COSMO cphf update
 COSMO cphf update
 COSMO cphf update
 COSMO cphf update
 COSMO cphf update
      7      15         4.79     0.87E-01  (  2)
 COSMO cphf update
 COSMO cphf update
 COSMO cphf update
 COSMO cphf update
 COSMO cphf update
 COSMO cphf update
 COSMO cphf update
 COSMO cphf update
 COSMO cphf update
 COSMO cphf update
 COSMO cphf update
 COSMO cphf update
 COSMO cphf update
      8      13         4.17     0.30E-01  (  2)
 COSMO cphf update
 COSMO cphf update
 COSMO cphf update
 COSMO cphf update
 COSMO cphf update
 COSMO cphf update
 COSMO cphf update
 COSMO cphf update
 COSMO cphf update
      9       9         2.95     0.76E-02  (  2)
 COSMO cphf update
 COSMO cphf update
 COSMO cphf update
 COSMO cphf update
 COSMO cphf update
     10       5         1.61     0.27E-02  ( 13)
 COSMO cphf update
 COSMO cphf update
 COSMO cphf update
 COSMO cphf update
     11       4         1.33     0.12E-02  ( 13)
 COSMO cphf update
     12       1         0.41     0.76E-03  (  2)
    --------------------------------------------
    converged in 12 iterations

         Total time         44.14 minutes


 ===========================================




 Note that this is the intermediate result of a preoptimization!
 The convergence threshold was  0.1E-02 only!
 COSMO: note that the excitation energies below do not include
        the nonequilibrium contributions yet. These require the
        computation of the relaxed densities. See end of output
        for a final list of corrected excitations.


 +==================================================================+
 | sym | multi | state |          CCS excitation energies           |
 |     |       |       +--------------------------------------------+
 |     |       |       |   Hartree    |     eV       |     cm-1     |
 +==================================================================+
 | a   |   1   |   1   |    0.1822474 |      4.95921 |    39998.691 |
 | a   |   1   |   2   |    0.1964662 |      5.34612 |    43119.343 |
 | a   |   1   |   3   |    0.2045001 |      5.56473 |    44882.590 |
 | a   |   1   |   4   |    0.2116311 |      5.75878 |    46447.662 |
 | a   |   1   |   5   |    0.2299337 |      6.25681 |    50464.619 |
 | a   |   1   |   6   |    0.2466363 |      6.71132 |    54130.414 |
 | a   |   1   |   7   |    0.2579712 |      7.01975 |    56618.128 |
 | a   |   1   |   8   |    0.2591697 |      7.05237 |    56881.183 |
 | a   |   1   |   9   |    0.2624397 |      7.14135 |    57598.858 |
 | a   |   1   |  10   |    0.2660532 |      7.23968 |    58391.931 |
 | a   |   1   |  11   |    0.2794064 |      7.60303 |    61322.608 |
 | a   |   1   |  12   |    0.2831561 |      7.70507 |    62145.581 |
 | a   |   1   |  13   |    0.2857569 |      7.77584 |    62716.400 |
 | a   |   1   |  14   |    0.2961252 |      8.05798 |    64991.970 |
 | a   |   1   |  15   |    0.2967026 |      8.07369 |    65118.695 |
 +==================================================================+




  preoptimize ADC(2) excitation energies/vectors using a quasi linear algorithm:
  ==============================================================================


 ======== LINEAR CC RESPONSE SOLVER ========

    threshold for convergence: 0.10E-02
    maximum number of simultaneous jacoby matrix transformations: 15
                                                
     summary of start vectors generation:
     -------------------------------------------
     type of solution vectors      : RE0
     symmetry                      : a  
     number of vectors requested   :    15
     number of vectors generated   :    15
       -- restarted from file      :    15
     -------------------------------------------
                                                

    Iter  #Vectors  time (min)    max. residual 
    --------------------------------------------
 COSMO cphf update
 COSMO cphf update
 COSMO cphf update
 COSMO cphf update
 COSMO cphf update
 COSMO cphf update
 COSMO cphf update
 COSMO cphf update
 COSMO cphf update
 COSMO cphf update
 COSMO cphf update
 COSMO cphf update
 COSMO cphf update
 COSMO cphf update
 COSMO cphf update
 COSMO cphf update
 COSMO cphf update
 COSMO cphf update
 COSMO cphf update
 COSMO cphf update
 COSMO cphf update
 COSMO cphf update
 COSMO cphf update
 COSMO cphf update
 COSMO cphf update
 COSMO cphf update
 COSMO cphf update
 COSMO cphf update
 COSMO cphf update
 COSMO cphf update
 threshold for this macro iteration:  5.337640868477209E-002
      1      15        25.57     0.93E-01  (  2)
 COSMO cphf update
 COSMO cphf update
 COSMO cphf update
 COSMO cphf update
 COSMO cphf update
 COSMO cphf update
 COSMO cphf update
 COSMO cphf update
 COSMO cphf update
 COSMO cphf update
 COSMO cphf update
 COSMO cphf update
 COSMO cphf update
 COSMO cphf update
 COSMO cphf update
 COSMO cphf update
 ...adapted threshold to:  6.320014252287540E-002
      2       8        10.41     0.37E-01  ( 12)
                                                
     summary of start vectors generation:
     -------------------------------------------
     type of solution vectors      : RE0
     symmetry                      : a  
     number of vectors requested   :    15
     number of vectors generated   :    15
       -- restarted from file      :    15
     -------------------------------------------
                                                

    Iter  #Vectors  time (min)    max. residual 
    --------------------------------------------
 COSMO cphf update
 COSMO cphf update
 COSMO cphf update
 COSMO cphf update
 COSMO cphf update
 COSMO cphf update
 COSMO cphf update
 COSMO cphf update
 COSMO cphf update
 COSMO cphf update
 COSMO cphf update
 COSMO cphf update
 COSMO cphf update
 COSMO cphf update
 COSMO cphf update
 COSMO cphf update
 COSMO cphf update
 COSMO cphf update
 COSMO cphf update
 COSMO cphf update
 COSMO cphf update
 COSMO cphf update
 COSMO cphf update
 COSMO cphf update
 COSMO cphf update
 COSMO cphf update
 COSMO cphf update
 COSMO cphf update
 COSMO cphf update
 COSMO cphf update
 threshold for this macro iteration:  6.913984955447094E-003
      3      15        25.63     0.37E-01  ( 12)
 COSMO cphf update
 COSMO cphf update
 COSMO cphf update
 COSMO cphf update
 COSMO cphf update
 COSMO cphf update
 COSMO cphf update
 COSMO cphf update
 COSMO cphf update
 COSMO cphf update
 COSMO cphf update
 COSMO cphf update
 COSMO cphf update
 COSMO cphf update
 COSMO cphf update
 COSMO cphf update
 COSMO cphf update
 COSMO cphf update
 COSMO cphf update
 COSMO cphf update
 COSMO cphf update
 COSMO cphf update
 COSMO cphf update
 COSMO cphf update
 COSMO cphf update
 COSMO cphf update
 COSMO cphf update
 COSMO cphf update
 COSMO cphf update
 COSMO cphf update
      4      15        25.50     0.15E-01  ( 11)
 COSMO cphf update
 COSMO cphf update
 COSMO cphf update
 COSMO cphf update
 COSMO cphf update
 COSMO cphf update
 COSMO cphf update
 COSMO cphf update
 COSMO cphf update
 COSMO cphf update
 COSMO cphf update
 COSMO cphf update
 COSMO cphf update
 COSMO cphf update
 COSMO cphf update
 COSMO cphf update
 COSMO cphf update
 COSMO cphf update
 COSMO cphf update
 COSMO cphf update
 COSMO cphf update
 COSMO cphf update
 COSMO cphf update
 COSMO cphf update
 COSMO cphf update
 COSMO cphf update
 COSMO cphf update
 COSMO cphf update
      5      14        24.14     0.12E-01  ( 14)
 COSMO cphf update
 COSMO cphf update
 COSMO cphf update
 COSMO cphf update
 COSMO cphf update
 COSMO cphf update
      6       3         3.99     0.10E-01  ( 14)
 COSMO cphf update
 COSMO cphf update
      7       1         1.44     0.19E-01  ( 14)
 COSMO cphf update
 COSMO cphf update
      8       1         1.48     0.22E-01  ( 13)
 COSMO cphf update
 COSMO cphf update
 COSMO cphf update
 COSMO cphf update
      9       2         2.75     0.11E-01  ( 13)
 COSMO cphf update
 COSMO cphf update
     10       1         1.48     0.66E-02  (  4)
                                                
     summary of start vectors generation:
     -------------------------------------------
     type of solution vectors      : RE0
     symmetry                      : a  
     number of vectors requested   :    15
     number of vectors generated   :    15
       -- restarted from file      :    15
     -------------------------------------------
                                                

    Iter  #Vectors  time (min)    max. residual 
    --------------------------------------------
 COSMO cphf update
 COSMO cphf update
 COSMO cphf update
 COSMO cphf update
 COSMO cphf update
 COSMO cphf update
 COSMO cphf update
 COSMO cphf update
 COSMO cphf update
 COSMO cphf update
 COSMO cphf update
 COSMO cphf update
 COSMO cphf update
 COSMO cphf update
 COSMO cphf update
 COSMO cphf update
 COSMO cphf update
 COSMO cphf update
 COSMO cphf update
 COSMO cphf update
 COSMO cphf update
 COSMO cphf update
 COSMO cphf update
 COSMO cphf update
 COSMO cphf update
 COSMO cphf update
 COSMO cphf update
 COSMO cphf update
 COSMO cphf update
 COSMO cphf update
 threshold for this macro iteration:  1.208907802388043E-002
     11      15        25.69     0.74E-02  ( 11)
                                                
     summary of start vectors generation:
     -------------------------------------------
     type of solution vectors      : RE0
     symmetry                      : a  
     number of vectors requested   :    15
     number of vectors generated   :    15
       -- restarted from file      :    15
     -------------------------------------------
                                                

    Iter  #Vectors  time (min)    max. residual 
    --------------------------------------------
 COSMO cphf update
 COSMO cphf update
 COSMO cphf update
 COSMO cphf update
 COSMO cphf update
 COSMO cphf update
 COSMO cphf update
 COSMO cphf update
 COSMO cphf update
 COSMO cphf update
 COSMO cphf update
 COSMO cphf update
 COSMO cphf update
 COSMO cphf update
 COSMO cphf update
 COSMO cphf update
 COSMO cphf update
 COSMO cphf update
 COSMO cphf update
 COSMO cphf update
 COSMO cphf update
 COSMO cphf update
 COSMO cphf update
 COSMO cphf update
 COSMO cphf update
 COSMO cphf update
 COSMO cphf update
 COSMO cphf update
 COSMO cphf update
 COSMO cphf update
 dabs(Rj-Ri):           1          11  0.117611696856352     
 dabs(Ij+Ii):           1          11  1.303222557732635E-003
 dabs(Rj-Ri):           2          11  0.117096828417075     
 dabs(Ij+Ii):           2          11  1.303222557732635E-003
 dabs(Rj-Ri):           3          11  8.841863007706788E-002
 dabs(Ij+Ii):           3          11  1.303222557732635E-003
 dabs(Rj-Ri):           4          11  8.592297967748311E-002
 dabs(Ij+Ii):           4          11  1.303222557732635E-003
 dabs(Rj-Ri):           5          11  6.041038972323590E-002
 dabs(Ij+Ii):           5          11  1.303222557732635E-003
 dabs(Rj-Ri):           6          11  4.387493783764032E-002
 dabs(Ij+Ii):           6          11  1.303222557732635E-003
 dabs(Rj-Ri):           7          11  4.293235442591189E-002
 dabs(Ij+Ii):           7          11  1.303222557732635E-003
 dabs(Rj-Ri):           8          11  3.324220046696078E-002
 dabs(Ij+Ii):           8          11  1.303222557732635E-003
 dabs(Rj-Ri):           9          11  1.915104001331897E-002
 dabs(Ij+Ii):           9          11  1.303222557732635E-003
 dabs(Rj-Ri):          10          11  1.107018967080772E-002
 dabs(Ij+Ii):          10          11  1.303222557732635E-003
 dabs(Rj-Ri):          12          11  0.000000000000000E+000
 dabs(Ij+Ii):          12          11  0.000000000000000E+000
 dabs(Rj-Ri):          13          11  1.236040766257884E-003
 dabs(Ij+Ii):          13          11  1.303222557732635E-003
 dabs(Rj-Ri):          14          11  1.553791781570191E-002
 dabs(Ij+Ii):          14          11  1.303222557732635E-003
 dabs(Rj-Ri):          15          11  1.734997864687066E-002
 dabs(Ij+Ii):          15          11  1.303222557732635E-003
 overlap matrix for complex pair:

              1             2
 
    1     0.13312898   -0.00619557
    2    -0.00619557    0.00045930
 real eigenvalues of metric:

              1
 
    1     0.13341768
    2     0.00017060
 eigenvectors of metric:

              1             2
 
    1     0.99891609    0.04654731
    2    -0.04654731    0.99891609
 inverse square root of overlap matrix:

              1             2
 
    1     2.89769730    3.43257147
    2     3.43257147   76.40152666
 recalculated overlap matrix for complex pair:

              1             2
 
    1     1.00000000    0.00000000
    2     0.00000000    1.00000000
 dabs(Rj-Ri):           1          12  0.117611696856352     
 dabs(Ij+Ii):           1          12  1.303222557732635E-003
 dabs(Rj-Ri):           2          12  0.117096828417075     
 dabs(Ij+Ii):           2          12  1.303222557732635E-003
 dabs(Rj-Ri):           3          12  8.841863007706788E-002
 dabs(Ij+Ii):           3          12  1.303222557732635E-003
 dabs(Rj-Ri):           4          12  8.592297967748311E-002
 dabs(Ij+Ii):           4          12  1.303222557732635E-003
 dabs(Rj-Ri):           5          12  6.041038972323590E-002
 dabs(Ij+Ii):           5          12  1.303222557732635E-003
 dabs(Rj-Ri):           6          12  4.387493783764032E-002
 dabs(Ij+Ii):           6          12  1.303222557732635E-003
 dabs(Rj-Ri):           7          12  4.293235442591189E-002
 dabs(Ij+Ii):           7          12  1.303222557732635E-003
 dabs(Rj-Ri):           8          12  3.324220046696078E-002
 dabs(Ij+Ii):           8          12  1.303222557732635E-003
 dabs(Rj-Ri):           9          12  1.915104001331897E-002
 dabs(Ij+Ii):           9          12  1.303222557732635E-003
 dabs(Rj-Ri):          10          12  1.107018967080772E-002
 dabs(Ij+Ii):          10          12  1.303222557732635E-003
 dabs(Rj-Ri):          11          12  0.000000000000000E+000
 dabs(Ij+Ii):          11          12  0.000000000000000E+000
 dabs(Rj-Ri):          13          12  1.236040766257884E-003
 dabs(Ij+Ii):          13          12  1.303222557732635E-003
 dabs(Rj-Ri):          14          12  1.553791781570191E-002
 dabs(Ij+Ii):          14          12  1.303222557732635E-003
 dabs(Rj-Ri):          15          12  1.734997864687066E-002
 dabs(Ij+Ii):          15          12  1.303222557732635E-003
 overlap matrix for complex pair:

              1             2
 
    1     1.00000000    0.00000000
    2     0.00000000    1.00000000
 real eigenvalues of metric:

              1
 
    1     1.00000000
    2     1.00000000
 eigenvectors of metric:

              1             2
 
    1     0.78162611   -0.62374724
    2     0.62374724    0.78162611
 inverse square root of overlap matrix:

              1             2
 
    1     1.00000000   -0.00000000
    2    -0.00000000    1.00000000
 recalculated overlap matrix for complex pair:

              1             2
 
    1     1.00000000   -0.00000000
    2    -0.00000000    1.00000000
 warning> found low lying complex root...
 eigenvalues (imaginary parts) in redeig:

              1
 
    1     0.00000000
    2     0.00000000
    3     0.00000000
    4     0.00000000
    5     0.00000000
    6     0.00000000
    7     0.00000000
    8     0.00000000
    9     0.00000000
   10     0.00000000
   11    -0.00130322
   12     0.00130322
   13     0.00000000
   14     0.00000000
   15     0.00000000
 eigenvalues (real parts) in redeig:

              1
 
    1     0.13764548
    2     0.13816035
    3     0.16683855
    4     0.16933420
    5     0.19484679
    6     0.21138224
    7     0.21232483
    8     0.22201498
    9     0.23610614
   10     0.24418699
   11     0.25525718
   12     0.25525718
   13     0.25649322
   14     0.27079510
   15     0.27260716
 threshold for this macro iteration:  4.238691071442369E-003
     12      15        25.85     0.36E-01  ( 12)
 COSMO cphf update
 COSMO cphf update
 COSMO cphf update
 COSMO cphf update
 dabs(Rj-Ri):           1          11  0.116713408273728     
 dabs(Ij+Ii):           1          11  8.556835502995351E-004
 dabs(Rj-Ri):           2          11  0.116198382105358     
 dabs(Ij+Ii):           2          11  8.556835502995351E-004
 dabs(Rj-Ri):           3          11  8.752034828122346E-002
 dabs(Ij+Ii):           3          11  8.556835502995351E-004
 dabs(Rj-Ri):           4          11  8.502469109542513E-002
 dabs(Ij+Ii):           4          11  8.556835502995351E-004
 dabs(Rj-Ri):           5          11  5.951210114097472E-002
 dabs(Ij+Ii):           5          11  8.556835502995351E-004
 dabs(Rj-Ri):           6          11  4.297659953997196E-002
 dabs(Ij+Ii):           6          11  8.556835502995351E-004
 dabs(Rj-Ri):           7          11  4.203406584354813E-002
 dabs(Ij+Ii):           7          11  8.556835502995351E-004
 dabs(Rj-Ri):           8          11  3.234369849756474E-002
 dabs(Ij+Ii):           8          11  8.556835502995351E-004
 dabs(Rj-Ri):           9          11  1.825206350875677E-002
 dabs(Ij+Ii):           9          11  8.556835502995351E-004
 dabs(Rj-Ri):          10          11  1.017190108844795E-002
 dabs(Ij+Ii):          10          11  8.556835502995351E-004
 dabs(Rj-Ri):          12          11  0.000000000000000E+000
 dabs(Ij+Ii):          12          11  0.000000000000000E+000
 dabs(Rj-Ri):          13          11  2.151134424985324E-003
 dabs(Ij+Ii):          13          11  8.556835502995351E-004
 dabs(Rj-Ri):          14          11  1.643620549187996E-002
 dabs(Ij+Ii):          14          11  8.556835502995351E-004
 dabs(Rj-Ri):          15          11  1.804704346776764E-002
 dabs(Ij+Ii):          15          11  8.556835502995351E-004
 dabs(Rj-Ri):          16          11  0.160627099745924     
 dabs(Ij+Ii):          16          11  8.556835502995351E-004
 dabs(Rj-Ri):          17          11  0.197861054034058     
 dabs(Ij+Ii):          17          11  8.556835502995351E-004
 overlap matrix for complex pair:

              1             2
 
    1     0.14323953    0.04827412
    2     0.04827412    0.01633740
 real eigenvalues of metric:

              1
 
    1     0.15951568
    2     0.00006125
 eigenvectors of metric:

              1             2
 
    1     0.94758958   -0.31949019
    2     0.31949019    0.94758958
 inverse square root of overlap matrix:

              1             2
 
    1    15.29101986  -37.92618399
    2   -37.92618399  114.99068060
 recalculated overlap matrix for complex pair:

              1             2
 
    1     1.00000000    0.00000000
    2     0.00000000    1.00000000
 dabs(Rj-Ri):           1          12  0.116713408273728     
 dabs(Ij+Ii):           1          12  8.556835502995351E-004
 dabs(Rj-Ri):           2          12  0.116198382105358     
 dabs(Ij+Ii):           2          12  8.556835502995351E-004
 dabs(Rj-Ri):           3          12  8.752034828122346E-002
 dabs(Ij+Ii):           3          12  8.556835502995351E-004
 dabs(Rj-Ri):           4          12  8.502469109542513E-002
 dabs(Ij+Ii):           4          12  8.556835502995351E-004
 dabs(Rj-Ri):           5          12  5.951210114097472E-002
 dabs(Ij+Ii):           5          12  8.556835502995351E-004
 dabs(Rj-Ri):           6          12  4.297659953997196E-002
 dabs(Ij+Ii):           6          12  8.556835502995351E-004
 dabs(Rj-Ri):           7          12  4.203406584354813E-002
 dabs(Ij+Ii):           7          12  8.556835502995351E-004
 dabs(Rj-Ri):           8          12  3.234369849756474E-002
 dabs(Ij+Ii):           8          12  8.556835502995351E-004
 dabs(Rj-Ri):           9          12  1.825206350875677E-002
 dabs(Ij+Ii):           9          12  8.556835502995351E-004
 dabs(Rj-Ri):          10          12  1.017190108844795E-002
 dabs(Ij+Ii):          10          12  8.556835502995351E-004
 dabs(Rj-Ri):          11          12  0.000000000000000E+000
 dabs(Ij+Ii):          11          12  0.000000000000000E+000
 dabs(Rj-Ri):          13          12  2.151134424985324E-003
 dabs(Ij+Ii):          13          12  8.556835502995351E-004
 dabs(Rj-Ri):          14          12  1.643620549187996E-002
 dabs(Ij+Ii):          14          12  8.556835502995351E-004
 dabs(Rj-Ri):          15          12  1.804704346776764E-002
 dabs(Ij+Ii):          15          12  8.556835502995351E-004
 dabs(Rj-Ri):          16          12  0.160627099745924     
 dabs(Ij+Ii):          16          12  8.556835502995351E-004
 dabs(Rj-Ri):          17          12  0.197861054034058     
 dabs(Ij+Ii):          17          12  8.556835502995351E-004
 overlap matrix for complex pair:

              1             2
 
    1     1.00000000    0.00000000
    2     0.00000000    1.00000000
 real eigenvalues of metric:

              1
 
    1     1.00000000
    2     1.00000000
 eigenvectors of metric:

              1             2
 
    1     0.86828433    0.49606685
    2    -0.49606685    0.86828433
 inverse square root of overlap matrix:

              1             2
 
    1     1.00000000   -0.00000000
    2    -0.00000000    1.00000000
 recalculated overlap matrix for complex pair:

              1             2
 
    1     1.00000000   -0.00000000
    2    -0.00000000    1.00000000
 warning> found low lying complex root...
 eigenvalues (imaginary parts) in redeig:

              1
 
    1     0.00000000
    2     0.00000000
    3     0.00000000
    4     0.00000000
    5     0.00000000
    6     0.00000000
    7     0.00000000
    8     0.00000000
    9     0.00000000
   10     0.00000000
   11    -0.00085568
   12     0.00085568
   13     0.00000000
   14     0.00000000
   15     0.00000000
   16     0.00000000
   17     0.00000000
 eigenvalues (real parts) in redeig:

              1
 
    1     0.13764548
    2     0.13816051
    3     0.16683854
    4     0.16933420
    5     0.19484679
    6     0.21138229
    7     0.21232483
    8     0.22201519
    9     0.23610683
   10     0.24418699
   11     0.25435889
   12     0.25435889
   13     0.25651003
   14     0.27079510
   15     0.27240593
   16     0.41498599
   17     0.45221995
     13       2         2.72     0.29E-01  ( 12)
 COSMO cphf update
 COSMO cphf update
 COSMO cphf update
 COSMO cphf update
 COSMO cphf update
 COSMO cphf update
 dabs(Rj-Ri):           1          11  0.116566120438418     
 dabs(Ij+Ii):           1          11  1.084583345407742E-003
 dabs(Rj-Ri):           2          11  0.116050809927236     
 dabs(Ij+Ii):           2          11  1.084583345407742E-003
 dabs(Rj-Ri):           3          11  8.737305073370438E-002
 dabs(Ij+Ii):           3          11  1.084583345407742E-003
 dabs(Rj-Ri):           4          11  8.487740331175020E-002
 dabs(Ij+Ii):           4          11  1.084583345407742E-003
 dabs(Rj-Ri):           5          11  5.936481331145174E-002
 dabs(Ij+Ii):           5          11  1.084583345407742E-003
 dabs(Rj-Ri):           6          11  4.282920558259457E-002
 dabs(Ij+Ii):           6          11  1.084583345407742E-003
 dabs(Rj-Ri):           7          11  4.188677801642871E-002
 dabs(Ij+Ii):           7          11  1.084583345407742E-003
 dabs(Rj-Ri):           8          11  3.219630591931080E-002
 dabs(Ij+Ii):           8          11  1.084583345407742E-003
 dabs(Rj-Ri):           9          11  1.810442339639617E-002
 dabs(Ij+Ii):           9          11  1.084583345407742E-003
 dabs(Rj-Ri):          10          11  1.002461325373782E-002
 dabs(Ij+Ii):          10          11  1.084583345407742E-003
 dabs(Rj-Ri):          12          11  0.000000000000000E+000
 dabs(Ij+Ii):          12          11  0.000000000000000E+000
 dabs(Rj-Ri):          13          11  2.301213018831627E-003
 dabs(Ij+Ii):          13          11  1.084583345407742E-003
 dabs(Rj-Ri):          14          11  1.658349316836960E-002
 dabs(Ij+Ii):          14          11  1.084583345407742E-003
 dabs(Rj-Ri):          15          11  1.816183183484887E-002
 dabs(Ij+Ii):          15          11  1.084583345407742E-003
 dabs(Rj-Ri):          16          11  6.335746468775438E-002
 dabs(Ij+Ii):          16          11  1.084583345407742E-003
 dabs(Rj-Ri):          17          11  0.112421767761458     
 dabs(Ij+Ii):          17          11  1.084583345407742E-003
 dabs(Rj-Ri):          18          11  0.139048168907678     
 dabs(Ij+Ii):          18          11  1.084583345407742E-003
 dabs(Rj-Ri):          19          11  0.447139827544814     
 dabs(Ij+Ii):          19          11  1.084583345407742E-003
 dabs(Rj-Ri):          20          11  0.753522056272639     
 dabs(Ij+Ii):          20          11  1.084583345407742E-003
 overlap matrix for complex pair:

              1             2
 
    1     0.01034030   -0.03309952
    2    -0.03309952    0.10670442
 real eigenvalues of metric:

              1
 
    1     0.00006648
    2     0.11697823
 eigenvectors of metric:

              1             2
 
    1     0.95505148   -0.29643998
    2     0.29643998    0.95505148
 inverse square root of overlap matrix:

              1             2
 
    1   112.12358134   33.89469809
    2    33.89469809   13.44442917
 recalculated overlap matrix for complex pair:

              1             2
 
    1     1.00000000    0.00000000
    2     0.00000000    1.00000000
 dabs(Rj-Ri):           1          12  0.116566120438418     
 dabs(Ij+Ii):           1          12  1.084583345407742E-003
 dabs(Rj-Ri):           2          12  0.116050809927236     
 dabs(Ij+Ii):           2          12  1.084583345407742E-003
 dabs(Rj-Ri):           3          12  8.737305073370438E-002
 dabs(Ij+Ii):           3          12  1.084583345407742E-003
 dabs(Rj-Ri):           4          12  8.487740331175020E-002
 dabs(Ij+Ii):           4          12  1.084583345407742E-003
 dabs(Rj-Ri):           5          12  5.936481331145174E-002
 dabs(Ij+Ii):           5          12  1.084583345407742E-003
 dabs(Rj-Ri):           6          12  4.282920558259457E-002
 dabs(Ij+Ii):           6          12  1.084583345407742E-003
 dabs(Rj-Ri):           7          12  4.188677801642871E-002
 dabs(Ij+Ii):           7          12  1.084583345407742E-003
 dabs(Rj-Ri):           8          12  3.219630591931080E-002
 dabs(Ij+Ii):           8          12  1.084583345407742E-003
 dabs(Rj-Ri):           9          12  1.810442339639617E-002
 dabs(Ij+Ii):           9          12  1.084583345407742E-003
 dabs(Rj-Ri):          10          12  1.002461325373782E-002
 dabs(Ij+Ii):          10          12  1.084583345407742E-003
 dabs(Rj-Ri):          11          12  0.000000000000000E+000
 dabs(Ij+Ii):          11          12  0.000000000000000E+000
 dabs(Rj-Ri):          13          12  2.301213018831627E-003
 dabs(Ij+Ii):          13          12  1.084583345407742E-003
 dabs(Rj-Ri):          14          12  1.658349316836960E-002
 dabs(Ij+Ii):          14          12  1.084583345407742E-003
 dabs(Rj-Ri):          15          12  1.816183183484887E-002
 dabs(Ij+Ii):          15          12  1.084583345407742E-003
 dabs(Rj-Ri):          16          12  6.335746468775438E-002
 dabs(Ij+Ii):          16          12  1.084583345407742E-003
 dabs(Rj-Ri):          17          12  0.112421767761458     
 dabs(Ij+Ii):          17          12  1.084583345407742E-003
 dabs(Rj-Ri):          18          12  0.139048168907678     
 dabs(Ij+Ii):          18          12  1.084583345407742E-003
 dabs(Rj-Ri):          19          12  0.447139827544814     
 dabs(Ij+Ii):          19          12  1.084583345407742E-003
 dabs(Rj-Ri):          20          12  0.753522056272639     
 dabs(Ij+Ii):          20          12  1.084583345407742E-003
 overlap matrix for complex pair:

              1             2
 
    1     1.00000000    0.00000000
    2     0.00000000    1.00000000
 real eigenvalues of metric:

              1
 
    1     1.00000000
    2     1.00000000
 eigenvectors of metric:

              1             2
 
    1     0.90265744    0.43035979
    2    -0.43035979    0.90265744
 inverse square root of overlap matrix:

              1             2
 
    1     1.00000000   -0.00000000
    2    -0.00000000    1.00000000
 recalculated overlap matrix for complex pair:

              1             2
 
    1     1.00000000    0.00000000
    2    -0.00000000    1.00000000
 warning> found low lying complex root...
 eigenvalues (imaginary parts) in redeig:

              1
 
    1     0.00000000
    2     0.00000000
    3     0.00000000
    4     0.00000000
    5     0.00000000
    6     0.00000000
    7     0.00000000
    8     0.00000000
    9     0.00000000
   10     0.00000000
   11    -0.00108458
   12     0.00108458
   13     0.00000000
   14     0.00000000
   15     0.00000000
   16     0.00000000
   17     0.00000000
   18     0.00000000
   19     0.00000000
   20     0.00000000
 eigenvalues (real parts) in redeig:

              1
 
    1     0.13764548
    2     0.13816079
    3     0.16683855
    4     0.16933420
    5     0.19484679
    6     0.21138240
    7     0.21232483
    8     0.22201530
    9     0.23610718
   10     0.24418699
   11     0.25421160
   12     0.25421160
   13     0.25651282
   14     0.27079510
   15     0.27237344
   16     0.31756907
   17     0.36663337
   18     0.39325977
   19     0.70135143
   20     1.00773366
     14       3         4.02     0.25E-01  ( 11)
 COSMO cphf update
 COSMO cphf update
 COSMO cphf update
 COSMO cphf update
 dabs(Rj-Ri):           1          11  0.116566569200981     
 dabs(Ij+Ii):           1          11  1.066086765114800E-003
 dabs(Rj-Ri):           2          11  0.116051204478322     
 dabs(Ij+Ii):           2          11  1.066086765114800E-003
 dabs(Rj-Ri):           3          11  8.737338027253580E-002
 dabs(Ij+Ii):           3          11  1.066086765114800E-003
 dabs(Rj-Ri):           4          11  8.487785221755156E-002
 dabs(Ij+Ii):           4          11  1.066086765114800E-003
 dabs(Rj-Ri):           5          11  5.936526209211054E-002
 dabs(Ij+Ii):           5          11  1.066086765114800E-003
 dabs(Rj-Ri):           6          11  4.282966384041070E-002
 dabs(Ij+Ii):           6          11  1.066086765114800E-003
 dabs(Rj-Ri):           7          11  4.188722680330126E-002
 dabs(Ij+Ii):           7          11  1.066086765114800E-003
 dabs(Rj-Ri):           8          11  3.219670753399592E-002
 dabs(Ij+Ii):           8          11  1.066086765114800E-003
 dabs(Rj-Ri):           9          11  1.810498818227049E-002
 dabs(Ij+Ii):           9          11  1.066086765114800E-003
 dabs(Rj-Ri):          10          11  1.002506201568543E-002
 dabs(Ij+Ii):          10          11  1.066086765114800E-003
 dabs(Rj-Ri):          12          11  0.000000000000000E+000
 dabs(Ij+Ii):          12          11  0.000000000000000E+000
 dabs(Rj-Ri):          13          11  2.300113345934052E-003
 dabs(Ij+Ii):          13          11  1.066086765114800E-003
 dabs(Rj-Ri):          14          11  1.658304441313663E-002
 dabs(Ij+Ii):          14          11  1.066086765114800E-003
 dabs(Rj-Ri):          15          11  1.816089434502144E-002
 dabs(Ij+Ii):          15          11  1.066086765114800E-003
 dabs(Rj-Ri):          16          11  5.280988294997518E-002
 dabs(Ij+Ii):          16          11  1.066086765114800E-003
 dabs(Rj-Ri):          17          11  0.103591035431021     
 dabs(Ij+Ii):          17          11  1.066086765114800E-003
 dabs(Rj-Ri):          18          11  0.111034683192648     
 dabs(Ij+Ii):          18          11  1.066086765114800E-003
 dabs(Rj-Ri):          19          11  0.186702377044959     
 dabs(Ij+Ii):          19          11  1.066086765114800E-003
 dabs(Rj-Ri):          20          11  0.265555707605539     
 dabs(Ij+Ii):          20          11  1.066086765114800E-003
 dabs(Rj-Ri):          21          11  0.457809410584491     
 dabs(Ij+Ii):          21          11  1.066086765114800E-003
 dabs(Rj-Ri):          22          11   1.23564973067587     
 dabs(Ij+Ii):          22          11  1.066086765114800E-003
 overlap matrix for complex pair:

              1             2
 
    1     0.07119593    0.02378288
    2     0.02378288    0.00801232
 real eigenvalues of metric:

              1
 
    1     0.07914736
    2     0.00006089
 eigenvectors of metric:

              1             2
 
    1     0.94839814   -0.31708194
    2     0.31708194    0.94839814
 inverse square root of overlap matrix:

              1             2
 
    1    16.08134111  -37.46794053
    2   -37.46794053  115.62185158
 recalculated overlap matrix for complex pair:

              1             2
 
    1     1.00000000    0.00000000
    2     0.00000000    1.00000000
 dabs(Rj-Ri):           1          12  0.116566569200981     
 dabs(Ij+Ii):           1          12  1.066086765114800E-003
 dabs(Rj-Ri):           2          12  0.116051204478322     
 dabs(Ij+Ii):           2          12  1.066086765114800E-003
 dabs(Rj-Ri):           3          12  8.737338027253580E-002
 dabs(Ij+Ii):           3          12  1.066086765114800E-003
 dabs(Rj-Ri):           4          12  8.487785221755156E-002
 dabs(Ij+Ii):           4          12  1.066086765114800E-003
 dabs(Rj-Ri):           5          12  5.936526209211054E-002
 dabs(Ij+Ii):           5          12  1.066086765114800E-003
 dabs(Rj-Ri):           6          12  4.282966384041070E-002
 dabs(Ij+Ii):           6          12  1.066086765114800E-003
 dabs(Rj-Ri):           7          12  4.188722680330126E-002
 dabs(Ij+Ii):           7          12  1.066086765114800E-003
 dabs(Rj-Ri):           8          12  3.219670753399592E-002
 dabs(Ij+Ii):           8          12  1.066086765114800E-003
 dabs(Rj-Ri):           9          12  1.810498818227049E-002
 dabs(Ij+Ii):           9          12  1.066086765114800E-003
 dabs(Rj-Ri):          10          12  1.002506201568543E-002
 dabs(Ij+Ii):          10          12  1.066086765114800E-003
 dabs(Rj-Ri):          11          12  0.000000000000000E+000
 dabs(Ij+Ii):          11          12  0.000000000000000E+000
 dabs(Rj-Ri):          13          12  2.300113345934052E-003
 dabs(Ij+Ii):          13          12  1.066086765114800E-003
 dabs(Rj-Ri):          14          12  1.658304441313663E-002
 dabs(Ij+Ii):          14          12  1.066086765114800E-003
 dabs(Rj-Ri):          15          12  1.816089434502144E-002
 dabs(Ij+Ii):          15          12  1.066086765114800E-003
 dabs(Rj-Ri):          16          12  5.280988294997518E-002
 dabs(Ij+Ii):          16          12  1.066086765114800E-003
 dabs(Rj-Ri):          17          12  0.103591035431021     
 dabs(Ij+Ii):          17          12  1.066086765114800E-003
 dabs(Rj-Ri):          18          12  0.111034683192648     
 dabs(Ij+Ii):          18          12  1.066086765114800E-003
 dabs(Rj-Ri):          19          12  0.186702377044959     
 dabs(Ij+Ii):          19          12  1.066086765114800E-003
 dabs(Rj-Ri):          20          12  0.265555707605539     
 dabs(Ij+Ii):          20          12  1.066086765114800E-003
 dabs(Rj-Ri):          21          12  0.457809410584491     
 dabs(Ij+Ii):          21          12  1.066086765114800E-003
 dabs(Rj-Ri):          22          12   1.23564973067587     
 dabs(Ij+Ii):          22          12  1.066086765114800E-003
 overlap matrix for complex pair:

              1             2
 
    1     1.00000000    0.00000000
    2     0.00000000    1.00000000
 real eigenvalues of metric:

              1
 
    1     1.00000000
    2     1.00000000
 eigenvectors of metric:

              1             2
 
    1     0.98488988    0.17318178
    2    -0.17318178    0.98488988
 inverse square root of overlap matrix:

              1             2
 
    1     1.00000000   -0.00000000
    2    -0.00000000    1.00000000
 recalculated overlap matrix for complex pair:

              1             2
 
    1     1.00000000   -0.00000000
    2     0.00000000    1.00000000
 warning> found low lying complex root...
 eigenvalues (imaginary parts) in redeig:

              1
 
    1     0.00000000
    2     0.00000000
    3     0.00000000
    4     0.00000000
    5     0.00000000
    6     0.00000000
    7     0.00000000
    8     0.00000000
    9     0.00000000
   10     0.00000000
   11    -0.00106609
   12     0.00106609
   13     0.00000000
   14     0.00000000
   15     0.00000000
   16     0.00000000
   17     0.00000000
   18     0.00000000
   19     0.00000000
   20     0.00000000
   21     0.00000000
   22     0.00000000
 eigenvalues (real parts) in redeig:

              1
 
    1     0.13764548
    2     0.13816085
    3     0.16683867
    4     0.16933420
    5     0.19484679
    6     0.21138239
    7     0.21232483
    8     0.22201534
    9     0.23610706
   10     0.24418699
   11     0.25421205
   12     0.25421205
   13     0.25651217
   14     0.27079510
   15     0.27237295
   16     0.30702194
   17     0.35780309
   18     0.36524674
   19     0.44091443
   20     0.51976776
   21     0.71202146
   22     1.48986178
     15       2         2.74     0.25E-01  ( 12)
 COSMO cphf update
 COSMO cphf update
 COSMO cphf update
 COSMO cphf update
 dabs(Rj-Ri):           1          11  0.116565453363695     
 dabs(Ij+Ii):           1          11  1.032445812598596E-003
 dabs(Rj-Ri):           2          11  0.116050331746248     
 dabs(Ij+Ii):           2          11  1.032445812598596E-003
 dabs(Rj-Ri):           3          11  8.737219161455240E-002
 dabs(Ij+Ii):           3          11  1.032445812598596E-003
 dabs(Rj-Ri):           4          11  8.487673661344922E-002
 dabs(Ij+Ii):           4          11  1.032445812598596E-003
 dabs(Rj-Ri):           5          11  5.936414628930869E-002
 dabs(Ij+Ii):           5          11  1.032445812598596E-003
 dabs(Rj-Ri):           6          11  4.282855434620436E-002
 dabs(Ij+Ii):           6          11  1.032445812598596E-003
 dabs(Rj-Ri):           7          11  4.188611101668266E-002
 dabs(Ij+Ii):           7          11  1.032445812598596E-003
 dabs(Rj-Ri):           8          11  3.219577209689581E-002
 dabs(Ij+Ii):           8          11  1.032445812598596E-003
 dabs(Rj-Ri):           9          11  1.810409940604071E-002
 dabs(Ij+Ii):           9          11  1.032445812598596E-003
 dabs(Rj-Ri):          10          11  1.002394617649580E-002
 dabs(Ij+Ii):          10          11  1.032445812598596E-003
 dabs(Rj-Ri):          12          11  0.000000000000000E+000
 dabs(Ij+Ii):          12          11  0.000000000000000E+000
 dabs(Rj-Ri):          13          11  2.300502158001427E-003
 dabs(Ij+Ii):          13          11  1.032445812598596E-003
 dabs(Rj-Ri):          14          11  1.658416025337850E-002
 dabs(Ij+Ii):          14          11  1.032445812598596E-003
 dabs(Rj-Ri):          15          11  1.815925315921962E-002
 dabs(Ij+Ii):          15          11  1.032445812598596E-003
 dabs(Rj-Ri):          16          11  2.866439119976466E-002
 dabs(Ij+Ii):          16          11  1.032445812598596E-003
 dabs(Rj-Ri):          17          11  7.135649517247711E-002
 dabs(Ij+Ii):          17          11  1.032445812598596E-003
 dabs(Rj-Ri):          18          11  7.776042369310487E-002
 dabs(Ij+Ii):          18          11  1.032445812598596E-003
 dabs(Rj-Ri):          19          11  0.111339736362235     
 dabs(Ij+Ii):          19          11  1.032445812598596E-003
 dabs(Rj-Ri):          20          11  0.185251098048387     
 dabs(Ij+Ii):          20          11  1.032445812598596E-003
 dabs(Rj-Ri):          21          11  0.396738562044247     
 dabs(Ij+Ii):          21          11  1.032445812598596E-003
 dabs(Rj-Ri):          22          11  0.467146053497342     
 dabs(Ij+Ii):          22          11  1.032445812598596E-003
 dabs(Rj-Ri):          23          11  0.678336644900019     
 dabs(Ij+Ii):          23          11  1.032445812598596E-003
 dabs(Rj-Ri):          24          11   1.46482052346327     
 dabs(Ij+Ii):          24          11  1.032445812598596E-003
 overlap matrix for complex pair:

              1             2
 
    1     0.01265972    0.01748121
    2     0.01748121    0.02499460
 real eigenvalues of metric:

              1
 
    1     0.00028990
    2     0.03736442
 eigenvectors of metric:

              1             2
 
    1     0.81630412    0.57762235
    2    -0.57762235    0.81630412
 inverse square root of overlap matrix:

              1             2
 
    1    40.86251019  -25.25390127
    2   -25.25390127   23.04317042
 recalculated overlap matrix for complex pair:

              1             2
 
    1     1.00000000    0.00000000
    2    -0.00000000    1.00000000
 dabs(Rj-Ri):           1          12  0.116565453363695     
 dabs(Ij+Ii):           1          12  1.032445812598596E-003
 dabs(Rj-Ri):           2          12  0.116050331746248     
 dabs(Ij+Ii):           2          12  1.032445812598596E-003
 dabs(Rj-Ri):           3          12  8.737219161455240E-002
 dabs(Ij+Ii):           3          12  1.032445812598596E-003
 dabs(Rj-Ri):           4          12  8.487673661344922E-002
 dabs(Ij+Ii):           4          12  1.032445812598596E-003
 dabs(Rj-Ri):           5          12  5.936414628930869E-002
 dabs(Ij+Ii):           5          12  1.032445812598596E-003
 dabs(Rj-Ri):           6          12  4.282855434620436E-002
 dabs(Ij+Ii):           6          12  1.032445812598596E-003
 dabs(Rj-Ri):           7          12  4.188611101668266E-002
 dabs(Ij+Ii):           7          12  1.032445812598596E-003
 dabs(Rj-Ri):           8          12  3.219577209689581E-002
 dabs(Ij+Ii):           8          12  1.032445812598596E-003
 dabs(Rj-Ri):           9          12  1.810409940604071E-002
 dabs(Ij+Ii):           9          12  1.032445812598596E-003
 dabs(Rj-Ri):          10          12  1.002394617649580E-002
 dabs(Ij+Ii):          10          12  1.032445812598596E-003
 dabs(Rj-Ri):          11          12  0.000000000000000E+000
 dabs(Ij+Ii):          11          12  0.000000000000000E+000
 dabs(Rj-Ri):          13          12  2.300502158001427E-003
 dabs(Ij+Ii):          13          12  1.032445812598596E-003
 dabs(Rj-Ri):          14          12  1.658416025337850E-002
 dabs(Ij+Ii):          14          12  1.032445812598596E-003
 dabs(Rj-Ri):          15          12  1.815925315921962E-002
 dabs(Ij+Ii):          15          12  1.032445812598596E-003
 dabs(Rj-Ri):          16          12  2.866439119976466E-002
 dabs(Ij+Ii):          16          12  1.032445812598596E-003
 dabs(Rj-Ri):          17          12  7.135649517247711E-002
 dabs(Ij+Ii):          17          12  1.032445812598596E-003
 dabs(Rj-Ri):          18          12  7.776042369310487E-002
 dabs(Ij+Ii):          18          12  1.032445812598596E-003
 dabs(Rj-Ri):          19          12  0.111339736362235     
 dabs(Ij+Ii):          19          12  1.032445812598596E-003
 dabs(Rj-Ri):          20          12  0.185251098048387     
 dabs(Ij+Ii):          20          12  1.032445812598596E-003
 dabs(Rj-Ri):          21          12  0.396738562044247     
 dabs(Ij+Ii):          21          12  1.032445812598596E-003
 dabs(Rj-Ri):          22          12  0.467146053497342     
 dabs(Ij+Ii):          22          12  1.032445812598596E-003
 dabs(Rj-Ri):          23          12  0.678336644900019     
 dabs(Ij+Ii):          23          12  1.032445812598596E-003
 dabs(Rj-Ri):          24          12   1.46482052346327     
 dabs(Ij+Ii):          24          12  1.032445812598596E-003
 overlap matrix for complex pair:

              1             2
 
    1     1.00000000   -0.00000000
    2     0.00000000    1.00000000
 real eigenvalues of metric:

              1
 
    1     1.00000000
    2     1.00000000
 eigenvectors of metric:

              1             2
 
    1     0.90420542    0.42709784
    2    -0.42709784    0.90420542
 inverse square root of overlap matrix:

              1             2
 
    1     1.00000000    0.00000000
    2     0.00000000    1.00000000
 recalculated overlap matrix for complex pair:

              1             2
 
    1     1.00000000    0.00000000
    2     0.00000000    1.00000000
 warning> found low lying complex root...
 eigenvalues (imaginary parts) in redeig:

              1
 
    1     0.00000000
    2     0.00000000
    3     0.00000000
    4     0.00000000
    5     0.00000000
    6     0.00000000
    7     0.00000000
    8     0.00000000
    9     0.00000000
   10     0.00000000
   11    -0.00103245
   12     0.00103245
   13     0.00000000
   14     0.00000000
   15     0.00000000
   16     0.00000000
   17     0.00000000
   18     0.00000000
   19     0.00000000
   20     0.00000000
   21     0.00000000
   22     0.00000000
   23     0.00000000
   24     0.00000000
 eigenvalues (real parts) in redeig:

              1
 
    1     0.13764548
    2     0.13816060
    3     0.16683874
    4     0.16933420
    5     0.19484679
    6     0.21138238
    7     0.21232483
    8     0.22201516
    9     0.23610684
   10     0.24418699
   11     0.25421094
   12     0.25421094
   13     0.25651144
   14     0.27079510
   15     0.27237019
   16     0.28287533
   17     0.32556743
   18     0.33197136
   19     0.36555067
   20     0.43946203
   21     0.65094950
   22     0.72135699
   23     0.93254758
   24     1.71903146
     16       2         2.71     0.22E-01  ( 11)
 COSMO cphf update
 COSMO cphf update
 COSMO cphf update
 COSMO cphf update
 dabs(Rj-Ri):           1          11  0.116566367389283     
 dabs(Ij+Ii):           1          11  1.019876773211029E-003
 dabs(Rj-Ri):           2          11  0.116051220679643     
 dabs(Ij+Ii):           2          11  1.019876773211029E-003
 dabs(Rj-Ri):           3          11  8.737359222521179E-002
 dabs(Ij+Ii):           3          11  1.019876773211029E-003
 dabs(Rj-Ri):           4          11  8.487765076385179E-002
 dabs(Ij+Ii):           4          11  1.019876773211029E-003
 dabs(Rj-Ri):           5          11  5.936506034954062E-002
 dabs(Ij+Ii):           5          11  1.019876773211029E-003
 dabs(Rj-Ri):           6          11  4.282944325349450E-002
 dabs(Ij+Ii):           6          11  1.019876773211029E-003
 dabs(Rj-Ri):           7          11  4.188702508783143E-002
 dabs(Ij+Ii):           7          11  1.019876773211029E-003
 dabs(Rj-Ri):           8          11  3.219668875271386E-002
 dabs(Ij+Ii):           8          11  1.019876773211029E-003
 dabs(Rj-Ri):           9          11  1.810511130060113E-002
 dabs(Ij+Ii):           9          11  1.019876773211029E-003
 dabs(Rj-Ri):          10          11  1.002486019915411E-002
 dabs(Ij+Ii):          10          11  1.019876773211029E-003
 dabs(Rj-Ri):          12          11  0.000000000000000E+000
 dabs(Ij+Ii):          12          11  0.000000000000000E+000
 dabs(Rj-Ri):          13          11  2.298862260822931E-003
 dabs(Ij+Ii):          13          11  1.019876773211029E-003
 dabs(Rj-Ri):          14          11  1.117090298741702E-002
 dabs(Ij+Ii):          14          11  1.019876773211029E-003
 dabs(Rj-Ri):          15          11  1.658324623244795E-002
 dabs(Ij+Ii):          15          11  1.019876773211029E-003
 dabs(Rj-Ri):          16          11  1.816395751357491E-002
 dabs(Ij+Ii):          16          11  1.019876773211029E-003
 dabs(Rj-Ri):          17          11  6.261712881383213E-002
 dabs(Ij+Ii):          17          11  1.019876773211029E-003
 dabs(Rj-Ri):          18          11  6.661158776645026E-002
 dabs(Ij+Ii):          18          11  1.019876773211029E-003
 dabs(Rj-Ri):          19          11  0.107740541420062     
 dabs(Ij+Ii):          19          11  1.019876773211029E-003
 dabs(Rj-Ri):          20          11  0.150349162835434     
 dabs(Ij+Ii):          20          11  1.019876773211029E-003
 dabs(Rj-Ri):          21          11  0.246399309242485     
 dabs(Ij+Ii):          21          11  1.019876773211029E-003
 dabs(Rj-Ri):          22          11  0.334923638904006     
 dabs(Ij+Ii):          22          11  1.019876773211029E-003
 dabs(Rj-Ri):          23          11  0.477929786366399     
 dabs(Ij+Ii):          23          11  1.019876773211029E-003
 dabs(Rj-Ri):          24          11  0.868210403653772     
 dabs(Ij+Ii):          24          11  1.019876773211029E-003
 dabs(Rj-Ri):          25          11   1.05765514828396     
 dabs(Ij+Ii):          25          11  1.019876773211029E-003
 dabs(Rj-Ri):          26          11   1.51085029953103     
 dabs(Ij+Ii):          26          11  1.019876773211029E-003
 overlap matrix for complex pair:

              1             2
 
    1     0.14899526    0.05608565
    2     0.05608565    0.02138916
 real eigenvalues of metric:

              1
 
    1     0.17014177
    2     0.00024265
 eigenvectors of metric:

              1             2
 
    1     0.93570020   -0.35279616
    2     0.35279616    0.93570020
 inverse square root of overlap matrix:

              1             2
 
    1    10.11284868  -20.39175806
    2   -20.39175806   56.50818860
 recalculated overlap matrix for complex pair:

              1             2
 
    1     1.00000000   -0.00000000
    2    -0.00000000    1.00000000
 dabs(Rj-Ri):           1          12  0.116566367389283     
 dabs(Ij+Ii):           1          12  1.019876773211029E-003
 dabs(Rj-Ri):           2          12  0.116051220679643     
 dabs(Ij+Ii):           2          12  1.019876773211029E-003
 dabs(Rj-Ri):           3          12  8.737359222521179E-002
 dabs(Ij+Ii):           3          12  1.019876773211029E-003
 dabs(Rj-Ri):           4          12  8.487765076385179E-002
 dabs(Ij+Ii):           4          12  1.019876773211029E-003
 dabs(Rj-Ri):           5          12  5.936506034954062E-002
 dabs(Ij+Ii):           5          12  1.019876773211029E-003
 dabs(Rj-Ri):           6          12  4.282944325349450E-002
 dabs(Ij+Ii):           6          12  1.019876773211029E-003
 dabs(Rj-Ri):           7          12  4.188702508783143E-002
 dabs(Ij+Ii):           7          12  1.019876773211029E-003
 dabs(Rj-Ri):           8          12  3.219668875271386E-002
 dabs(Ij+Ii):           8          12  1.019876773211029E-003
 dabs(Rj-Ri):           9          12  1.810511130060113E-002
 dabs(Ij+Ii):           9          12  1.019876773211029E-003
 dabs(Rj-Ri):          10          12  1.002486019915411E-002
 dabs(Ij+Ii):          10          12  1.019876773211029E-003
 dabs(Rj-Ri):          11          12  0.000000000000000E+000
 dabs(Ij+Ii):          11          12  0.000000000000000E+000
 dabs(Rj-Ri):          13          12  2.298862260822931E-003
 dabs(Ij+Ii):          13          12  1.019876773211029E-003
 dabs(Rj-Ri):          14          12  1.117090298741702E-002
 dabs(Ij+Ii):          14          12  1.019876773211029E-003
 dabs(Rj-Ri):          15          12  1.658324623244795E-002
 dabs(Ij+Ii):          15          12  1.019876773211029E-003
 dabs(Rj-Ri):          16          12  1.816395751357491E-002
 dabs(Ij+Ii):          16          12  1.019876773211029E-003
 dabs(Rj-Ri):          17          12  6.261712881383213E-002
 dabs(Ij+Ii):          17          12  1.019876773211029E-003
 dabs(Rj-Ri):          18          12  6.661158776645026E-002
 dabs(Ij+Ii):          18          12  1.019876773211029E-003
 dabs(Rj-Ri):          19          12  0.107740541420062     
 dabs(Ij+Ii):          19          12  1.019876773211029E-003
 dabs(Rj-Ri):          20          12  0.150349162835434     
 dabs(Ij+Ii):          20          12  1.019876773211029E-003
 dabs(Rj-Ri):          21          12  0.246399309242485     
 dabs(Ij+Ii):          21          12  1.019876773211029E-003
 dabs(Rj-Ri):          22          12  0.334923638904006     
 dabs(Ij+Ii):          22          12  1.019876773211029E-003
 dabs(Rj-Ri):          23          12  0.477929786366399     
 dabs(Ij+Ii):          23          12  1.019876773211029E-003
 dabs(Rj-Ri):          24          12  0.868210403653772     
 dabs(Ij+Ii):          24          12  1.019876773211029E-003
 dabs(Rj-Ri):          25          12   1.05765514828396     
 dabs(Ij+Ii):          25          12  1.019876773211029E-003
 dabs(Rj-Ri):          26          12   1.51085029953103     
 dabs(Ij+Ii):          26          12  1.019876773211029E-003
 overlap matrix for complex pair:

              1             2
 
    1     1.00000000   -0.00000000
    2    -0.00000000    1.00000000
 real eigenvalues of metric:

              1
 
    1     1.00000000
    2     1.00000000
 eigenvectors of metric:

              1             2
 
    1     0.99983976   -0.01790139
    2     0.01790139    0.99983976
 inverse square root of overlap matrix:

              1             2
 
    1     1.00000000    0.00000000
    2     0.00000000    1.00000000
 recalculated overlap matrix for complex pair:

              1             2
 
    1     1.00000000    0.00000000
    2    -0.00000000    1.00000000
 warning> found low lying complex root...
 eigenvalues (imaginary parts) in redeig:

              1
 
    1     0.00000000
    2     0.00000000
    3     0.00000000
    4     0.00000000
    5     0.00000000
    6     0.00000000
    7     0.00000000
    8     0.00000000
    9     0.00000000
   10     0.00000000
   11    -0.00101988
   12     0.00101988
   13     0.00000000
   14     0.00000000
   15     0.00000000
   16     0.00000000
   17     0.00000000
   18     0.00000000
   19     0.00000000
   20     0.00000000
   21     0.00000000
   22     0.00000000
   23     0.00000000
   24     0.00000000
   25     0.00000000
   26     0.00000000
 eigenvalues (real parts) in redeig:

              1
 
    1     0.13764548
    2     0.13816063
    3     0.16683826
    4     0.16933420
    5     0.19484679
    6     0.21138241
    7     0.21232483
    8     0.22201516
    9     0.23610674
   10     0.24418699
   11     0.25421185
   12     0.25421185
   13     0.25651071
   14     0.26538275
   15     0.27079510
   16     0.27237581
   17     0.31682898
   18     0.32082344
   19     0.36195239
   20     0.40456101
   21     0.50061116
   22     0.58913549
   23     0.73214164
   24     1.12242225
   25     1.31186700
   26     1.76506215
 ...adapted threshold to:  5.444441395454636E-003
     17       2         2.75     0.47E-01  ( 14)
 COSMO cphf update
 COSMO cphf update
 COSMO cphf update
 COSMO cphf update
 COSMO cphf update
 COSMO cphf update
 dabs(Rj-Ri):           1          11  0.116569652569152     
 dabs(Ij+Ii):           1          11  9.961423141238678E-004
 dabs(Rj-Ri):           2          11  0.116054421488078     
 dabs(Ij+Ii):           2          11  9.961423141238678E-004
 dabs(Rj-Ri):           3          11  8.737762990641637E-002
 dabs(Ij+Ii):           3          11  9.961423141238678E-004
 dabs(Rj-Ri):           4          11  8.488093641062117E-002
 dabs(Ij+Ii):           4          11  9.961423141238678E-004
 dabs(Rj-Ri):           5          11  5.936834559247581E-002
 dabs(Ij+Ii):           5          11  9.961423141238678E-004
 dabs(Rj-Ri):           6          11  4.283272910564886E-002
 dabs(Ij+Ii):           6          11  9.961423141238678E-004
 dabs(Rj-Ri):           7          11  4.189031031905580E-002
 dabs(Ij+Ii):           7          11  9.961423141238678E-004
 dabs(Rj-Ri):           8          11  3.219995570794806E-002
 dabs(Ij+Ii):           8          11  9.961423141238678E-004
 dabs(Rj-Ri):           9          11  1.810840985214637E-002
 dabs(Ij+Ii):           9          11  9.961423141238678E-004
 dabs(Rj-Ri):          10          11  1.002814536344851E-002
 dabs(Ij+Ii):          10          11  9.961423141238678E-004
 dabs(Rj-Ri):          12          11  0.000000000000000E+000
 dabs(Ij+Ii):          12          11  0.000000000000000E+000
 dabs(Rj-Ri):          13          11  2.295795062959738E-003
 dabs(Ij+Ii):          13          11  9.961423141238678E-004
 dabs(Rj-Ri):          14          11  6.826927559789031E-003
 dabs(Ij+Ii):          14          11  9.961423141238678E-004
 dabs(Rj-Ri):          15          11  1.657996107651688E-002
 dabs(Ij+Ii):          15          11  9.961423141238678E-004
 dabs(Rj-Ri):          16          11  1.816032681406338E-002
 dabs(Ij+Ii):          16          11  9.961423141238678E-004
 dabs(Rj-Ri):          17          11  5.740073595669476E-002
 dabs(Ij+Ii):          17          11  9.961423141238678E-004
 dabs(Rj-Ri):          18          11  6.278369873569495E-002
 dabs(Ij+Ii):          18          11  9.961423141238678E-004
 dabs(Rj-Ri):          19          11  8.978017393013299E-002
 dabs(Ij+Ii):          19          11  9.961423141238678E-004
 dabs(Rj-Ri):          20          11  0.116678092097359     
 dabs(Ij+Ii):          20          11  9.961423141238678E-004
 dabs(Rj-Ri):          21          11  0.195651633114589     
 dabs(Ij+Ii):          21          11  9.961423141238678E-004
 dabs(Rj-Ri):          22          11  0.225602409616845     
 dabs(Ij+Ii):          22          11  9.961423141238678E-004
 dabs(Rj-Ri):          23          11  0.251713630966930     
 dabs(Ij+Ii):          23          11  9.961423141238678E-004
 dabs(Rj-Ri):          24          11  0.352676727976002     
 dabs(Ij+Ii):          24          11  9.961423141238678E-004
 dabs(Rj-Ri):          25          11  0.477142540274275     
 dabs(Ij+Ii):          25          11  9.961423141238678E-004
 dabs(Rj-Ri):          26          11  0.802990741892803     
 dabs(Ij+Ii):          26          11  9.961423141238678E-004
 dabs(Rj-Ri):          27          11   1.01575968049837     
 dabs(Ij+Ii):          27          11  9.961423141238678E-004
 dabs(Rj-Ri):          28          11   1.41508042780762     
 dabs(Ij+Ii):          28          11  9.961423141238678E-004
 dabs(Rj-Ri):          29          11   1.53099003921691     
 dabs(Ij+Ii):          29          11  9.961423141238678E-004
 overlap matrix for complex pair:

              1             2
 
    1     0.05120993    0.01702235
    2     0.01702235    0.00572621
 real eigenvalues of metric:

              1
 
    1     0.05687498
    2     0.00006117
 eigenvectors of metric:

              1             2
 
    1     0.94883480   -0.31577289
    2     0.31577289    0.94883480
 inverse square root of overlap matrix:

              1             2
 
    1    16.52461578  -37.05363535
    2   -37.05363535  115.53195498
 recalculated overlap matrix for complex pair:

              1             2
 
    1     1.00000000    0.00000000
    2     0.00000000    1.00000000
 dabs(Rj-Ri):           1          12  0.116569652569152     
 dabs(Ij+Ii):           1          12  9.961423141238678E-004
 dabs(Rj-Ri):           2          12  0.116054421488078     
 dabs(Ij+Ii):           2          12  9.961423141238678E-004
 dabs(Rj-Ri):           3          12  8.737762990641637E-002
 dabs(Ij+Ii):           3          12  9.961423141238678E-004
 dabs(Rj-Ri):           4          12  8.488093641062117E-002
 dabs(Ij+Ii):           4          12  9.961423141238678E-004
 dabs(Rj-Ri):           5          12  5.936834559247581E-002
 dabs(Ij+Ii):           5          12  9.961423141238678E-004
 dabs(Rj-Ri):           6          12  4.283272910564886E-002
 dabs(Ij+Ii):           6          12  9.961423141238678E-004
 dabs(Rj-Ri):           7          12  4.189031031905580E-002
 dabs(Ij+Ii):           7          12  9.961423141238678E-004
 dabs(Rj-Ri):           8          12  3.219995570794806E-002
 dabs(Ij+Ii):           8          12  9.961423141238678E-004
 dabs(Rj-Ri):           9          12  1.810840985214637E-002
 dabs(Ij+Ii):           9          12  9.961423141238678E-004
 dabs(Rj-Ri):          10          12  1.002814536344851E-002
 dabs(Ij+Ii):          10          12  9.961423141238678E-004
 dabs(Rj-Ri):          11          12  0.000000000000000E+000
 dabs(Ij+Ii):          11          12  0.000000000000000E+000
 dabs(Rj-Ri):          13          12  2.295795062959738E-003
 dabs(Ij+Ii):          13          12  9.961423141238678E-004
 dabs(Rj-Ri):          14          12  6.826927559789031E-003
 dabs(Ij+Ii):          14          12  9.961423141238678E-004
 dabs(Rj-Ri):          15          12  1.657996107651688E-002
 dabs(Ij+Ii):          15          12  9.961423141238678E-004
 dabs(Rj-Ri):          16          12  1.816032681406338E-002
 dabs(Ij+Ii):          16          12  9.961423141238678E-004
 dabs(Rj-Ri):          17          12  5.740073595669476E-002
 dabs(Ij+Ii):          17          12  9.961423141238678E-004
 dabs(Rj-Ri):          18          12  6.278369873569495E-002
 dabs(Ij+Ii):          18          12  9.961423141238678E-004
 dabs(Rj-Ri):          19          12  8.978017393013299E-002
 dabs(Ij+Ii):          19          12  9.961423141238678E-004
 dabs(Rj-Ri):          20          12  0.116678092097359     
 dabs(Ij+Ii):          20          12  9.961423141238678E-004
 dabs(Rj-Ri):          21          12  0.195651633114589     
 dabs(Ij+Ii):          21          12  9.961423141238678E-004
 dabs(Rj-Ri):          22          12  0.225602409616845     
 dabs(Ij+Ii):          22          12  9.961423141238678E-004
 dabs(Rj-Ri):          23          12  0.251713630966930     
 dabs(Ij+Ii):          23          12  9.961423141238678E-004
 dabs(Rj-Ri):          24          12  0.352676727976002     
 dabs(Ij+Ii):          24          12  9.961423141238678E-004
 dabs(Rj-Ri):          25          12  0.477142540274275     
 dabs(Ij+Ii):          25          12  9.961423141238678E-004
 dabs(Rj-Ri):          26          12  0.802990741892803     
 dabs(Ij+Ii):          26          12  9.961423141238678E-004
 dabs(Rj-Ri):          27          12   1.01575968049837     
 dabs(Ij+Ii):          27          12  9.961423141238678E-004
 dabs(Rj-Ri):          28          12   1.41508042780762     
 dabs(Ij+Ii):          28          12  9.961423141238678E-004
 dabs(Rj-Ri):          29          12   1.53099003921691     
 dabs(Ij+Ii):          29          12  9.961423141238678E-004
 overlap matrix for complex pair:

              1             2
 
    1     1.00000000    0.00000000
    2     0.00000000    1.00000000
 real eigenvalues of metric:

              1
 
    1     1.00000000
    2     1.00000000
 eigenvectors of metric:

              1             2
 
    1     0.94777603    0.31893665
    2    -0.31893665    0.94777603
 inverse square root of overlap matrix:

              1             2
 
    1     1.00000000   -0.00000000
    2    -0.00000000    1.00000000
 recalculated overlap matrix for complex pair:

              1             2
 
    1     1.00000000   -0.00000000
    2    -0.00000000    1.00000000
 warning> found low lying complex root...
 eigenvalues (imaginary parts) in redeig:

              1
 
    1     0.00000000
    2     0.00000000
    3     0.00000000
    4     0.00000000
    5     0.00000000
    6     0.00000000
    7     0.00000000
    8     0.00000000
    9     0.00000000
   10     0.00000000
   11    -0.00099614
   12     0.00099614
   13     0.00000000
   14     0.00000000
   15     0.00000000
   16     0.00000000
   17     0.00000000
   18     0.00000000
   19     0.00000000
   20     0.00000000
   21     0.00000000
   22     0.00000000
   23     0.00000000
   24     0.00000000
   25     0.00000000
   26     0.00000000
   27     0.00000000
   28     0.00000000
   29     0.00000000
 eigenvalues (real parts) in redeig:

              1
 
    1     0.13764548
    2     0.13816071
    3     0.16683751
    4     0.16933420
    5     0.19484679
    6     0.21138241
    7     0.21232483
    8     0.22201518
    9     0.23610673
   10     0.24418699
   11     0.25421514
   12     0.25421514
   13     0.25651093
   14     0.26104206
   15     0.27079510
   16     0.27237546
   17     0.31161587
   18     0.31699883
   19     0.34399531
   20     0.37089323
   21     0.44986677
   22     0.47981755
   23     0.50592877
   24     0.60689186
   25     0.73135768
   26     1.05720588
   27     1.26997482
   28     1.66929556
   29     1.78520517
[...]
 | E_exci (ground to x state)      |     0.23610188  |
 | Correction for fast part of RF  |    -0.00129469  |
 | Correction for update of eq. RF |     0.00000543  |
 +---------------------------------+-----------------+


  +=========================================================================+
  |  Excited state reached by transition:                   model: ADC(2)   |
  |    number, symmetry, multiplicity:   10 a    1                          |
  |    frequency :   0.2441868071 a.u.     6.64466 e.V.     53592.8 rcm     |
  +=========================================================================+

      Total energy of excited state:    -491.1798406460

   +-----------------+-----------------+-----------------+-----------------+
   | operator        | expect. value   | electr. contrib.| diff to gr.st.  |
   +-----------------+-----------------+-----------------+-----------------+
   | xdiplen (unrel) |     -3.21249611 |    -91.30885460 |      0.59238592 |
   | xdiplen (relax) |     -2.79927892 |    -90.89563741 |       ---       |
   | ydiplen (unrel) |     -0.00167182 |     -0.00168081 |     -0.00177416 |
   | ydiplen (relax) |     -0.00151148 |     -0.00152046 |       ---       |
   | zdiplen (unrel) |      0.13033857 |      1.86943315 |     -0.09588751 |
   | zdiplen (relax) |      0.14112559 |      1.88022016 |       ---       |
   +-----------------+-----------------+-----------------+-----------------+


     Analysis of relaxed properties:
     ===============================


     dipole moment:
     --------------

     x     -2.79927892
     y     -0.00151148
     z      0.14112559

     | dipole moment | =      2.80283449 a.u. =      7.12409400 debye
 


     Analysis of unrelaxed properties:
     =================================


     dipole moment:
     --------------

     x     -3.21249611
     y     -0.00167182
     z      0.13033857

     | dipole moment | =      3.21513953 a.u. =      8.17206877 debye
 

 +---------------------------------+-----------------+
 |   Nonequilibrium solvation      |                 |
 +---------------------------------+-----------------+
 |   E_x_(y) is the total free energy of target      |
 |   state x in the reaction field (RF)              |
 |   equilibrated for state y                        |
 +---------------------------------+-----------------+
 | E_x_(y)                         |  -491.18235371  |
 | E_x_(y) (+OCC)                  |  -491.18462613  |
 | Outlying charge correction(OCC) |    -0.00227242  |
 | E_SCF with RF of state y        |  -489.41979035  |
 | E_corr (ground state)           |    -2.00423712  |
 | E_exci (ground to x state)      |     0.24418681  |
 | Correction for fast part of RF  |    -0.00251336  |
 | Correction for update of eq. RF |     0.00000031  |
 +---------------------------------+-----------------+


  +=========================================================================+
  |  Excited state reached by transition:                   model: ADC(2)   |
  |    number, symmetry, multiplicity:   11 a    1                          |
  |    frequency :   0.2535130955 a.u.     6.89844 e.V.     55639.7 rcm     |
  +=========================================================================+

      Total energy of excited state:    -491.1705143575

   +-----------------+-----------------+-----------------+-----------------+
   | operator        | expect. value   | electr. contrib.| diff to gr.st.  |
   +-----------------+-----------------+-----------------+-----------------+
   | xdiplen (unrel) |     -6.87808388 |    -94.97444238 |     -3.07320186 |
   | xdiplen (relax) |     -6.36280675 |    -94.45916524 |       ---       |
   | ydiplen (unrel) |      0.00003834 |      0.00002936 |     -0.00006399 |
   | ydiplen (relax) |      0.00009182 |      0.00008284 |       ---       |
   | zdiplen (unrel) |      0.19057755 |      1.92967213 |     -0.03564853 |
   | zdiplen (relax) |      0.19946758 |      1.93856216 |       ---       |
   +-----------------+-----------------+-----------------+-----------------+


     Analysis of relaxed properties:
     ===============================


     dipole moment:
     --------------

     x     -6.36280675
     y      0.00009182
     z      0.19946758

     | dipole moment | =      6.36593253 a.u. =     16.18058501 debye
 


     Analysis of unrelaxed properties:
     =================================


     dipole moment:
     --------------

     x     -6.87808388
     y      0.00003834
     z      0.19057755

     | dipole moment | =      6.88072363 a.u. =     17.48905335 debye
 

 +---------------------------------+-----------------+
 |   Nonequilibrium solvation      |                 |
 +---------------------------------+-----------------+
 |   E_x_(y) is the total free energy of target      |
 |   state x in the reaction field (RF)              |
 |   equilibrated for state y                        |
 +---------------------------------+-----------------+
 | E_x_(y)                         |  -491.17350808  |
 | E_x_(y) (+OCC)                  |  -491.17394585  |
 | Outlying charge correction(OCC) |    -0.00043777  |
 | E_SCF with RF of state y        |  -489.41979035  |
 | E_corr (ground state)           |    -2.00423712  |
 | E_exci (ground to x state)      |     0.25351310  |
 | Correction for fast part of RF  |    -0.00301348  |
 | Correction for update of eq. RF |     0.00001977  |
 +---------------------------------+-----------------+


  +=========================================================================+
  |  Excited state reached by transition:                   model: ADC(2)   |
  |    number, symmetry, multiplicity:   12 a    1                          |
  |    frequency :   0.2558034017 a.u.     6.96076 e.V.     56142.4 rcm     |
  +=========================================================================+

      Total energy of excited state:    -491.1682240513

   +-----------------+-----------------+-----------------+-----------------+
   | operator        | expect. value   | electr. contrib.| diff to gr.st.  |
   +-----------------+-----------------+-----------------+-----------------+
   | xdiplen (unrel) |     -4.86638014 |    -92.96273863 |     -1.06149811 |
   | xdiplen (relax) |     -4.31421729 |    -92.41057578 |       ---       |
   | ydiplen (unrel) |      0.00208668 |      0.00207769 |      0.00198434 |
   | ydiplen (relax) |      0.00188113 |      0.00187214 |       ---       |
   | zdiplen (unrel) |      0.17074454 |      1.90983912 |     -0.05548154 |
   | zdiplen (relax) |      0.17588380 |      1.91497838 |       ---       |
   +-----------------+-----------------+-----------------+-----------------+


     Analysis of relaxed properties:
     ===============================


     dipole moment:
     --------------

     x     -4.31421729
     y      0.00188113
     z      0.17588380

     | dipole moment | =      4.31780146 a.u. =     10.97475557 debye
 


     Analysis of unrelaxed properties:
     =================================


     dipole moment:
     --------------

     x     -4.86638014
     y      0.00208668
     z      0.17074454

     | dipole moment | =      4.86937508 a.u. =     12.37671576 debye
 

 +---------------------------------+-----------------+
 |   Nonequilibrium solvation      |                 |
 +---------------------------------+-----------------+
 |   E_x_(y) is the total free energy of target      |
 |   state x in the reaction field (RF)              |
 |   equilibrated for state y                        |
 +---------------------------------+-----------------+
 | E_x_(y)                         |  -491.17011991  |
 | E_x_(y) (+OCC)                  |  -491.17190710  |
 | Outlying charge correction(OCC) |    -0.00178719  |
 | E_SCF with RF of state y        |  -489.41979035  |
 | E_corr (ground state)           |    -2.00423712  |
 | E_exci (ground to x state)      |     0.25580340  |
 | Correction for fast part of RF  |    -0.00189783  |
 | Correction for update of eq. RF |     0.00000199  |
 +---------------------------------+-----------------+


  +=========================================================================+
  |  Excited state reached by transition:                   model: ADC(2)   |
  |    number, symmetry, multiplicity:   13 a    1                          |
  |    frequency :   0.2565145766 a.u.     6.98012 e.V.     56298.4 rcm     |
  +=========================================================================+

      Total energy of excited state:    -491.1675128765

   +-----------------+-----------------+-----------------+-----------------+
   | operator        | expect. value   | electr. contrib.| diff to gr.st.  |
   +-----------------+-----------------+-----------------+-----------------+
   | xdiplen (unrel) |     -3.98094855 |    -92.07730704 |     -0.17606652 |
   | xdiplen (relax) |     -3.53930342 |    -91.63566192 |       ---       |
   | ydiplen (unrel) |      0.00040742 |      0.00039843 |      0.00030508 |
   | ydiplen (relax) |      0.00021723 |      0.00020824 |       ---       |
   | zdiplen (unrel) |      0.23447007 |      1.97356465 |      0.00824399 |
   | zdiplen (relax) |      0.23284958 |      1.97194416 |       ---       |
   +-----------------+-----------------+-----------------+-----------------+


     Analysis of relaxed properties:
     ===============================


     dipole moment:
     --------------

     x     -3.53930342
     y      0.00021723
     z      0.23284958

     | dipole moment | =      3.54695471 a.u. =      9.01545875 debye
 


     Analysis of unrelaxed properties:
     =================================


     dipole moment:
     --------------

     x     -3.98094855
     y      0.00040742
     z      0.23447007

     | dipole moment | =      3.98784751 a.u. =     10.13609636 debye
 

 +---------------------------------+-----------------+
 |   Nonequilibrium solvation      |                 |
 +---------------------------------+-----------------+
 |   E_x_(y) is the total free energy of target      |
 |   state x in the reaction field (RF)              |
 |   equilibrated for state y                        |
 +---------------------------------+-----------------+
 | E_x_(y)                         |  -491.16761673  |
 | E_x_(y) (+OCC)                  |  -491.16789860  |
 | Outlying charge correction(OCC) |    -0.00028187  |
 | E_SCF with RF of state y        |  -489.41979035  |
 | E_corr (ground state)           |    -2.00423712  |
 | E_exci (ground to x state)      |     0.25651458  |
 | Correction for fast part of RF  |    -0.00010360  |
 | Correction for update of eq. RF |    -0.00000023  |
 +---------------------------------+-----------------+


  +=========================================================================+
  |  Excited state reached by transition:                   model: ADC(2)   |
  |    number, symmetry, multiplicity:   14 a    1                          |
  |    frequency :   0.2586770802 a.u.     7.03896 e.V.     56773.1 rcm     |
  +=========================================================================+

      Total energy of excited state:    -491.1653503728

   +-----------------+-----------------+-----------------+-----------------+
   | operator        | expect. value   | electr. contrib.| diff to gr.st.  |
   +-----------------+-----------------+-----------------+-----------------+
   | xdiplen (unrel) |      1.38237201 |    -86.71398648 |      5.18725404 |
   | xdiplen (relax) |     -0.68888552 |    -88.78524401 |       ---       |
   | ydiplen (unrel) |      0.00013409 |      0.00012510 |      0.00003175 |
   | ydiplen (relax) |      0.00011815 |      0.00010916 |       ---       |
   | zdiplen (unrel) |      0.23242522 |      1.97151980 |      0.00619914 |
   | zdiplen (relax) |      0.22230079 |      1.96139537 |       ---       |
   +-----------------+-----------------+-----------------+-----------------+


     Analysis of relaxed properties:
     ===============================


     dipole moment:
     --------------

     x     -0.68888552
     y      0.00011815
     z      0.22230079

     | dipole moment | =      0.72386526 a.u. =      1.83988178 debye
 


     Analysis of unrelaxed properties:
     =================================


     dipole moment:
     --------------

     x      1.38237201
     y      0.00013409
     z      0.23242522

     | dipole moment | =      1.40177526 a.u. =      3.56295699 debye
 

 +---------------------------------+-----------------+
 |   Nonequilibrium solvation      |                 |
 +---------------------------------+-----------------+
 |   E_x_(y) is the total free energy of target      |
 |   state x in the reaction field (RF)              |
 |   equilibrated for state y                        |
 +---------------------------------+-----------------+
 | E_x_(y)                         |  -491.17077315  |
 | E_x_(y) (+OCC)                  |  -491.17126097  |
 | Outlying charge correction(OCC) |    -0.00048781  |
 | E_SCF with RF of state y        |  -489.41979035  |
 | E_corr (ground state)           |    -2.00423712  |
 | E_exci (ground to x state)      |     0.25867708  |
 | Correction for fast part of RF  |    -0.00539547  |
 | Correction for update of eq. RF |    -0.00002730  |
 +---------------------------------+-----------------+


  +=========================================================================+
  |  Excited state reached by transition:                   model: ADC(2)   |
  |    number, symmetry, multiplicity:   15 a    1                          |
  |    frequency :   0.2695862667 a.u.     7.33582 e.V.     59167.3 rcm     |
  +=========================================================================+

      Total energy of excited state:    -491.1544411864

   +-----------------+-----------------+-----------------+-----------------+
   | operator        | expect. value   | electr. contrib.| diff to gr.st.  |
   +-----------------+-----------------+-----------------+-----------------+
   | xdiplen (unrel) |     -6.08652108 |    -94.18287957 |     -2.28163905 |
   | xdiplen (relax) |     -5.48696383 |    -93.58332232 |       ---       |
   | ydiplen (unrel) |      0.00006202 |      0.00005303 |     -0.00004032 |
   | ydiplen (relax) |      0.00007550 |      0.00006651 |       ---       |
   | zdiplen (unrel) |      0.22955352 |      1.96864810 |      0.00332744 |
   | zdiplen (relax) |      0.22651582 |      1.96561040 |       ---       |
   +-----------------+-----------------+-----------------+-----------------+


     Analysis of relaxed properties:
     ===============================


     dipole moment:
     --------------

     x     -5.48696383
     y      0.00007550
     z      0.22651582

     | dipole moment | =      5.49163741 a.u. =     13.95834868 debye
 


     Analysis of unrelaxed properties:
     =================================


     dipole moment:
     --------------

     x     -6.08652108
     y      0.00006202
     z      0.22955352

     | dipole moment | =      6.09084835 a.u. =     15.48139084 debye
 

 +---------------------------------+-----------------+
 |   Nonequilibrium solvation      |                 |
 +---------------------------------+-----------------+
 |   E_x_(y) is the total free energy of target      |
 |   state x in the reaction field (RF)              |
 |   equilibrated for state y                        |
 +---------------------------------+-----------------+
 | E_x_(y)                         |  -491.15667409  |
 | E_x_(y) (+OCC)                  |  -491.15705799  |
 | Outlying charge correction(OCC) |    -0.00038389  |
 | E_SCF with RF of state y        |  -489.41979035  |
 | E_corr (ground state)           |    -2.00423712  |
 | E_exci (ground to x state)      |     0.26958627  |
 | Correction for fast part of RF  |    -0.00224898  |
 | Correction for update of eq. RF |     0.00001609  |
 +---------------------------------+-----------------+
 Exporting excited state densities


 =============================================
 | SUMMARY OF RELAXED EXCITATIONS WITH COSMO |
 =============================================

 Explanation of the quantities below:

       E(diff)_x = E_x - E*_y
       E(exci)_x = E_x - E_gs

  E_x  : noneq.        energy of state x
  E*_y : eq.           energy of state y
  E_gs : noneq. or eq. energy of groundstate
  OCC  : outlying charge correction

 The * in column 'sym' marks the equilibrated state

 +=================================================================================+
 | sym | multi | state | COSMO-ADC(2) energy differences                           |
 |     |       |       +-----------------------------------------------------------+
 |     |       |       | E(Total)/au. |  E(diff)/eV  |  E(exci)/eV  |E(exc(OCC))/eV|
 +=================================================================================+
 |*a   |   1   |   0   | -491.4240275 |            - |            - |            - |
 +-----+-------+-------+--------------+--------------+--------------+--------------+
 | a   |   1   |   1   | -491.2867949 |      3.73429 |      3.73429 |      3.73430 |
 +-----+-------+-------+--------------+--------------+--------------+--------------+
 | a   |   1   |   2   | -491.2896034 |      3.65786 |      3.65786 |      3.65195 |
 +-----+-------+-------+--------------+--------------+--------------+--------------+
 | a   |   1   |   3   | -491.2577128 |      4.52565 |      4.52565 |      4.52512 |
 +-----+-------+-------+--------------+--------------+--------------+--------------+
 | a   |   1   |   4   | -491.2549370 |      4.60119 |      4.60119 |      4.60061 |
 +-----+-------+-------+--------------+--------------+--------------+--------------+
 | a   |   1   |   5   | -491.2304175 |      5.26840 |      5.26840 |      5.26566 |
 +-----+-------+-------+--------------+--------------+--------------+--------------+
 | a   |   1   |   6   | -491.2134033 |      5.73137 |      5.73137 |      5.71994 |
 +-----+-------+-------+--------------+--------------+--------------+--------------+
 | a   |   1   |   7   | -491.2117608 |      5.77607 |      5.77607 |      5.77535 |
 +-----+-------+-------+--------------+--------------+--------------+--------------+
 | a   |   1   |   8   | -491.2029774 |      6.01508 |      6.01508 |      6.01483 |
 +-----+-------+-------+--------------+--------------+--------------+--------------+
 | a   |   1   |   9   | -491.1892148 |      6.38958 |      6.38958 |      6.37924 |
 +-----+-------+-------+--------------+--------------+--------------+--------------+
 | a   |   1   |  10   | -491.1823537 |      6.57628 |      6.57628 |      6.52166 |
 +-----+-------+-------+--------------+--------------+--------------+--------------+
 | a   |   1   |  11   | -491.1735081 |      6.81698 |      6.81698 |      6.81229 |
 +-----+-------+-------+--------------+--------------+--------------+--------------+
 | a   |   1   |  12   | -491.1701199 |      6.90918 |      6.90918 |      6.86777 |
 +-----+-------+-------+--------------+--------------+--------------+--------------+
 | a   |   1   |  13   | -491.1676167 |      6.97729 |      6.97729 |      6.97684 |
 +-----+-------+-------+--------------+--------------+--------------+--------------+
 | a   |   1   |  14   | -491.1707732 |      6.89140 |      6.89140 |      6.88535 |
 +-----+-------+-------+--------------+--------------+--------------+--------------+
 | a   |   1   |  15   | -491.1566741 |      7.27506 |      7.27506 |      7.27183 |
 +=================================================================================+



    ------------------------------------------------------------------------
         total  cpu-time :  5 hours 45 minutes and 56 seconds
         total wall-time : 22 hours  2 minutes and 18 seconds
    ------------------------------------------------------------------------


   ****  ricc2 : all done  ****


    2023-03-24 19:34:03.450 

