 hostname is         dlt19.abaxnet
 this is node-proc. number 0 running on node dlt19.abaxnet
 the total number of node-proc. spawned is   1

 ricc2 (dlt19.abaxnet) : TURBOMOLE V6.6( 19125 ) 27 May 2014 at 14:24:19
 Copyright (C) 2014 TURBOMOLE GmbH, Karlsruhe


    2023-03-22 09:57:37.155 



                              R I C C 2 - PROGRAM

                          the quantum chemistry groups
                             at the universities in
                           Karlsruhe, Bochum & Mainz
                                   Germany



   *-----------------------------------------------------------------------*
   |                     program will use  1 thread(s)                     |
   *-----------------------------------------------------------------------*


              +--------------------------------------------------+
              | Atomic coordinate, charge and isotop information |
              +--------------------------------------------------+

                    atomic coordinates            atom    charge  isotop
          1.25897108    2.28255516   -0.02810580    c      6.000     0
          2.55589237    0.00000080   -0.02681200    c      6.000     0
          1.25897007   -2.28255733   -0.02813934    c      6.000     0
         -1.33317556   -2.28375619   -0.03047017    c      6.000     0
         -2.68660099    0.00000277   -0.03031113    c      6.000     0
         -1.33317837    2.28375729   -0.03043298    c      6.000     0
          2.29932227    4.03663792   -0.02521679    h      1.000     0
          2.29931977   -4.03664088   -0.02527372    h      1.000     0
         -2.35209669   -4.05620705   -0.03323531    h      1.000     0
         -2.35209002    4.05621365   -0.03315997    h      1.000     0
          5.27622553    0.00000026   -0.02078360    n      7.000     0
          6.38036802   -2.02707200   -0.01818823    o      8.000     0
          6.38036929    2.02707185   -0.01828296    o      8.000     0
         -5.24842481   -0.00000067   -0.08128959    n      7.000     0
         -6.20193517   -1.61497920    0.21484055    h      1.000     0
         -6.20193679    1.61497363    0.21486103    h      1.000     0
 
       center of nuclear mass  :    1.36535189    0.00000014   -0.02744662
       center of nuclear charge:    1.22356053    0.00000012   -0.02415409

              +--------------------------------------------------+
              |               basis set information              |
              +--------------------------------------------------+

              we will work with the 1s 3p 5d 7f 9g ... basis set
              ...i.e. with spherical basis functions...

   type   atoms  prim   cont   basis
   ---------------------------------------------------------------------------
    c        6     52     37   def2-TZVPD   [6s3p3d1f|12s6p3d1f]
    h        6     11      9   def2-TZVPD   [3s2p|5s2p]
    n        2     52     37   def2-TZVPD   [6s3p3d1f|12s6p3d1f]
    o        2     55     40   def2-TZVPD   [6s4p3d1f|12s7p3d1f]
   ---------------------------------------------------------------------------
   total:   16    592    430
   ---------------------------------------------------------------------------

   total number of primitive shells          :   74
   total number of contracted shells         :  162
   total number of cartesian basis functions :  490
   total number of SCF-basis functions       :  430



   =========================================================================


     restricted closed shell calculation for the wavefunction models:
               ADC(2)     - Algebraic Diagrammatic Construction to 2. Order (strict)


     global parameters for ricc2 program:

        hard restart (reuse of interm.) :  enabled 
        soft restart (reuse of vectors) :  disabled
        threshold for vector function   :    0.100000E-06
        convergence threshold energy    :    0.100000E-07
        linear dependence threshold     :    0.100000E-13
        global print level              :      1
        maximum number of iterations    :   500
        maximum number DIIS vectors     :    10
        max. dim. of reduced space      :   100
        core memory limit (MB)          :   500
        disk space limit (MB)           :   none


   =========================================================================
     "cartesian on" in $drvopt is ignored by $ricc2

    der. integral neglect threshold  :  0.10E-08
    integral neglect threshold       :  0.68E-12
    integral storage threshold THIZE :  0.10E-04
    integral storage threshold THIME :         5


                  +------------------------------------------+
                  |     Auxiliary basis set information      |
                  +------------------------------------------+

              we will work with the 1s 3p 5d 7f 9g ... basis set
              ...i.e. with spherical basis functions...

   type   atoms  prim   cont   basis
   ---------------------------------------------------------------------------
    c        6     97     92   def2-TZVPD   [9s7p5d4f1g|9s7p6d4f1g]
    h        6     32     24   def2-TZVPD   [5s3p2d|5s4p3d]
    n        2     97     92   def2-TZVPD   [9s7p5d4f1g|9s7p6d4f1g]
    o        2     97     92   def2-TZVPD   [9s7p5d4f1g|9s7p6d4f1g]
   ---------------------------------------------------------------------------
   total:   16   1162   1064
   ---------------------------------------------------------------------------

   total number of primitive shells          :   93
   total number of contracted shells         :  320
   total number of cartesian basis functions : 1306
   total number of SCF-basis functions       : 1064


 symmetry group of the molecule :   c1 

 the group has the following generators :
   c1(z)

    1 symmetry operations found

 there are 1 real representations :   a   

 maximum number of shells which are related by symmetry :  1


 The symmetry information takes   1 MB

*---------------------------------------------------------------------*
|               simplified C1 algorithm will be applied               |
*---------------------------------------------------------------------*
 ==============================================================================
                      COSMO switched on
 ==============================================================================
            ======================================================
                      COSMO settings in RICC2
                   --------------------------
             Solvent charges are equilibrated for ground state
             "cycle" indicates frozen COSMO charges,
             hence no COSMO CPHF contribution included
             COSMO linear response (LR) contribution included
             Outlying Charge Correction (OCC) is performed
             Using epsilon          =    10.125
             Using refractive index =     1.300
            ======================================================
        IMPORTANT NOTICE: The calculation of the solvent contributions will
         need the relaxed densities in general. Therefore the actual COSMO
         energies will be output only at the end of the run. Any energies
         or excitation energies quoted before that are only intermediate
         quantities and should be ignored unless you know what you are doing!

  MOs are in ASCII format !


 reading orbital data $scfmo  from file mos . 

 orbital characterization : scfconv=7
 

         --------------------------------------------------------------
                   checking mo's by calculating trace(D*S)

              number of electrons : 
                 from trace(D*S)         :   71.999999999995
                 from occupation numbers :   72.000000000000

              molecular charge           :    0.000000000000
         --------------------------------------------------------------

 time elapsed for calculating density matrices :   0.014 sec
 all orbitals will be active in the correlation treatment

  ----------------------------------------------------------------------------
  hard_restart flag is disabled because the check sum for the
  molecular orbitals "$chkmos" differs from the reference value:
  reference value:     4983261.68035865    
  computed value :     4983261.68013252    
  relative error :    0.453776784988466E-10
  tolerance      :    0.100000000000000E-11
  the calculation will proceed...
  ----------------------------------------------------------------------------


   Molecular Orbital Statistic:
   ============================

   -----------------------------
   orbitals in total:
   -----------------------------
    frozen occupied :      0
    active occupied :     36
    active virtual  :    394
    frozen virtual  :      0
    all together    :    430
   -----------------------------


     time in riccmos       cpu:  0.13 sec    wall:  1.86 sec    ratio:  0.1

     total memory allocated for calculation of (Q|P)**(-1/2) : 13 MiB


     calculation of (P|Q) ...
     time in lp2sym        cpu:  0.02 sec    wall:  0.02 sec    ratio:  1.0


     calculation of the Cholesky decomposition of (P|Q)**(-1) ...
     time in invmetri      cpu:  0.07 sec    wall:  0.97 sec    ratio:  0.1

   threshold for RMS(d[D]) in SCF was     :  0.10E-07
   integral neglect threshold             :  0.68E-12
   derivative integral neglect threshold  :  0.10E-08


 setting up bound for integral derivative estimation

 increment for numerical differentiation : 0.00050000

   =========================================================================

     Energy of reference wave function is  -489.4198663729000
     Maximum orbital residual is           0.1011334118804E-04


     Number of symmetry-nonredundant auxiliary basis functions:     1064

     Block lengths for integral files:
        frozen occupied (BOI):        0 MiB
        active occupied (BJI):        1 MiB
        active virtual  (BAI):        4 MiB
        frozen virtual  (BGI):        0 MiB
               general  (BTI):        4 MiB

   =========================================================================




   **************************************************************************
   *                                                                        *
   *          OPTIMIZATION OF THE GROUND STATE CLUSTER AMPLITUDES           *
   *                                                                        *
   **************************************************************************


   Iter.   MP2 energy       Norm(Omega)    Norm(t1)  Norm(t2)     cpu    wall
   ...........................................................................
    1   -491.4240207895    0.1615503197     0.00000   0.44519    0.29    0.99
   ...........................................................................


     time in total         cpu:  0 min 17 s  wall:  1 min  0 s  ratio:  0.3


     **********************************************************************
     *                                                                    *
     *   RHF  energy                             :   -489.4198663729      *
     *   MP2 correlation energy                  :     -2.0041544166      *
     *                                                                    *
     *   Final MP2 energy                        :   -491.4240207895      *
     *                                                                    *
     *   Norm of MP1 T2 amplitudes               :      0.4451855962      *
     *                                                                    *
     *   D1 diagnostic                           :      0.0591            *
     *                                                                    *
     **********************************************************************

 Using refractive index n                   =    1.30000000000000     
 Screening function (n**2-1)/(n**2+0.5)     =   0.315068493150685     


 **************************************************************
 *                                                            *
 *    OPTIMIZATION OF THE EXCITED STATE CLUSTER AMPLITUDES    *
 *                                                            *
 **************************************************************


  preoptimize excitation energies/vectors using CCS:

  ==================================================


 ======== LINEAR CC RESPONSE SOLVER ========

    threshold for convergence: 0.10E-02
    maximum number of simultaneous jacoby matrix transformations: 15
                                                
     summary of start vectors generation:
     -------------------------------------------
     type of solution vectors      : RE0
     symmetry                      : a  
     number of vectors requested   :    15
     number of vectors generated   :    15
       -- guessed as rhs/(e_a-e_i) :    15
     -------------------------------------------
                                                

    Iter  #Vectors  time (min)    max. residual 
    --------------------------------------------
 COSMO cphf update
 COSMO cphf update
 COSMO cphf update
 COSMO cphf update
 COSMO cphf update
 COSMO cphf update
 COSMO cphf update
 COSMO cphf update
 COSMO cphf update
 COSMO cphf update
 COSMO cphf update
 COSMO cphf update
 COSMO cphf update
 COSMO cphf update
 COSMO cphf update
      1      15         4.71     0.14E+00  (  1)
 COSMO cphf update
 COSMO cphf update
 COSMO cphf update
 COSMO cphf update
 COSMO cphf update
 COSMO cphf update
 COSMO cphf update
 COSMO cphf update
 COSMO cphf update
 COSMO cphf update
 COSMO cphf update
 COSMO cphf update
 COSMO cphf update
 COSMO cphf update
 COSMO cphf update
      2      15         4.94     0.52E-01  (  1)
 COSMO cphf update
 COSMO cphf update
 COSMO cphf update
 COSMO cphf update
 COSMO cphf update
 COSMO cphf update
 COSMO cphf update
 COSMO cphf update
 COSMO cphf update
 COSMO cphf update
 COSMO cphf update
 COSMO cphf update
 COSMO cphf update
 COSMO cphf update
 COSMO cphf update
      3      15         4.89     0.78E-01  (  7)
 COSMO cphf update
 COSMO cphf update
 COSMO cphf update
 COSMO cphf update
 COSMO cphf update
 COSMO cphf update
 COSMO cphf update
 COSMO cphf update
 COSMO cphf update
 COSMO cphf update
 COSMO cphf update
 COSMO cphf update
 COSMO cphf update
 COSMO cphf update
 COSMO cphf update
      4      15         4.69     0.15E+00  ( 13)
 COSMO cphf update
 COSMO cphf update
 COSMO cphf update
 COSMO cphf update
 COSMO cphf update
 COSMO cphf update
 COSMO cphf update
 COSMO cphf update
 COSMO cphf update
 COSMO cphf update
 COSMO cphf update
 COSMO cphf update
 COSMO cphf update
 COSMO cphf update
 COSMO cphf update
      5      15         4.93     0.16E+00  (  4)
 COSMO cphf update
 COSMO cphf update
 COSMO cphf update
 COSMO cphf update
 COSMO cphf update
 COSMO cphf update
 COSMO cphf update
 COSMO cphf update
 COSMO cphf update
 COSMO cphf update
 COSMO cphf update
 COSMO cphf update
 COSMO cphf update
 COSMO cphf update
 COSMO cphf update
  dimension of red. space became too large.
  try internal restart...
      6      15         4.74     0.87E-01  (  3)
                                                
     summary of start vectors generation:
     -------------------------------------------
     type of solution vectors      : RE0
     symmetry                      : a  
     number of vectors requested   :    15
     number of vectors generated   :    15
       -- restarted from file      :    15
     -------------------------------------------
                                                

    Iter  #Vectors  time (min)    max. residual 
    --------------------------------------------
 COSMO cphf update
 COSMO cphf update
 COSMO cphf update
 COSMO cphf update
 COSMO cphf update
 COSMO cphf update
 COSMO cphf update
 COSMO cphf update
 COSMO cphf update
 COSMO cphf update
 COSMO cphf update
 COSMO cphf update
 COSMO cphf update
 COSMO cphf update
 COSMO cphf update
      7      15         4.71     0.87E-01  (  3)
 COSMO cphf update
 COSMO cphf update
 COSMO cphf update
 COSMO cphf update
 COSMO cphf update
 COSMO cphf update
 COSMO cphf update
 COSMO cphf update
 COSMO cphf update
 COSMO cphf update
 COSMO cphf update
 COSMO cphf update
 COSMO cphf update
      8      13         4.18     0.30E-01  (  2)
 COSMO cphf update
 COSMO cphf update
 COSMO cphf update
 COSMO cphf update
 COSMO cphf update
 COSMO cphf update
 COSMO cphf update
 COSMO cphf update
 COSMO cphf update
      9       9         2.89     0.76E-02  (  2)
 COSMO cphf update
 COSMO cphf update
 COSMO cphf update
 COSMO cphf update
 COSMO cphf update
     10       5         1.59     0.26E-02  ( 13)
 COSMO cphf update
 COSMO cphf update
 COSMO cphf update
 COSMO cphf update
     11       4         1.30     0.12E-02  ( 13)
 COSMO cphf update
     12       1         0.37     0.76E-03  (  2)
    --------------------------------------------
    converged in 12 iterations

         Total time         43.95 minutes


 ===========================================




 Note that this is the intermediate result of a preoptimization!
 The convergence threshold was  0.1E-02 only!
 COSMO: note that the excitation energies below do not include
        the nonequilibrium contributions yet. These require the
        computation of the relaxed densities. See end of output
        for a final list of corrected excitations.


 +==================================================================+
 | sym | multi | state |          CCS excitation energies           |
 |     |       |       +--------------------------------------------+
 |     |       |       |   Hartree    |     eV       |     cm-1     |
 +==================================================================+
 | a   |   1   |   1   |    0.1819908 |      4.95222 |    39942.360 |
 | a   |   1   |   2   |    0.1966538 |      5.35122 |    43160.522 |
 | a   |   1   |   3   |    0.2044546 |      5.56349 |    44872.592 |
 | a   |   1   |   4   |    0.2117870 |      5.76302 |    46481.880 |
 | a   |   1   |   5   |    0.2299958 |      6.25850 |    50478.232 |
 | a   |   1   |   6   |    0.2465305 |      6.70844 |    54107.196 |
 | a   |   1   |   7   |    0.2579072 |      7.01801 |    56604.085 |
 | a   |   1   |   8   |    0.2590652 |      7.04952 |    56858.240 |
 | a   |   1   |   9   |    0.2624224 |      7.14088 |    57595.057 |
 | a   |   1   |  10   |    0.2660998 |      7.24094 |    58402.155 |
 | a   |   1   |  11   |    0.2794057 |      7.60301 |    61322.454 |
 | a   |   1   |  12   |    0.2831400 |      7.70463 |    62142.050 |
 | a   |   1   |  13   |    0.2857047 |      7.77442 |    62704.944 |
 | a   |   1   |  14   |    0.2957861 |      8.04875 |    64917.549 |
 | a   |   1   |  15   |    0.2965510 |      8.06956 |    65085.411 |
 +==================================================================+




  preoptimize ADC(2) excitation energies/vectors using a quasi linear algorithm:
  ==============================================================================


 ======== LINEAR CC RESPONSE SOLVER ========

    threshold for convergence: 0.10E-02
    maximum number of simultaneous jacoby matrix transformations: 15
                                                
     summary of start vectors generation:
     -------------------------------------------
     type of solution vectors      : RE0
     symmetry                      : a  
     number of vectors requested   :    15
     number of vectors generated   :    15
       -- restarted from file      :    15
     -------------------------------------------
                                                

    Iter  #Vectors  time (min)    max. residual 
    --------------------------------------------
 COSMO cphf update
 COSMO cphf update
 COSMO cphf update
 COSMO cphf update
 COSMO cphf update
 COSMO cphf update
 COSMO cphf update
 COSMO cphf update
 COSMO cphf update
 COSMO cphf update
 COSMO cphf update
 COSMO cphf update
 COSMO cphf update
 COSMO cphf update
 COSMO cphf update
 COSMO cphf update
 COSMO cphf update
 COSMO cphf update
 COSMO cphf update
 COSMO cphf update
 COSMO cphf update
 COSMO cphf update
 COSMO cphf update
 COSMO cphf update
 COSMO cphf update
 COSMO cphf update
 COSMO cphf update
 COSMO cphf update
 COSMO cphf update
 COSMO cphf update
 threshold for this macro iteration:  5.346448122018854E-002
      1      15        25.75     0.93E-01  (  2)
 COSMO cphf update
 COSMO cphf update
 COSMO cphf update
 COSMO cphf update
 COSMO cphf update
 COSMO cphf update
 COSMO cphf update
 COSMO cphf update
 COSMO cphf update
 COSMO cphf update
 COSMO cphf update
 COSMO cphf update
 COSMO cphf update
 COSMO cphf update
 COSMO cphf update
 COSMO cphf update
 ...adapted threshold to:  6.385661227460929E-002
      2       8        10.37     0.37E-01  ( 12)
                                                
     summary of start vectors generation:
     -------------------------------------------
     type of solution vectors      : RE0
     symmetry                      : a  
     number of vectors requested   :    15
     number of vectors generated   :    15
       -- restarted from file      :    15
     -------------------------------------------
                                                

    Iter  #Vectors  time (min)    max. residual 
    --------------------------------------------
 COSMO cphf update
 COSMO cphf update
 COSMO cphf update
 COSMO cphf update
 COSMO cphf update
 COSMO cphf update
 COSMO cphf update
 COSMO cphf update
 COSMO cphf update
 COSMO cphf update
 COSMO cphf update
 COSMO cphf update
 COSMO cphf update
 COSMO cphf update
 COSMO cphf update
 COSMO cphf update
 COSMO cphf update
 COSMO cphf update
 COSMO cphf update
 COSMO cphf update
 COSMO cphf update
 COSMO cphf update
 COSMO cphf update
 COSMO cphf update
 COSMO cphf update
 COSMO cphf update
 COSMO cphf update
 COSMO cphf update
 COSMO cphf update
 COSMO cphf update
 threshold for this macro iteration:  6.922434742725581E-003
      3      15        26.01     0.37E-01  ( 12)
 COSMO cphf update
 COSMO cphf update
 COSMO cphf update
 COSMO cphf update
 COSMO cphf update
 COSMO cphf update
 COSMO cphf update
 COSMO cphf update
 COSMO cphf update
 COSMO cphf update
 COSMO cphf update
 COSMO cphf update
 COSMO cphf update
 COSMO cphf update
 COSMO cphf update
 COSMO cphf update
 COSMO cphf update
 COSMO cphf update
 COSMO cphf update
 COSMO cphf update
 COSMO cphf update
 COSMO cphf update
 COSMO cphf update
 COSMO cphf update
 COSMO cphf update
 COSMO cphf update
 COSMO cphf update
 COSMO cphf update
 COSMO cphf update
 COSMO cphf update
      4      15        26.03     0.15E-01  ( 11)
 COSMO cphf update
 COSMO cphf update
 COSMO cphf update
 COSMO cphf update
 COSMO cphf update
 COSMO cphf update
 COSMO cphf update
 COSMO cphf update
 COSMO cphf update
 COSMO cphf update
 COSMO cphf update
 COSMO cphf update
 COSMO cphf update
 COSMO cphf update
 COSMO cphf update
 COSMO cphf update
 COSMO cphf update
 COSMO cphf update
 COSMO cphf update
 COSMO cphf update
 COSMO cphf update
 COSMO cphf update
 COSMO cphf update
 COSMO cphf update
 COSMO cphf update
 COSMO cphf update
 COSMO cphf update
 COSMO cphf update
      5      14        23.83     0.11E-01  ( 14)
 COSMO cphf update
 COSMO cphf update
 COSMO cphf update
 COSMO cphf update
 COSMO cphf update
 COSMO cphf update
      6       3         4.15     0.99E-02  ( 14)
 COSMO cphf update
 COSMO cphf update
      7       1         1.47     0.19E-01  ( 14)
 COSMO cphf update
 COSMO cphf update
      8       1         1.47     0.22E-01  ( 13)
 COSMO cphf update
 COSMO cphf update
 COSMO cphf update
 COSMO cphf update
      9       2         2.70     0.11E-01  ( 13)
 COSMO cphf update
 COSMO cphf update
     10       1         1.48     0.66E-02  (  4)
                                                
     summary of start vectors generation:
     -------------------------------------------
     type of solution vectors      : RE0
     symmetry                      : a  
     number of vectors requested   :    15
     number of vectors generated   :    15
       -- restarted from file      :    15
     -------------------------------------------
                                                

    Iter  #Vectors  time (min)    max. residual 
    --------------------------------------------
 COSMO cphf update
 COSMO cphf update
 COSMO cphf update
 COSMO cphf update
 COSMO cphf update
 COSMO cphf update
 COSMO cphf update
 COSMO cphf update
 COSMO cphf update
 COSMO cphf update
 COSMO cphf update
 COSMO cphf update
 COSMO cphf update
 COSMO cphf update
 COSMO cphf update
 COSMO cphf update
 COSMO cphf update
 COSMO cphf update
 COSMO cphf update
 COSMO cphf update
 COSMO cphf update
 COSMO cphf update
 COSMO cphf update
 COSMO cphf update
 COSMO cphf update
 COSMO cphf update
 COSMO cphf update
 COSMO cphf update
 COSMO cphf update
 COSMO cphf update
 threshold for this macro iteration:  1.174761810857794E-002
     11      15        25.88     0.74E-02  ( 11)
                                                
     summary of start vectors generation:
     -------------------------------------------
     type of solution vectors      : RE0
     symmetry                      : a  
     number of vectors requested   :    15
     number of vectors generated   :    15
       -- restarted from file      :    15
     -------------------------------------------
                                                

    Iter  #Vectors  time (min)    max. residual 
    --------------------------------------------
 COSMO cphf update
 COSMO cphf update
 COSMO cphf update
 COSMO cphf update
 COSMO cphf update
 COSMO cphf update
 COSMO cphf update
 COSMO cphf update
 COSMO cphf update
 COSMO cphf update
 COSMO cphf update
 COSMO cphf update
 COSMO cphf update
 COSMO cphf update
 COSMO cphf update
 COSMO cphf update
 COSMO cphf update
 COSMO cphf update
 COSMO cphf update
 COSMO cphf update
 COSMO cphf update
 COSMO cphf update
 COSMO cphf update
 COSMO cphf update
 COSMO cphf update
 COSMO cphf update
 COSMO cphf update
 COSMO cphf update
 COSMO cphf update
 COSMO cphf update
 dabs(Rj-Ri):           1          12  0.118869246840765     
 dabs(Ij+Ii):           1          12  1.049104396148235E-003
 dabs(Rj-Ri):           2          12  0.118815722721774     
 dabs(Ij+Ii):           2          12  1.049104396148235E-003
 dabs(Rj-Ri):           3          12  8.960109630300939E-002
 dabs(Ij+Ii):           3          12  1.049104396148235E-003
 dabs(Rj-Ri):           4          12  8.728745685217382E-002
 dabs(Ij+Ii):           4          12  1.049104396148235E-003
 dabs(Rj-Ri):           5          12  6.202087057251310E-002
 dabs(Ij+Ii):           5          12  1.049104396148235E-003
 dabs(Rj-Ri):           6          12  4.516438580976767E-002
 dabs(Ij+Ii):           6          12  1.049104396148235E-003
 dabs(Rj-Ri):           7          12  4.431037947194016E-002
 dabs(Ij+Ii):           7          12  1.049104396148235E-003
 dabs(Rj-Ri):           8          12  3.473134215784590E-002
 dabs(Ij+Ii):           8          12  1.049104396148235E-003
 dabs(Rj-Ri):           9          12  2.056251370177706E-002
 dabs(Ij+Ii):           9          12  1.049104396148235E-003
 dabs(Rj-Ri):          10          12  1.240897417204812E-002
 dabs(Ij+Ii):          10          12  1.049104396148235E-003
 dabs(Rj-Ri):          11          12  3.822552728048878E-004
 dabs(Ij+Ii):          11          12  1.049104396148235E-003
 dabs(Rj-Ri):          13          12  0.000000000000000E+000
 dabs(Ij+Ii):          13          12  0.000000000000000E+000
 dabs(Rj-Ri):          14          12  1.414858914959910E-002
 dabs(Ij+Ii):          14          12  1.049104396148235E-003
 dabs(Rj-Ri):          15          12  1.646114853306846E-002
 dabs(Ij+Ii):          15          12  1.049104396148235E-003
 overlap matrix for complex pair:

              1             2
 
    1     1.77237331   -0.15386388
    2    -0.15386388    0.01353281
 real eigenvalues of metric:

              1
 
    1     1.78573191
    2     0.00017421
 eigenvectors of metric:

              1             2
 
    1     0.99625224    0.08649549
    2    -0.08649549    0.99625224
 inverse square root of overlap matrix:

              1             2
 
    1     1.30955272    6.46417040
    2     6.46417040   75.20243014
 recalculated overlap matrix for complex pair:

              1             2
 
    1     1.00000000    0.00000000
    2     0.00000000    1.00000000
 dabs(Rj-Ri):           1          13  0.118869246840765     
 dabs(Ij+Ii):           1          13  1.049104396148235E-003
 dabs(Rj-Ri):           2          13  0.118815722721774     
 dabs(Ij+Ii):           2          13  1.049104396148235E-003
 dabs(Rj-Ri):           3          13  8.960109630300939E-002
 dabs(Ij+Ii):           3          13  1.049104396148235E-003
 dabs(Rj-Ri):           4          13  8.728745685217382E-002
 dabs(Ij+Ii):           4          13  1.049104396148235E-003
 dabs(Rj-Ri):           5          13  6.202087057251310E-002
 dabs(Ij+Ii):           5          13  1.049104396148235E-003
 dabs(Rj-Ri):           6          13  4.516438580976767E-002
 dabs(Ij+Ii):           6          13  1.049104396148235E-003
 dabs(Rj-Ri):           7          13  4.431037947194016E-002
 dabs(Ij+Ii):           7          13  1.049104396148235E-003
 dabs(Rj-Ri):           8          13  3.473134215784590E-002
 dabs(Ij+Ii):           8          13  1.049104396148235E-003
 dabs(Rj-Ri):           9          13  2.056251370177706E-002
 dabs(Ij+Ii):           9          13  1.049104396148235E-003
 dabs(Rj-Ri):          10          13  1.240897417204812E-002
 dabs(Ij+Ii):          10          13  1.049104396148235E-003
 dabs(Rj-Ri):          11          13  3.822552728048878E-004
 dabs(Ij+Ii):          11          13  1.049104396148235E-003
 dabs(Rj-Ri):          12          13  0.000000000000000E+000
 dabs(Ij+Ii):          12          13  0.000000000000000E+000
 dabs(Rj-Ri):          14          13  1.414858914959910E-002
 dabs(Ij+Ii):          14          13  1.049104396148235E-003
 dabs(Rj-Ri):          15          13  1.646114853306846E-002
 dabs(Ij+Ii):          15          13  1.049104396148235E-003
 overlap matrix for complex pair:

              1             2
 
    1     1.00000000    0.00000000
    2     0.00000000    1.00000000
 real eigenvalues of metric:

              1
 
    1     1.00000000
    2     1.00000000
 eigenvectors of metric:

              1             2
 
    1     0.99773470   -0.06727159
    2     0.06727159    0.99773470
 inverse square root of overlap matrix:

              1             2
 
    1     1.00000000   -0.00000000
    2    -0.00000000    1.00000000
 recalculated overlap matrix for complex pair:

              1             2
 
    1     1.00000000    0.00000000
    2    -0.00000000    1.00000000
 warning> found low lying complex root...
 eigenvalues (imaginary parts) in redeig:

              1
 
    1     0.00000000
    2     0.00000000
    3     0.00000000
    4     0.00000000
    5     0.00000000
    6     0.00000000
    7     0.00000000
    8     0.00000000
    9     0.00000000
   10     0.00000000
   11     0.00000000
   12    -0.00104910
   13     0.00104910
   14     0.00000000
   15     0.00000000
 eigenvalues (real parts) in redeig:

              1
 
    1     0.13771860
    2     0.13777212
    3     0.16698675
    4     0.16930039
    5     0.19456697
    6     0.21142346
    7     0.21227746
    8     0.22185650
    9     0.23602533
   10     0.24417887
   11     0.25620559
   12     0.25658784
   13     0.25658784
   14     0.27073643
   15     0.27304899
 threshold for this macro iteration:  5.622004211474685E-003
     12      15        26.02     0.35E-01  ( 13)
 COSMO cphf update
 COSMO cphf update
 COSMO cphf update
 COSMO cphf update
 dabs(Rj-Ri):           1          11  0.116316881362223     
 dabs(Ij+Ii):           1          11  7.662698608912536E-004
 dabs(Rj-Ri):           2          11  0.116263623845965     
 dabs(Ij+Ii):           2          11  7.662698608912536E-004
 dabs(Rj-Ri):           3          11  8.704900368128948E-002
 dabs(Ij+Ii):           3          11  7.662698608912536E-004
 dabs(Rj-Ri):           4          11  8.473535824225564E-002
 dabs(Ij+Ii):           4          11  7.662698608912536E-004
 dabs(Rj-Ri):           5          11  5.946877196168127E-002
 dabs(Ij+Ii):           5          11  7.662698608912536E-004
 dabs(Rj-Ri):           6          11  4.261221331952267E-002
 dabs(Ij+Ii):           6          11  7.662698608912536E-004
 dabs(Rj-Ri):           7          11  4.175828086070021E-002
 dabs(Ij+Ii):           7          11  7.662698608912536E-004
 dabs(Rj-Ri):           8          11  3.217864530544293E-002
 dabs(Ij+Ii):           8          11  7.662698608912536E-004
 dabs(Rj-Ri):           9          11  1.800733418335168E-002
 dabs(Ij+Ii):           9          11  7.662698608912536E-004
 dabs(Rj-Ri):          10          11  9.856875556837008E-003
 dabs(Ij+Ii):          10          11  7.662698608912536E-004
 dabs(Rj-Ri):          12          11  0.000000000000000E+000
 dabs(Ij+Ii):          12          11  0.000000000000000E+000
 dabs(Rj-Ri):          13          11  2.439412589307965E-003
 dabs(Ij+Ii):          13          11  7.662698608912536E-004
 dabs(Rj-Ri):          14          11  1.670068617603426E-002
 dabs(Ij+Ii):          14          11  7.662698608912536E-004
 dabs(Rj-Ri):          15          11  1.822277817820245E-002
 dabs(Ij+Ii):          15          11  7.662698608912536E-004
 dabs(Rj-Ri):          16          11  0.167045586147890     
 dabs(Ij+Ii):          16          11  7.662698608912536E-004
 dabs(Rj-Ri):          17          11  0.196976710894132     
 dabs(Ij+Ii):          17          11  7.662698608912536E-004
 overlap matrix for complex pair:

              1             2
 
    1     0.02795993   -0.01141784
    2    -0.01141784    0.00477997
 real eigenvalues of metric:

              1
 
    1     0.03263939
    2     0.00010051
 eigenvectors of metric:

              1             2
 
    1     0.92530467    0.37922456
    2    -0.37922456    0.92530467
 inverse square root of overlap matrix:

              1             2
 
    1    19.08365674   33.05825234
    2    33.05825234   86.19699606
 recalculated overlap matrix for complex pair:

              1             2
 
    1     1.00000000    0.00000000
    2    -0.00000000    1.00000000
 dabs(Rj-Ri):           1          12  0.116316881362223     
 dabs(Ij+Ii):           1          12  7.662698608912536E-004
 dabs(Rj-Ri):           2          12  0.116263623845965     
 dabs(Ij+Ii):           2          12  7.662698608912536E-004
 dabs(Rj-Ri):           3          12  8.704900368128948E-002
 dabs(Ij+Ii):           3          12  7.662698608912536E-004
 dabs(Rj-Ri):           4          12  8.473535824225564E-002
 dabs(Ij+Ii):           4          12  7.662698608912536E-004
 dabs(Rj-Ri):           5          12  5.946877196168127E-002
 dabs(Ij+Ii):           5          12  7.662698608912536E-004
 dabs(Rj-Ri):           6          12  4.261221331952267E-002
 dabs(Ij+Ii):           6          12  7.662698608912536E-004
 dabs(Rj-Ri):           7          12  4.175828086070021E-002
 dabs(Ij+Ii):           7          12  7.662698608912536E-004
 dabs(Rj-Ri):           8          12  3.217864530544293E-002
 dabs(Ij+Ii):           8          12  7.662698608912536E-004
 dabs(Rj-Ri):           9          12  1.800733418335168E-002
 dabs(Ij+Ii):           9          12  7.662698608912536E-004
 dabs(Rj-Ri):          10          12  9.856875556837008E-003
 dabs(Ij+Ii):          10          12  7.662698608912536E-004
 dabs(Rj-Ri):          11          12  0.000000000000000E+000
 dabs(Ij+Ii):          11          12  0.000000000000000E+000
 dabs(Rj-Ri):          13          12  2.439412589307965E-003
 dabs(Ij+Ii):          13          12  7.662698608912536E-004
 dabs(Rj-Ri):          14          12  1.670068617603426E-002
 dabs(Ij+Ii):          14          12  7.662698608912536E-004
 dabs(Rj-Ri):          15          12  1.822277817820245E-002
 dabs(Ij+Ii):          15          12  7.662698608912536E-004
 dabs(Rj-Ri):          16          12  0.167045586147890     
 dabs(Ij+Ii):          16          12  7.662698608912536E-004
 dabs(Rj-Ri):          17          12  0.196976710894132     
 dabs(Ij+Ii):          17          12  7.662698608912536E-004
 overlap matrix for complex pair:

              1             2
 
    1     1.00000000   -0.00000000
    2     0.00000000    1.00000000
 real eigenvalues of metric:

              1
 
    1     1.00000000
    2     1.00000000
 eigenvectors of metric:

              1             2
 
    1     0.71126823    0.70292070
    2    -0.70292070    0.71126823
 inverse square root of overlap matrix:

              1             2
 
    1     1.00000000    0.00000000
    2     0.00000000    1.00000000
 recalculated overlap matrix for complex pair:

              1             2
 
    1     1.00000000    0.00000000
    2     0.00000000    1.00000000
 warning> found low lying complex root...
 eigenvalues (imaginary parts) in redeig:

              1
 
    1     0.00000000
    2     0.00000000
    3     0.00000000
    4     0.00000000
    5     0.00000000
    6     0.00000000
    7     0.00000000
    8     0.00000000
    9     0.00000000
   10     0.00000000
   11    -0.00076627
   12     0.00076627
   13     0.00000000
   14     0.00000000
   15     0.00000000
   16     0.00000000
   17     0.00000000
 eigenvalues (real parts) in redeig:

              1
 
    1     0.13771886
    2     0.13777212
    3     0.16698674
    4     0.16930039
    5     0.19456697
    6     0.21142353
    7     0.21227746
    8     0.22185710
    9     0.23602841
   10     0.24417887
   11     0.25403575
   12     0.25403575
   13     0.25647516
   14     0.27073643
   15     0.27225852
   16     0.42108133
   17     0.45101246
     13       2         2.73     0.49E-01  ( 12)
 COSMO cphf update
 COSMO cphf update
 COSMO cphf update
 COSMO cphf update
 COSMO cphf update
 COSMO cphf update
 dabs(Rj-Ri):           1          11  0.115868559530425     
 dabs(Ij+Ii):           1          11  1.295308310517376E-003
 dabs(Rj-Ri):           2          11  0.115815860834779     
 dabs(Ij+Ii):           2          11  1.295308310517376E-003
 dabs(Rj-Ri):           3          11  8.660123010365950E-002
 dabs(Ij+Ii):           3          11  1.295308310517376E-003
 dabs(Rj-Ri):           4          11  8.428759462331614E-002
 dabs(Ij+Ii):           4          11  1.295308310517376E-003
 dabs(Rj-Ri):           5          11  5.902100830369961E-002
 dabs(Ij+Ii):           5          11  1.295308310517376E-003
 dabs(Rj-Ri):           6          11  4.216410588734462E-002
 dabs(Ij+Ii):           6          11  1.295308310517376E-003
 dabs(Rj-Ri):           7          11  4.131051720540962E-002
 dabs(Ij+Ii):           7          11  1.295308310517376E-003
 dabs(Rj-Ri):           8          11  3.173071896238369E-002
 dabs(Ij+Ii):           8          11  1.295308310517376E-003
 dabs(Rj-Ri):           9          11  1.755790169837149E-002
 dabs(Ij+Ii):           9          11  1.295308310517376E-003
 dabs(Rj-Ri):          10          11  9.409111894065264E-003
 dabs(Ij+Ii):          10          11  1.295308310517376E-003
 dabs(Rj-Ri):          12          11  0.000000000000000E+000
 dabs(Ij+Ii):          12          11  0.000000000000000E+000
 dabs(Rj-Ri):          13          11  2.899350842260506E-003
 dabs(Ij+Ii):          13          11  1.295308310517376E-003
 dabs(Rj-Ri):          14          11  1.714844954006217E-002
 dabs(Ij+Ii):          14          11  1.295308310517376E-003
 dabs(Rj-Ri):          15          11  1.856794318097882E-002
 dabs(Ij+Ii):          15          11  1.295308310517376E-003
 dabs(Rj-Ri):          16          11  6.559411018826328E-002
 dabs(Ij+Ii):          16          11  1.295308310517376E-003
 dabs(Rj-Ri):          17          11  0.106649535843657     
 dabs(Ij+Ii):          17          11  1.295308310517376E-003
 dabs(Rj-Ri):          18          11  0.146207516804437     
 dabs(Ij+Ii):          18          11  1.295308310517376E-003
 dabs(Rj-Ri):          19          11  0.300476597356975     
 dabs(Ij+Ii):          19          11  1.295308310517376E-003
 dabs(Rj-Ri):          20          11  0.671185730390910     
 dabs(Ij+Ii):          20          11  1.295308310517376E-003
 overlap matrix for complex pair:

              1             2
 
    1     0.00654021   -0.01767008
    2    -0.01767008    0.04791025
 real eigenvalues of metric:

              1
 
    1     0.00002042
    2     0.05443004
 eigenvectors of metric:

              1             2
 
    1     0.93817485   -0.34616174
    2     0.34616174    0.93817485
 inverse square root of overlap matrix:

              1             2
 
    1   195.30596814   70.48121833
    2    70.48121833   30.29198882
 recalculated overlap matrix for complex pair:

              1             2
 
    1     1.00000000   -0.00000000
    2     0.00000000    1.00000000
 dabs(Rj-Ri):           1          12  0.115868559530425     
 dabs(Ij+Ii):           1          12  1.295308310517376E-003
 dabs(Rj-Ri):           2          12  0.115815860834779     
 dabs(Ij+Ii):           2          12  1.295308310517376E-003
 dabs(Rj-Ri):           3          12  8.660123010365950E-002
 dabs(Ij+Ii):           3          12  1.295308310517376E-003
 dabs(Rj-Ri):           4          12  8.428759462331614E-002
 dabs(Ij+Ii):           4          12  1.295308310517376E-003
 dabs(Rj-Ri):           5          12  5.902100830369961E-002
 dabs(Ij+Ii):           5          12  1.295308310517376E-003
 dabs(Rj-Ri):           6          12  4.216410588734462E-002
 dabs(Ij+Ii):           6          12  1.295308310517376E-003
 dabs(Rj-Ri):           7          12  4.131051720540962E-002
 dabs(Ij+Ii):           7          12  1.295308310517376E-003
 dabs(Rj-Ri):           8          12  3.173071896238369E-002
 dabs(Ij+Ii):           8          12  1.295308310517376E-003
 dabs(Rj-Ri):           9          12  1.755790169837149E-002
 dabs(Ij+Ii):           9          12  1.295308310517376E-003
 dabs(Rj-Ri):          10          12  9.409111894065264E-003
 dabs(Ij+Ii):          10          12  1.295308310517376E-003
 dabs(Rj-Ri):          11          12  0.000000000000000E+000
 dabs(Ij+Ii):          11          12  0.000000000000000E+000
 dabs(Rj-Ri):          13          12  2.899350842260506E-003
 dabs(Ij+Ii):          13          12  1.295308310517376E-003
 dabs(Rj-Ri):          14          12  1.714844954006217E-002
 dabs(Ij+Ii):          14          12  1.295308310517376E-003
 dabs(Rj-Ri):          15          12  1.856794318097882E-002
 dabs(Ij+Ii):          15          12  1.295308310517376E-003
 dabs(Rj-Ri):          16          12  6.559411018826328E-002
 dabs(Ij+Ii):          16          12  1.295308310517376E-003
 dabs(Rj-Ri):          17          12  0.106649535843657     
 dabs(Ij+Ii):          17          12  1.295308310517376E-003
 dabs(Rj-Ri):          18          12  0.146207516804437     
 dabs(Ij+Ii):          18          12  1.295308310517376E-003
 dabs(Rj-Ri):          19          12  0.300476597356975     
 dabs(Ij+Ii):          19          12  1.295308310517376E-003
 dabs(Rj-Ri):          20          12  0.671185730390910     
 dabs(Ij+Ii):          20          12  1.295308310517376E-003
 overlap matrix for complex pair:

              1             2
 
    1     1.00000000    0.00000000
    2    -0.00000000    1.00000000
 real eigenvalues of metric:

              1
 
    1     1.00000000
    2     1.00000000
 eigenvectors of metric:

              1             2
 
    1     0.99578344   -0.09173513
    2     0.09173513    0.99578344
 inverse square root of overlap matrix:

              1             2
 
    1     1.00000000   -0.00000000
    2    -0.00000000    1.00000000
 recalculated overlap matrix for complex pair:

              1             2
 
    1     1.00000000   -0.00000000
    2    -0.00000000    1.00000000
 warning> found low lying complex root...
 eigenvalues (imaginary parts) in redeig:

              1
 
    1     0.00000000
    2     0.00000000
    3     0.00000000
    4     0.00000000
    5     0.00000000
    6     0.00000000
    7     0.00000000
    8     0.00000000
    9     0.00000000
   10     0.00000000
   11    -0.00129531
   12     0.00129531
   13     0.00000000
   14     0.00000000
   15     0.00000000
   16     0.00000000
   17     0.00000000
   18     0.00000000
   19     0.00000000
   20     0.00000000
 eigenvalues (real parts) in redeig:

              1
 
    1     0.13771942
    2     0.13777212
    3     0.16698675
    4     0.16930039
    5     0.19456697
    6     0.21142388
    7     0.21227746
    8     0.22185726
    9     0.23603008
   10     0.24417887
   11     0.25358798
   12     0.25358798
   13     0.25648733
   14     0.27073643
   15     0.27215592
   16     0.31918209
   17     0.36023752
   18     0.39979550
   19     0.55406458
   20     0.92477371
     14       3         3.98     0.44E-01  ( 11)
 COSMO cphf update
 COSMO cphf update
 COSMO cphf update
 COSMO cphf update
 dabs(Rj-Ri):           1          11  0.115871371891285     
 dabs(Ij+Ii):           1          11  1.277152494878247E-003
 dabs(Rj-Ri):           2          11  0.115818792459703     
 dabs(Ij+Ii):           2          11  1.277152494878247E-003
 dabs(Rj-Ri):           3          11  8.660406185185068E-002
 dabs(Ij+Ii):           3          11  1.277152494878247E-003
 dabs(Rj-Ri):           4          11  8.429052672341375E-002
 dabs(Ij+Ii):           4          11  1.277152494878247E-003
 dabs(Rj-Ri):           5          11  5.902394030715652E-002
 dabs(Ij+Ii):           5          11  1.277152494878247E-003
 dabs(Rj-Ri):           6          11  4.216702180735626E-002
 dabs(Ij+Ii):           6          11  1.277152494878247E-003
 dabs(Rj-Ri):           7          11  4.131344921242189E-002
 dabs(Ij+Ii):           7          11  1.277152494878247E-003
 dabs(Rj-Ri):           8          11  3.173360646138565E-002
 dabs(Ij+Ii):           8          11  1.277152494878247E-003
 dabs(Rj-Ri):           9          11  1.756093342314088E-002
 dabs(Ij+Ii):           9          11  1.277152494878247E-003
 dabs(Rj-Ri):          10          11  9.412043884083121E-003
 dabs(Ij+Ii):          10          11  1.277152494878247E-003
 dabs(Rj-Ri):          12          11  0.000000000000000E+000
 dabs(Ij+Ii):          12          11  0.000000000000000E+000
 dabs(Rj-Ri):          13          11  2.895074381038643E-003
 dabs(Ij+Ii):          13          11  1.277152494878247E-003
 dabs(Rj-Ri):          14          11  1.714551756364052E-002
 dabs(Ij+Ii):          14          11  1.277152494878247E-003
 dabs(Rj-Ri):          15          11  1.856555597061554E-002
 dabs(Ij+Ii):          15          11  1.277152494878247E-003
 dabs(Rj-Ri):          16          11  5.649036754449421E-002
 dabs(Ij+Ii):          16          11  1.277152494878247E-003
 dabs(Rj-Ri):          17          11  0.101376499141917     
 dabs(Ij+Ii):          17          11  1.277152494878247E-003
 dabs(Rj-Ri):          18          11  0.108028696378160     
 dabs(Ij+Ii):          18          11  1.277152494878247E-003
 dabs(Rj-Ri):          19          11  0.203239200243306     
 dabs(Ij+Ii):          19          11  1.277152494878247E-003
 dabs(Rj-Ri):          20          11  0.261230963027992     
 dabs(Ij+Ii):          20          11  1.277152494878247E-003
 dabs(Rj-Ri):          21          11  0.318797101188270     
 dabs(Ij+Ii):          21          11  1.277152494878247E-003
 dabs(Rj-Ri):          22          11   1.17929742206086     
 dabs(Ij+Ii):          22          11  1.277152494878247E-003
 overlap matrix for complex pair:

              1             2
 
    1     0.00696739   -0.01872982
    2    -0.01872982    0.05051712
 real eigenvalues of metric:

              1
 
    1     0.00002029
    2     0.05746422
 eigenvectors of metric:

              1             2
 
    1     0.93758361   -0.34775994
    2     0.34775994    0.93758361
 inverse square root of overlap matrix:

              1             2
 
    1   195.65727015   71.02411936
    2    71.02411936   30.51520366
 recalculated overlap matrix for complex pair:

              1             2
 
    1     1.00000000   -0.00000000
    2    -0.00000000    1.00000000
 dabs(Rj-Ri):           1          12  0.115871371891285     
 dabs(Ij+Ii):           1          12  1.277152494878247E-003
 dabs(Rj-Ri):           2          12  0.115818792459703     
 dabs(Ij+Ii):           2          12  1.277152494878247E-003
 dabs(Rj-Ri):           3          12  8.660406185185068E-002
 dabs(Ij+Ii):           3          12  1.277152494878247E-003
 dabs(Rj-Ri):           4          12  8.429052672341375E-002
 dabs(Ij+Ii):           4          12  1.277152494878247E-003
 dabs(Rj-Ri):           5          12  5.902394030715652E-002
 dabs(Ij+Ii):           5          12  1.277152494878247E-003
 dabs(Rj-Ri):           6          12  4.216702180735626E-002
 dabs(Ij+Ii):           6          12  1.277152494878247E-003
 dabs(Rj-Ri):           7          12  4.131344921242189E-002
 dabs(Ij+Ii):           7          12  1.277152494878247E-003
 dabs(Rj-Ri):           8          12  3.173360646138565E-002
 dabs(Ij+Ii):           8          12  1.277152494878247E-003
 dabs(Rj-Ri):           9          12  1.756093342314088E-002
 dabs(Ij+Ii):           9          12  1.277152494878247E-003
 dabs(Rj-Ri):          10          12  9.412043884083121E-003
 dabs(Ij+Ii):          10          12  1.277152494878247E-003
 dabs(Rj-Ri):          11          12  0.000000000000000E+000
 dabs(Ij+Ii):          11          12  0.000000000000000E+000
 dabs(Rj-Ri):          13          12  2.895074381038643E-003
 dabs(Ij+Ii):          13          12  1.277152494878247E-003
 dabs(Rj-Ri):          14          12  1.714551756364052E-002
 dabs(Ij+Ii):          14          12  1.277152494878247E-003
 dabs(Rj-Ri):          15          12  1.856555597061554E-002
 dabs(Ij+Ii):          15          12  1.277152494878247E-003
 dabs(Rj-Ri):          16          12  5.649036754449421E-002
 dabs(Ij+Ii):          16          12  1.277152494878247E-003
 dabs(Rj-Ri):          17          12  0.101376499141917     
 dabs(Ij+Ii):          17          12  1.277152494878247E-003
 dabs(Rj-Ri):          18          12  0.108028696378160     
 dabs(Ij+Ii):          18          12  1.277152494878247E-003
 dabs(Rj-Ri):          19          12  0.203239200243306     
 dabs(Ij+Ii):          19          12  1.277152494878247E-003
 dabs(Rj-Ri):          20          12  0.261230963027992     
 dabs(Ij+Ii):          20          12  1.277152494878247E-003
 dabs(Rj-Ri):          21          12  0.318797101188270     
 dabs(Ij+Ii):          21          12  1.277152494878247E-003
 dabs(Rj-Ri):          22          12   1.17929742206086     
 dabs(Ij+Ii):          22          12  1.277152494878247E-003
 overlap matrix for complex pair:

              1             2
 
    1     1.00000000   -0.00000000
    2    -0.00000000    1.00000000
 real eigenvalues of metric:

              1
 
    1     1.00000000
    2     1.00000000
 eigenvectors of metric:

              1             2
 
    1     0.96075961    0.27738234
    2    -0.27738234    0.96075961
 inverse square root of overlap matrix:

              1             2
 
    1     1.00000000    0.00000000
    2     0.00000000    1.00000000
 recalculated overlap matrix for complex pair:

              1             2
 
    1     1.00000000    0.00000000
    2     0.00000000    1.00000000
 warning> found low lying complex root...
 eigenvalues (imaginary parts) in redeig:

              1
 
    1     0.00000000
    2     0.00000000
    3     0.00000000
    4     0.00000000
    5     0.00000000
    6     0.00000000
    7     0.00000000
    8     0.00000000
    9     0.00000000
   10     0.00000000
   11    -0.00127715
   12     0.00127715
   13     0.00000000
   14     0.00000000
   15     0.00000000
   16     0.00000000
   17     0.00000000
   18     0.00000000
   19     0.00000000
   20     0.00000000
   21     0.00000000
   22     0.00000000
 eigenvalues (real parts) in redeig:

              1
 
    1     0.13771954
    2     0.13777212
    3     0.16698685
    4     0.16930039
    5     0.19456697
    6     0.21142389
    7     0.21227746
    8     0.22185731
    9     0.23602998
   10     0.24417887
   11     0.25359091
   12     0.25359091
   13     0.25648599
   14     0.27073643
   15     0.27215647
   16     0.31008128
   17     0.35496741
   18     0.36161961
   19     0.45683011
   20     0.51482188
   21     0.57238801
   22     1.43288834
     15       2         2.74     0.44E-01  ( 11)
 COSMO cphf update
 COSMO cphf update
 COSMO cphf update
 COSMO cphf update
 dabs(Rj-Ri):           1          11  0.115869859091140     
 dabs(Ij+Ii):           1          11  1.217156692941518E-003
 dabs(Rj-Ri):           2          11  0.115817037885856     
 dabs(Ij+Ii):           2          11  1.217156692941518E-003
 dabs(Rj-Ri):           3          11  8.660219868831662E-002
 dabs(Ij+Ii):           3          11  1.217156692941518E-003
 dabs(Rj-Ri):           4          11  8.428877215987360E-002
 dabs(Ij+Ii):           4          11  1.217156692941518E-003
 dabs(Rj-Ri):           5          11  5.902218554726371E-002
 dabs(Ij+Ii):           5          11  1.217156692941518E-003
 dabs(Rj-Ri):           6          11  4.216537833285330E-002
 dabs(Ij+Ii):           6          11  1.217156692941518E-003
 dabs(Rj-Ri):           7          11  4.131169446186428E-002
 dabs(Ij+Ii):           7          11  1.217156692941518E-003
 dabs(Rj-Ri):           8          11  3.173196227342298E-002
 dabs(Ij+Ii):           8          11  1.217156692941518E-003
 dabs(Rj-Ri):           9          11  1.755955507682275E-002
 dabs(Ij+Ii):           9          11  1.217156692941518E-003
 dabs(Rj-Ri):          10          11  9.410289090306917E-003
 dabs(Ij+Ii):          10          11  1.217156692941518E-003
 dabs(Rj-Ri):          12          11  0.000000000000000E+000
 dabs(Ij+Ii):          12          11  0.000000000000000E+000
 dabs(Rj-Ri):          13          11  2.896032150726868E-003
 dabs(Ij+Ii):          13          11  1.217156692941518E-003
 dabs(Rj-Ri):          14          11  1.714727236118668E-002
 dabs(Ij+Ii):          14          11  1.217156692941518E-003
 dabs(Rj-Ri):          15          11  1.856370255346312E-002
 dabs(Ij+Ii):          15          11  1.217156692941518E-003
 dabs(Rj-Ri):          16          11  3.827307043837819E-002
 dabs(Ij+Ii):          16          11  1.217156692941518E-003
 dabs(Rj-Ri):          17          11  7.093511552756510E-002
 dabs(Ij+Ii):          17          11  1.217156692941518E-003
 dabs(Rj-Ri):          18          11  7.875355606997442E-002
 dabs(Ij+Ii):          18          11  1.217156692941518E-003
 dabs(Rj-Ri):          19          11  0.109875828423229     
 dabs(Ij+Ii):          19          11  1.217156692941518E-003
 dabs(Rj-Ri):          20          11  0.182611394686826     
 dabs(Ij+Ii):          20          11  1.217156692941518E-003
 dabs(Rj-Ri):          21          11  0.301840721379756     
 dabs(Ij+Ii):          21          11  1.217156692941518E-003
 dabs(Rj-Ri):          22          11  0.507346198879560     
 dabs(Ij+Ii):          22          11  1.217156692941518E-003
 dabs(Rj-Ri):          23          11  0.632215047653413     
 dabs(Ij+Ii):          23          11  1.217156692941518E-003
 dabs(Rj-Ri):          24          11   1.43400558143548     
 dabs(Ij+Ii):          24          11  1.217156692941518E-003
 overlap matrix for complex pair:

              1             2
 
    1     0.00055136   -0.00337525
    2    -0.00337525    0.02235838
 real eigenvalues of metric:

              1
 
    1     0.00004089
    2     0.02286885
 eigenvectors of metric:

              1             2
 
    1     0.98875605   -0.14953756
    2     0.14953756    0.98875605
 inverse square root of overlap matrix:

              1             2
 
    1   153.03479680   22.14459815
    2    22.14459815    9.96179173
 recalculated overlap matrix for complex pair:

              1             2
 
    1     1.00000000   -0.00000000
    2    -0.00000000    1.00000000
 dabs(Rj-Ri):           1          12  0.115869859091140     
 dabs(Ij+Ii):           1          12  1.217156692941518E-003
 dabs(Rj-Ri):           2          12  0.115817037885856     
 dabs(Ij+Ii):           2          12  1.217156692941518E-003
 dabs(Rj-Ri):           3          12  8.660219868831662E-002
 dabs(Ij+Ii):           3          12  1.217156692941518E-003
 dabs(Rj-Ri):           4          12  8.428877215987360E-002
 dabs(Ij+Ii):           4          12  1.217156692941518E-003
 dabs(Rj-Ri):           5          12  5.902218554726371E-002
 dabs(Ij+Ii):           5          12  1.217156692941518E-003
 dabs(Rj-Ri):           6          12  4.216537833285330E-002
 dabs(Ij+Ii):           6          12  1.217156692941518E-003
 dabs(Rj-Ri):           7          12  4.131169446186428E-002
 dabs(Ij+Ii):           7          12  1.217156692941518E-003
 dabs(Rj-Ri):           8          12  3.173196227342298E-002
 dabs(Ij+Ii):           8          12  1.217156692941518E-003
 dabs(Rj-Ri):           9          12  1.755955507682275E-002
 dabs(Ij+Ii):           9          12  1.217156692941518E-003
 dabs(Rj-Ri):          10          12  9.410289090306917E-003
 dabs(Ij+Ii):          10          12  1.217156692941518E-003
 dabs(Rj-Ri):          11          12  0.000000000000000E+000
 dabs(Ij+Ii):          11          12  0.000000000000000E+000
 dabs(Rj-Ri):          13          12  2.896032150726868E-003
 dabs(Ij+Ii):          13          12  1.217156692941518E-003
 dabs(Rj-Ri):          14          12  1.714727236118668E-002
 dabs(Ij+Ii):          14          12  1.217156692941518E-003
 dabs(Rj-Ri):          15          12  1.856370255346312E-002
 dabs(Ij+Ii):          15          12  1.217156692941518E-003
 dabs(Rj-Ri):          16          12  3.827307043837819E-002
 dabs(Ij+Ii):          16          12  1.217156692941518E-003
 dabs(Rj-Ri):          17          12  7.093511552756510E-002
 dabs(Ij+Ii):          17          12  1.217156692941518E-003
 dabs(Rj-Ri):          18          12  7.875355606997442E-002
 dabs(Ij+Ii):          18          12  1.217156692941518E-003
 dabs(Rj-Ri):          19          12  0.109875828423229     
 dabs(Ij+Ii):          19          12  1.217156692941518E-003
 dabs(Rj-Ri):          20          12  0.182611394686826     
 dabs(Ij+Ii):          20          12  1.217156692941518E-003
 dabs(Rj-Ri):          21          12  0.301840721379756     
 dabs(Ij+Ii):          21          12  1.217156692941518E-003
 dabs(Rj-Ri):          22          12  0.507346198879560     
 dabs(Ij+Ii):          22          12  1.217156692941518E-003
 dabs(Rj-Ri):          23          12  0.632215047653413     
 dabs(Ij+Ii):          23          12  1.217156692941518E-003
 dabs(Rj-Ri):          24          12   1.43400558143548     
 dabs(Ij+Ii):          24          12  1.217156692941518E-003
 overlap matrix for complex pair:

              1             2
 
    1     1.00000000   -0.00000000
    2    -0.00000000    1.00000000
 real eigenvalues of metric:

              1
 
    1     1.00000000
    2     1.00000000
 eigenvectors of metric:

              1             2
 
    1     0.99961708   -0.02767114
    2     0.02767114    0.99961708
 inverse square root of overlap matrix:

              1             2
 
    1     1.00000000    0.00000000
    2     0.00000000    1.00000000
 recalculated overlap matrix for complex pair:

              1             2
 
    1     1.00000000    0.00000000
    2     0.00000000    1.00000000
 warning> found low lying complex root...
 eigenvalues (imaginary parts) in redeig:

              1
 
    1     0.00000000
    2     0.00000000
    3     0.00000000
    4     0.00000000
    5     0.00000000
    6     0.00000000
    7     0.00000000
    8     0.00000000
    9     0.00000000
   10     0.00000000
   11    -0.00121716
   12     0.00121716
   13     0.00000000
   14     0.00000000
   15     0.00000000
   16     0.00000000
   17     0.00000000
   18     0.00000000
   19     0.00000000
   20     0.00000000
   21     0.00000000
   22     0.00000000
   23     0.00000000
   24     0.00000000
 eigenvalues (real parts) in redeig:

              1
 
    1     0.13771930
    2     0.13777212
    3     0.16698696
    4     0.16930039
    5     0.19456697
    6     0.21142378
    7     0.21227746
    8     0.22185720
    9     0.23602960
   10     0.24417887
   11     0.25358916
   12     0.25358916
   13     0.25648519
   14     0.27073643
   15     0.27215286
   16     0.29186223
   17     0.32452427
   18     0.33234271
   19     0.36346499
   20     0.43620055
   21     0.55542988
   22     0.76093536
   23     0.88580421
   24     1.68759474
     16       2         2.73     0.46E-01  ( 11)
 COSMO cphf update
 COSMO cphf update
 COSMO cphf update
 COSMO cphf update
 dabs(Rj-Ri):           1          11  0.115868772369845     
 dabs(Ij+Ii):           1          11  1.204399516418310E-003
 dabs(Rj-Ri):           2          11  0.115815985959796     
 dabs(Ij+Ii):           2          11  1.204399516418310E-003
 dabs(Rj-Ri):           3          11  8.660152513878056E-002
 dabs(Ij+Ii):           3          11  1.204399516418310E-003
 dabs(Rj-Ri):           4          11  8.428772017831565E-002
 dabs(Ij+Ii):           4          11  1.204399516418310E-003
 dabs(Rj-Ri):           5          11  5.902113347305973E-002
 dabs(Ij+Ii):           5          11  1.204399516418310E-003
 dabs(Rj-Ri):           6          11  4.216429101308994E-002
 dabs(Ij+Ii):           6          11  1.204399516418310E-003
 dabs(Rj-Ri):           7          11  4.131064240268212E-002
 dabs(Ij+Ii):           7          11  1.204399516418310E-003
 dabs(Rj-Ri):           8          11  3.173094343225458E-002
 dabs(Ij+Ii):           8          11  1.204399516418310E-003
 dabs(Rj-Ri):           9          11  1.755860100079970E-002
 dabs(Ij+Ii):           9          11  1.204399516418310E-003
 dabs(Rj-Ri):          10          11  9.409236986449937E-003
 dabs(Ij+Ii):          10          11  1.204399516418310E-003
 dabs(Rj-Ri):          12          11  0.000000000000000E+000
 dabs(Ij+Ii):          12          11  0.000000000000000E+000
 dabs(Rj-Ri):          13          11  2.895982366583560E-003
 dabs(Ij+Ii):          13          11  1.204399516418310E-003
 dabs(Rj-Ri):          14          11  1.431459404127172E-002
 dabs(Ij+Ii):          14          11  1.204399516418310E-003
 dabs(Rj-Ri):          15          11  1.714832447830783E-002
 dabs(Ij+Ii):          15          11  1.204399516418310E-003
 dabs(Rj-Ri):          16          11  1.857425500810034E-002
 dabs(Ij+Ii):          16          11  1.204399516418310E-003
 dabs(Rj-Ri):          17          11  5.863257126739596E-002
 dabs(Ij+Ii):          17          11  1.204399516418310E-003
 dabs(Rj-Ri):          18          11  6.540408595361075E-002
 dabs(Ij+Ii):          18          11  1.204399516418310E-003
 dabs(Rj-Ri):          19          11  0.107537248567276     
 dabs(Ij+Ii):          19          11  1.204399516418310E-003
 dabs(Rj-Ri):          20          11  0.147550959907764     
 dabs(Ij+Ii):          20          11  1.204399516418310E-003
 dabs(Rj-Ri):          21          11  0.255010929455463     
 dabs(Ij+Ii):          21          11  1.204399516418310E-003
 dabs(Rj-Ri):          22          11  0.282358399024253     
 dabs(Ij+Ii):          22          11  1.204399516418310E-003
 dabs(Rj-Ri):          23          11  0.370001680216948     
 dabs(Ij+Ii):          23          11  1.204399516418310E-003
 dabs(Rj-Ri):          24          11  0.914455598179401     
 dabs(Ij+Ii):          24          11  1.204399516418310E-003
 dabs(Rj-Ri):          25          11   1.05537810547842     
 dabs(Ij+Ii):          25          11  1.204399516418310E-003
 dabs(Rj-Ri):          26          11   1.51523142013170     
 dabs(Ij+Ii):          26          11  1.204399516418310E-003
 overlap matrix for complex pair:

              1             2
 
    1     0.00853693   -0.02278545
    2    -0.02278545    0.06097936
 real eigenvalues of metric:

              1
 
    1     0.00002014
    2     0.06949614
 eigenvectors of metric:

              1             2
 
    1     0.93670378   -0.35012287
    2     0.35012287    0.93670378
 inverse square root of overlap matrix:

              1             2
 
    1   195.97197130   71.83289145
    2    71.83289145   30.64315253
 recalculated overlap matrix for complex pair:

              1             2
 
    1     1.00000000   -0.00000000
    2    -0.00000000    1.00000000
 dabs(Rj-Ri):           1          12  0.115868772369845     
 dabs(Ij+Ii):           1          12  1.204399516418310E-003
 dabs(Rj-Ri):           2          12  0.115815985959796     
 dabs(Ij+Ii):           2          12  1.204399516418310E-003
 dabs(Rj-Ri):           3          12  8.660152513878056E-002
 dabs(Ij+Ii):           3          12  1.204399516418310E-003
 dabs(Rj-Ri):           4          12  8.428772017831565E-002
 dabs(Ij+Ii):           4          12  1.204399516418310E-003
 dabs(Rj-Ri):           5          12  5.902113347305973E-002
 dabs(Ij+Ii):           5          12  1.204399516418310E-003
 dabs(Rj-Ri):           6          12  4.216429101308994E-002
 dabs(Ij+Ii):           6          12  1.204399516418310E-003
 dabs(Rj-Ri):           7          12  4.131064240268212E-002
 dabs(Ij+Ii):           7          12  1.204399516418310E-003
 dabs(Rj-Ri):           8          12  3.173094343225458E-002
 dabs(Ij+Ii):           8          12  1.204399516418310E-003
 dabs(Rj-Ri):           9          12  1.755860100079970E-002
 dabs(Ij+Ii):           9          12  1.204399516418310E-003
 dabs(Rj-Ri):          10          12  9.409236986449937E-003
 dabs(Ij+Ii):          10          12  1.204399516418310E-003
 dabs(Rj-Ri):          11          12  0.000000000000000E+000
 dabs(Ij+Ii):          11          12  0.000000000000000E+000
 dabs(Rj-Ri):          13          12  2.895982366583560E-003
 dabs(Ij+Ii):          13          12  1.204399516418310E-003
 dabs(Rj-Ri):          14          12  1.431459404127172E-002
 dabs(Ij+Ii):          14          12  1.204399516418310E-003
 dabs(Rj-Ri):          15          12  1.714832447830783E-002
 dabs(Ij+Ii):          15          12  1.204399516418310E-003
 dabs(Rj-Ri):          16          12  1.857425500810034E-002
 dabs(Ij+Ii):          16          12  1.204399516418310E-003
 dabs(Rj-Ri):          17          12  5.863257126739596E-002
 dabs(Ij+Ii):          17          12  1.204399516418310E-003
 dabs(Rj-Ri):          18          12  6.540408595361075E-002
 dabs(Ij+Ii):          18          12  1.204399516418310E-003
 dabs(Rj-Ri):          19          12  0.107537248567276     
 dabs(Ij+Ii):          19          12  1.204399516418310E-003
 dabs(Rj-Ri):          20          12  0.147550959907764     
 dabs(Ij+Ii):          20          12  1.204399516418310E-003
 dabs(Rj-Ri):          21          12  0.255010929455463     
 dabs(Ij+Ii):          21          12  1.204399516418310E-003
 dabs(Rj-Ri):          22          12  0.282358399024253     
 dabs(Ij+Ii):          22          12  1.204399516418310E-003
 dabs(Rj-Ri):          23          12  0.370001680216948     
 dabs(Ij+Ii):          23          12  1.204399516418310E-003
 dabs(Rj-Ri):          24          12  0.914455598179401     
 dabs(Ij+Ii):          24          12  1.204399516418310E-003
 dabs(Rj-Ri):          25          12   1.05537810547842     
 dabs(Ij+Ii):          25          12  1.204399516418310E-003
 dabs(Rj-Ri):          26          12   1.51523142013170     
 dabs(Ij+Ii):          26          12  1.204399516418310E-003
 overlap matrix for complex pair:

              1             2
 
    1     1.00000000   -0.00000000
    2    -0.00000000    1.00000000
 real eigenvalues of metric:

              1
 
    1     1.00000000
    2     1.00000000
 eigenvectors of metric:

              1             2
 
    1     0.82554045    0.56434295
    2    -0.56434295    0.82554045
 inverse square root of overlap matrix:

              1             2
 
    1     1.00000000    0.00000000
    2     0.00000000    1.00000000
 recalculated overlap matrix for complex pair:

              1             2
 
    1     1.00000000    0.00000000
    2    -0.00000000    1.00000000
 warning> found low lying complex root...
 eigenvalues (imaginary parts) in redeig:

              1
 
    1     0.00000000
    2     0.00000000
    3     0.00000000
    4     0.00000000
    5     0.00000000
    6     0.00000000
    7     0.00000000
    8     0.00000000
    9     0.00000000
   10     0.00000000
   11    -0.00120440
   12     0.00120440
   13     0.00000000
   14     0.00000000
   15     0.00000000
   16     0.00000000
   17     0.00000000
   18     0.00000000
   19     0.00000000
   20     0.00000000
   21     0.00000000
   22     0.00000000
   23     0.00000000
   24     0.00000000
   25     0.00000000
   26     0.00000000
 eigenvalues (real parts) in redeig:

              1
 
    1     0.13771933
    2     0.13777212
    3     0.16698658
    4     0.16930039
    5     0.19456697
    6     0.21142382
    7     0.21227746
    8     0.22185716
    9     0.23602951
   10     0.24417887
   11     0.25358811
   12     0.25358811
   13     0.25648409
   14     0.26790270
   15     0.27073643
   16     0.27216236
   17     0.31222068
   18     0.31899219
   19     0.36112536
   20     0.40113907
   21     0.50859904
   22     0.53594651
   23     0.62358979
   24     1.16804370
   25     1.30896621
   26     1.76881953
     17       2         2.70     0.53E-01  ( 14)
 COSMO cphf update
 COSMO cphf update
 COSMO cphf update
 COSMO cphf update
 COSMO cphf update
 COSMO cphf update
 dabs(Rj-Ri):           1          11  0.115872211924474     
 dabs(Ij+Ii):           1          11  1.174892448194233E-003
 dabs(Rj-Ri):           2          11  0.115819425228127     
 dabs(Ij+Ii):           2          11  1.174892448194233E-003
 dabs(Rj-Ri):           3          11  8.660567645608824E-002
 dabs(Ij+Ii):           3          11  1.174892448194233E-003
 dabs(Rj-Ri):           4          11  8.429115925009290E-002
 dabs(Ij+Ii):           4          11  1.174892448194233E-003
 dabs(Rj-Ri):           5          11  5.902457235792663E-002
 dabs(Ij+Ii):           5          11  1.174892448194233E-003
 dabs(Rj-Ri):           6          11  4.216772666939694E-002
 dabs(Ij+Ii):           6          11  1.174892448194233E-003
 dabs(Rj-Ri):           7          11  4.131408127592701E-002
 dabs(Ij+Ii):           7          11  1.174892448194233E-003
 dabs(Rj-Ri):           8          11  3.173439095145042E-002
 dabs(Ij+Ii):           8          11  1.174892448194233E-003
 dabs(Rj-Ri):           9          11  1.756201759883536E-002
 dabs(Ij+Ii):           9          11  1.174892448194233E-003
 dabs(Rj-Ri):          10          11  9.412675873647830E-003
 dabs(Ij+Ii):          10          11  1.174892448194233E-003
 dabs(Rj-Ri):          12          11  0.000000000000000E+000
 dabs(Ij+Ii):          12          11  0.000000000000000E+000
 dabs(Rj-Ri):          13          11  2.891858216564291E-003
 dabs(Ij+Ii):          13          11  1.174892448194233E-003
 dabs(Rj-Ri):          14          11  8.898176111087230E-003
 dabs(Ij+Ii):          14          11  1.174892448194233E-003
 dabs(Rj-Ri):          15          11  1.714488558694366E-002
 dabs(Ij+Ii):          15          11  1.174892448194233E-003
 dabs(Rj-Ri):          16          11  1.856734398570437E-002
 dabs(Ij+Ii):          16          11  1.174892448194233E-003
 dabs(Rj-Ri):          17          11  5.573544181308787E-002
 dabs(Ij+Ii):          17          11  1.174892448194233E-003
 dabs(Rj-Ri):          18          11  6.247964679018747E-002
 dabs(Ij+Ii):          18          11  1.174892448194233E-003
 dabs(Rj-Ri):          19          11  9.587936350697829E-002
 dabs(Ij+Ii):          19          11  1.174892448194233E-003
 dabs(Rj-Ri):          20          11  0.113151701506558     
 dabs(Ij+Ii):          20          11  1.174892448194233E-003
 dabs(Rj-Ri):          21          11  0.196933323022154     
 dabs(Ij+Ii):          21          11  1.174892448194233E-003
 dabs(Rj-Ri):          22          11  0.243397007320892     
 dabs(Ij+Ii):          22          11  1.292209917617697E-003
 dabs(Rj-Ri):          23          11  0.243397007320892     
 dabs(Ij+Ii):          23          11  1.057574978770769E-003
 dabs(Rj-Ri):          24          11  0.374609900288208     
 dabs(Ij+Ii):          24          11  1.174892448194233E-003
 dabs(Rj-Ri):          25          11  0.397262089039334     
 dabs(Ij+Ii):          25          11  1.174892448194233E-003
 dabs(Rj-Ri):          26          11  0.563468051322343     
 dabs(Ij+Ii):          26          11  1.174892448194233E-003
 dabs(Rj-Ri):          27          11   1.01650715168014     
 dabs(Ij+Ii):          27          11  1.174892448194233E-003
 dabs(Rj-Ri):          28          11   1.40591535800852     
 dabs(Ij+Ii):          28          11  1.174892448194233E-003
 dabs(Rj-Ri):          29          11   1.54671346761768     
 dabs(Ij+Ii):          29          11  1.174892448194233E-003
 overlap matrix for complex pair:

              1             2
 
    1     0.12648339    0.04371692
    2     0.04371692    0.01521252
 real eigenvalues of metric:

              1
 
    1     0.14160437
    2     0.00009153
 eigenvectors of metric:

              1             2
 
    1     0.94506488   -0.32688280
    2     0.32688280    0.94506488
 inverse square root of overlap matrix:

              1             2
 
    1    13.54189675  -31.46855186
    2   -31.46855186   93.63750957
 recalculated overlap matrix for complex pair:

              1             2
 
    1     1.00000000   -0.00000000
    2     0.00000000    1.00000000
 dabs(Rj-Ri):           1          12  0.115872211924474     
 dabs(Ij+Ii):           1          12  1.174892448194233E-003
 dabs(Rj-Ri):           2          12  0.115819425228127     
 dabs(Ij+Ii):           2          12  1.174892448194233E-003
 dabs(Rj-Ri):           3          12  8.660567645608824E-002
 dabs(Ij+Ii):           3          12  1.174892448194233E-003
 dabs(Rj-Ri):           4          12  8.429115925009290E-002
 dabs(Ij+Ii):           4          12  1.174892448194233E-003
 dabs(Rj-Ri):           5          12  5.902457235792663E-002
 dabs(Ij+Ii):           5          12  1.174892448194233E-003
 dabs(Rj-Ri):           6          12  4.216772666939694E-002
 dabs(Ij+Ii):           6          12  1.174892448194233E-003
 dabs(Rj-Ri):           7          12  4.131408127592701E-002
 dabs(Ij+Ii):           7          12  1.174892448194233E-003
 dabs(Rj-Ri):           8          12  3.173439095145042E-002
 dabs(Ij+Ii):           8          12  1.174892448194233E-003
 dabs(Rj-Ri):           9          12  1.756201759883536E-002
 dabs(Ij+Ii):           9          12  1.174892448194233E-003
 dabs(Rj-Ri):          10          12  9.412675873647830E-003
 dabs(Ij+Ii):          10          12  1.174892448194233E-003
 dabs(Rj-Ri):          11          12  0.000000000000000E+000
 dabs(Ij+Ii):          11          12  0.000000000000000E+000
 dabs(Rj-Ri):          13          12  2.891858216564291E-003
 dabs(Ij+Ii):          13          12  1.174892448194233E-003
 dabs(Rj-Ri):          14          12  8.898176111087230E-003
 dabs(Ij+Ii):          14          12  1.174892448194233E-003
 dabs(Rj-Ri):          15          12  1.714488558694366E-002
 dabs(Ij+Ii):          15          12  1.174892448194233E-003
 dabs(Rj-Ri):          16          12  1.856734398570437E-002
 dabs(Ij+Ii):          16          12  1.174892448194233E-003
 dabs(Rj-Ri):          17          12  5.573544181308787E-002
 dabs(Ij+Ii):          17          12  1.174892448194233E-003
 dabs(Rj-Ri):          18          12  6.247964679018747E-002
 dabs(Ij+Ii):          18          12  1.174892448194233E-003
 dabs(Rj-Ri):          19          12  9.587936350697829E-002
 dabs(Ij+Ii):          19          12  1.174892448194233E-003
 dabs(Rj-Ri):          20          12  0.113151701506558     
 dabs(Ij+Ii):          20          12  1.174892448194233E-003
 dabs(Rj-Ri):          21          12  0.196933323022154     
 dabs(Ij+Ii):          21          12  1.174892448194233E-003
 dabs(Rj-Ri):          22          12  0.243397007320892     
 dabs(Ij+Ii):          22          12  1.057574978770769E-003
 dabs(Rj-Ri):          23          12  0.243397007320892     
 dabs(Ij+Ii):          23          12  1.292209917617697E-003
 dabs(Rj-Ri):          24          12  0.374609900288208     
 dabs(Ij+Ii):          24          12  1.174892448194233E-003
 dabs(Rj-Ri):          25          12  0.397262089039334     
 dabs(Ij+Ii):          25          12  1.174892448194233E-003
 dabs(Rj-Ri):          26          12  0.563468051322343     
 dabs(Ij+Ii):          26          12  1.174892448194233E-003
 dabs(Rj-Ri):          27          12   1.01650715168014     
 dabs(Ij+Ii):          27          12  1.174892448194233E-003
 dabs(Rj-Ri):          28          12   1.40591535800852     
 dabs(Ij+Ii):          28          12  1.174892448194233E-003
 dabs(Rj-Ri):          29          12   1.54671346761768     
 dabs(Ij+Ii):          29          12  1.174892448194233E-003
 overlap matrix for complex pair:

              1             2
 
    1     1.00000000    0.00000000
    2    -0.00000000    1.00000000
 real eigenvalues of metric:

              1
 
    1     1.00000000
    2     1.00000000
 eigenvectors of metric:

              1             2
 
    1     0.96311145    0.26910283
    2    -0.26910283    0.96311145
 inverse square root of overlap matrix:

              1             2
 
    1     1.00000000   -0.00000000
    2    -0.00000000    1.00000000
 recalculated overlap matrix for complex pair:

              1             2
 
    1     1.00000000    0.00000000
    2    -0.00000000    1.00000000
 warning> found low lying complex root...
 eigenvalues (imaginary parts) in redeig:

              1
 
    1     0.00000000
    2     0.00000000
    3     0.00000000
    4     0.00000000
    5     0.00000000
    6     0.00000000
    7     0.00000000
    8     0.00000000
    9     0.00000000
   10     0.00000000
   11    -0.00117489
   12     0.00117489
   13     0.00000000
   14     0.00000000
   15     0.00000000
   16     0.00000000
   17     0.00000000
   18     0.00000000
   19     0.00000000
   20     0.00000000
   21     0.00000000
   22    -0.00011732
   23     0.00011732
   24     0.00000000
   25     0.00000000
   26     0.00000000
   27     0.00000000
   28     0.00000000
   29     0.00000000
 eigenvalues (real parts) in redeig:

              1
 
    1     0.13771933
    2     0.13777212
    3     0.16698587
    4     0.16930039
    5     0.19456697
    6     0.21142382
    7     0.21227746
    8     0.22185715
    9     0.23602953
   10     0.24417887
   11     0.25359155
   12     0.25359155
   13     0.25648340
   14     0.26248972
   15     0.27073643
   16     0.27215889
   17     0.30932699
   18     0.31607119
   19     0.34947091
   20     0.36674325
   21     0.45052487
   22     0.49698855
   23     0.49698855
   24     0.62820145
   25     0.65085363
   26     0.81705960
   27     1.27009870
   28     1.65950690
   29     1.80030501
 ...adapted threshold to:  8.278746231301204E-003
[...]
 | E_exci (ground to x state)      |     0.23601716  |
 | Correction for fast part of RF  |    -0.00130120  |
 | Correction for update of eq. RF |     0.00006630  |
 +---------------------------------+-----------------+


  +=========================================================================+
  |  Excited state reached by transition:                   model: ADC(2)   |
  |    number, symmetry, multiplicity:   10 a    1                          |
  |    frequency :   0.2441786894 a.u.     6.64444 e.V.     53591.0 rcm     |
  +=========================================================================+

      Total energy of excited state:    -491.1798421001

   +-----------------+-----------------+-----------------+-----------------+
   | operator        | expect. value   | electr. contrib.| diff to gr.st.  |
   +-----------------+-----------------+-----------------+-----------------+
   | xdiplen (unrel) |     -3.23330088 |    -91.32965938 |      0.58557565 |
   | xdiplen (relax) |     -2.82026851 |    -90.91662700 |       ---       |
   | ydiplen (unrel) |     -0.00157194 |     -0.00158092 |     -0.00174195 |
   | ydiplen (relax) |     -0.00139748 |     -0.00140646 |       ---       |
   | zdiplen (unrel) |      0.13147692 |      1.87057150 |     -0.09534230 |
   | zdiplen (relax) |      0.14220993 |      1.88130451 |       ---       |
   +-----------------+-----------------+-----------------+-----------------+


     Analysis of relaxed properties:
     ===============================


     dipole moment:
     --------------

     x     -2.82026851
     y     -0.00139748
     z      0.14220993

     | dipole moment | =      2.82385199 a.u. =      7.17751516 debye
 


     Analysis of unrelaxed properties:
     =================================


     dipole moment:
     --------------

     x     -3.23330088
     y     -0.00157194
     z      0.13147692

     | dipole moment | =      3.23597331 a.u. =      8.22502295 debye
 

 +---------------------------------+-----------------+
 |   Nonequilibrium solvation      |                 |
 +---------------------------------+-----------------+
 |   E_x_(y) is the total free energy of target      |
 |   state x in the reaction field (RF)              |
 |   equilibrated for state y                        |
 +---------------------------------+-----------------+
 | E_x_(y)                         |  -491.18235357  |
 | E_x_(y) (+OCC)                  |  -491.18462405  |
 | Outlying charge correction(OCC) |    -0.00227048  |
 | E_SCF with RF of state y        |  -489.41987244  |
 | E_corr (ground state)           |    -2.00415442  |
 | E_exci (ground to x state)      |     0.24417869  |
 | Correction for fast part of RF  |    -0.00251241  |
 | Correction for update of eq. RF |     0.00000701  |
 +---------------------------------+-----------------+


  +=========================================================================+
  |  Excited state reached by transition:                   model: ADC(2)   |
  |    number, symmetry, multiplicity:   11 a    1                          |
  |    frequency :   0.2530926063 a.u.     6.88700 e.V.     55547.4 rcm     |
  +=========================================================================+

      Total energy of excited state:    -491.1709281832

   +-----------------+-----------------+-----------------+-----------------+
   | operator        | expect. value   | electr. contrib.| diff to gr.st.  |
   +-----------------+-----------------+-----------------+-----------------+
   | xdiplen (unrel) |     -6.92866630 |    -95.02502479 |     -3.10978977 |
   | xdiplen (relax) |     -6.40490258 |    -94.50126107 |       ---       |
   | ydiplen (unrel) |      0.00006716 |      0.00005818 |     -0.00010285 |
   | ydiplen (relax) |      0.00014671 |      0.00013773 |       ---       |
   | zdiplen (unrel) |      0.19337252 |      1.93246710 |     -0.03344670 |
   | zdiplen (relax) |      0.20208865 |      1.94118323 |       ---       |
   +-----------------+-----------------+-----------------+-----------------+


     Analysis of relaxed properties:
     ===============================


     dipole moment:
     --------------

     x     -6.40490258
     y      0.00014671
     z      0.20208865

     | dipole moment | =      6.40808995 a.u. =     16.28773847 debye
 


     Analysis of unrelaxed properties:
     =================================


     dipole moment:
     --------------

     x     -6.92866630
     y      0.00006716
     z      0.19337252

     | dipole moment | =      6.93136419 a.u. =     17.61776880 debye
 

 +---------------------------------+-----------------+
 |   Nonequilibrium solvation      |                 |
 +---------------------------------+-----------------+
 |   E_x_(y) is the total free energy of target      |
 |   state x in the reaction field (RF)              |
 |   equilibrated for state y                        |
 +---------------------------------+-----------------+
 | E_x_(y)                         |  -491.17365724  |
 | E_x_(y) (+OCC)                  |  -491.17410351  |
 | Outlying charge correction(OCC) |    -0.00044627  |
 | E_SCF with RF of state y        |  -489.41987244  |
 | E_corr (ground state)           |    -2.00415442  |
 | E_exci (ground to x state)      |     0.25309261  |
 | Correction for fast part of RF  |    -0.00306707  |
 | Correction for update of eq. RF |     0.00034407  |
 +---------------------------------+-----------------+


  +=========================================================================+
  |  Excited state reached by transition:                   model: ADC(2)   |
  |    number, symmetry, multiplicity:   12 a    1                          |
  |    frequency :   0.2558158990 a.u.     6.96110 e.V.     56145.1 rcm     |
  +=========================================================================+

      Total energy of excited state:    -491.1682048905

   +-----------------+-----------------+-----------------+-----------------+
   | operator        | expect. value   | electr. contrib.| diff to gr.st.  |
   +-----------------+-----------------+-----------------+-----------------+
   | xdiplen (unrel) |     -4.88262180 |    -92.97898030 |     -1.06374527 |
   | xdiplen (relax) |     -4.33102614 |    -92.42738463 |       ---       |
   | ydiplen (unrel) |      0.00201044 |      0.00200145 |      0.00184043 |
   | ydiplen (relax) |      0.00181849 |      0.00180951 |       ---       |
   | zdiplen (unrel) |      0.16827160 |      1.90736618 |     -0.05854762 |
   | zdiplen (relax) |      0.17368837 |      1.91278295 |       ---       |
   +-----------------+-----------------+-----------------+-----------------+


     Analysis of relaxed properties:
     ===============================


     dipole moment:
     --------------

     x     -4.33102614
     y      0.00181849
     z      0.17368837

     | dipole moment | =      4.33450786 a.u. =     11.01721900 debye
 


     Analysis of unrelaxed properties:
     =================================


     dipole moment:
     --------------

     x     -4.88262180
     y      0.00201044
     z      0.16827160

     | dipole moment | =      4.88552096 a.u. =     12.41775448 debye
 

 +---------------------------------+-----------------+
 |   Nonequilibrium solvation      |                 |
 +---------------------------------+-----------------+
 |   E_x_(y) is the total free energy of target      |
 |   state x in the reaction field (RF)              |
 |   equilibrated for state y                        |
 +---------------------------------+-----------------+
 | E_x_(y)                         |  -491.17010584  |
 | E_x_(y) (+OCC)                  |  -491.17187525  |
 | Outlying charge correction(OCC) |    -0.00176941  |
 | E_SCF with RF of state y        |  -489.41987244  |
 | E_corr (ground state)           |    -2.00415442  |
 | E_exci (ground to x state)      |     0.25581590  |
 | Correction for fast part of RF  |    -0.00187988  |
 | Correction for update of eq. RF |    -0.00001501  |
 +---------------------------------+-----------------+


  +=========================================================================+
  |  Excited state reached by transition:                   model: ADC(2)   |
  |    number, symmetry, multiplicity:   13 a    1                          |
  |    frequency :   0.2565147807 a.u.     6.98012 e.V.     56298.5 rcm     |
  +=========================================================================+

      Total energy of excited state:    -491.1675060088

   +-----------------+-----------------+-----------------+-----------------+
   | operator        | expect. value   | electr. contrib.| diff to gr.st.  |
   +-----------------+-----------------+-----------------+-----------------+
   | xdiplen (unrel) |     -3.99254427 |    -92.08890277 |     -0.17366774 |
   | xdiplen (relax) |     -3.55342514 |    -91.64978364 |       ---       |
   | ydiplen (unrel) |      0.00049689 |      0.00048791 |      0.00032688 |
   | ydiplen (relax) |      0.00030508 |      0.00029609 |       ---       |
   | zdiplen (unrel) |      0.23628470 |      1.97537928 |      0.00946549 |
   | zdiplen (relax) |      0.23459923 |      1.97369381 |       ---       |
   +-----------------+-----------------+-----------------+-----------------+


     Analysis of relaxed properties:
     ===============================


     dipole moment:
     --------------

     x     -3.55342514
     y      0.00030508
     z      0.23459923

     | dipole moment | =      3.56116093 a.u. =      9.05156735 debye
 


     Analysis of unrelaxed properties:
     =================================


     dipole moment:
     --------------

     x     -3.99254427
     y      0.00049689
     z      0.23628470

     | dipole moment | =      3.99953003 a.u. =     10.16579037 debye
 

 +---------------------------------+-----------------+
 |   Nonequilibrium solvation      |                 |
 +---------------------------------+-----------------+
 |   E_x_(y) is the total free energy of target      |
 |   state x in the reaction field (RF)              |
 |   equilibrated for state y                        |
 +---------------------------------+-----------------+
 | E_x_(y)                         |  -491.16761571  |
 | E_x_(y) (+OCC)                  |  -491.16790075  |
 | Outlying charge correction(OCC) |    -0.00028504  |
 | E_SCF with RF of state y        |  -489.41987244  |
 | E_corr (ground state)           |    -2.00415442  |
 | E_exci (ground to x state)      |     0.25651478  |
 | Correction for fast part of RF  |    -0.00010391  |
 | Correction for update of eq. RF |     0.00000028  |
 +---------------------------------+-----------------+


  +=========================================================================+
  |  Excited state reached by transition:                   model: ADC(2)   |
  |    number, symmetry, multiplicity:   14 a    1                          |
  |    frequency :   0.2593066712 a.u.     7.05609 e.V.     56911.2 rcm     |
  +=========================================================================+

      Total energy of excited state:    -491.1647141182

   +-----------------+-----------------+-----------------+-----------------+
   | operator        | expect. value   | electr. contrib.| diff to gr.st.  |
   +-----------------+-----------------+-----------------+-----------------+
   | xdiplen (unrel) |      1.36798449 |    -86.72837401 |      5.18686102 |
   | xdiplen (relax) |     -0.71319914 |    -88.80955763 |       ---       |
   | ydiplen (unrel) |      0.00024098 |      0.00023199 |      0.00007097 |
   | ydiplen (relax) |      0.00021380 |      0.00020482 |       ---       |
   | zdiplen (unrel) |      0.23305936 |      1.97215394 |      0.00624014 |
   | zdiplen (relax) |      0.22288211 |      1.96197669 |       ---       |
   +-----------------+-----------------+-----------------+-----------------+


     Analysis of relaxed properties:
     ===============================


     dipole moment:
     --------------

     x     -0.71319914
     y      0.00021380
     z      0.22288211

     | dipole moment | =      0.74721449 a.u. =      1.89922961 debye
 


     Analysis of unrelaxed properties:
     =================================


     dipole moment:
     --------------

     x      1.36798449
     y      0.00024098
     z      0.23305936

     | dipole moment | =      1.38769531 a.u. =      3.52716933 debye
 

 +---------------------------------+-----------------+
 |   Nonequilibrium solvation      |                 |
 +---------------------------------+-----------------+
 |   E_x_(y) is the total free energy of target      |
 |   state x in the reaction field (RF)              |
 |   equilibrated for state y                        |
 +---------------------------------+-----------------+
 | E_x_(y)                         |  -491.17060241  |
 | E_x_(y) (+OCC)                  |  -491.17109197  |
 | Outlying charge correction(OCC) |    -0.00048957  |
 | E_SCF with RF of state y        |  -489.41987244  |
 | E_corr (ground state)           |    -2.00415442  |
 | E_exci (ground to x state)      |     0.25930667  |
 | Correction for fast part of RF  |    -0.00537139  |
 | Correction for update of eq. RF |    -0.00051084  |
 +---------------------------------+-----------------+


  +=========================================================================+
  |  Excited state reached by transition:                   model: ADC(2)   |
  |    number, symmetry, multiplicity:   15 a    1                          |
  |    frequency :   0.2692227609 a.u.     7.32592 e.V.     59087.6 rcm     |
  +=========================================================================+

      Total energy of excited state:    -491.1547980286

   +-----------------+-----------------+-----------------+-----------------+
   | operator        | expect. value   | electr. contrib.| diff to gr.st.  |
   +-----------------+-----------------+-----------------+-----------------+
   | xdiplen (unrel) |     -6.12689747 |    -94.22325596 |     -2.30802094 |
   | xdiplen (relax) |     -5.52118160 |    -93.61754009 |       ---       |
   | ydiplen (unrel) |      0.00018509 |      0.00017610 |      0.00001508 |
   | ydiplen (relax) |      0.00019919 |      0.00019021 |       ---       |
   | zdiplen (unrel) |      0.23022271 |      1.96931729 |      0.00340350 |
   | zdiplen (relax) |      0.22719683 |      1.96629141 |       ---       |
   +-----------------+-----------------+-----------------+-----------------+


     Analysis of relaxed properties:
     ===============================


     dipole moment:
     --------------

     x     -5.52118160
     y      0.00019919
     z      0.22719683

     | dipole moment | =      5.52585420 a.u. =     14.04531909 debye
 


     Analysis of unrelaxed properties:
     =================================


     dipole moment:
     --------------

     x     -6.12689747
     y      0.00018509
     z      0.23022271

     | dipole moment | =      6.13122134 a.u. =     15.58400871 debye
 

 +---------------------------------+-----------------+
 |   Nonequilibrium solvation      |                 |
 +---------------------------------+-----------------+
 |   E_x_(y) is the total free energy of target      |
 |   state x in the reaction field (RF)              |
 |   equilibrated for state y                        |
 +---------------------------------+-----------------+
 | E_x_(y)                         |  -491.15679416  |
 | E_x_(y) (+OCC)                  |  -491.15718397  |
 | Outlying charge correction(OCC) |    -0.00038981  |
 | E_SCF with RF of state y        |  -489.41987244  |
 | E_corr (ground state)           |    -2.00415442  |
 | E_exci (ground to x state)      |     0.26922276  |
 | Correction for fast part of RF  |    -0.00228909  |
 | Correction for update of eq. RF |     0.00029902  |
 +---------------------------------+-----------------+
 Exporting excited state densities


 =============================================
 | SUMMARY OF RELAXED EXCITATIONS WITH COSMO |
 =============================================

 Explanation of the quantities below:

       E(diff)_x = E_x - E*_y
       E(exci)_x = E_x - E_gs

  E_x  : noneq.        energy of state x
  E*_y : eq.           energy of state y
  E_gs : noneq. or eq. energy of groundstate
  OCC  : outlying charge correction

 The * in column 'sym' marks the equilibrated state

 +=================================================================================+
 | sym | multi | state | COSMO-ADC(2) energy differences                           |
 |     |       |       +-----------------------------------------------------------+
 |     |       |       | E(Total)/au. |  E(diff)/eV  |  E(exci)/eV  |E(exc(OCC))/eV|
 +=================================================================================+
 |*a   |   1   |   0   | -491.4240269 |            - |            - |            - |
 +-----+-------+-------+--------------+--------------+--------------+--------------+
 | a   |   1   |   1   | -491.2897165 |      3.65477 |      3.65477 |      3.64881 |
 +-----+-------+-------+--------------+--------------+--------------+--------------+
 | a   |   1   |   2   | -491.2867638 |      3.73512 |      3.73512 |      3.73512 |
 +-----+-------+-------+--------------+--------------+--------------+--------------+
 | a   |   1   |   3   | -491.2576776 |      4.52659 |      4.52659 |      4.52606 |
 +-----+-------+-------+--------------+--------------+--------------+--------------+
 | a   |   1   |   4   | -491.2549385 |      4.60113 |      4.60113 |      4.60057 |
 +-----+-------+-------+--------------+--------------+--------------+--------------+
 | a   |   1   |   5   | -491.2305095 |      5.26588 |      5.26588 |      5.26312 |
 +-----+-------+-------+--------------+--------------+--------------+--------------+
 | a   |   1   |   6   | -491.2133891 |      5.73175 |      5.73175 |      5.72044 |
 +-----+-------+-------+--------------+--------------+--------------+--------------+
 | a   |   1   |   7   | -491.2117684 |      5.77585 |      5.77585 |      5.77517 |
 +-----+-------+-------+--------------+--------------+--------------+--------------+
 | a   |   1   |   8   | -491.2030088 |      6.01421 |      6.01421 |      6.01396 |
 +-----+-------+-------+--------------+--------------+--------------+--------------+
 | a   |   1   |   9   | -491.1892446 |      6.38875 |      6.38875 |      6.37867 |
 +-----+-------+-------+--------------+--------------+--------------+--------------+
 | a   |   1   |  10   | -491.1823536 |      6.57626 |      6.57626 |      6.52179 |
 +-----+-------+-------+--------------+--------------+--------------+--------------+
 | a   |   1   |  11   | -491.1736572 |      6.81290 |      6.81290 |      6.80807 |
 +-----+-------+-------+--------------+--------------+--------------+--------------+
 | a   |   1   |  12   | -491.1701058 |      6.90954 |      6.90954 |      6.86870 |
 +-----+-------+-------+--------------+--------------+--------------+--------------+
 | a   |   1   |  13   | -491.1676157 |      6.97730 |      6.97730 |      6.97685 |
 +-----+-------+-------+--------------+--------------+--------------+--------------+
 | a   |   1   |  14   | -491.1706024 |      6.89603 |      6.89603 |      6.89002 |
 +-----+-------+-------+--------------+--------------+--------------+--------------+
 | a   |   1   |  15   | -491.1567942 |      7.27177 |      7.27177 |      7.26847 |
 +=================================================================================+



    ------------------------------------------------------------------------
         total  cpu-time :  4 hours 37 minutes and 22 seconds
         total wall-time : 18 hours 13 minutes and 48 seconds
    ------------------------------------------------------------------------


   ****  ricc2 : all done  ****


    2023-03-23 04:11:25.611 

