[Molden Format]
[Title]
ADC(2) - opt by CAM-B3LYP gaussian                                              
[Atoms] AU
 c     1    6 -.12594776649128E+01 -.22773101438193E+01 -.39940542897370E-01
 c     2    6 -.25470425655544E+01 -.11810788300000E-05 -.37653974276580E-01
 c     3    6 -.12594776649128E+01 0.22773077816617E+01 -.39959440158700E-01
 c     4    6 0.13393870965995E+01 0.22758904870620E+01 -.43795584208460E-01
 c     5    6 0.26846831306008E+01 -.11810788300000E-05 -.44211323957690E-01
 c     6    6 0.13394059938609E+01 -.22758928492196E+01 -.43776686947130E-01
 h     7    1 -.23144739703802E+01 -.40231336316857E+01 -.37313823572660E-01
 h     8    1 -.23144739703802E+01 0.40231312695281E+01 -.37332720833990E-01
 h     9    1 0.23577983041343E+01 0.40499086888311E+01 -.52469427158400E-01
 h    10    1 0.23577983041343E+01 -.40498921537274E+01 -.52431632635740E-01
 n    11    7 -.52968964450843E+01 -.11810788300000E-05 -.29906097131750E-01
 o    12    8 -.63725096626615E+01 0.20302827815708E+01 -.26599076399200E-01
 o    13    8 -.63725096626615E+01 -.20302851437285E+01 -.26655768183180E-01
 n    14    7 0.52734000627795E+01 -.11810788300000E-05 -.11796733492422E+00
 h    15    1 0.61922038058499E+01 0.16034881344586E+01 0.31500671664254E+00
 h    16    1 0.61921849085885E+01 -.16034904966163E+01 0.31500671664254E+00
[GTO]
    1 0
 s    6 1.00
 0.13575349682000E+05 0.60645503603591E-03
 0.20352333680000E+04 0.46979088884982E-02
 0.46322562359000E+03 0.24332477647552E-01
 0.13120019598000E+03 0.97399968307759E-01
 0.42853015891000E+02 0.30195584253780E+00
 0.15584185766000E+02 0.66233609137875E+00
 s    2 1.00
 0.62067138508000E+01 0.65595308539952E+00
 0.25764896527000E+01 0.37585633285142E+00
 s    1 1.00
 0.57696339419000E+00 0.10000000000000E+01
 s    1 1.00
 0.22972831358000E+00 0.10000000000000E+01
 s    1 1.00
 0.95164440028000E-01 0.10000000000000E+01
 s    1 1.00
 0.48475401370000E-01 0.10000000000000E+01
 p    4 1.00
 0.34697232244000E+02 0.11327220003114E-01
 0.79582622826000E+01 0.76169659202087E-01
 0.23780826883000E+01 0.30192252202676E+00
 0.81433208183000E+00 0.72785027349547E+00
 p    1 1.00
 0.28887547253000E+00 0.10000000000000E+01
 p    1 1.00
 0.10056823671000E+00 0.10000000000000E+01
 d    1 1.00
 0.10970000000000E+01 0.10000000000000E+01
 d    1 1.00
 0.31800000000000E+00 0.10000000000000E+01
 d    1 1.00
 0.90985336424000E-01 0.10000000000000E+01
 f    1 1.00
 0.76100000000000E+00 0.10000000000000E+01
 
    2 0
 s    6 1.00
 0.13575349682000E+05 0.60645503603591E-03
 0.20352333680000E+04 0.46979088884982E-02
 0.46322562359000E+03 0.24332477647552E-01
 0.13120019598000E+03 0.97399968307759E-01
 0.42853015891000E+02 0.30195584253780E+00
 0.15584185766000E+02 0.66233609137875E+00
 s    2 1.00
 0.62067138508000E+01 0.65595308539952E+00
 0.25764896527000E+01 0.37585633285142E+00
 s    1 1.00
 0.57696339419000E+00 0.10000000000000E+01
 s    1 1.00
 0.22972831358000E+00 0.10000000000000E+01
 s    1 1.00
 0.95164440028000E-01 0.10000000000000E+01
 s    1 1.00
 0.48475401370000E-01 0.10000000000000E+01
 p    4 1.00
 0.34697232244000E+02 0.11327220003114E-01
 0.79582622826000E+01 0.76169659202087E-01
 0.23780826883000E+01 0.30192252202676E+00
 0.81433208183000E+00 0.72785027349547E+00
 p    1 1.00
 0.28887547253000E+00 0.10000000000000E+01
 p    1 1.00
 0.10056823671000E+00 0.10000000000000E+01
 d    1 1.00
 0.10970000000000E+01 0.10000000000000E+01
 d    1 1.00
 0.31800000000000E+00 0.10000000000000E+01
 d    1 1.00
 0.90985336424000E-01 0.10000000000000E+01
 f    1 1.00
 0.76100000000000E+00 0.10000000000000E+01
 
    3 0
 s    6 1.00
 0.13575349682000E+05 0.60645503603591E-03
 0.20352333680000E+04 0.46979088884982E-02
 0.46322562359000E+03 0.24332477647552E-01
 0.13120019598000E+03 0.97399968307759E-01
 0.42853015891000E+02 0.30195584253780E+00
 0.15584185766000E+02 0.66233609137875E+00
 s    2 1.00
 0.62067138508000E+01 0.65595308539952E+00
 0.25764896527000E+01 0.37585633285142E+00
 s    1 1.00
 0.57696339419000E+00 0.10000000000000E+01
 s    1 1.00
 0.22972831358000E+00 0.10000000000000E+01
 s    1 1.00
 0.95164440028000E-01 0.10000000000000E+01
 s    1 1.00
 0.48475401370000E-01 0.10000000000000E+01
 p    4 1.00
 0.34697232244000E+02 0.11327220003114E-01
 0.79582622826000E+01 0.76169659202087E-01
 0.23780826883000E+01 0.30192252202676E+00
 0.81433208183000E+00 0.72785027349547E+00
 p    1 1.00
 0.28887547253000E+00 0.10000000000000E+01
 p    1 1.00
 0.10056823671000E+00 0.10000000000000E+01
 d    1 1.00
 0.10970000000000E+01 0.10000000000000E+01
 d    1 1.00
 0.31800000000000E+00 0.10000000000000E+01
 d    1 1.00
 0.90985336424000E-01 0.10000000000000E+01
 f    1 1.00
 0.76100000000000E+00 0.10000000000000E+01
 
    4 0
 s    6 1.00
 0.13575349682000E+05 0.60645503603591E-03
 0.20352333680000E+04 0.46979088884982E-02
 0.46322562359000E+03 0.24332477647552E-01
 0.13120019598000E+03 0.97399968307759E-01
 0.42853015891000E+02 0.30195584253780E+00
 0.15584185766000E+02 0.66233609137875E+00
 s    2 1.00
 0.62067138508000E+01 0.65595308539952E+00
 0.25764896527000E+01 0.37585633285142E+00
 s    1 1.00
 0.57696339419000E+00 0.10000000000000E+01
 s    1 1.00
 0.22972831358000E+00 0.10000000000000E+01
 s    1 1.00
 0.95164440028000E-01 0.10000000000000E+01
 s    1 1.00
 0.48475401370000E-01 0.10000000000000E+01
 p    4 1.00
 0.34697232244000E+02 0.11327220003114E-01
 0.79582622826000E+01 0.76169659202087E-01
 0.23780826883000E+01 0.30192252202676E+00
 0.81433208183000E+00 0.72785027349547E+00
 p    1 1.00
 0.28887547253000E+00 0.10000000000000E+01
 p    1 1.00
 0.10056823671000E+00 0.10000000000000E+01
 d    1 1.00
 0.10970000000000E+01 0.10000000000000E+01
 d    1 1.00
 0.31800000000000E+00 0.10000000000000E+01
 d    1 1.00
 0.90985336424000E-01 0.10000000000000E+01
 f    1 1.00
 0.76100000000000E+00 0.10000000000000E+01
 
    5 0
 s    6 1.00
 0.13575349682000E+05 0.60645503603591E-03
 0.20352333680000E+04 0.46979088884982E-02
 0.46322562359000E+03 0.24332477647552E-01
 0.13120019598000E+03 0.97399968307759E-01
 0.42853015891000E+02 0.30195584253780E+00
 0.15584185766000E+02 0.66233609137875E+00
 s    2 1.00
 0.62067138508000E+01 0.65595308539952E+00
 0.25764896527000E+01 0.37585633285142E+00
 s    1 1.00
 0.57696339419000E+00 0.10000000000000E+01
 s    1 1.00
 0.22972831358000E+00 0.10000000000000E+01
 s    1 1.00
 0.95164440028000E-01 0.10000000000000E+01
 s    1 1.00
 0.48475401370000E-01 0.10000000000000E+01
 p    4 1.00
 0.34697232244000E+02 0.11327220003114E-01
 0.79582622826000E+01 0.76169659202087E-01
 0.23780826883000E+01 0.30192252202676E+00
 0.81433208183000E+00 0.72785027349547E+00
 p    1 1.00
 0.28887547253000E+00 0.10000000000000E+01
 p    1 1.00
 0.10056823671000E+00 0.10000000000000E+01
 d    1 1.00
 0.10970000000000E+01 0.10000000000000E+01
 d    1 1.00
 0.31800000000000E+00 0.10000000000000E+01
 d    1 1.00
 0.90985336424000E-01 0.10000000000000E+01
 f    1 1.00
 0.76100000000000E+00 0.10000000000000E+01
 
    6 0
 s    6 1.00
 0.13575349682000E+05 0.60645503603591E-03
 0.20352333680000E+04 0.46979088884982E-02
 0.46322562359000E+03 0.24332477647552E-01
 0.13120019598000E+03 0.97399968307759E-01
 0.42853015891000E+02 0.30195584253780E+00
 0.15584185766000E+02 0.66233609137875E+00
 s    2 1.00
 0.62067138508000E+01 0.65595308539952E+00
 0.25764896527000E+01 0.37585633285142E+00
 s    1 1.00
 0.57696339419000E+00 0.10000000000000E+01
 s    1 1.00
 0.22972831358000E+00 0.10000000000000E+01
 s    1 1.00
 0.95164440028000E-01 0.10000000000000E+01
 s    1 1.00
 0.48475401370000E-01 0.10000000000000E+01
 p    4 1.00
 0.34697232244000E+02 0.11327220003114E-01
 0.79582622826000E+01 0.76169659202087E-01
 0.23780826883000E+01 0.30192252202676E+00
 0.81433208183000E+00 0.72785027349547E+00
 p    1 1.00
 0.28887547253000E+00 0.10000000000000E+01
 p    1 1.00
 0.10056823671000E+00 0.10000000000000E+01
 d    1 1.00
 0.10970000000000E+01 0.10000000000000E+01
 d    1 1.00
 0.31800000000000E+00 0.10000000000000E+01
 d    1 1.00
 0.90985336424000E-01 0.10000000000000E+01
 f    1 1.00
 0.76100000000000E+00 0.10000000000000E+01
 
    7 0
 s    3 1.00
 0.34061341000000E+02 0.25439307208879E-01
 0.51235746000000E+01 0.19008594890375E+00
 0.11646626000000E+01 0.85244113011042E+00
 s    1 1.00
 0.32723041000000E+00 0.10000000000000E+01
 s    1 1.00
 0.10307241000000E+00 0.10000000000000E+01
 p    1 1.00
 0.80000000000000E+00 0.10000000000000E+01
 p    1 1.00
 0.95774129632000E-01 0.10000000000000E+01
 
    8 0
 s    3 1.00
 0.34061341000000E+02 0.25439307208879E-01
 0.51235746000000E+01 0.19008594890375E+00
 0.11646626000000E+01 0.85244113011042E+00
 s    1 1.00
 0.32723041000000E+00 0.10000000000000E+01
 s    1 1.00
 0.10307241000000E+00 0.10000000000000E+01
 p    1 1.00
 0.80000000000000E+00 0.10000000000000E+01
 p    1 1.00
 0.95774129632000E-01 0.10000000000000E+01
 
    9 0
 s    3 1.00
 0.34061341000000E+02 0.25439307208879E-01
 0.51235746000000E+01 0.19008594890375E+00
 0.11646626000000E+01 0.85244113011042E+00
 s    1 1.00
 0.32723041000000E+00 0.10000000000000E+01
 s    1 1.00
 0.10307241000000E+00 0.10000000000000E+01
 p    1 1.00
 0.80000000000000E+00 0.10000000000000E+01
 p    1 1.00
 0.95774129632000E-01 0.10000000000000E+01
 
   10 0
 s    3 1.00
 0.34061341000000E+02 0.25439307208879E-01
 0.51235746000000E+01 0.19008594890375E+00
 0.11646626000000E+01 0.85244113011042E+00
 s    1 1.00
 0.32723041000000E+00 0.10000000000000E+01
 s    1 1.00
 0.10307241000000E+00 0.10000000000000E+01
 p    1 1.00
 0.80000000000000E+00 0.10000000000000E+01
 p    1 1.00
 0.95774129632000E-01 0.10000000000000E+01
 
   11 0
 s    6 1.00
 0.19730800647000E+05 0.58626402628763E-03
 0.29578958745000E+04 0.45428820586397E-02
 0.67322133595000E+03 0.23558413450084E-01
 0.19068249494000E+03 0.94709193292923E-01
 0.62295441898000E+02 0.29719784913376E+00
 0.22654161182000E+02 0.66916246895232E+00
 s    2 1.00
 0.89791477428000E+01 0.64596683630063E+00
 0.36863002370000E+01 0.38700574393705E+00
 s    1 1.00
 0.84660076805000E+00 0.10000000000000E+01
 s    1 1.00
 0.33647133771000E+00 0.10000000000000E+01
 s    1 1.00
 0.13647653675000E+00 0.10000000000000E+01
 s    1 1.00
 0.68441605847000E-01 0.10000000000000E+01
 p    4 1.00
 0.49200380510000E+02 0.11448825101764E-01
 0.11346790537000E+02 0.78422337970864E-01
 0.34273972411000E+01 0.30818094738830E+00
 0.11785525134000E+01 0.72027196368413E+00
 p    1 1.00
 0.41642204972000E+00 0.10000000000000E+01
 p    1 1.00
 0.14260826011000E+00 0.10000000000000E+01
 d    1 1.00
 0.16540000000000E+01 0.10000000000000E+01
 d    1 1.00
 0.46900000000000E+00 0.10000000000000E+01
 d    1 1.00
 0.12829642058000E+00 0.10000000000000E+01
 f    1 1.00
 0.10930000000000E+01 0.10000000000000E+01
 
   12 0
 s    6 1.00
 0.27032382631000E+05 0.57227335211155E-03
 0.40523871392000E+04 0.44353233492995E-02
 0.92232722710000E+03 0.23020107706038E-01
 0.26124070989000E+03 0.92822490667928E-01
 0.85354641351000E+02 0.29378500009671E+00
 0.31035035245000E+02 0.67401604501641E+00
 s    2 1.00
 0.12260860728000E+02 0.63839937025506E+00
 0.49987076005000E+01 0.39534587125718E+00
 s    1 1.00
 0.11703108158000E+01 0.10000000000000E+01
 s    1 1.00
 0.46474740994000E+00 0.10000000000000E+01
 s    1 1.00
 0.18504536357000E+00 0.10000000000000E+01
 s    1 1.00
 0.70288026270000E-01 0.10000000000000E+01
 p    4 1.00
 0.63274954801000E+02 0.12018332222616E-01
 0.14627049379000E+02 0.83005421790056E-01
 0.44501223456000E+01 0.31991743925964E+00
 0.15275799647000E+01 0.70715542916104E+00
 p    1 1.00
 0.52935117943000E+00 0.10000000000000E+01
 p    1 1.00
 0.17478421270000E+00 0.10000000000000E+01
 p    1 1.00
 0.51112745706000E-01 0.10000000000000E+01
 d    1 1.00
 0.23140000000000E+01 0.10000000000000E+01
 d    1 1.00
 0.64500000000000E+00 0.10000000000000E+01
 d    1 1.00
 0.14696477366000E+00 0.10000000000000E+01
 f    1 1.00
 0.14280000000000E+01 0.10000000000000E+01
 
   13 0
 s    6 1.00
 0.27032382631000E+05 0.57227335211155E-03
 0.40523871392000E+04 0.44353233492995E-02
 0.92232722710000E+03 0.23020107706038E-01
 0.26124070989000E+03 0.92822490667928E-01
 0.85354641351000E+02 0.29378500009671E+00
 0.31035035245000E+02 0.67401604501641E+00
 s    2 1.00
 0.12260860728000E+02 0.63839937025506E+00
 0.49987076005000E+01 0.39534587125718E+00
 s    1 1.00
 0.11703108158000E+01 0.10000000000000E+01
 s    1 1.00
 0.46474740994000E+00 0.10000000000000E+01
 s    1 1.00
 0.18504536357000E+00 0.10000000000000E+01
 s    1 1.00
 0.70288026270000E-01 0.10000000000000E+01
 p    4 1.00
 0.63274954801000E+02 0.12018332222616E-01
 0.14627049379000E+02 0.83005421790056E-01
 0.44501223456000E+01 0.31991743925964E+00
 0.15275799647000E+01 0.70715542916104E+00
 p    1 1.00
 0.52935117943000E+00 0.10000000000000E+01
 p    1 1.00
 0.17478421270000E+00 0.10000000000000E+01
 p    1 1.00
 0.51112745706000E-01 0.10000000000000E+01
 d    1 1.00
 0.23140000000000E+01 0.10000000000000E+01
 d    1 1.00
 0.64500000000000E+00 0.10000000000000E+01
 d    1 1.00
 0.14696477366000E+00 0.10000000000000E+01
 f    1 1.00
 0.14280000000000E+01 0.10000000000000E+01
 
   14 0
 s    6 1.00
 0.19730800647000E+05 0.58626402628763E-03
 0.29578958745000E+04 0.45428820586397E-02
 0.67322133595000E+03 0.23558413450084E-01
 0.19068249494000E+03 0.94709193292923E-01
 0.62295441898000E+02 0.29719784913376E+00
 0.22654161182000E+02 0.66916246895232E+00
 s    2 1.00
 0.89791477428000E+01 0.64596683630063E+00
 0.36863002370000E+01 0.38700574393705E+00
 s    1 1.00
 0.84660076805000E+00 0.10000000000000E+01
 s    1 1.00
 0.33647133771000E+00 0.10000000000000E+01
 s    1 1.00
 0.13647653675000E+00 0.10000000000000E+01
 s    1 1.00
 0.68441605847000E-01 0.10000000000000E+01
 p    4 1.00
 0.49200380510000E+02 0.11448825101764E-01
 0.11346790537000E+02 0.78422337970864E-01
 0.34273972411000E+01 0.30818094738830E+00
 0.11785525134000E+01 0.72027196368413E+00
 p    1 1.00
 0.41642204972000E+00 0.10000000000000E+01
 p    1 1.00
 0.14260826011000E+00 0.10000000000000E+01
 d    1 1.00
 0.16540000000000E+01 0.10000000000000E+01
 d    1 1.00
 0.46900000000000E+00 0.10000000000000E+01
 d    1 1.00
 0.12829642058000E+00 0.10000000000000E+01
 f    1 1.00
 0.10930000000000E+01 0.10000000000000E+01
 
   15 0
 s    3 1.00
 0.34061341000000E+02 0.25439307208879E-01
 0.51235746000000E+01 0.19008594890375E+00
 0.11646626000000E+01 0.85244113011042E+00
 s    1 1.00
 0.32723041000000E+00 0.10000000000000E+01
 s    1 1.00
 0.10307241000000E+00 0.10000000000000E+01
 p    1 1.00
 0.80000000000000E+00 0.10000000000000E+01
 p    1 1.00
 0.95774129632000E-01 0.10000000000000E+01
 
   16 0
 s    3 1.00
 0.34061341000000E+02 0.25439307208879E-01
 0.51235746000000E+01 0.19008594890375E+00
 0.11646626000000E+01 0.85244113011042E+00
 s    1 1.00
 0.32723041000000E+00 0.10000000000000E+01
 s    1 1.00
 0.10307241000000E+00 0.10000000000000E+01
 p    1 1.00
 0.80000000000000E+00 0.10000000000000E+01
 p    1 1.00
 0.95774129632000E-01 0.10000000000000E+01
 
[MO]
 Sym= X
 Ene= -0.236713
 Spin= Alpha
 Occup= -0.236713
         1    4.195545E-05
         2    9.670487E-05
         3   -3.115060E-04
         4    8.410796E-04
         5    3.717964E-04
         6    5.188485E-04
         7    1.023620E-04
         8    1.350805E-04
         9    1.880572E-01
        10    1.461532E-03
        11   -3.465005E-04
        12    1.890414E-01
        13   -4.357015E-03
        14    2.553719E-03
        15    1.120703E-01
        16    1.100307E-05
        17   -4.966053E-06
        18   -6.037016E-06
        19   -4.998404E-06
        20    4.935956E-03
        21    5.635999E-04
        22    2.933572E-04
        23   -2.183923E-04
        24   -7.496494E-05
        25    1.980241E-06
        26    9.743592E-03
        27   -4.883225E-04
        28   -5.623669E-04
        29    4.326291E-04
        30    1.297379E-04
        31   -2.274515E-06
        32    5.818690E-03
        33   -2.694022E-03
        34    9.728344E-06
        35    9.816234E-08
        36   -1.190034E-03
        37   -2.901736E-06
        38   -9.502585E-07
        39    1.433707E-03
        40   -1.015021E-05
        41    8.185599E-07
        42    1.628909E-04
        43    5.596892E-06
        44   -1.340671E-07
        45   -3.023183E-07
        46    4.487374E-07
        47    8.428735E-07
        48   -2.166664E-06
        49   -1.399721E-06
        50   -1.896365E-06
        51   -1.596897E-04
        52   -2.794820E-06
        53   -1.340141E-06
        54   -7.585808E-04
        55   -2.796331E-06
        56    3.135446E-06
        57    5.481194E-03
        58   -2.438965E-06
        59    4.803172E-08
        60   -9.704832E-08
        61    4.901660E-08
        62   -9.459762E-06
        63    1.368156E-09
        64   -7.159574E-03
        65   -1.511909E-07
        66    3.935386E-08
        67    1.118370E-07
        68   -2.481252E-04
        69    2.749346E-08
        70   -1.634543E-02
        71   -7.750042E-08
        72    1.937016E-07
        73   -1.162012E-07
        74    3.759600E-04
        75    5.458738E-08
        76   -4.558874E-03
        77   -1.095819E-08
        78   -1.759001E-06
        79    1.761066E-08
        80    6.191207E-10
        81   -2.628912E-06
        82   -9.909987E-09
        83    1.408283E-08
        84    4.988859E-06
        85   -1.371720E-08
        86   -1.035674E-03
        87   -4.203831E-05
        88   -9.689020E-05
        89    3.118332E-04
        90   -8.414199E-04
        91   -3.874609E-04
        92   -5.131341E-04
        93   -1.024732E-04
        94    1.352426E-04
        95   -1.880595E-01
        96   -1.461716E-03
        97   -3.463781E-04
        98   -1.890433E-01
        99    4.350828E-03
       100    2.556931E-03
       101   -1.120722E-01
       102   -1.095513E-05
       103    4.907832E-06
       104    6.047299E-06
       105   -5.050466E-06
       106   -4.935871E-03
       107    5.637005E-04
       108   -2.934938E-04
       109    2.184636E-04
       110    7.503022E-05
       111    1.656202E-06
       112   -9.743152E-03
       113   -4.881374E-04
       114    5.625503E-04
       115   -4.330728E-04
       116   -1.294775E-04
       117    2.656430E-08
       118   -5.819089E-03
       119   -2.694278E-03
       120   -9.731358E-06
       121    1.119094E-07
       122    1.190043E-03
       123    2.901672E-06
       124   -9.726125E-07
       125   -1.433691E-03
       126    1.015432E-05
       127    8.224703E-07
       128   -1.629193E-04
       129    5.574367E-06
       130    8.612019E-07
       131    6.063921E-06
       132   -2.440258E-04
       133    2.410286E-03
       134    1.395063E-02
       135    4.653077E-05
       136   -3.711700E-04
       137   -2.748722E-04
       138   -2.027178E-01
       139   -1.268524E-03
       140   -6.087494E-04
       141   -2.057866E-01
       142    1.087083E-02
       143   -9.195498E-03
       144   -1.335962E-01
       145    2.771451E-05
       146    1.297061E-05
       147   -4.068513E-05
       148   -8.357757E-06
       149    4.534677E-03
       150    4.780274E-04
       151    4.133161E-04
       152   -1.346472E-04
       153   -2.786688E-04
       154   -1.698558E-04
       155    7.894369E-03
       156    2.374377E-04
       157    8.031532E-04
       158   -3.092164E-04
       159   -4.939369E-04
       160   -2.112483E-03
       161   -7.207523E-03
       162    3.760851E-03
       163   -1.288110E-05
       164   -2.497747E-06
       165    1.338025E-03
       166    9.037017E-06
       167   -4.089092E-06
       168   -1.469674E-03
       169    8.244794E-06
       170    7.440172E-06
       171   -3.254749E-04
       172    4.525297E-05
       173   -2.938259E-08
       174   -6.651885E-08
       175    1.572118E-07
       176   -4.405008E-07
       177    5.054899E-06
       178    1.794859E-06
       179   -4.643181E-07
       180    4.390830E-04
       181    5.084272E-06
       182   -1.765219E-07
       183    1.502112E-04
       184    5.048008E-06
       185    4.216285E-06
       186   -2.874762E-02
       187    4.050693E-06
       188   -1.636314E-08
       189   -4.578925E-08
       190    6.215239E-08
       191    2.155896E-05
       192   -2.290825E-07
       193   -7.731499E-03
       194    1.063038E-07
       195   -3.092758E-07
       196    2.029720E-07
       197    8.813443E-05
       198   -5.683778E-07
       199   -1.639003E-02
       200   -3.228701E-08
       201   -7.965567E-09
       202    4.025257E-08
       203   -1.020165E-03
       204   -4.045409E-07
       205    1.224520E-02
       206   -2.205189E-09
       207   -7.610874E-06
       208   -2.124933E-08
       209    8.989831E-09
       210    1.047975E-05
       211   -2.388801E-08
       212   -6.031259E-09
       213   -2.686892E-07
       214    5.239697E-08
       215    1.197213E-03
       216   -8.333695E-07
       217   -6.001747E-06
       218    2.438285E-04
       219   -2.409149E-03
       220   -1.393487E-02
       221   -5.226169E-05
       222    3.708104E-04
       223   -2.726406E-04
       224    2.027242E-01
       225    1.268207E-03
       226   -6.062471E-04
       227    2.057936E-01
       228   -1.087696E-02
       229   -9.192192E-03
       230    1.336013E-01
       231   -2.771746E-05
       232   -1.295940E-05
       233    4.067686E-05
       234   -8.335840E-06
       235   -4.534403E-03
       236    4.782473E-04
       237   -4.132002E-04
       238    1.345674E-04
       239    2.786328E-04
       240   -1.695934E-04
       241   -7.893932E-03
       242    2.378157E-04
       243   -8.034281E-04
       244    3.097224E-04
       245    4.937057E-04
       246   -2.115487E-03
       247    7.207193E-03
       248    3.760468E-03
       249    1.287694E-05
       250   -2.480942E-06
       251   -1.338073E-03
       252   -9.033015E-06
       253   -4.086606E-06
       254    1.469665E-03
       255   -8.243207E-06
       256    7.415139E-06
       257    3.255488E-04
       258    4.527604E-05
       259   -4.281484E-05
       260   -6.185759E-05
       261    4.420632E-04
       262    1.467162E-05
       263   -8.127570E-06
       264    7.757193E-03
       265    4.962485E-04
       266   -4.175561E-06
       267    6.607581E-03
       268    4.294451E-05
       269    6.160989E-05
       270   -4.364968E-04
       271   -1.467030E-05
       272   -8.143048E-06
       273   -7.757275E-03
       274   -4.955124E-04
       275   -4.731235E-06
       276   -6.607556E-03
       277    1.254592E-04
       278    3.817746E-04
       279    3.929362E-03
       280   -6.116034E-05
       281   -5.924252E-05
       282   -8.901895E-03
       283   -4.590792E-04
       284    1.238940E-04
       285   -1.009089E-02
       286   -1.257792E-04
       287   -3.818998E-04
       288   -3.937539E-03
       289    6.114096E-05
       290   -5.917152E-05
       291    8.902295E-03
       292    4.590155E-04
       293    1.230226E-04
       294    1.009116E-02
       295    9.542777E-09
       296    2.574404E-08
       297   -1.010345E-07
       298    2.121579E-07
       299    1.871928E-06
       300   -2.018916E-06
       301    1.293179E-06
       302    5.017998E-05
       303   -7.414687E-07
       304    1.371325E-06
       305   -4.630374E-06
       306   -7.501827E-07
       307    2.336516E-06
       308   -1.053670E-03
       309   -9.028766E-08
       310    1.462085E-07
       311   -1.802473E-07
       312    3.403884E-08
       313   -6.207788E-06
       314   -4.315256E-08
       315    3.787881E-04
       316    4.493638E-07
       317   -5.227155E-07
       318    7.335169E-08
       319   -4.523814E-05
       320   -1.437623E-07
       321    7.945811E-04
       322   -2.337649E-07
       323   -6.058632E-08
       324    2.943512E-07
       325   -1.408485E-04
       326   -3.251951E-08
       327    1.747092E-03
       328   -8.815454E-10
       329   -1.048463E-07
       330    4.670737E-09
       331    7.024165E-09
       332   -1.058683E-06
       333   -9.835768E-09
       334   -5.841448E-09
       335    1.199349E-06
       336    3.569316E-09
       337   -2.183756E-04
       338   -2.460521E-06
       339   -6.478331E-06
       340    1.531612E-05
       341   -4.379064E-05
       342    4.064525E-04
       343   -1.106670E-04
       344   -6.990493E-05
       345   -1.473680E-04
       346    1.618728E-02
       347   -6.440158E-05
       348   -1.259964E-04
       349    1.530383E-02
       350    1.616636E-04
       351   -2.088112E-04
       352    1.077177E-02
       353   -3.313748E-06
       354    3.714319E-06
       355   -2.128443E-04
       356   -1.709421E-06
       357    2.112709E-06
       358   -4.032879E-07
       359   -4.727471E-07
       360    1.086705E-05
       361   -1.203739E-04
       362   -1.755875E-06
       363    4.654082E-06
       364   -2.898207E-06
       365   -6.268722E-06
       366    7.240915E-05
       367   -5.629009E-04
       368    2.731675E-05
       369   -2.607994E-05
       370   -1.236816E-06
       371   -4.408018E-05
       372   -1.791722E-04
       373    3.748432E-04
       374   -4.228554E-07
       375   -3.830996E-07
       376   -8.012786E-06
       377    6.851627E-07
       378    3.506085E-09
       379   -2.641213E-05
       380   -1.178426E-07
       381    5.104760E-07
       382    3.716241E-05
       383   -4.070803E-05
       384    2.419067E-06
       385    6.380298E-06
       386   -1.516789E-05
       387    4.451762E-05
       388   -4.051038E-04
       389    1.123140E-04
       390    6.196448E-05
       391   -1.456837E-04
       392   -1.618643E-02
       393    5.754485E-05
       394   -1.242706E-04
       395   -1.530304E-02
       396   -1.670499E-04
       397   -2.069328E-04
       398   -1.077094E-02
       399    2.999431E-06
       400    4.277860E-06
       401    2.129853E-04
       402    1.681685E-06
       403   -2.104920E-06
       404    4.232349E-07
       405   -5.421109E-07
       406   -1.087593E-05
       407   -1.203786E-04
       408    1.632849E-06
       409   -4.572623E-06
       410    2.939774E-06
       411   -6.397615E-06
       412   -7.242816E-05
       413   -5.629114E-04
       414   -2.760671E-05
       415    2.631776E-05
       416    1.288948E-06
       417   -4.429853E-05
       418    1.791728E-04
       419    3.748450E-04
       420    4.299007E-07
       421   -3.689196E-07
       422    8.014687E-06
       423   -6.992139E-07
       424   -2.005818E-08
       425    2.641013E-05
       426    1.224416E-07
       427    5.150158E-07
       428   -3.716296E-05
       429   -4.070909E-05
       430   -1.915709E-07
       431   -4.546025E-07
       432    7.069711E-07
       433    1.173249E-06
       434   -2.141128E-07
       435    2.150504E-06
       436    7.086689E-07
       437    1.638728E-03
       438   -5.707806E-06
       439    8.183417E-07
       440    1.698584E-03
       441   -5.672613E-06
       442    1.070848E-06
       443    2.029731E-03
       444   -4.901125E-06
       445    5.075766E-09
       446   -2.395097E-09
       447   -2.680669E-09
       448   -2.455006E-05
       449   -5.248035E-08
       450   -3.087403E-04
       451    1.074095E-08
       452    4.937155E-08
       453   -6.011250E-08
       454   -7.121310E-05
       455   -1.673210E-07
       456   -6.355654E-04
       457    1.187929E-07
       458    1.513032E-07
       459   -2.700962E-07
       460   -8.729897E-04
       461   -9.083947E-08
       462   -4.321448E-04
       463    6.301752E-09
       464    5.494792E-06
       465    1.671676E-08
       466    4.302972E-09
       467    2.064130E-05
       468   -2.930442E-09
       469   -1.275766E-08
       470   -2.801334E-05
       471   -1.949744E-08
       472    1.289712E-04
       473   -1.032957E-04
       474    9.791136E-05
       475    4.183204E-03
       476    8.167139E-05
       477   -4.748016E-06
       478   -3.791889E-04
       479   -6.810033E-04
       480   -5.913646E-04
       481   -1.746040E-03
       482    1.025621E-04
       483   -9.933238E-05
       484   -4.186219E-03
       485   -8.151288E-05
       486   -4.869343E-06
       487    3.786022E-04
       488    6.810543E-04
       489   -5.916418E-04
       490    1.745170E-03
 Sym= X
 Ene= -0.657940
 Spin= Alpha
 Occup= -0.657940
         1    2.419076E-04
         2    5.624637E-04
         3   -1.808851E-03
         4    5.660172E-03
         5   -6.754791E-02
         6    1.786410E-02
         7   -2.412157E-03
         8   -2.133658E-04
         9   -5.135395E-02
        10    4.664009E-03
        11   -8.158037E-04
        12   -4.915859E-02
        13    3.801449E-02
        14   -2.317952E-02
        15   -2.640907E-02
        16    9.219048E-06
        17    1.625374E-05
        18   -2.547279E-05
        19    2.863589E-06
        20    6.099497E-03
        21   -4.331447E-03
        22    1.100204E-03
        23   -6.458121E-04
        24   -4.543914E-04
        25    1.096452E-03
        26    1.395030E-02
        27   -8.000787E-03
        28    1.696183E-03
        29   -1.402580E-03
        30   -2.936031E-04
        31   -2.777920E-03
        32   -3.948074E-03
        33    8.838459E-03
        34    3.697298E-05
        35   -6.887964E-06
        36    2.685860E-04
        37   -1.874903E-05
        38    3.637745E-06
        39    6.183835E-04
        40   -3.085543E-05
        41    5.603428E-06
        42   -9.787294E-04
        43    7.261191E-04
        44   -5.800760E-05
        45   -1.256122E-04
        46   -2.399310E-04
        47    5.691187E-03
        48    8.422387E-02
        49   -8.893430E-03
        50   -4.913553E-04
        51   -1.237814E-06
        52   -2.204721E-01
        53    8.391214E-04
        54   -8.321325E-07
        55   -2.275120E-01
        56    1.503723E-02
        57    1.305663E-05
        58   -1.940575E-01
        59   -6.539430E-05
        60    5.931795E-05
        61    6.076344E-06
        62   -3.481993E-08