[Molden Format]
[Title]
ADC(2) - opt by CAM-B3LYP gaussian                                              
[Atoms] AU
 c     1    6 -.12594776649128E+01 -.22773101438193E+01 -.39940542897370E-01
 c     2    6 -.25470425655544E+01 -.11810788300000E-05 -.37653974276580E-01
 c     3    6 -.12594776649128E+01 0.22773077816617E+01 -.39959440158700E-01
 c     4    6 0.13393870965995E+01 0.22758904870620E+01 -.43795584208460E-01
 c     5    6 0.26846831306008E+01 -.11810788300000E-05 -.44211323957690E-01
 c     6    6 0.13394059938609E+01 -.22758928492196E+01 -.43776686947130E-01
 h     7    1 -.23144739703802E+01 -.40231336316857E+01 -.37313823572660E-01
 h     8    1 -.23144739703802E+01 0.40231312695281E+01 -.37332720833990E-01
 h     9    1 0.23577983041343E+01 0.40499086888311E+01 -.52469427158400E-01
 h    10    1 0.23577983041343E+01 -.40498921537274E+01 -.52431632635740E-01
 n    11    7 -.52968964450843E+01 -.11810788300000E-05 -.29906097131750E-01
 o    12    8 -.63725096626615E+01 0.20302827815708E+01 -.26599076399200E-01
 o    13    8 -.63725096626615E+01 -.20302851437285E+01 -.26655768183180E-01
 n    14    7 0.52734000627795E+01 -.11810788300000E-05 -.11796733492422E+00
 h    15    1 0.61922038058499E+01 0.16034881344586E+01 0.31500671664254E+00
 h    16    1 0.61921849085885E+01 -.16034904966163E+01 0.31500671664254E+00
[GTO]
    1 0
 s    6 1.00
 0.13575349682000E+05 0.60645503603591E-03
 0.20352333680000E+04 0.46979088884982E-02
 0.46322562359000E+03 0.24332477647552E-01
 0.13120019598000E+03 0.97399968307759E-01
 0.42853015891000E+02 0.30195584253780E+00
 0.15584185766000E+02 0.66233609137875E+00
 s    2 1.00
 0.62067138508000E+01 0.65595308539952E+00
 0.25764896527000E+01 0.37585633285142E+00
 s    1 1.00
 0.57696339419000E+00 0.10000000000000E+01
 s    1 1.00
 0.22972831358000E+00 0.10000000000000E+01
 s    1 1.00
 0.95164440028000E-01 0.10000000000000E+01
 s    1 1.00
 0.48475401370000E-01 0.10000000000000E+01
 p    4 1.00
 0.34697232244000E+02 0.11327220003114E-01
 0.79582622826000E+01 0.76169659202087E-01
 0.23780826883000E+01 0.30192252202676E+00
 0.81433208183000E+00 0.72785027349547E+00
 p    1 1.00
 0.28887547253000E+00 0.10000000000000E+01
 p    1 1.00
 0.10056823671000E+00 0.10000000000000E+01
 d    1 1.00
 0.10970000000000E+01 0.10000000000000E+01
 d    1 1.00
 0.31800000000000E+00 0.10000000000000E+01
 d    1 1.00
 0.90985336424000E-01 0.10000000000000E+01
 f    1 1.00
 0.76100000000000E+00 0.10000000000000E+01
 
    2 0
 s    6 1.00
 0.13575349682000E+05 0.60645503603591E-03
 0.20352333680000E+04 0.46979088884982E-02
 0.46322562359000E+03 0.24332477647552E-01
 0.13120019598000E+03 0.97399968307759E-01
 0.42853015891000E+02 0.30195584253780E+00
 0.15584185766000E+02 0.66233609137875E+00
 s    2 1.00
 0.62067138508000E+01 0.65595308539952E+00
 0.25764896527000E+01 0.37585633285142E+00
 s    1 1.00
 0.57696339419000E+00 0.10000000000000E+01
 s    1 1.00
 0.22972831358000E+00 0.10000000000000E+01
 s    1 1.00
 0.95164440028000E-01 0.10000000000000E+01
 s    1 1.00
 0.48475401370000E-01 0.10000000000000E+01
 p    4 1.00
 0.34697232244000E+02 0.11327220003114E-01
 0.79582622826000E+01 0.76169659202087E-01
 0.23780826883000E+01 0.30192252202676E+00
 0.81433208183000E+00 0.72785027349547E+00
 p    1 1.00
 0.28887547253000E+00 0.10000000000000E+01
 p    1 1.00
 0.10056823671000E+00 0.10000000000000E+01
 d    1 1.00
 0.10970000000000E+01 0.10000000000000E+01
 d    1 1.00
 0.31800000000000E+00 0.10000000000000E+01
 d    1 1.00
 0.90985336424000E-01 0.10000000000000E+01
 f    1 1.00
 0.76100000000000E+00 0.10000000000000E+01
 
    3 0
 s    6 1.00
 0.13575349682000E+05 0.60645503603591E-03
 0.20352333680000E+04 0.46979088884982E-02
 0.46322562359000E+03 0.24332477647552E-01
 0.13120019598000E+03 0.97399968307759E-01
 0.42853015891000E+02 0.30195584253780E+00
 0.15584185766000E+02 0.66233609137875E+00
 s    2 1.00
 0.62067138508000E+01 0.65595308539952E+00
 0.25764896527000E+01 0.37585633285142E+00
 s    1 1.00
 0.57696339419000E+00 0.10000000000000E+01
 s    1 1.00
 0.22972831358000E+00 0.10000000000000E+01
 s    1 1.00
 0.95164440028000E-01 0.10000000000000E+01
 s    1 1.00
 0.48475401370000E-01 0.10000000000000E+01
 p    4 1.00
 0.34697232244000E+02 0.11327220003114E-01
 0.79582622826000E+01 0.76169659202087E-01
 0.23780826883000E+01 0.30192252202676E+00
 0.81433208183000E+00 0.72785027349547E+00
 p    1 1.00
 0.28887547253000E+00 0.10000000000000E+01
 p    1 1.00
 0.10056823671000E+00 0.10000000000000E+01
 d    1 1.00
 0.10970000000000E+01 0.10000000000000E+01
 d    1 1.00
 0.31800000000000E+00 0.10000000000000E+01
 d    1 1.00
 0.90985336424000E-01 0.10000000000000E+01
 f    1 1.00
 0.76100000000000E+00 0.10000000000000E+01
 
    4 0
 s    6 1.00
 0.13575349682000E+05 0.60645503603591E-03
 0.20352333680000E+04 0.46979088884982E-02
 0.46322562359000E+03 0.24332477647552E-01
 0.13120019598000E+03 0.97399968307759E-01
 0.42853015891000E+02 0.30195584253780E+00
 0.15584185766000E+02 0.66233609137875E+00
 s    2 1.00
 0.62067138508000E+01 0.65595308539952E+00
 0.25764896527000E+01 0.37585633285142E+00
 s    1 1.00
 0.57696339419000E+00 0.10000000000000E+01
 s    1 1.00
 0.22972831358000E+00 0.10000000000000E+01
 s    1 1.00
 0.95164440028000E-01 0.10000000000000E+01
 s    1 1.00
 0.48475401370000E-01 0.10000000000000E+01
 p    4 1.00
 0.34697232244000E+02 0.11327220003114E-01
 0.79582622826000E+01 0.76169659202087E-01
 0.23780826883000E+01 0.30192252202676E+00
 0.81433208183000E+00 0.72785027349547E+00
 p    1 1.00
 0.28887547253000E+00 0.10000000000000E+01
 p    1 1.00
 0.10056823671000E+00 0.10000000000000E+01
 d    1 1.00
 0.10970000000000E+01 0.10000000000000E+01
 d    1 1.00
 0.31800000000000E+00 0.10000000000000E+01
 d    1 1.00
 0.90985336424000E-01 0.10000000000000E+01
 f    1 1.00
 0.76100000000000E+00 0.10000000000000E+01
 
    5 0
 s    6 1.00
 0.13575349682000E+05 0.60645503603591E-03
 0.20352333680000E+04 0.46979088884982E-02
 0.46322562359000E+03 0.24332477647552E-01
 0.13120019598000E+03 0.97399968307759E-01
 0.42853015891000E+02 0.30195584253780E+00
 0.15584185766000E+02 0.66233609137875E+00
 s    2 1.00
 0.62067138508000E+01 0.65595308539952E+00
 0.25764896527000E+01 0.37585633285142E+00
 s    1 1.00
 0.57696339419000E+00 0.10000000000000E+01
 s    1 1.00
 0.22972831358000E+00 0.10000000000000E+01
 s    1 1.00
 0.95164440028000E-01 0.10000000000000E+01
 s    1 1.00
 0.48475401370000E-01 0.10000000000000E+01
 p    4 1.00
 0.34697232244000E+02 0.11327220003114E-01
 0.79582622826000E+01 0.76169659202087E-01
 0.23780826883000E+01 0.30192252202676E+00
 0.81433208183000E+00 0.72785027349547E+00
 p    1 1.00
 0.28887547253000E+00 0.10000000000000E+01
 p    1 1.00
 0.10056823671000E+00 0.10000000000000E+01
 d    1 1.00
 0.10970000000000E+01 0.10000000000000E+01
 d    1 1.00
 0.31800000000000E+00 0.10000000000000E+01
 d    1 1.00
 0.90985336424000E-01 0.10000000000000E+01
 f    1 1.00
 0.76100000000000E+00 0.10000000000000E+01
 
    6 0
 s    6 1.00
 0.13575349682000E+05 0.60645503603591E-03
 0.20352333680000E+04 0.46979088884982E-02
 0.46322562359000E+03 0.24332477647552E-01
 0.13120019598000E+03 0.97399968307759E-01
 0.42853015891000E+02 0.30195584253780E+00
 0.15584185766000E+02 0.66233609137875E+00
 s    2 1.00
 0.62067138508000E+01 0.65595308539952E+00
 0.25764896527000E+01 0.37585633285142E+00
 s    1 1.00
 0.57696339419000E+00 0.10000000000000E+01
 s    1 1.00
 0.22972831358000E+00 0.10000000000000E+01
 s    1 1.00
 0.95164440028000E-01 0.10000000000000E+01
 s    1 1.00
 0.48475401370000E-01 0.10000000000000E+01
 p    4 1.00
 0.34697232244000E+02 0.11327220003114E-01
 0.79582622826000E+01 0.76169659202087E-01
 0.23780826883000E+01 0.30192252202676E+00
 0.81433208183000E+00 0.72785027349547E+00
 p    1 1.00
 0.28887547253000E+00 0.10000000000000E+01
 p    1 1.00
 0.10056823671000E+00 0.10000000000000E+01
 d    1 1.00
 0.10970000000000E+01 0.10000000000000E+01
 d    1 1.00
 0.31800000000000E+00 0.10000000000000E+01
 d    1 1.00
 0.90985336424000E-01 0.10000000000000E+01
 f    1 1.00
 0.76100000000000E+00 0.10000000000000E+01
 
    7 0
 s    3 1.00
 0.34061341000000E+02 0.25439307208879E-01
 0.51235746000000E+01 0.19008594890375E+00
 0.11646626000000E+01 0.85244113011042E+00
 s    1 1.00
 0.32723041000000E+00 0.10000000000000E+01
 s    1 1.00
 0.10307241000000E+00 0.10000000000000E+01
 p    1 1.00
 0.80000000000000E+00 0.10000000000000E+01
 p    1 1.00
 0.95774129632000E-01 0.10000000000000E+01
 
    8 0
 s    3 1.00
 0.34061341000000E+02 0.25439307208879E-01
 0.51235746000000E+01 0.19008594890375E+00
 0.11646626000000E+01 0.85244113011042E+00
 s    1 1.00
 0.32723041000000E+00 0.10000000000000E+01
 s    1 1.00
 0.10307241000000E+00 0.10000000000000E+01
 p    1 1.00
 0.80000000000000E+00 0.10000000000000E+01
 p    1 1.00
 0.95774129632000E-01 0.10000000000000E+01
 
    9 0
 s    3 1.00
 0.34061341000000E+02 0.25439307208879E-01
 0.51235746000000E+01 0.19008594890375E+00
 0.11646626000000E+01 0.85244113011042E+00
 s    1 1.00
 0.32723041000000E+00 0.10000000000000E+01
 s    1 1.00
 0.10307241000000E+00 0.10000000000000E+01
 p    1 1.00
 0.80000000000000E+00 0.10000000000000E+01
 p    1 1.00
 0.95774129632000E-01 0.10000000000000E+01
 
   10 0
 s    3 1.00
 0.34061341000000E+02 0.25439307208879E-01
 0.51235746000000E+01 0.19008594890375E+00
 0.11646626000000E+01 0.85244113011042E+00
 s    1 1.00
 0.32723041000000E+00 0.10000000000000E+01
 s    1 1.00
 0.10307241000000E+00 0.10000000000000E+01
 p    1 1.00
 0.80000000000000E+00 0.10000000000000E+01
 p    1 1.00
 0.95774129632000E-01 0.10000000000000E+01
 
   11 0
 s    6 1.00
 0.19730800647000E+05 0.58626402628763E-03
 0.29578958745000E+04 0.45428820586397E-02
 0.67322133595000E+03 0.23558413450084E-01
 0.19068249494000E+03 0.94709193292923E-01
 0.62295441898000E+02 0.29719784913376E+00
 0.22654161182000E+02 0.66916246895232E+00
 s    2 1.00
 0.89791477428000E+01 0.64596683630063E+00
 0.36863002370000E+01 0.38700574393705E+00
 s    1 1.00
 0.84660076805000E+00 0.10000000000000E+01
 s    1 1.00
 0.33647133771000E+00 0.10000000000000E+01
 s    1 1.00
 0.13647653675000E+00 0.10000000000000E+01
 s    1 1.00
 0.68441605847000E-01 0.10000000000000E+01
 p    4 1.00
 0.49200380510000E+02 0.11448825101764E-01
 0.11346790537000E+02 0.78422337970864E-01
 0.34273972411000E+01 0.30818094738830E+00
 0.11785525134000E+01 0.72027196368413E+00
 p    1 1.00
 0.41642204972000E+00 0.10000000000000E+01
 p    1 1.00
 0.14260826011000E+00 0.10000000000000E+01
 d    1 1.00
 0.16540000000000E+01 0.10000000000000E+01
 d    1 1.00
 0.46900000000000E+00 0.10000000000000E+01
 d    1 1.00
 0.12829642058000E+00 0.10000000000000E+01
 f    1 1.00
 0.10930000000000E+01 0.10000000000000E+01
 
   12 0
 s    6 1.00
 0.27032382631000E+05 0.57227335211155E-03
 0.40523871392000E+04 0.44353233492995E-02
 0.92232722710000E+03 0.23020107706038E-01
 0.26124070989000E+03 0.92822490667928E-01
 0.85354641351000E+02 0.29378500009671E+00
 0.31035035245000E+02 0.67401604501641E+00
 s    2 1.00
 0.12260860728000E+02 0.63839937025506E+00
 0.49987076005000E+01 0.39534587125718E+00
 s    1 1.00
 0.11703108158000E+01 0.10000000000000E+01
 s    1 1.00
 0.46474740994000E+00 0.10000000000000E+01
 s    1 1.00
 0.18504536357000E+00 0.10000000000000E+01
 s    1 1.00
 0.70288026270000E-01 0.10000000000000E+01
 p    4 1.00
 0.63274954801000E+02 0.12018332222616E-01
 0.14627049379000E+02 0.83005421790056E-01
 0.44501223456000E+01 0.31991743925964E+00
 0.15275799647000E+01 0.70715542916104E+00
 p    1 1.00
 0.52935117943000E+00 0.10000000000000E+01
 p    1 1.00
 0.17478421270000E+00 0.10000000000000E+01
 p    1 1.00
 0.51112745706000E-01 0.10000000000000E+01
 d    1 1.00
 0.23140000000000E+01 0.10000000000000E+01
 d    1 1.00
 0.64500000000000E+00 0.10000000000000E+01
 d    1 1.00
 0.14696477366000E+00 0.10000000000000E+01
 f    1 1.00
 0.14280000000000E+01 0.10000000000000E+01
 
   13 0
 s    6 1.00
 0.27032382631000E+05 0.57227335211155E-03
 0.40523871392000E+04 0.44353233492995E-02
 0.92232722710000E+03 0.23020107706038E-01
 0.26124070989000E+03 0.92822490667928E-01
 0.85354641351000E+02 0.29378500009671E+00
 0.31035035245000E+02 0.67401604501641E+00
 s    2 1.00
 0.12260860728000E+02 0.63839937025506E+00
 0.49987076005000E+01 0.39534587125718E+00
 s    1 1.00
 0.11703108158000E+01 0.10000000000000E+01
 s    1 1.00
 0.46474740994000E+00 0.10000000000000E+01
 s    1 1.00
 0.18504536357000E+00 0.10000000000000E+01
 s    1 1.00
 0.70288026270000E-01 0.10000000000000E+01
 p    4 1.00
 0.63274954801000E+02 0.12018332222616E-01
 0.14627049379000E+02 0.83005421790056E-01
 0.44501223456000E+01 0.31991743925964E+00
 0.15275799647000E+01 0.70715542916104E+00
 p    1 1.00
 0.52935117943000E+00 0.10000000000000E+01
 p    1 1.00
 0.17478421270000E+00 0.10000000000000E+01
 p    1 1.00
 0.51112745706000E-01 0.10000000000000E+01
 d    1 1.00
 0.23140000000000E+01 0.10000000000000E+01
 d    1 1.00
 0.64500000000000E+00 0.10000000000000E+01
 d    1 1.00
 0.14696477366000E+00 0.10000000000000E+01
 f    1 1.00
 0.14280000000000E+01 0.10000000000000E+01
 
   14 0
 s    6 1.00
 0.19730800647000E+05 0.58626402628763E-03
 0.29578958745000E+04 0.45428820586397E-02
 0.67322133595000E+03 0.23558413450084E-01
 0.19068249494000E+03 0.94709193292923E-01
 0.62295441898000E+02 0.29719784913376E+00
 0.22654161182000E+02 0.66916246895232E+00
 s    2 1.00
 0.89791477428000E+01 0.64596683630063E+00
 0.36863002370000E+01 0.38700574393705E+00
 s    1 1.00
 0.84660076805000E+00 0.10000000000000E+01
 s    1 1.00
 0.33647133771000E+00 0.10000000000000E+01
 s    1 1.00
 0.13647653675000E+00 0.10000000000000E+01
 s    1 1.00
 0.68441605847000E-01 0.10000000000000E+01
 p    4 1.00
 0.49200380510000E+02 0.11448825101764E-01
 0.11346790537000E+02 0.78422337970864E-01
 0.34273972411000E+01 0.30818094738830E+00
 0.11785525134000E+01 0.72027196368413E+00
 p    1 1.00
 0.41642204972000E+00 0.10000000000000E+01
 p    1 1.00
 0.14260826011000E+00 0.10000000000000E+01
 d    1 1.00
 0.16540000000000E+01 0.10000000000000E+01
 d    1 1.00
 0.46900000000000E+00 0.10000000000000E+01
 d    1 1.00
 0.12829642058000E+00 0.10000000000000E+01
 f    1 1.00
 0.10930000000000E+01 0.10000000000000E+01
 
   15 0
 s    3 1.00
 0.34061341000000E+02 0.25439307208879E-01
 0.51235746000000E+01 0.19008594890375E+00
 0.11646626000000E+01 0.85244113011042E+00
 s    1 1.00
 0.32723041000000E+00 0.10000000000000E+01
 s    1 1.00
 0.10307241000000E+00 0.10000000000000E+01
 p    1 1.00
 0.80000000000000E+00 0.10000000000000E+01
 p    1 1.00
 0.95774129632000E-01 0.10000000000000E+01
 
   16 0
 s    3 1.00
 0.34061341000000E+02 0.25439307208879E-01
 0.51235746000000E+01 0.19008594890375E+00
 0.11646626000000E+01 0.85244113011042E+00
 s    1 1.00
 0.32723041000000E+00 0.10000000000000E+01
 s    1 1.00
 0.10307241000000E+00 0.10000000000000E+01
 p    1 1.00
 0.80000000000000E+00 0.10000000000000E+01
 p    1 1.00
 0.95774129632000E-01 0.10000000000000E+01
 
[MO]
 Sym= X
 Ene= -0.123458
 Spin= Alpha
 Occup= -0.123458
         1   -3.682482E-04
         2   -8.531488E-04
         3    2.454682E-03
         4   -6.269400E-03
         5    8.102223E-02
         6   -2.264584E-02
         7    4.163589E-03
         8    4.899742E-04
         9    1.970746E-02
        10   -4.905209E-03
        11    1.268942E-03
        12    1.792256E-02
        13   -4.792855E-02
        14    2.425445E-02
        15    1.440972E-02
        16    3.006050E-05
        17   -5.221918E-05
        18    2.215868E-05
        19   -2.250493E-05
        20   -5.704536E-03
        21    3.209733E-03
        22   -1.282668E-03
        23    7.679838E-04
        24    5.146841E-04
        25   -1.456265E-03
        26   -1.299495E-02
        27    6.129660E-03
        28   -1.864138E-03
        29    1.308424E-03
        30    5.557143E-04
        31    3.815646E-03
        32    5.388880E-03
        33   -1.040082E-02
        34   -4.071347E-05
        35    1.121177E-05
        36   -1.022559E-05
        37    1.909080E-05
        38   -6.107213E-06
        39   -7.259696E-04
        40    3.553204E-05
        41   -8.934955E-06
        42    7.396887E-04
        43   -5.864348E-04
        44    9.291361E-05
        45    2.025012E-04
        46    3.097870E-04
        47   -7.878953E-03
        48   -9.145977E-02
        49    1.279405E-02
        50    1.971236E-04
        51    1.362020E-06
        52    1.665139E-01
        53   -1.563578E-03
        54    1.067063E-06
        55    1.729575E-01
        56   -1.691905E-02
        57   -1.184937E-05
        58    1.762795E-01
        59    1.211683E-04
        60   -1.144948E-04
        61   -6.673500E-06
        62    4.554361E-08
        63   -1.901100E-04
        64   -1.000326E-08
        65    8.352890E-04
        66   -1.374979E-03
        67    5.396902E-04
        68   -3.407202E-08
        69   -1.909722E-03
        70   -3.272551E-08
        71    3.088998E-02
        72   -3.381153E-02
        73    2.921555E-03
        74   -1.575924E-06
        75    1.859910E-03
        76    5.487878E-07
        77    1.262173E-05
        78    1.663553E-08
        79   -8.659927E-04
        80   -1.666396E-05
        81   -7.961785E-09
        82    4.461773E-04
        83   -2.698785E-07
        84   -1.435712E-08
        85    7.156738E-04
        86   -2.593539E-09
        87   -3.684282E-04
        88   -8.535548E-04
        89    2.455312E-03
        90   -6.268630E-03
        91    8.103729E-02
        92   -2.264737E-02
        93    4.162056E-03
        94   -4.901555E-04
        95    1.970695E-02
        96   -4.907066E-03
        97   -1.269298E-03
        98    1.792213E-02
        99   -4.794311E-02
       100   -2.426556E-02
       101    1.440995E-02
       102    3.000868E-05
       103   -5.220306E-05
       104    2.219439E-05
       105    2.245917E-05
       106   -5.704519E-03
       107   -3.209719E-03
       108   -1.282909E-03
       109    7.681329E-04
       110    5.147759E-04
       111    1.456242E-03
       112   -1.299486E-02
       113   -6.129655E-03
       114   -1.865924E-03
       115    1.310360E-03
       116    5.555634E-04
       117   -3.814560E-03
       118    5.389630E-03
       119    1.040137E-02
       120   -4.071109E-05
       121   -1.120333E-05
       122   -1.023092E-05
       123    1.909018E-05
       124    6.104113E-06
       125   -7.259596E-04
       126    3.552948E-05
       127    8.926737E-06
       128    7.396859E-04
       129    5.864348E-04
       130    2.833347E-04
       131    6.226402E-04
       132    7.035341E-04
       133   -1.925551E-02
       134   -3.160040E-02
       135    2.767929E-02
       136   -3.699227E-03
       137    1.101139E-03
       138   -1.498977E-01
       139   -1.933259E-02
       140    1.197715E-02
       141   -1.523045E-01
       142   -8.817814E-03
       143   -1.696872E-02
       144   -9.550553E-02
       145    3.026366E-04
       146   -3.653651E-04
       147    6.272848E-05
       148    7.532679E-06
       149   -8.809185E-04
       150    3.030040E-03
       151    1.469031E-03
       152   -1.604406E-03
       153    1.353746E-04
       154    3.183677E-03
       155   -4.648488E-03
       156    4.761088E-03
       157    1.181676E-02
       158   -7.922394E-03
       159   -3.894369E-03
       160   -2.482568E-02
       161    6.100315E-03
       162   -1.208157E-02
       163   -3.925757E-05
       164    1.771170E-05
       165    8.636048E-04
       166   -3.142827E-05
       167    3.229985E-05
       168   -2.072223E-04
       169    8.409782E-05
       170   -5.606259E-05
       171   -9.514251E-04
       172    3.178467E-04
       173   -2.052838E-03
       174   -4.661176E-03
       175    4.379547E-03
       176    4.245145E-02
       177   -1.284021E-01
       178    9.703312E-03
       179    1.715666E-02
       180    7.477162E-09
       181   -1.124183E-01
       182    4.177365E-04
       183   -1.475211E-07
       184   -1.162806E-01
       185   -9.787025E-02
       186    2.964906E-06
       187   -1.386918E-01
       188    9.600053E-04
       189   -5.863002E-04
       190   -3.737051E-04
       191    1.248089E-08
       192    1.019181E-02
       193    1.296332E-07
       194   -3.491437E-03
       195    7.666666E-03
       196   -4.175230E-03
       197   -9.389651E-08
       198    2.501595E-02
       199    2.041533E-07
       200   -2.327823E-02
       201    2.400380E-02
       202   -7.255646E-04
       203    1.727525E-08
       204    1.066506E-02
       205   -4.387245E-07
       206    2.188260E-04
       207   -8.090443E-09
       208    2.413261E-04
       209   -1.655408E-04
       210   -1.692893E-09
       211    1.190605E-03
       212   -1.280450E-04
       213    1.254736E-08
       214   -1.514378E-03
       215   -7.878727E-09
       216    2.833057E-04
       217    6.225766E-04
       218    7.036017E-04
       219   -1.925610E-02
       220   -3.161276E-02
       221    2.767954E-02
       222   -3.700372E-03
       223   -1.102895E-03
       224   -1.499009E-01
       225   -1.933290E-02
       226   -1.197880E-02
       227   -1.523078E-01
       228   -8.807521E-03
       229    1.697211E-02
       230   -9.550797E-02
       231    3.026698E-04
       232   -3.654434E-04
       233    6.277360E-05
       234   -7.545097E-06
       235   -8.809496E-04
       236   -3.030078E-03
       237    1.468978E-03
       238   -1.604403E-03
       239    1.354250E-04
       240   -3.183680E-03
       241   -4.648425E-03
       242   -4.761076E-03
       243    1.181611E-02
       244   -7.921526E-03
       245   -3.894582E-03
       246    2.482650E-02
       247    6.099244E-03
       248    1.208120E-02
       249   -3.925989E-05
       250   -1.773118E-05
       251    8.636213E-04
       252   -3.143142E-05
       253   -3.230305E-05
       254   -2.072255E-04
       255    8.410409E-05
       256    5.609192E-05
       257   -9.514440E-04
       258   -3.178359E-04
       259   -9.850934E-04
       260   -6.468111E-04
       261   -3.009092E-02
       262   -2.543711E-05
       263   -1.393729E-05
       264    8.633498E-04
       265   -8.743222E-03
       266   -2.728566E-03
       267   -5.098587E-03
       268   -9.846383E-04
       269   -6.461526E-04
       270   -3.009136E-02
       271   -2.541554E-05
       272    1.385914E-05
       273    8.633400E-04
       274   -8.743135E-03
       275    2.728465E-03
       276   -5.098652E-03
       277   -1.118861E-03
       278   -5.100094E-03
       279    7.110096E-02
       280   -4.349581E-05
       281    2.376022E-04
       282   -6.073755E-03
       283   -1.615118E-03
       284   -6.769630E-03
       285   -7.630783E-04
       286   -1.119021E-03
       287   -5.100509E-03
       288    7.110299E-02
       289   -4.351004E-05
       290   -2.377023E-04
       291   -6.073968E-03
       292   -1.615057E-03
       293    6.769553E-03
       294   -7.632720E-04
       295   -1.017246E-04
       296   -2.390863E-04
       297    2.775338E-04
       298    4.041330E-04
       299   -2.015184E-02
       300   -7.231565E-03
       301    1.196144E-03
       302    2.426630E-07
       303   -1.248105E-03
       304    4.655485E-04
       305    2.082237E-07
       306    1.652556E-03
       307   -5.709844E-03
       308    9.462296E-08
       309   -4.597082E-03
       310    2.833930E-05
       311   -1.747983E-05
       312   -1.085947E-05
       313   -1.353369E-07
       314    3.521900E-03
       315    9.190190E-08
       316   -1.020665E-05
       317    8.807934E-05
       318   -7.787269E-05
       319   -3.598763E-07
       320    1.033848E-02
       321    2.703409E-07
       322    1.586552E-04
       323    4.841813E-03
       324   -5.000469E-03
       325    2.489414E-07
       326    2.022177E-03
       327   -4.571656E-08
       328    1.167455E-05
       329   -2.143526E-08
       330    6.141991E-05
       331   -7.434261E-06
       332    4.856374E-08
       333    5.484740E-04
       334   -8.228798E-06
       335   -1.980532E-08
       336   -6.308774E-04
       337   -1.616433E-08
       338   -4.814045E-05
       339   -1.102034E-04
       340    7.356446E-05
       341    1.173027E-03
       342   -1.216420E-02
       343   -2.395135E-03
       344   -3.394605E-04
       345    3.942554E-04
       346   -6.487236E-02
       347   -6.112928E-04
       348    5.966668E-04
       349   -6.000395E-02
       350   -1.592078E-03
       351    1.536260E-03
       352   -4.497501E-02
       353   -6.943453E-04
       354    2.862222E-04
       355   -4.853719E-03
       356    7.357491E-06
       357   -1.274049E-05
       358    5.382996E-06
       359    1.881716E-06
       360   -9.141717E-05
       361    5.611536E-04
       362   -9.458830E-06
       363   -3.226943E-05
       364    4.172826E-05
       365    1.507995E-05
       366   -7.261949E-04
       367    1.743608E-03
       368   -7.909583E-05
       369   -8.380731E-05
       370    1.629031E-04
       371   -1.857967E-04
       372   -7.587485E-04
       373    4.691954E-04
       374    1.396185E-06
       375    4.925174E-06
       376    7.897827E-05
       377   -2.402235E-06
       378   -2.436352E-06
       379    7.659992E-05
       380    5.290562E-07
       381   -4.171463E-06
       382   -1.825604E-04
       383    1.453586E-04
       384   -4.816745E-05
       385   -1.102680E-04
       386    7.366708E-05
       387    1.173332E-03
       388   -1.216438E-02
       389   -2.395203E-03
       390   -3.310201E-04
       391   -3.983002E-04
       392   -6.487732E-02
       393   -6.036262E-04
       394   -6.001691E-04
       395   -6.000849E-02
       396   -1.586242E-03
       397   -1.538972E-03
       398   -4.497872E-02
       399   -6.938375E-04
       400   -2.861703E-04
       401   -4.854229E-03
       402    7.409371E-06
       403   -1.277772E-05
       404    5.368353E-06
       405   -1.862198E-06
       406   -9.144382E-05
       407   -5.611955E-04
       408   -9.277234E-06
       409   -3.236850E-05
       410    4.164574E-05
       411   -1.497529E-05
       412   -7.262878E-04
       413   -1.743757E-03
       414   -7.885066E-05
       415   -8.403587E-05
       416    1.628865E-04
       417    1.859212E-04
       418   -7.588870E-04
       419   -4.693317E-04
       420    1.397256E-06
       421   -4.935146E-06
       422    7.898569E-05
       423   -2.399734E-06
       424    2.461336E-06
       425    7.660169E-05
       426    5.251180E-07
       427    4.159857E-06
       428   -1.825721E-04
       429   -1.453721E-04
       430    9.437340E-03
       431    2.235952E-02
       432   -3.444212E-02
       433   -5.842921E-02
       434   -1.889541E-04
       435   -1.064569E-01
       436   -3.459137E-02
       437    1.959717E-07
       438    2.897774E-01
       439   -3.941040E-02
       440    3.376887E-07
       441    2.839971E-01
       442   -5.178691E-02
       443    7.470013E-07
       444    2.260791E-01
       445   -2.836355E-04
       446   -1.456129E-04
       447    4.292484E-04
       448    9.849597E-09
       449    8.021279E-04
       450   -1.249399E-08
       451   -4.655982E-04
       452   -3.381392E-03
       453    3.846990E-03
       454   -8.811237E-09
       455    3.400870E-03
       456    1.146331E-08
       457   -3.862506E-03
       458   -9.876474E-03
       459    1.373898E-02
       460   -9.701326E-08
       461    2.196001E-03
       462    1.339225E-07
       463   -2.478015E-04
       464    3.461104E-09
       465   -1.098146E-03
       466   -1.900730E-04
       467    1.034793E-09
       468    5.955184E-04
       469    5.225336E-04
       470   -5.678351E-09
       471    8.777990E-04
       472    9.001952E-10
       473    1.612960E-02
       474    3.384059E-02
       475    7.245841E-02
       476   -4.164124E-03
       477   -3.456094E-03
       478    1.428577E-02
       479   -2.410770E-03
       480   -7.992705E-03
       481    1.553278E-02
       482    1.612955E-02
       483    3.384066E-02
       484    7.245883E-02
       485   -4.164139E-03
       486    3.456168E-03
       487    1.428581E-02
       488   -2.410904E-03
       489    7.992780E-03
       490    1.553280E-02
 Sym= X
 Ene= -0.734738
 Spin= Alpha
 Occup= -0.734738
         1    4.309749E-05
         2    9.899705E-05
         3   -2.697209E-04
         4    5.578040E-04
         5    2.915989E-03
         6    2.794064E-04
         7   -2.076675E-06
         8    1.849545E-04
         9    1.304444E-01
        10    1.043330E-03
        11   -1.822130E-04
        12    1.313107E-01
        13   -4.905880E-03
        14    3.540670E-03
        15    6.891539E-02
        16    5.866034E-06
        17   -2.160172E-06
        18   -3.705862E-06
        19   -9.019710E-06
        20    3.620573E-03
        21    3.572753E-04
        22    2.214381E-04
        23   -1.609406E-04
        24   -6.049751E-05
        25   -6.039251E-06
        26    7.970848E-03
        27   -5.803674E-04
        28   -9.395374E-04
        29    9.134097E-04
        30    2.612768E-05
        31   -2.817126E-04
        32    6.030003E-03
        33   -4.318593E-03
        34    6.390157E-06
        35    4.493480E-07
        36   -7.778918E-04
        37   -1.922559E-06
        38   -7.710234E-07
        39    9.502552E-04
        40   -6.650737E-06
        41    1.681599E-07
        42    9.339622E-05
        43    4.373065E-05
        44   -7.741287E-09
        45   -1.281387E-08
        46   -2.039641E-07
        47    1.498524E-06
        48   -3.379890E-06
        49   -3.075129E-06
        50   -7.122447E-07
        51   -2.230788E-04
        52    1.805601E-06
        53   -4.958535E-08
        54   -6.537494E-04
        55    1.909970E-06
        56    3.508784E-06
        57    7.389010E-03
        58    9.901114E-07
        59    9.795805E-10
        60   -5.353108E-08
        61    5.255150E-08
        62   -8.846436E-06