[Molden Format]
[Title]
ADC(2) - opt by CAM-B3LYP gaussian                                              
[Atoms] AU
 c     1    6 -.12594776649128E+01 -.22773101438193E+01 -.39940542897370E-01
 c     2    6 -.25470425655544E+01 -.11810788300000E-05 -.37653974276580E-01
 c     3    6 -.12594776649128E+01 0.22773077816617E+01 -.39959440158700E-01
 c     4    6 0.13393870965995E+01 0.22758904870620E+01 -.43795584208460E-01
 c     5    6 0.26846831306008E+01 -.11810788300000E-05 -.44211323957690E-01
 c     6    6 0.13394059938609E+01 -.22758928492196E+01 -.43776686947130E-01
 h     7    1 -.23144739703802E+01 -.40231336316857E+01 -.37313823572660E-01
 h     8    1 -.23144739703802E+01 0.40231312695281E+01 -.37332720833990E-01
 h     9    1 0.23577983041343E+01 0.40499086888311E+01 -.52469427158400E-01
 h    10    1 0.23577983041343E+01 -.40498921537274E+01 -.52431632635740E-01
 n    11    7 -.52968964450843E+01 -.11810788300000E-05 -.29906097131750E-01
 o    12    8 -.63725096626615E+01 0.20302827815708E+01 -.26599076399200E-01
 o    13    8 -.63725096626615E+01 -.20302851437285E+01 -.26655768183180E-01
 n    14    7 0.52734000627795E+01 -.11810788300000E-05 -.11796733492422E+00
 h    15    1 0.61922038058499E+01 0.16034881344586E+01 0.31500671664254E+00
 h    16    1 0.61921849085885E+01 -.16034904966163E+01 0.31500671664254E+00
[GTO]
    1 0
 s    6 1.00
 0.13575349682000E+05 0.60645503603591E-03
 0.20352333680000E+04 0.46979088884982E-02
 0.46322562359000E+03 0.24332477647552E-01
 0.13120019598000E+03 0.97399968307759E-01
 0.42853015891000E+02 0.30195584253780E+00
 0.15584185766000E+02 0.66233609137875E+00
 s    2 1.00
 0.62067138508000E+01 0.65595308539952E+00
 0.25764896527000E+01 0.37585633285142E+00
 s    1 1.00
 0.57696339419000E+00 0.10000000000000E+01
 s    1 1.00
 0.22972831358000E+00 0.10000000000000E+01
 s    1 1.00
 0.95164440028000E-01 0.10000000000000E+01
 s    1 1.00
 0.48475401370000E-01 0.10000000000000E+01
 p    4 1.00
 0.34697232244000E+02 0.11327220003114E-01
 0.79582622826000E+01 0.76169659202087E-01
 0.23780826883000E+01 0.30192252202676E+00
 0.81433208183000E+00 0.72785027349547E+00
 p    1 1.00
 0.28887547253000E+00 0.10000000000000E+01
 p    1 1.00
 0.10056823671000E+00 0.10000000000000E+01
 d    1 1.00
 0.10970000000000E+01 0.10000000000000E+01
 d    1 1.00
 0.31800000000000E+00 0.10000000000000E+01
 d    1 1.00
 0.90985336424000E-01 0.10000000000000E+01
 f    1 1.00
 0.76100000000000E+00 0.10000000000000E+01
 
    2 0
 s    6 1.00
 0.13575349682000E+05 0.60645503603591E-03
 0.20352333680000E+04 0.46979088884982E-02
 0.46322562359000E+03 0.24332477647552E-01
 0.13120019598000E+03 0.97399968307759E-01
 0.42853015891000E+02 0.30195584253780E+00
 0.15584185766000E+02 0.66233609137875E+00
 s    2 1.00
 0.62067138508000E+01 0.65595308539952E+00
 0.25764896527000E+01 0.37585633285142E+00
 s    1 1.00
 0.57696339419000E+00 0.10000000000000E+01
 s    1 1.00
 0.22972831358000E+00 0.10000000000000E+01
 s    1 1.00
 0.95164440028000E-01 0.10000000000000E+01
 s    1 1.00
 0.48475401370000E-01 0.10000000000000E+01
 p    4 1.00
 0.34697232244000E+02 0.11327220003114E-01
 0.79582622826000E+01 0.76169659202087E-01
 0.23780826883000E+01 0.30192252202676E+00
 0.81433208183000E+00 0.72785027349547E+00
 p    1 1.00
 0.28887547253000E+00 0.10000000000000E+01
 p    1 1.00
 0.10056823671000E+00 0.10000000000000E+01
 d    1 1.00
 0.10970000000000E+01 0.10000000000000E+01
 d    1 1.00
 0.31800000000000E+00 0.10000000000000E+01
 d    1 1.00
 0.90985336424000E-01 0.10000000000000E+01
 f    1 1.00
 0.76100000000000E+00 0.10000000000000E+01
 
    3 0
 s    6 1.00
 0.13575349682000E+05 0.60645503603591E-03
 0.20352333680000E+04 0.46979088884982E-02
 0.46322562359000E+03 0.24332477647552E-01
 0.13120019598000E+03 0.97399968307759E-01
 0.42853015891000E+02 0.30195584253780E+00
 0.15584185766000E+02 0.66233609137875E+00
 s    2 1.00
 0.62067138508000E+01 0.65595308539952E+00
 0.25764896527000E+01 0.37585633285142E+00
 s    1 1.00
 0.57696339419000E+00 0.10000000000000E+01
 s    1 1.00
 0.22972831358000E+00 0.10000000000000E+01
 s    1 1.00
 0.95164440028000E-01 0.10000000000000E+01
 s    1 1.00
 0.48475401370000E-01 0.10000000000000E+01
 p    4 1.00
 0.34697232244000E+02 0.11327220003114E-01
 0.79582622826000E+01 0.76169659202087E-01
 0.23780826883000E+01 0.30192252202676E+00
 0.81433208183000E+00 0.72785027349547E+00
 p    1 1.00
 0.28887547253000E+00 0.10000000000000E+01
 p    1 1.00
 0.10056823671000E+00 0.10000000000000E+01
 d    1 1.00
 0.10970000000000E+01 0.10000000000000E+01
 d    1 1.00
 0.31800000000000E+00 0.10000000000000E+01
 d    1 1.00
 0.90985336424000E-01 0.10000000000000E+01
 f    1 1.00
 0.76100000000000E+00 0.10000000000000E+01
 
    4 0
 s    6 1.00
 0.13575349682000E+05 0.60645503603591E-03
 0.20352333680000E+04 0.46979088884982E-02
 0.46322562359000E+03 0.24332477647552E-01
 0.13120019598000E+03 0.97399968307759E-01
 0.42853015891000E+02 0.30195584253780E+00
 0.15584185766000E+02 0.66233609137875E+00
 s    2 1.00
 0.62067138508000E+01 0.65595308539952E+00
 0.25764896527000E+01 0.37585633285142E+00
 s    1 1.00
 0.57696339419000E+00 0.10000000000000E+01
 s    1 1.00
 0.22972831358000E+00 0.10000000000000E+01
 s    1 1.00
 0.95164440028000E-01 0.10000000000000E+01
 s    1 1.00
 0.48475401370000E-01 0.10000000000000E+01
 p    4 1.00
 0.34697232244000E+02 0.11327220003114E-01
 0.79582622826000E+01 0.76169659202087E-01
 0.23780826883000E+01 0.30192252202676E+00
 0.81433208183000E+00 0.72785027349547E+00
 p    1 1.00
 0.28887547253000E+00 0.10000000000000E+01
 p    1 1.00
 0.10056823671000E+00 0.10000000000000E+01
 d    1 1.00
 0.10970000000000E+01 0.10000000000000E+01
 d    1 1.00
 0.31800000000000E+00 0.10000000000000E+01
 d    1 1.00
 0.90985336424000E-01 0.10000000000000E+01
 f    1 1.00
 0.76100000000000E+00 0.10000000000000E+01
 
    5 0
 s    6 1.00
 0.13575349682000E+05 0.60645503603591E-03
 0.20352333680000E+04 0.46979088884982E-02
 0.46322562359000E+03 0.24332477647552E-01
 0.13120019598000E+03 0.97399968307759E-01
 0.42853015891000E+02 0.30195584253780E+00
 0.15584185766000E+02 0.66233609137875E+00
 s    2 1.00
 0.62067138508000E+01 0.65595308539952E+00
 0.25764896527000E+01 0.37585633285142E+00
 s    1 1.00
 0.57696339419000E+00 0.10000000000000E+01
 s    1 1.00
 0.22972831358000E+00 0.10000000000000E+01
 s    1 1.00
 0.95164440028000E-01 0.10000000000000E+01
 s    1 1.00
 0.48475401370000E-01 0.10000000000000E+01
 p    4 1.00
 0.34697232244000E+02 0.11327220003114E-01
 0.79582622826000E+01 0.76169659202087E-01
 0.23780826883000E+01 0.30192252202676E+00
 0.81433208183000E+00 0.72785027349547E+00
 p    1 1.00
 0.28887547253000E+00 0.10000000000000E+01
 p    1 1.00
 0.10056823671000E+00 0.10000000000000E+01
 d    1 1.00
 0.10970000000000E+01 0.10000000000000E+01
 d    1 1.00
 0.31800000000000E+00 0.10000000000000E+01
 d    1 1.00
 0.90985336424000E-01 0.10000000000000E+01
 f    1 1.00
 0.76100000000000E+00 0.10000000000000E+01
 
    6 0
 s    6 1.00
 0.13575349682000E+05 0.60645503603591E-03
 0.20352333680000E+04 0.46979088884982E-02
 0.46322562359000E+03 0.24332477647552E-01
 0.13120019598000E+03 0.97399968307759E-01
 0.42853015891000E+02 0.30195584253780E+00
 0.15584185766000E+02 0.66233609137875E+00
 s    2 1.00
 0.62067138508000E+01 0.65595308539952E+00
 0.25764896527000E+01 0.37585633285142E+00
 s    1 1.00
 0.57696339419000E+00 0.10000000000000E+01
 s    1 1.00
 0.22972831358000E+00 0.10000000000000E+01
 s    1 1.00
 0.95164440028000E-01 0.10000000000000E+01
 s    1 1.00
 0.48475401370000E-01 0.10000000000000E+01
 p    4 1.00
 0.34697232244000E+02 0.11327220003114E-01
 0.79582622826000E+01 0.76169659202087E-01
 0.23780826883000E+01 0.30192252202676E+00
 0.81433208183000E+00 0.72785027349547E+00
 p    1 1.00
 0.28887547253000E+00 0.10000000000000E+01
 p    1 1.00
 0.10056823671000E+00 0.10000000000000E+01
 d    1 1.00
 0.10970000000000E+01 0.10000000000000E+01
 d    1 1.00
 0.31800000000000E+00 0.10000000000000E+01
 d    1 1.00
 0.90985336424000E-01 0.10000000000000E+01
 f    1 1.00
 0.76100000000000E+00 0.10000000000000E+01
 
    7 0
 s    3 1.00
 0.34061341000000E+02 0.25439307208879E-01
 0.51235746000000E+01 0.19008594890375E+00
 0.11646626000000E+01 0.85244113011042E+00
 s    1 1.00
 0.32723041000000E+00 0.10000000000000E+01
 s    1 1.00
 0.10307241000000E+00 0.10000000000000E+01
 p    1 1.00
 0.80000000000000E+00 0.10000000000000E+01
 p    1 1.00
 0.95774129632000E-01 0.10000000000000E+01
 
    8 0
 s    3 1.00
 0.34061341000000E+02 0.25439307208879E-01
 0.51235746000000E+01 0.19008594890375E+00
 0.11646626000000E+01 0.85244113011042E+00
 s    1 1.00
 0.32723041000000E+00 0.10000000000000E+01
 s    1 1.00
 0.10307241000000E+00 0.10000000000000E+01
 p    1 1.00
 0.80000000000000E+00 0.10000000000000E+01
 p    1 1.00
 0.95774129632000E-01 0.10000000000000E+01
 
    9 0
 s    3 1.00
 0.34061341000000E+02 0.25439307208879E-01
 0.51235746000000E+01 0.19008594890375E+00
 0.11646626000000E+01 0.85244113011042E+00
 s    1 1.00
 0.32723041000000E+00 0.10000000000000E+01
 s    1 1.00
 0.10307241000000E+00 0.10000000000000E+01
 p    1 1.00
 0.80000000000000E+00 0.10000000000000E+01
 p    1 1.00
 0.95774129632000E-01 0.10000000000000E+01
 
   10 0
 s    3 1.00
 0.34061341000000E+02 0.25439307208879E-01
 0.51235746000000E+01 0.19008594890375E+00
 0.11646626000000E+01 0.85244113011042E+00
 s    1 1.00
 0.32723041000000E+00 0.10000000000000E+01
 s    1 1.00
 0.10307241000000E+00 0.10000000000000E+01
 p    1 1.00
 0.80000000000000E+00 0.10000000000000E+01
 p    1 1.00
 0.95774129632000E-01 0.10000000000000E+01
 
   11 0
 s    6 1.00
 0.19730800647000E+05 0.58626402628763E-03
 0.29578958745000E+04 0.45428820586397E-02
 0.67322133595000E+03 0.23558413450084E-01
 0.19068249494000E+03 0.94709193292923E-01
 0.62295441898000E+02 0.29719784913376E+00
 0.22654161182000E+02 0.66916246895232E+00
 s    2 1.00
 0.89791477428000E+01 0.64596683630063E+00
 0.36863002370000E+01 0.38700574393705E+00
 s    1 1.00
 0.84660076805000E+00 0.10000000000000E+01
 s    1 1.00
 0.33647133771000E+00 0.10000000000000E+01
 s    1 1.00
 0.13647653675000E+00 0.10000000000000E+01
 s    1 1.00
 0.68441605847000E-01 0.10000000000000E+01
 p    4 1.00
 0.49200380510000E+02 0.11448825101764E-01
 0.11346790537000E+02 0.78422337970864E-01
 0.34273972411000E+01 0.30818094738830E+00
 0.11785525134000E+01 0.72027196368413E+00
 p    1 1.00
 0.41642204972000E+00 0.10000000000000E+01
 p    1 1.00
 0.14260826011000E+00 0.10000000000000E+01
 d    1 1.00
 0.16540000000000E+01 0.10000000000000E+01
 d    1 1.00
 0.46900000000000E+00 0.10000000000000E+01
 d    1 1.00
 0.12829642058000E+00 0.10000000000000E+01
 f    1 1.00
 0.10930000000000E+01 0.10000000000000E+01
 
   12 0
 s    6 1.00
 0.27032382631000E+05 0.57227335211155E-03
 0.40523871392000E+04 0.44353233492995E-02
 0.92232722710000E+03 0.23020107706038E-01
 0.26124070989000E+03 0.92822490667928E-01
 0.85354641351000E+02 0.29378500009671E+00
 0.31035035245000E+02 0.67401604501641E+00
 s    2 1.00
 0.12260860728000E+02 0.63839937025506E+00
 0.49987076005000E+01 0.39534587125718E+00
 s    1 1.00
 0.11703108158000E+01 0.10000000000000E+01
 s    1 1.00
 0.46474740994000E+00 0.10000000000000E+01
 s    1 1.00
 0.18504536357000E+00 0.10000000000000E+01
 s    1 1.00
 0.70288026270000E-01 0.10000000000000E+01
 p    4 1.00
 0.63274954801000E+02 0.12018332222616E-01
 0.14627049379000E+02 0.83005421790056E-01
 0.44501223456000E+01 0.31991743925964E+00
 0.15275799647000E+01 0.70715542916104E+00
 p    1 1.00
 0.52935117943000E+00 0.10000000000000E+01
 p    1 1.00
 0.17478421270000E+00 0.10000000000000E+01
 p    1 1.00
 0.51112745706000E-01 0.10000000000000E+01
 d    1 1.00
 0.23140000000000E+01 0.10000000000000E+01
 d    1 1.00
 0.64500000000000E+00 0.10000000000000E+01
 d    1 1.00
 0.14696477366000E+00 0.10000000000000E+01
 f    1 1.00
 0.14280000000000E+01 0.10000000000000E+01
 
   13 0
 s    6 1.00
 0.27032382631000E+05 0.57227335211155E-03
 0.40523871392000E+04 0.44353233492995E-02
 0.92232722710000E+03 0.23020107706038E-01
 0.26124070989000E+03 0.92822490667928E-01
 0.85354641351000E+02 0.29378500009671E+00
 0.31035035245000E+02 0.67401604501641E+00
 s    2 1.00
 0.12260860728000E+02 0.63839937025506E+00
 0.49987076005000E+01 0.39534587125718E+00
 s    1 1.00
 0.11703108158000E+01 0.10000000000000E+01
 s    1 1.00
 0.46474740994000E+00 0.10000000000000E+01
 s    1 1.00
 0.18504536357000E+00 0.10000000000000E+01
 s    1 1.00
 0.70288026270000E-01 0.10000000000000E+01
 p    4 1.00
 0.63274954801000E+02 0.12018332222616E-01
 0.14627049379000E+02 0.83005421790056E-01
 0.44501223456000E+01 0.31991743925964E+00
 0.15275799647000E+01 0.70715542916104E+00
 p    1 1.00
 0.52935117943000E+00 0.10000000000000E+01
 p    1 1.00
 0.17478421270000E+00 0.10000000000000E+01
 p    1 1.00
 0.51112745706000E-01 0.10000000000000E+01
 d    1 1.00
 0.23140000000000E+01 0.10000000000000E+01
 d    1 1.00
 0.64500000000000E+00 0.10000000000000E+01
 d    1 1.00
 0.14696477366000E+00 0.10000000000000E+01
 f    1 1.00
 0.14280000000000E+01 0.10000000000000E+01
 
   14 0
 s    6 1.00
 0.19730800647000E+05 0.58626402628763E-03
 0.29578958745000E+04 0.45428820586397E-02
 0.67322133595000E+03 0.23558413450084E-01
 0.19068249494000E+03 0.94709193292923E-01
 0.62295441898000E+02 0.29719784913376E+00
 0.22654161182000E+02 0.66916246895232E+00
 s    2 1.00
 0.89791477428000E+01 0.64596683630063E+00
 0.36863002370000E+01 0.38700574393705E+00
 s    1 1.00
 0.84660076805000E+00 0.10000000000000E+01
 s    1 1.00
 0.33647133771000E+00 0.10000000000000E+01
 s    1 1.00
 0.13647653675000E+00 0.10000000000000E+01
 s    1 1.00
 0.68441605847000E-01 0.10000000000000E+01
 p    4 1.00
 0.49200380510000E+02 0.11448825101764E-01
 0.11346790537000E+02 0.78422337970864E-01
 0.34273972411000E+01 0.30818094738830E+00
 0.11785525134000E+01 0.72027196368413E+00
 p    1 1.00
 0.41642204972000E+00 0.10000000000000E+01
 p    1 1.00
 0.14260826011000E+00 0.10000000000000E+01
 d    1 1.00
 0.16540000000000E+01 0.10000000000000E+01
 d    1 1.00
 0.46900000000000E+00 0.10000000000000E+01
 d    1 1.00
 0.12829642058000E+00 0.10000000000000E+01
 f    1 1.00
 0.10930000000000E+01 0.10000000000000E+01
 
   15 0
 s    3 1.00
 0.34061341000000E+02 0.25439307208879E-01
 0.51235746000000E+01 0.19008594890375E+00
 0.11646626000000E+01 0.85244113011042E+00
 s    1 1.00
 0.32723041000000E+00 0.10000000000000E+01
 s    1 1.00
 0.10307241000000E+00 0.10000000000000E+01
 p    1 1.00
 0.80000000000000E+00 0.10000000000000E+01
 p    1 1.00
 0.95774129632000E-01 0.10000000000000E+01
 
   16 0
 s    3 1.00
 0.34061341000000E+02 0.25439307208879E-01
 0.51235746000000E+01 0.19008594890375E+00
 0.11646626000000E+01 0.85244113011042E+00
 s    1 1.00
 0.32723041000000E+00 0.10000000000000E+01
 s    1 1.00
 0.10307241000000E+00 0.10000000000000E+01
 p    1 1.00
 0.80000000000000E+00 0.10000000000000E+01
 p    1 1.00
 0.95774129632000E-01 0.10000000000000E+01
 
[MO]
 Sym= X
 Ene= -0.871728
 Spin= Alpha
 Occup= -0.871728
         1   -3.040611E-04
         2   -7.052115E-04
         3    2.090936E-03
         4   -5.705048E-03
         5    7.485157E-02
         6   -1.997375E-02
         7    2.439635E-03
         8    5.479224E-04
         9    4.174720E-02
        10   -5.203572E-03
        11    1.168270E-03
        12    3.965694E-02
        13   -4.244217E-02
        14    2.440515E-02
        15    2.261589E-02
        16   -2.546685E-05
        17    2.288826E-06
        18    2.317802E-05
        19   -1.183214E-05
        20   -5.976884E-03
        21    3.992733E-03
        22   -1.185135E-03
        23    7.193490E-04
        24    4.657863E-04
        25   -1.248512E-03
        26   -1.366101E-02
        27    7.437517E-03
        28   -1.740994E-03
        29    1.335848E-03
        30    4.051461E-04
        31    3.282224E-03
        32    4.474687E-03
        33   -9.598671E-03
        34   -3.870126E-05
        35    1.179072E-05
        36   -1.904586E-04
        37    1.732526E-05
        38   -8.720987E-06
        39   -6.513582E-04
        40    3.459793E-05
        41   -7.097928E-06
        42    9.068852E-04
        43   -6.825343E-04
        44    1.085766E-04
        45    2.392015E-04
        46    1.424569E-04
        47   -6.856436E-03
        48   -8.924617E-02
        49    1.043950E-02
        50    1.521515E-03
        51    1.204531E-06
        52    2.040549E-01
        53   -2.501945E-04
        54    8.476027E-07
        55    2.109148E-01
        56   -1.616238E-02
        57   -1.264339E-05
        58    1.899975E-01
        59    2.943091E-05
        60   -2.702693E-05
        61   -2.403981E-06
        62    3.633091E-08
        63    1.830434E-04
        64   -3.188106E-08
        65    6.456493E-04
        66   -1.106078E-03
        67    4.604292E-04
        68   -1.218161E-08
        69   -1.328716E-03
        70   -7.548125E-08
        71    2.681335E-02
        72   -2.961524E-02
        73    2.801888E-03
        74   -1.670447E-06
        75    3.182538E-03
        76    5.687123E-07
        77    1.996158E-05
        78    1.506554E-08
        79   -1.162044E-03
        80   -1.841704E-05
        81   -4.333647E-09
        82    6.108761E-04
        83   -8.364232E-06
        84   -1.587890E-08
        85    9.481694E-04
        86   -3.600143E-09
        87   -3.041495E-04
        88   -7.054096E-04
        89    2.091155E-03
        90   -5.704126E-03
        91    7.486907E-02
        92   -1.997600E-02
        93    2.438877E-03
        94   -5.479603E-04
        95    4.174601E-02
        96   -5.204565E-03
        97   -1.168581E-03
        98    3.965580E-02
        99   -4.245671E-02
       100   -2.441723E-02
       101    2.261535E-02
       102   -2.549772E-05
       103    2.269350E-06
       104    2.322837E-05
       105    1.177915E-05
       106   -5.976867E-03
       107   -3.992714E-03
       108   -1.185242E-03
       109    7.193879E-04
       110    4.658540E-04
       111    1.248513E-03
       112   -1.366091E-02
       113   -7.437504E-03
       114   -1.742992E-03
       115    1.337984E-03
       116    4.050085E-04
       117   -3.281272E-03
       118    4.475428E-03
       119    9.599271E-03
       120   -3.869749E-05
       121   -1.177911E-05
       122   -1.904600E-04
       123    1.732735E-05
       124    8.717168E-06
       125   -6.513519E-04
       126    3.459077E-05
       127    7.086170E-06
       128    9.068808E-04
       129    6.825330E-04
       130    2.634147E-04
       131    5.789226E-04
       132    5.559238E-04
       133   -1.676483E-02
       134   -2.642870E-02
       135    2.458333E-02
       136   -2.027389E-03
       137    9.481727E-04
       138   -1.472247E-01
       139   -1.593415E-02
       140    1.046820E-02
       141   -1.496754E-01
       142   -6.169003E-03
       143   -1.368722E-02
       144   -9.633486E-02
       145    2.139606E-04
       146   -2.671832E-04
       147    5.322258E-05
       148    1.784330E-05
       149   -1.554080E-03
       150    3.223927E-03
       151    1.276202E-03
       152   -1.378077E-03
       153    1.018748E-04
       154    2.770403E-03
       155   -5.889069E-03
       156    5.213880E-03
       157    1.029810E-02
       158   -6.851043E-03
       159   -3.447055E-03
       160   -2.245258E-02
       161    5.443282E-03
       162   -1.033702E-02
       163   -3.065340E-05
       164    1.524694E-05
       165    8.341172E-04
       166   -2.662418E-05
       167    2.832073E-05
       168   -1.276715E-04
       169    6.775004E-05
       170   -4.877664E-05
       171   -9.914142E-04
       172    3.871968E-04
       173   -1.760429E-03
       174   -4.004540E-03
       175    3.663423E-03
       176    3.845081E-02
       177   -1.109540E-01
       178    8.996618E-03
       179    1.385870E-02
       180   -2.895266E-07
       181   -1.294444E-01
       182   -4.427196E-05
       183   -4.525758E-07
       184   -1.328406E-01
       185   -8.526637E-02
       186    4.044806E-06
       187   -1.372989E-01
       188    7.787392E-04
       189   -4.506223E-04
       190   -3.281169E-04
       191    1.425818E-08
       192    9.269420E-03
       193    1.223564E-07
       194   -3.015400E-03
       195    6.724436E-03
       196   -3.709036E-03
       197   -5.278773E-08
       198    2.311383E-02
       199    1.878114E-07
       200   -1.939346E-02
       201    2.020160E-02
       202   -8.081385E-04
       203   -2.921511E-07
       204    1.071359E-02
       205   -4.438932E-07
       206    1.873473E-04
       207   -1.044416E-08
       208    4.049248E-04
       209   -1.454703E-04
       210   -2.805405E-10
       211    9.685520E-04
       212   -1.058825E-04
       213    1.429285E-08
       214   -1.511816E-03
       215   -6.397599E-09
       216    2.634120E-04
       217    5.789187E-04
       218    5.558763E-04
       219   -1.676525E-02
       220   -2.643770E-02
       221    2.458321E-02
       222   -2.027979E-03
       223   -9.497773E-04
       224   -1.472275E-01
       225   -1.593439E-02
       226   -1.046984E-02
       227   -1.496783E-01
       228   -6.158519E-03
       229    1.369224E-02
       230   -9.633714E-02
       231    2.139793E-04
       232   -2.672504E-04
       233    5.327104E-05
       234   -1.785346E-05
       235   -1.554117E-03
       236   -3.223972E-03
       237    1.276213E-03
       238   -1.378126E-03
       239    1.019128E-04
       240   -2.770411E-03
       241   -5.889038E-03
       242   -5.213882E-03
       243    1.029730E-02
       244   -6.850034E-03
       245   -3.447268E-03
       246    2.245343E-02
       247    5.442278E-03
       248    1.033659E-02
       249   -3.065516E-05
       250   -1.526667E-05
       251    8.341314E-04
       252   -2.662818E-05
       253   -2.832345E-05
       254   -1.276711E-04
       255    6.775639E-05
       256    4.880584E-05
       257   -9.914336E-04
       258   -3.871864E-04
       259   -5.484491E-04
       260   -6.877311E-05
       261   -2.514978E-02
       262   -2.723492E-05
       263    3.865425E-05
       264    1.670690E-03
       265   -7.675099E-03
       266   -2.150752E-03
       267   -4.526949E-03
       268   -5.482054E-04
       269   -6.836976E-05
       270   -2.515081E-02
       271   -2.722713E-05
       272   -3.869632E-05
       273    1.670645E-03
       274   -7.675085E-03
       275    2.150676E-03
       276   -4.527078E-03
       277   -5.925866E-04
       278   -3.860880E-03
       279    6.251844E-02
       280   -3.839070E-05
       281    1.495001E-04
       282   -6.060566E-03
       283   -4.299836E-04
       284   -6.087919E-03
       285   -2.193929E-03
       286   -5.927010E-04
       287   -3.861195E-03
       288    6.252054E-02
       289   -3.839679E-05
       290   -1.495889E-04
       291   -6.060760E-03
       292   -4.298582E-04
       293    6.087926E-03
       294   -2.194156E-03
       295    1.721264E-05
       296    4.272033E-05
       297   -1.120091E-04
       298   -5.041668E-04
       299   -1.786970E-02
       300   -4.985374E-03
       301   -1.434408E-04
       302   -9.440088E-08
       303    2.671463E-03
       304   -6.998027E-04
       305   -5.966020E-08
       306    5.304491E-03
       307   -5.303774E-03
       308    1.122602E-07
       309   -2.339503E-03
       310   -4.745781E-05
       311    7.040336E-05
       312   -2.294555E-05
       313   -7.882758E-08
       314    4.081567E-03
       315    7.527628E-09
       316   -2.182510E-04
       317    3.080717E-04
       318   -8.982063E-05
       319   -2.066328E-07
       320    1.206000E-02
       321    2.155778E-08
       322    1.866168E-04
       323    4.238657E-03
       324   -4.425274E-03
       325    2.877910E-07
       326    3.187398E-03
       327   -7.509957E-08
       328    9.246356E-06
       329   -8.349085E-09
       330    2.659564E-05
       331   -7.600728E-06
       332    3.121306E-08
       333    6.618634E-04
       334   -4.804560E-06
       335   -2.001158E-08
       336   -6.975452E-04
       337   -2.185883E-09
       338   -9.150451E-05
       339   -2.177148E-04
       340    2.377292E-04
       341    1.173367E-03
       342   -1.047225E-02
       343   -2.333578E-03
       344    1.463009E-03
       345    6.324122E-04
       346   -7.148390E-02
       347    1.021988E-03
       348    8.019512E-04
       349   -6.617903E-02
       350   -2.357687E-04
       351    1.541536E-03
       352   -5.002756E-02
       353   -4.976618E-04
       354    3.474930E-04
       355   -5.363010E-03
       356    9.741545E-06
       357   -9.261706E-06
       358   -4.798391E-07
       359   -1.108728E-05
       360   -7.406641E-05
       361    5.924265E-04
       362    1.118203E-05
       363   -2.960239E-05
       364    1.842036E-05
       365   -1.282321E-05
       366   -7.314467E-04
       367    1.858669E-03
       368   -3.965920E-05
       369   -8.945665E-05
       370    1.291158E-04
       371   -1.873626E-04
       372   -1.027927E-03
       373    4.147740E-04
       374   -5.184534E-07
       375    5.769752E-06
       376    7.852183E-05
       377    1.604619E-06
       378   -6.047224E-06
       379    8.813146E-05
       380   -9.090408E-07
       381   -1.693711E-06
       382   -1.934795E-04
       383    1.526184E-04
       384   -9.154829E-05
       385   -2.178222E-04
       386    2.378943E-04
       387    1.173655E-03
       388   -1.047248E-02
       389   -2.333966E-03
       390    1.468638E-03
       391   -6.336010E-04
       392   -7.148434E-02
       393    1.027101E-03
       394   -8.029619E-04
       395   -6.617942E-02
       396   -2.317548E-04
       397   -1.542527E-03
       398   -5.002823E-02
       399   -4.974809E-04
       400   -3.472591E-04
       401   -5.363078E-03
       402    9.766768E-06
       403   -9.261815E-06
       404   -5.049535E-07
       405    1.110992E-05
       406   -7.406725E-05
       407   -5.924293E-04
       408    1.128395E-05
       409   -2.960763E-05
       410    1.832368E-05
       411    1.292517E-05
       412   -7.314536E-04
       413   -1.858688E-03
       414   -3.952002E-05
       415   -8.959475E-05
       416    1.291148E-04
       417    1.874966E-04
       418   -1.027964E-03
       419   -4.147952E-04
       420   -5.208108E-07
       421   -5.769744E-06
       422    7.852238E-05
       423    1.613670E-06
       424    6.062003E-06
       425    8.813198E-05
       426   -9.149290E-07
       427    1.678921E-06
       428   -1.934808E-04
       429   -1.526195E-04
       430    8.461440E-03
       431    2.004619E-02
       432   -3.083930E-02
       433   -5.201871E-02
       434   -2.428776E-03
       435   -9.875156E-02
       436   -2.994448E-02
       437    2.394630E-07
       438    2.507425E-01
       439   -3.397479E-02
       440    3.464350E-07
       441    2.463853E-01
       442   -4.291852E-02
       443    6.538279E-07
       444    2.011828E-01
       445   -2.350106E-04
       446   -1.120583E-04
       447    3.470689E-04
       448    1.439153E-08
       449    1.109516E-03
       450   -9.153498E-09
       451   -4.656284E-04
       452   -2.810278E-03
       453    3.275907E-03
       454    1.092977E-08
       455    4.122759E-03
       456    1.386750E-08
       457   -4.090051E-03
       458   -7.944344E-03
       459    1.203439E-02
       460   -7.650843E-08
       461    2.393986E-03
       462    1.183094E-07
       463   -2.240846E-04
       464    3.693699E-09
       465   -8.974745E-04
       466   -1.637750E-04
       467   -1.462422E-11
       468    4.219609E-04
       469    4.644160E-04
       470   -4.940994E-09
       471    7.821275E-04
       472    9.915209E-10
       473    1.425296E-02
       474    2.961933E-02
       475    6.396998E-02
       476   -3.516788E-03
       477   -2.924226E-03
       478    1.256695E-02
       479   -1.262716E-03
       480   -7.175720E-03
       481    1.502244E-02
       482    1.425282E-02
       483    2.961924E-02
       484    6.396985E-02
       485   -3.516796E-03
       486    2.924284E-03
       487    1.256699E-02
       488   -1.262736E-03
       489    7.175744E-03
       490    1.502247E-02
 Sym= X
 Ene= 0.871728
 Spin= Alpha
 Occup= 0.871728
         1   -1.501027E-02
         2   -3.359153E-02
         3    2.899121E-02
         4    4.111491E-01
         5    3.449726E+00
         6   -3.126673E+00
         7   -9.871355E-03
         8   -2.423247E-02
         9   -1.734301E-02
        10   -2.741344E-02
        11   -1.190622E-02
        12   -1.899164E-02
        13   -7.825833E-01
        14   -2.756226E-01
        15   -8.507205E-02
        16    2.410403E-03
        17   -7.343160E-04
        18   -1.676087E-03
        19   -1.511247E-03
        20   -1.659039E-03
        21    1.649317E-03
        22    1.143249E-02
        23    2.316370E-03
        24   -1.374886E-02
        25   -1.048712E-02
        26   -4.371617E-03
        27    3.747328E-03
        28   -3.930643E-01
        29    1.184152E-01
        30    2.746492E-01
        31    4.769653E-01
        32   -1.645773E-02
        33   -2.027873E-02
        34    5.395633E-04
        35    7.846005E-06
        36    2.977983E-06
        37   -9.567091E-04
        38   -1.020650E-05
        39   -1.876682E-04
        40    2.328090E-04
        41   -3.200173E-07
        42    1.836728E-04
        43   -4.294707E-05
        44   -5.397979E-03
        45   -1.142266E-02
        46    5.449901E-03
        47    2.152282E-01
        48    2.656576E+00
        49    1.571332E+00
        50   -1.909264E-02
        51    5.068339E-07
        52    5.144829E-02
        53   -9.168442E-02
        54    2.127456E-06
        55    5.425607E-02
        56   -2.148896E+00
        57    1.997742E-04
        58    1.383055E-01
        59   -1.282817E-03
        60    3.916052E-03
        61   -2.633235E-03
        62   -5.409084E-08