[Molden Format]
[Title]
ADC(2) - opt by CAM-B3LYP gaussian                                              
[Atoms] AU
 c     1    6 -.12594776649128E+01 -.22773101438193E+01 -.39940542897370E-01
 c     2    6 -.25470425655544E+01 -.11810788300000E-05 -.37653974276580E-01
 c     3    6 -.12594776649128E+01 0.22773077816617E+01 -.39959440158700E-01
 c     4    6 0.13393870965995E+01 0.22758904870620E+01 -.43795584208460E-01
 c     5    6 0.26846831306008E+01 -.11810788300000E-05 -.44211323957690E-01
 c     6    6 0.13394059938609E+01 -.22758928492196E+01 -.43776686947130E-01
 h     7    1 -.23144739703802E+01 -.40231336316857E+01 -.37313823572660E-01
 h     8    1 -.23144739703802E+01 0.40231312695281E+01 -.37332720833990E-01
 h     9    1 0.23577983041343E+01 0.40499086888311E+01 -.52469427158400E-01
 h    10    1 0.23577983041343E+01 -.40498921537274E+01 -.52431632635740E-01
 n    11    7 -.52968964450843E+01 -.11810788300000E-05 -.29906097131750E-01
 o    12    8 -.63725096626615E+01 0.20302827815708E+01 -.26599076399200E-01
 o    13    8 -.63725096626615E+01 -.20302851437285E+01 -.26655768183180E-01
 n    14    7 0.52734000627795E+01 -.11810788300000E-05 -.11796733492422E+00
 h    15    1 0.61922038058499E+01 0.16034881344586E+01 0.31500671664254E+00
 h    16    1 0.61921849085885E+01 -.16034904966163E+01 0.31500671664254E+00
[GTO]
    1 0
 s    6 1.00
 0.13575349682000E+05 0.60645503603591E-03
 0.20352333680000E+04 0.46979088884982E-02
 0.46322562359000E+03 0.24332477647552E-01
 0.13120019598000E+03 0.97399968307759E-01
 0.42853015891000E+02 0.30195584253780E+00
 0.15584185766000E+02 0.66233609137875E+00
 s    2 1.00
 0.62067138508000E+01 0.65595308539952E+00
 0.25764896527000E+01 0.37585633285142E+00
 s    1 1.00
 0.57696339419000E+00 0.10000000000000E+01
 s    1 1.00
 0.22972831358000E+00 0.10000000000000E+01
 s    1 1.00
 0.95164440028000E-01 0.10000000000000E+01
 s    1 1.00
 0.48475401370000E-01 0.10000000000000E+01
 p    4 1.00
 0.34697232244000E+02 0.11327220003114E-01
 0.79582622826000E+01 0.76169659202087E-01
 0.23780826883000E+01 0.30192252202676E+00
 0.81433208183000E+00 0.72785027349547E+00
 p    1 1.00
 0.28887547253000E+00 0.10000000000000E+01
 p    1 1.00
 0.10056823671000E+00 0.10000000000000E+01
 d    1 1.00
 0.10970000000000E+01 0.10000000000000E+01
 d    1 1.00
 0.31800000000000E+00 0.10000000000000E+01
 d    1 1.00
 0.90985336424000E-01 0.10000000000000E+01
 f    1 1.00
 0.76100000000000E+00 0.10000000000000E+01
 
    2 0
 s    6 1.00
 0.13575349682000E+05 0.60645503603591E-03
 0.20352333680000E+04 0.46979088884982E-02
 0.46322562359000E+03 0.24332477647552E-01
 0.13120019598000E+03 0.97399968307759E-01
 0.42853015891000E+02 0.30195584253780E+00
 0.15584185766000E+02 0.66233609137875E+00
 s    2 1.00
 0.62067138508000E+01 0.65595308539952E+00
 0.25764896527000E+01 0.37585633285142E+00
 s    1 1.00
 0.57696339419000E+00 0.10000000000000E+01
 s    1 1.00
 0.22972831358000E+00 0.10000000000000E+01
 s    1 1.00
 0.95164440028000E-01 0.10000000000000E+01
 s    1 1.00
 0.48475401370000E-01 0.10000000000000E+01
 p    4 1.00
 0.34697232244000E+02 0.11327220003114E-01
 0.79582622826000E+01 0.76169659202087E-01
 0.23780826883000E+01 0.30192252202676E+00
 0.81433208183000E+00 0.72785027349547E+00
 p    1 1.00
 0.28887547253000E+00 0.10000000000000E+01
 p    1 1.00
 0.10056823671000E+00 0.10000000000000E+01
 d    1 1.00
 0.10970000000000E+01 0.10000000000000E+01
 d    1 1.00
 0.31800000000000E+00 0.10000000000000E+01
 d    1 1.00
 0.90985336424000E-01 0.10000000000000E+01
 f    1 1.00
 0.76100000000000E+00 0.10000000000000E+01
 
    3 0
 s    6 1.00
 0.13575349682000E+05 0.60645503603591E-03
 0.20352333680000E+04 0.46979088884982E-02
 0.46322562359000E+03 0.24332477647552E-01
 0.13120019598000E+03 0.97399968307759E-01
 0.42853015891000E+02 0.30195584253780E+00
 0.15584185766000E+02 0.66233609137875E+00
 s    2 1.00
 0.62067138508000E+01 0.65595308539952E+00
 0.25764896527000E+01 0.37585633285142E+00
 s    1 1.00
 0.57696339419000E+00 0.10000000000000E+01
 s    1 1.00
 0.22972831358000E+00 0.10000000000000E+01
 s    1 1.00
 0.95164440028000E-01 0.10000000000000E+01
 s    1 1.00
 0.48475401370000E-01 0.10000000000000E+01
 p    4 1.00
 0.34697232244000E+02 0.11327220003114E-01
 0.79582622826000E+01 0.76169659202087E-01
 0.23780826883000E+01 0.30192252202676E+00
 0.81433208183000E+00 0.72785027349547E+00
 p    1 1.00
 0.28887547253000E+00 0.10000000000000E+01
 p    1 1.00
 0.10056823671000E+00 0.10000000000000E+01
 d    1 1.00
 0.10970000000000E+01 0.10000000000000E+01
 d    1 1.00
 0.31800000000000E+00 0.10000000000000E+01
 d    1 1.00
 0.90985336424000E-01 0.10000000000000E+01
 f    1 1.00
 0.76100000000000E+00 0.10000000000000E+01
 
    4 0
 s    6 1.00
 0.13575349682000E+05 0.60645503603591E-03
 0.20352333680000E+04 0.46979088884982E-02
 0.46322562359000E+03 0.24332477647552E-01
 0.13120019598000E+03 0.97399968307759E-01
 0.42853015891000E+02 0.30195584253780E+00
 0.15584185766000E+02 0.66233609137875E+00
 s    2 1.00
 0.62067138508000E+01 0.65595308539952E+00
 0.25764896527000E+01 0.37585633285142E+00
 s    1 1.00
 0.57696339419000E+00 0.10000000000000E+01
 s    1 1.00
 0.22972831358000E+00 0.10000000000000E+01
 s    1 1.00
 0.95164440028000E-01 0.10000000000000E+01
 s    1 1.00
 0.48475401370000E-01 0.10000000000000E+01
 p    4 1.00
 0.34697232244000E+02 0.11327220003114E-01
 0.79582622826000E+01 0.76169659202087E-01
 0.23780826883000E+01 0.30192252202676E+00
 0.81433208183000E+00 0.72785027349547E+00
 p    1 1.00
 0.28887547253000E+00 0.10000000000000E+01
 p    1 1.00
 0.10056823671000E+00 0.10000000000000E+01
 d    1 1.00
 0.10970000000000E+01 0.10000000000000E+01
 d    1 1.00
 0.31800000000000E+00 0.10000000000000E+01
 d    1 1.00
 0.90985336424000E-01 0.10000000000000E+01
 f    1 1.00
 0.76100000000000E+00 0.10000000000000E+01
 
    5 0
 s    6 1.00
 0.13575349682000E+05 0.60645503603591E-03
 0.20352333680000E+04 0.46979088884982E-02
 0.46322562359000E+03 0.24332477647552E-01
 0.13120019598000E+03 0.97399968307759E-01
 0.42853015891000E+02 0.30195584253780E+00
 0.15584185766000E+02 0.66233609137875E+00
 s    2 1.00
 0.62067138508000E+01 0.65595308539952E+00
 0.25764896527000E+01 0.37585633285142E+00
 s    1 1.00
 0.57696339419000E+00 0.10000000000000E+01
 s    1 1.00
 0.22972831358000E+00 0.10000000000000E+01
 s    1 1.00
 0.95164440028000E-01 0.10000000000000E+01
 s    1 1.00
 0.48475401370000E-01 0.10000000000000E+01
 p    4 1.00
 0.34697232244000E+02 0.11327220003114E-01
 0.79582622826000E+01 0.76169659202087E-01
 0.23780826883000E+01 0.30192252202676E+00
 0.81433208183000E+00 0.72785027349547E+00
 p    1 1.00
 0.28887547253000E+00 0.10000000000000E+01
 p    1 1.00
 0.10056823671000E+00 0.10000000000000E+01
 d    1 1.00
 0.10970000000000E+01 0.10000000000000E+01
 d    1 1.00
 0.31800000000000E+00 0.10000000000000E+01
 d    1 1.00
 0.90985336424000E-01 0.10000000000000E+01
 f    1 1.00
 0.76100000000000E+00 0.10000000000000E+01
 
    6 0
 s    6 1.00
 0.13575349682000E+05 0.60645503603591E-03
 0.20352333680000E+04 0.46979088884982E-02
 0.46322562359000E+03 0.24332477647552E-01
 0.13120019598000E+03 0.97399968307759E-01
 0.42853015891000E+02 0.30195584253780E+00
 0.15584185766000E+02 0.66233609137875E+00
 s    2 1.00
 0.62067138508000E+01 0.65595308539952E+00
 0.25764896527000E+01 0.37585633285142E+00
 s    1 1.00
 0.57696339419000E+00 0.10000000000000E+01
 s    1 1.00
 0.22972831358000E+00 0.10000000000000E+01
 s    1 1.00
 0.95164440028000E-01 0.10000000000000E+01
 s    1 1.00
 0.48475401370000E-01 0.10000000000000E+01
 p    4 1.00
 0.34697232244000E+02 0.11327220003114E-01
 0.79582622826000E+01 0.76169659202087E-01
 0.23780826883000E+01 0.30192252202676E+00
 0.81433208183000E+00 0.72785027349547E+00
 p    1 1.00
 0.28887547253000E+00 0.10000000000000E+01
 p    1 1.00
 0.10056823671000E+00 0.10000000000000E+01
 d    1 1.00
 0.10970000000000E+01 0.10000000000000E+01
 d    1 1.00
 0.31800000000000E+00 0.10000000000000E+01
 d    1 1.00
 0.90985336424000E-01 0.10000000000000E+01
 f    1 1.00
 0.76100000000000E+00 0.10000000000000E+01
 
    7 0
 s    3 1.00
 0.34061341000000E+02 0.25439307208879E-01
 0.51235746000000E+01 0.19008594890375E+00
 0.11646626000000E+01 0.85244113011042E+00
 s    1 1.00
 0.32723041000000E+00 0.10000000000000E+01
 s    1 1.00
 0.10307241000000E+00 0.10000000000000E+01
 p    1 1.00
 0.80000000000000E+00 0.10000000000000E+01
 p    1 1.00
 0.95774129632000E-01 0.10000000000000E+01
 
    8 0
 s    3 1.00
 0.34061341000000E+02 0.25439307208879E-01
 0.51235746000000E+01 0.19008594890375E+00
 0.11646626000000E+01 0.85244113011042E+00
 s    1 1.00
 0.32723041000000E+00 0.10000000000000E+01
 s    1 1.00
 0.10307241000000E+00 0.10000000000000E+01
 p    1 1.00
 0.80000000000000E+00 0.10000000000000E+01
 p    1 1.00
 0.95774129632000E-01 0.10000000000000E+01
 
    9 0
 s    3 1.00
 0.34061341000000E+02 0.25439307208879E-01
 0.51235746000000E+01 0.19008594890375E+00
 0.11646626000000E+01 0.85244113011042E+00
 s    1 1.00
 0.32723041000000E+00 0.10000000000000E+01
 s    1 1.00
 0.10307241000000E+00 0.10000000000000E+01
 p    1 1.00
 0.80000000000000E+00 0.10000000000000E+01
 p    1 1.00
 0.95774129632000E-01 0.10000000000000E+01
 
   10 0
 s    3 1.00
 0.34061341000000E+02 0.25439307208879E-01
 0.51235746000000E+01 0.19008594890375E+00
 0.11646626000000E+01 0.85244113011042E+00
 s    1 1.00
 0.32723041000000E+00 0.10000000000000E+01
 s    1 1.00
 0.10307241000000E+00 0.10000000000000E+01
 p    1 1.00
 0.80000000000000E+00 0.10000000000000E+01
 p    1 1.00
 0.95774129632000E-01 0.10000000000000E+01
 
   11 0
 s    6 1.00
 0.19730800647000E+05 0.58626402628763E-03
 0.29578958745000E+04 0.45428820586397E-02
 0.67322133595000E+03 0.23558413450084E-01
 0.19068249494000E+03 0.94709193292923E-01
 0.62295441898000E+02 0.29719784913376E+00
 0.22654161182000E+02 0.66916246895232E+00
 s    2 1.00
 0.89791477428000E+01 0.64596683630063E+00
 0.36863002370000E+01 0.38700574393705E+00
 s    1 1.00
 0.84660076805000E+00 0.10000000000000E+01
 s    1 1.00
 0.33647133771000E+00 0.10000000000000E+01
 s    1 1.00
 0.13647653675000E+00 0.10000000000000E+01
 s    1 1.00
 0.68441605847000E-01 0.10000000000000E+01
 p    4 1.00
 0.49200380510000E+02 0.11448825101764E-01
 0.11346790537000E+02 0.78422337970864E-01
 0.34273972411000E+01 0.30818094738830E+00
 0.11785525134000E+01 0.72027196368413E+00
 p    1 1.00
 0.41642204972000E+00 0.10000000000000E+01
 p    1 1.00
 0.14260826011000E+00 0.10000000000000E+01
 d    1 1.00
 0.16540000000000E+01 0.10000000000000E+01
 d    1 1.00
 0.46900000000000E+00 0.10000000000000E+01
 d    1 1.00
 0.12829642058000E+00 0.10000000000000E+01
 f    1 1.00
 0.10930000000000E+01 0.10000000000000E+01
 
   12 0
 s    6 1.00
 0.27032382631000E+05 0.57227335211155E-03
 0.40523871392000E+04 0.44353233492995E-02
 0.92232722710000E+03 0.23020107706038E-01
 0.26124070989000E+03 0.92822490667928E-01
 0.85354641351000E+02 0.29378500009671E+00
 0.31035035245000E+02 0.67401604501641E+00
 s    2 1.00
 0.12260860728000E+02 0.63839937025506E+00
 0.49987076005000E+01 0.39534587125718E+00
 s    1 1.00
 0.11703108158000E+01 0.10000000000000E+01
 s    1 1.00
 0.46474740994000E+00 0.10000000000000E+01
 s    1 1.00
 0.18504536357000E+00 0.10000000000000E+01
 s    1 1.00
 0.70288026270000E-01 0.10000000000000E+01
 p    4 1.00
 0.63274954801000E+02 0.12018332222616E-01
 0.14627049379000E+02 0.83005421790056E-01
 0.44501223456000E+01 0.31991743925964E+00
 0.15275799647000E+01 0.70715542916104E+00
 p    1 1.00
 0.52935117943000E+00 0.10000000000000E+01
 p    1 1.00
 0.17478421270000E+00 0.10000000000000E+01
 p    1 1.00
 0.51112745706000E-01 0.10000000000000E+01
 d    1 1.00
 0.23140000000000E+01 0.10000000000000E+01
 d    1 1.00
 0.64500000000000E+00 0.10000000000000E+01
 d    1 1.00
 0.14696477366000E+00 0.10000000000000E+01
 f    1 1.00
 0.14280000000000E+01 0.10000000000000E+01
 
   13 0
 s    6 1.00
 0.27032382631000E+05 0.57227335211155E-03
 0.40523871392000E+04 0.44353233492995E-02
 0.92232722710000E+03 0.23020107706038E-01
 0.26124070989000E+03 0.92822490667928E-01
 0.85354641351000E+02 0.29378500009671E+00
 0.31035035245000E+02 0.67401604501641E+00
 s    2 1.00
 0.12260860728000E+02 0.63839937025506E+00
 0.49987076005000E+01 0.39534587125718E+00
 s    1 1.00
 0.11703108158000E+01 0.10000000000000E+01
 s    1 1.00
 0.46474740994000E+00 0.10000000000000E+01
 s    1 1.00
 0.18504536357000E+00 0.10000000000000E+01
 s    1 1.00
 0.70288026270000E-01 0.10000000000000E+01
 p    4 1.00
 0.63274954801000E+02 0.12018332222616E-01
 0.14627049379000E+02 0.83005421790056E-01
 0.44501223456000E+01 0.31991743925964E+00
 0.15275799647000E+01 0.70715542916104E+00
 p    1 1.00
 0.52935117943000E+00 0.10000000000000E+01
 p    1 1.00
 0.17478421270000E+00 0.10000000000000E+01
 p    1 1.00
 0.51112745706000E-01 0.10000000000000E+01
 d    1 1.00
 0.23140000000000E+01 0.10000000000000E+01
 d    1 1.00
 0.64500000000000E+00 0.10000000000000E+01
 d    1 1.00
 0.14696477366000E+00 0.10000000000000E+01
 f    1 1.00
 0.14280000000000E+01 0.10000000000000E+01
 
   14 0
 s    6 1.00
 0.19730800647000E+05 0.58626402628763E-03
 0.29578958745000E+04 0.45428820586397E-02
 0.67322133595000E+03 0.23558413450084E-01
 0.19068249494000E+03 0.94709193292923E-01
 0.62295441898000E+02 0.29719784913376E+00
 0.22654161182000E+02 0.66916246895232E+00
 s    2 1.00
 0.89791477428000E+01 0.64596683630063E+00
 0.36863002370000E+01 0.38700574393705E+00
 s    1 1.00
 0.84660076805000E+00 0.10000000000000E+01
 s    1 1.00
 0.33647133771000E+00 0.10000000000000E+01
 s    1 1.00
 0.13647653675000E+00 0.10000000000000E+01
 s    1 1.00
 0.68441605847000E-01 0.10000000000000E+01
 p    4 1.00
 0.49200380510000E+02 0.11448825101764E-01
 0.11346790537000E+02 0.78422337970864E-01
 0.34273972411000E+01 0.30818094738830E+00
 0.11785525134000E+01 0.72027196368413E+00
 p    1 1.00
 0.41642204972000E+00 0.10000000000000E+01
 p    1 1.00
 0.14260826011000E+00 0.10000000000000E+01
 d    1 1.00
 0.16540000000000E+01 0.10000000000000E+01
 d    1 1.00
 0.46900000000000E+00 0.10000000000000E+01
 d    1 1.00
 0.12829642058000E+00 0.10000000000000E+01
 f    1 1.00
 0.10930000000000E+01 0.10000000000000E+01
 
   15 0
 s    3 1.00
 0.34061341000000E+02 0.25439307208879E-01
 0.51235746000000E+01 0.19008594890375E+00
 0.11646626000000E+01 0.85244113011042E+00
 s    1 1.00
 0.32723041000000E+00 0.10000000000000E+01
 s    1 1.00
 0.10307241000000E+00 0.10000000000000E+01
 p    1 1.00
 0.80000000000000E+00 0.10000000000000E+01
 p    1 1.00
 0.95774129632000E-01 0.10000000000000E+01
 
   16 0
 s    3 1.00
 0.34061341000000E+02 0.25439307208879E-01
 0.51235746000000E+01 0.19008594890375E+00
 0.11646626000000E+01 0.85244113011042E+00
 s    1 1.00
 0.32723041000000E+00 0.10000000000000E+01
 s    1 1.00
 0.10307241000000E+00 0.10000000000000E+01
 p    1 1.00
 0.80000000000000E+00 0.10000000000000E+01
 p    1 1.00
 0.95774129632000E-01 0.10000000000000E+01
 
[MO]
 Sym= X
 Ene= -0.896481
 Spin= Alpha
 Occup= -0.896481
         1    5.669997E-03
         2    1.301935E-02
         3   -2.706766E-02
         4    9.377914E-03
         5   -1.536027E-01
         6   -3.531703E-02
         7    3.455046E-02
         8    1.912702E-03
         9   -1.453500E-04
        10    4.604957E-02
        11    4.207520E-03
        12   -1.559934E-04
        13    2.837451E-02
        14   -4.937893E-02
        15   -3.409463E-04
        16    1.211910E-03
        17   -1.424529E-03
        18    2.126196E-04
        19    2.434801E-04
        20   -3.204690E-06
        21    5.499790E-07
        22    9.881336E-03
        23   -6.628132E-03
        24   -3.253204E-03
        25   -1.409499E-03
        26   -3.196812E-05
        27   -1.058631E-06
        28   -8.484707E-03
        29    5.051978E-03
        30    3.432729E-03
        31    8.500951E-03
        32   -6.130888E-05
        33    1.561690E-05
        34    3.425809E-05
        35   -1.366354E-04
        36    7.322763E-07
        37    5.489183E-05
        38    2.122476E-04
        39   -5.939096E-07
        40   -1.008539E-04
        41   -2.893200E-05
        42   -3.885421E-07
        43   -7.104977E-07
        44    2.522779E-08
        45    5.775805E-08
        46   -1.067313E-07
        47   -2.216230E-07
        48   -4.308907E-07
        49   -1.271382E-07
        50    2.111573E-07
        51    2.664545E-02
        52    4.466151E-06
        53    1.446592E-07
        54    3.748395E-02
        55    4.726023E-06
        56    1.281736E-06
        57   -1.203927E-01
        58    4.346816E-06
        59   -3.994918E-09
        60    4.134470E-09
        61   -1.395525E-10
        62    2.095695E-03
        63    3.333183E-08
        64   -1.084236E-06
        65    3.705693E-08
        66   -2.705010E-08
        67   -1.000684E-08
        68   -2.341548E-03
        69    1.751538E-08
        70    1.040554E-05
        71    7.733060E-07
        72   -7.725059E-07
        73   -8.000801E-10
        74   -2.480138E-02
        75   -6.597192E-09
        76    1.167215E-04
        77    1.520848E-09
        78    5.263242E-04
        79   -2.100131E-08
        80   -1.102343E-09
        81   -5.192075E-04
        82    1.596768E-08
        83   -9.380886E-10
        84   -1.869305E-04
        85    1.220853E-08
        86    1.163910E-06
        87   -5.669999E-03
        88   -1.301935E-02
        89    2.706774E-02
        90   -9.379961E-03
        91    1.536055E-01
        92    3.531714E-02
        93   -3.455035E-02
        94    1.912567E-03
        95    1.486060E-04
        96   -4.605079E-02
        97    4.207411E-03
        98    1.591711E-04
        99   -2.837648E-02
       100   -4.937835E-02
       101    3.423834E-04
       102   -1.211920E-03
       103    1.424536E-03
       104   -2.126160E-04
       105    2.434840E-04
       106    2.995818E-06
       107    3.467789E-07
       108   -9.881542E-03
       109    6.628238E-03
       110    3.253304E-03
       111   -1.409444E-03
       112    3.161440E-05
       113   -1.443962E-06
       114    8.484930E-03
       115   -5.052297E-03
       116   -3.432633E-03
       117    8.501157E-03
       118    6.099913E-05
       119    1.590731E-05
       120   -3.426169E-05
       121   -1.366372E-04
       122   -7.523673E-07
       123   -5.488974E-05
       124    2.122502E-04
       125    5.719459E-07
       126    1.008566E-04
       127   -2.893214E-05
       128    4.374608E-07
       129   -6.808217E-07
       130    2.758659E-03
       131    6.276380E-03
       132   -1.253545E-02
       133    1.301250E-02
       134   -7.437867E-02
       135   -1.178609E-02
       136    2.096256E-02
       137   -2.038854E-04
       138    5.093197E-05
       139   -8.846558E-03
       140    6.598026E-03
       141    5.545122E-05
       142   -5.066653E-03
       143    1.510006E-03
       144   -1.045823E-04
       145   -5.000345E-04
       146    4.140372E-04
       147    8.599724E-05
       148   -1.085485E-04
       149   -8.974037E-07
       150   -1.350391E-06
       151    5.324565E-03
       152   -3.581429E-03
       153   -1.743136E-03
       154    2.245474E-04
       155   -2.754831E-05
       156    1.900686E-05
       157    2.627837E-03
       158   -3.531715E-03
       159    9.038779E-04
       160   -1.621092E-03
       161    1.609970E-04
       162    1.699202E-05
       163   -2.835136E-05
       164    3.318151E-05
       165    1.475448E-07
       166    2.482001E-05
       167   -2.976154E-05
       168    1.622789E-07
       169    1.321733E-05
       170   -1.475613E-05
       171   -3.602309E-07
       172    1.210760E-06
       173   -7.041634E-09
       174   -1.649112E-08
       175   -1.356549E-10
       176    2.885447E-07
       177   -3.229617E-06
       178    3.980720E-07
       179    2.031708E-07
       180    9.061990E-03
       181   -2.531942E-06
       182   -7.586042E-09
       183    1.668090E-02
       184   -2.649106E-06
       185   -3.952630E-07
       186    2.789316E-02
       187   -2.706915E-06
       188    2.040314E-08
       189   -1.573684E-08
       190   -4.666301E-09
       191    1.635952E-04
       192    1.281697E-07
       193   -3.065094E-06
       194   -1.141752E-08
       195    4.514532E-08
       196   -3.372780E-08
       197   -3.167990E-03
       198    3.393864E-07
       199    5.328007E-05
       200   -6.707611E-07
       201    6.146138E-07
       202    5.614727E-08
       203   -1.069628E-03
       204    2.622433E-07
       205   -3.670972E-05
       206    2.641600E-09
       207    1.186744E-04
       208    9.526329E-09
       209   -2.443453E-09
       210   -1.058955E-04
       211    1.289124E-08
       212   -1.100625E-09
       213   -5.332289E-05
       214   -2.567216E-08
       215    2.517680E-07
       216   -2.758621E-03
       217   -6.276298E-03
       218    1.253522E-02
       219   -1.301059E-02
       220    7.437875E-02
       221    1.178596E-02
       222   -2.096281E-02
       223   -2.040039E-04
       224   -5.527721E-05
       225    8.844659E-03
       226    6.597803E-03
       227   -6.011063E-05
       228    5.065861E-03
       229    1.511320E-03
       230    1.024708E-04
       231    5.000458E-04
       232   -4.140491E-04
       233   -8.599671E-05
       234   -1.085520E-04
       235    7.895862E-07
       236   -1.459907E-06
       237   -5.324324E-03
       238    3.581288E-03
       239    1.743036E-03
       240    2.244653E-04
       241    2.729173E-05
       242    1.880458E-05
       243   -2.627956E-03
       244    3.531989E-03
       245   -9.040329E-04
       246   -1.620620E-03
       247   -1.612023E-04
       248    1.743562E-05
       249    2.834704E-05
       250    3.317989E-05
       251   -1.249028E-07
       252   -2.482091E-05
       253   -2.975974E-05
       254   -1.591561E-07
       255   -1.321064E-05
       256   -1.475575E-05
       257    3.267308E-07
       258    1.194534E-06
       259   -1.205344E-02
       260   -1.592450E-02
       261   -3.046564E-02
       262   -1.746411E-03
       263   -2.029852E-03
       264   -7.765848E-08
       265   -9.120642E-03
       266    1.837416E-03
       267    3.004837E-05
       268    1.205338E-02
       269    1.592442E-02
       270    3.046510E-02
       271    1.746406E-03
       272   -2.029847E-03
       273    1.687638E-07
       274    9.120440E-03
       275    1.837605E-03
       276   -3.034220E-05
       277    2.262062E-03
       278    4.423067E-03
       279    2.103251E-02
       280    2.496097E-04
       281   -2.881186E-04
       282    6.120493E-06
       283    1.619531E-03
       284   -2.795692E-03
       285   -3.564617E-05
       286   -2.262087E-03
       287   -4.423109E-03
       288   -2.103204E-02
       289   -2.496451E-04
       290   -2.881165E-04
       291   -6.307281E-06
       292   -1.619331E-03
       293   -2.795491E-03
       294    3.592528E-05
       295   -1.064081E-09
       296   -3.111596E-09
       297    2.289090E-08
       298   -9.634855E-08
       299   -3.527612E-07
       300   -1.721422E-07
       301   -1.026298E-07
       302    3.305404E-02
       303    4.914989E-07
       304   -1.255068E-07
       305    2.427249E-02
       306    4.556251E-07
       307   -6.082682E-08
       308   -9.231312E-03
       309   -1.257419E-07
       310   -1.901319E-08
       311    2.065742E-08
       312   -1.644232E-09
       313   -9.839287E-03
       314   -5.325956E-08
       315    2.974041E-05
       316   -5.548252E-08
       317    5.370274E-08
       318    1.779786E-09
       319   -2.701566E-02
       320   -1.037756E-07
       321    8.210288E-05
       322    2.407610E-09
       323    7.078923E-08
       324   -7.319684E-08
       325    5.033797E-03
       326    7.144058E-08
       327   -2.640052E-05
       328    2.423030E-10
       329   -2.234344E-03
       330   -1.913297E-09
       331   -1.206060E-10
       332    3.113095E-03
       333    5.698534E-08
       334   -2.044776E-10
       335   -1.154083E-04
       336   -5.441839E-08
       337   -1.127198E-05
       338   -1.768581E-03
       339   -4.475248E-03
       340    6.634588E-03
       341    1.707237E-03
       342    1.124743E-02
       343   -2.058024E-02
       344   -2.676779E-01
       345   -2.232547E-01
       346    7.976203E-04
       347   -2.425878E-01
       348   -1.956127E-01
       349    7.221873E-04
       350   -1.772503E-01
       351   -1.401563E-01
       352    5.392889E-04
       353   -3.016034E-02
       354   -1.484032E-02
       355    9.668026E-05
       356   -2.239357E-03
       357    2.831189E-03
       358   -5.918319E-04
       359    8.565106E-05
       360    5.532914E-06
       361   -2.914289E-07
       362   -6.938028E-03
       363    7.464675E-03
       364   -5.266473E-04
       365    1.245435E-03
       366    2.004796E-05
       367   -5.461384E-06
       368   -9.340276E-03
       369    7.730552E-03
       370    1.609725E-03
       371    4.416473E-04
       372    2.969768E-05
       373   -1.132012E-05
       374   -2.077959E-04
       375   -8.037846E-04
       376    9.335096E-07
       377    4.100241E-04
       378    9.140891E-04
       379    6.937839E-08
       380   -1.312367E-04
       381    1.643011E-04
       382   -1.321813E-06
       383   -2.630978E-06
       384    1.768574E-03
       385    4.475231E-03
       386   -6.634565E-03
       387   -1.707213E-03
       388   -1.124770E-02
       389    2.058021E-02
       390    2.676789E-01
       391   -2.232548E-01
       392   -8.071888E-04
       393    2.425886E-01
       394   -1.956129E-01
       395   -7.307222E-04
       396    1.772509E-01
       397   -1.401564E-01
       398   -5.454057E-04
       399    3.016038E-02
       400   -1.484034E-02
       401   -9.721329E-05
       402    2.239361E-03
       403   -2.831190E-03
       404    5.918298E-04
       405    8.565951E-05
       406   -5.533439E-06
       407   -4.296567E-07
       408    6.938041E-03
       409   -7.464681E-03
       410    5.266396E-04
       411    1.245456E-03
       412   -2.003228E-05
       413   -5.811083E-06
       414    9.340300E-03
       415   -7.730558E-03
       416   -1.609742E-03
       417    4.416591E-04
       418   -2.963381E-05
       419   -1.155733E-05
       420    2.077950E-04
       421   -8.037868E-04
       422   -9.215578E-07
       423   -4.100217E-04
       424    9.140924E-04
       425   -3.775601E-08
       426    1.312355E-04
       427    1.643007E-04
       428    1.274156E-06
       429   -2.657234E-06
       430    9.494408E-08
       431    2.253893E-07
       432   -3.536619E-07
       433   -5.994889E-07
       434    2.792835E-07
       435   -1.466384E-06
       436   -4.532955E-07
       437   -3.083541E-03
       438    3.331914E-06
       439   -5.216938E-07
       440   -1.720653E-03
       441    3.292608E-06
       442   -6.911484E-07
       443   -2.793431E-03
       444    2.827822E-06
       445   -3.239849E-09
       446   -7.183213E-10
       447    3.958170E-09
       448   -2.011722E-04
       449    2.623467E-08
       450   -5.288723E-05
       451   -3.896297E-09
       452   -3.345792E-08
       453    3.735422E-08
       454   -9.456834E-04
       455    8.563951E-08
       456   -7.660936E-05
       457   -6.778564E-08
       458   -1.118473E-07
       459    1.796330E-07
       460    1.039208E-03
       461    1.898983E-08
       462    4.329514E-05
       463   -3.792604E-09
       464   -4.168432E-05
       465   -1.054901E-08
       466   -1.997697E-09
       467    5.514871E-05
       468    2.973427E-09
       469    7.086009E-09
       470    7.766734E-07
       471    1.117955E-08
       472   -1.471542E-05
       473   -1.833850E-03
       474   -2.726772E-03
       475   -8.130291E-03
       476    7.811966E-05
       477    1.444525E-04
       478    4.291368E-05
       479    1.185213E-03
       480    1.024292E-03
       481    4.042360E-04
       482    1.834258E-03
       483    2.727571E-03
       484    8.132727E-03
       485   -7.821035E-05
       486    1.445363E-04
       487   -4.256988E-05
       488   -1.185364E-03
       489    1.024581E-03
       490   -4.037281E-04
 Sym= X
 Ene= 0.896481
 Spin= Alpha
 Occup= 0.896481
         1    2.111474E-05
         2    5.110956E-05
         3   -2.761294E-04
         4    1.225139E-03
         5    1.963537E-03
         6    2.194679E-03
         7   -3.096875E-04
         8   -5.306007E-05
         9   -9.783669E-02
        10    3.369027E-04
        11   -9.835064E-05
        12   -9.795775E-02
        13    2.398573E-02
        14   -2.525672E-02
        15   -5.942595E-02
        16   -2.788311E-06
        17    1.215430E-06
        18    1.572881E-06
        19   -9.346266E-06
        20   -2.982671E-04
        21   -3.235862E-05
        22    2.383865E-04
        23   -9.861281E-05
        24   -1.397737E-04
        25    1.198276E-04
        26    3.806569E-03
        27    1.628912E-03
        28    6.385140E-03
        29   -7.064365E-03
        30    6.792250E-04
        31   -1.151816E-03
        32    2.101894E-03
        33    1.487145E-02
        34    9.469337E-06
        35   -1.191628E-06
        36    1.512174E-04
        37   -8.549226E-06
        38   -2.263619E-06
        39    8.500158E-05
        40   -4.155223E-06
        41    3.862355E-06
        42   -2.878810E-04
        43   -1.225623E-04
        44   -6.269673E-06
        45   -1.707360E-05
        46    8.900075E-05
        47   -1.215630E-03
        48    8.882464E-02
        49    4.630246E-03
        50    6.042284E-05
        51    2.722493E-07
        52    2.849600E-02
        53   -1.360224E-04
        54    1.947240E-08
        55    2.649213E-02
        56    2.606307E-02
        57   -4.503146E-06
        58   -4.616370E-02
        59   -4.965185E-05
        60   -2.316698E-06
        61    5.196854E-05
        62    1.281197E-07