[Molden Format]
[Title]
ADC(2) - opt by CAM-B3LYP gaussian                                              
[Atoms] AU
 c     1    6 -.12594776649128E+01 -.22773101438193E+01 -.39940542897370E-01
 c     2    6 -.25470425655544E+01 -.11810788300000E-05 -.37653974276580E-01
 c     3    6 -.12594776649128E+01 0.22773077816617E+01 -.39959440158700E-01
 c     4    6 0.13393870965995E+01 0.22758904870620E+01 -.43795584208460E-01
 c     5    6 0.26846831306008E+01 -.11810788300000E-05 -.44211323957690E-01
 c     6    6 0.13394059938609E+01 -.22758928492196E+01 -.43776686947130E-01
 h     7    1 -.23144739703802E+01 -.40231336316857E+01 -.37313823572660E-01
 h     8    1 -.23144739703802E+01 0.40231312695281E+01 -.37332720833990E-01
 h     9    1 0.23577983041343E+01 0.40499086888311E+01 -.52469427158400E-01
 h    10    1 0.23577983041343E+01 -.40498921537274E+01 -.52431632635740E-01
 n    11    7 -.52968964450843E+01 -.11810788300000E-05 -.29906097131750E-01
 o    12    8 -.63725096626615E+01 0.20302827815708E+01 -.26599076399200E-01
 o    13    8 -.63725096626615E+01 -.20302851437285E+01 -.26655768183180E-01
 n    14    7 0.52734000627795E+01 -.11810788300000E-05 -.11796733492422E+00
 h    15    1 0.61922038058499E+01 0.16034881344586E+01 0.31500671664254E+00
 h    16    1 0.61921849085885E+01 -.16034904966163E+01 0.31500671664254E+00
[GTO]
    1 0
 s    6 1.00
 0.13575349682000E+05 0.60645503603591E-03
 0.20352333680000E+04 0.46979088884982E-02
 0.46322562359000E+03 0.24332477647552E-01
 0.13120019598000E+03 0.97399968307759E-01
 0.42853015891000E+02 0.30195584253780E+00
 0.15584185766000E+02 0.66233609137875E+00
 s    2 1.00
 0.62067138508000E+01 0.65595308539952E+00
 0.25764896527000E+01 0.37585633285142E+00
 s    1 1.00
 0.57696339419000E+00 0.10000000000000E+01
 s    1 1.00
 0.22972831358000E+00 0.10000000000000E+01
 s    1 1.00
 0.95164440028000E-01 0.10000000000000E+01
 s    1 1.00
 0.48475401370000E-01 0.10000000000000E+01
 p    4 1.00
 0.34697232244000E+02 0.11327220003114E-01
 0.79582622826000E+01 0.76169659202087E-01
 0.23780826883000E+01 0.30192252202676E+00
 0.81433208183000E+00 0.72785027349547E+00
 p    1 1.00
 0.28887547253000E+00 0.10000000000000E+01
 p    1 1.00
 0.10056823671000E+00 0.10000000000000E+01
 d    1 1.00
 0.10970000000000E+01 0.10000000000000E+01
 d    1 1.00
 0.31800000000000E+00 0.10000000000000E+01
 d    1 1.00
 0.90985336424000E-01 0.10000000000000E+01
 f    1 1.00
 0.76100000000000E+00 0.10000000000000E+01
 
    2 0
 s    6 1.00
 0.13575349682000E+05 0.60645503603591E-03
 0.20352333680000E+04 0.46979088884982E-02
 0.46322562359000E+03 0.24332477647552E-01
 0.13120019598000E+03 0.97399968307759E-01
 0.42853015891000E+02 0.30195584253780E+00
 0.15584185766000E+02 0.66233609137875E+00
 s    2 1.00
 0.62067138508000E+01 0.65595308539952E+00
 0.25764896527000E+01 0.37585633285142E+00
 s    1 1.00
 0.57696339419000E+00 0.10000000000000E+01
 s    1 1.00
 0.22972831358000E+00 0.10000000000000E+01
 s    1 1.00
 0.95164440028000E-01 0.10000000000000E+01
 s    1 1.00
 0.48475401370000E-01 0.10000000000000E+01
 p    4 1.00
 0.34697232244000E+02 0.11327220003114E-01
 0.79582622826000E+01 0.76169659202087E-01
 0.23780826883000E+01 0.30192252202676E+00
 0.81433208183000E+00 0.72785027349547E+00
 p    1 1.00
 0.28887547253000E+00 0.10000000000000E+01
 p    1 1.00
 0.10056823671000E+00 0.10000000000000E+01
 d    1 1.00
 0.10970000000000E+01 0.10000000000000E+01
 d    1 1.00
 0.31800000000000E+00 0.10000000000000E+01
 d    1 1.00
 0.90985336424000E-01 0.10000000000000E+01
 f    1 1.00
 0.76100000000000E+00 0.10000000000000E+01
 
    3 0
 s    6 1.00
 0.13575349682000E+05 0.60645503603591E-03
 0.20352333680000E+04 0.46979088884982E-02
 0.46322562359000E+03 0.24332477647552E-01
 0.13120019598000E+03 0.97399968307759E-01
 0.42853015891000E+02 0.30195584253780E+00
 0.15584185766000E+02 0.66233609137875E+00
 s    2 1.00
 0.62067138508000E+01 0.65595308539952E+00
 0.25764896527000E+01 0.37585633285142E+00
 s    1 1.00
 0.57696339419000E+00 0.10000000000000E+01
 s    1 1.00
 0.22972831358000E+00 0.10000000000000E+01
 s    1 1.00
 0.95164440028000E-01 0.10000000000000E+01
 s    1 1.00
 0.48475401370000E-01 0.10000000000000E+01
 p    4 1.00
 0.34697232244000E+02 0.11327220003114E-01
 0.79582622826000E+01 0.76169659202087E-01
 0.23780826883000E+01 0.30192252202676E+00
 0.81433208183000E+00 0.72785027349547E+00
 p    1 1.00
 0.28887547253000E+00 0.10000000000000E+01
 p    1 1.00
 0.10056823671000E+00 0.10000000000000E+01
 d    1 1.00
 0.10970000000000E+01 0.10000000000000E+01
 d    1 1.00
 0.31800000000000E+00 0.10000000000000E+01
 d    1 1.00
 0.90985336424000E-01 0.10000000000000E+01
 f    1 1.00
 0.76100000000000E+00 0.10000000000000E+01
 
    4 0
 s    6 1.00
 0.13575349682000E+05 0.60645503603591E-03
 0.20352333680000E+04 0.46979088884982E-02
 0.46322562359000E+03 0.24332477647552E-01
 0.13120019598000E+03 0.97399968307759E-01
 0.42853015891000E+02 0.30195584253780E+00
 0.15584185766000E+02 0.66233609137875E+00
 s    2 1.00
 0.62067138508000E+01 0.65595308539952E+00
 0.25764896527000E+01 0.37585633285142E+00
 s    1 1.00
 0.57696339419000E+00 0.10000000000000E+01
 s    1 1.00
 0.22972831358000E+00 0.10000000000000E+01
 s    1 1.00
 0.95164440028000E-01 0.10000000000000E+01
 s    1 1.00
 0.48475401370000E-01 0.10000000000000E+01
 p    4 1.00
 0.34697232244000E+02 0.11327220003114E-01
 0.79582622826000E+01 0.76169659202087E-01
 0.23780826883000E+01 0.30192252202676E+00
 0.81433208183000E+00 0.72785027349547E+00
 p    1 1.00
 0.28887547253000E+00 0.10000000000000E+01
 p    1 1.00
 0.10056823671000E+00 0.10000000000000E+01
 d    1 1.00
 0.10970000000000E+01 0.10000000000000E+01
 d    1 1.00
 0.31800000000000E+00 0.10000000000000E+01
 d    1 1.00
 0.90985336424000E-01 0.10000000000000E+01
 f    1 1.00
 0.76100000000000E+00 0.10000000000000E+01
 
    5 0
 s    6 1.00
 0.13575349682000E+05 0.60645503603591E-03
 0.20352333680000E+04 0.46979088884982E-02
 0.46322562359000E+03 0.24332477647552E-01
 0.13120019598000E+03 0.97399968307759E-01
 0.42853015891000E+02 0.30195584253780E+00
 0.15584185766000E+02 0.66233609137875E+00
 s    2 1.00
 0.62067138508000E+01 0.65595308539952E+00
 0.25764896527000E+01 0.37585633285142E+00
 s    1 1.00
 0.57696339419000E+00 0.10000000000000E+01
 s    1 1.00
 0.22972831358000E+00 0.10000000000000E+01
 s    1 1.00
 0.95164440028000E-01 0.10000000000000E+01
 s    1 1.00
 0.48475401370000E-01 0.10000000000000E+01
 p    4 1.00
 0.34697232244000E+02 0.11327220003114E-01
 0.79582622826000E+01 0.76169659202087E-01
 0.23780826883000E+01 0.30192252202676E+00
 0.81433208183000E+00 0.72785027349547E+00
 p    1 1.00
 0.28887547253000E+00 0.10000000000000E+01
 p    1 1.00
 0.10056823671000E+00 0.10000000000000E+01
 d    1 1.00
 0.10970000000000E+01 0.10000000000000E+01
 d    1 1.00
 0.31800000000000E+00 0.10000000000000E+01
 d    1 1.00
 0.90985336424000E-01 0.10000000000000E+01
 f    1 1.00
 0.76100000000000E+00 0.10000000000000E+01
 
    6 0
 s    6 1.00
 0.13575349682000E+05 0.60645503603591E-03
 0.20352333680000E+04 0.46979088884982E-02
 0.46322562359000E+03 0.24332477647552E-01
 0.13120019598000E+03 0.97399968307759E-01
 0.42853015891000E+02 0.30195584253780E+00
 0.15584185766000E+02 0.66233609137875E+00
 s    2 1.00
 0.62067138508000E+01 0.65595308539952E+00
 0.25764896527000E+01 0.37585633285142E+00
 s    1 1.00
 0.57696339419000E+00 0.10000000000000E+01
 s    1 1.00
 0.22972831358000E+00 0.10000000000000E+01
 s    1 1.00
 0.95164440028000E-01 0.10000000000000E+01
 s    1 1.00
 0.48475401370000E-01 0.10000000000000E+01
 p    4 1.00
 0.34697232244000E+02 0.11327220003114E-01
 0.79582622826000E+01 0.76169659202087E-01
 0.23780826883000E+01 0.30192252202676E+00
 0.81433208183000E+00 0.72785027349547E+00
 p    1 1.00
 0.28887547253000E+00 0.10000000000000E+01
 p    1 1.00
 0.10056823671000E+00 0.10000000000000E+01
 d    1 1.00
 0.10970000000000E+01 0.10000000000000E+01
 d    1 1.00
 0.31800000000000E+00 0.10000000000000E+01
 d    1 1.00
 0.90985336424000E-01 0.10000000000000E+01
 f    1 1.00
 0.76100000000000E+00 0.10000000000000E+01
 
    7 0
 s    3 1.00
 0.34061341000000E+02 0.25439307208879E-01
 0.51235746000000E+01 0.19008594890375E+00
 0.11646626000000E+01 0.85244113011042E+00
 s    1 1.00
 0.32723041000000E+00 0.10000000000000E+01
 s    1 1.00
 0.10307241000000E+00 0.10000000000000E+01
 p    1 1.00
 0.80000000000000E+00 0.10000000000000E+01
 p    1 1.00
 0.95774129632000E-01 0.10000000000000E+01
 
    8 0
 s    3 1.00
 0.34061341000000E+02 0.25439307208879E-01
 0.51235746000000E+01 0.19008594890375E+00
 0.11646626000000E+01 0.85244113011042E+00
 s    1 1.00
 0.32723041000000E+00 0.10000000000000E+01
 s    1 1.00
 0.10307241000000E+00 0.10000000000000E+01
 p    1 1.00
 0.80000000000000E+00 0.10000000000000E+01
 p    1 1.00
 0.95774129632000E-01 0.10000000000000E+01
 
    9 0
 s    3 1.00
 0.34061341000000E+02 0.25439307208879E-01
 0.51235746000000E+01 0.19008594890375E+00
 0.11646626000000E+01 0.85244113011042E+00
 s    1 1.00
 0.32723041000000E+00 0.10000000000000E+01
 s    1 1.00
 0.10307241000000E+00 0.10000000000000E+01
 p    1 1.00
 0.80000000000000E+00 0.10000000000000E+01
 p    1 1.00
 0.95774129632000E-01 0.10000000000000E+01
 
   10 0
 s    3 1.00
 0.34061341000000E+02 0.25439307208879E-01
 0.51235746000000E+01 0.19008594890375E+00
 0.11646626000000E+01 0.85244113011042E+00
 s    1 1.00
 0.32723041000000E+00 0.10000000000000E+01
 s    1 1.00
 0.10307241000000E+00 0.10000000000000E+01
 p    1 1.00
 0.80000000000000E+00 0.10000000000000E+01
 p    1 1.00
 0.95774129632000E-01 0.10000000000000E+01
 
   11 0
 s    6 1.00
 0.19730800647000E+05 0.58626402628763E-03
 0.29578958745000E+04 0.45428820586397E-02
 0.67322133595000E+03 0.23558413450084E-01
 0.19068249494000E+03 0.94709193292923E-01
 0.62295441898000E+02 0.29719784913376E+00
 0.22654161182000E+02 0.66916246895232E+00
 s    2 1.00
 0.89791477428000E+01 0.64596683630063E+00
 0.36863002370000E+01 0.38700574393705E+00
 s    1 1.00
 0.84660076805000E+00 0.10000000000000E+01
 s    1 1.00
 0.33647133771000E+00 0.10000000000000E+01
 s    1 1.00
 0.13647653675000E+00 0.10000000000000E+01
 s    1 1.00
 0.68441605847000E-01 0.10000000000000E+01
 p    4 1.00
 0.49200380510000E+02 0.11448825101764E-01
 0.11346790537000E+02 0.78422337970864E-01
 0.34273972411000E+01 0.30818094738830E+00
 0.11785525134000E+01 0.72027196368413E+00
 p    1 1.00
 0.41642204972000E+00 0.10000000000000E+01
 p    1 1.00
 0.14260826011000E+00 0.10000000000000E+01
 d    1 1.00
 0.16540000000000E+01 0.10000000000000E+01
 d    1 1.00
 0.46900000000000E+00 0.10000000000000E+01
 d    1 1.00
 0.12829642058000E+00 0.10000000000000E+01
 f    1 1.00
 0.10930000000000E+01 0.10000000000000E+01
 
   12 0
 s    6 1.00
 0.27032382631000E+05 0.57227335211155E-03
 0.40523871392000E+04 0.44353233492995E-02
 0.92232722710000E+03 0.23020107706038E-01
 0.26124070989000E+03 0.92822490667928E-01
 0.85354641351000E+02 0.29378500009671E+00
 0.31035035245000E+02 0.67401604501641E+00
 s    2 1.00
 0.12260860728000E+02 0.63839937025506E+00
 0.49987076005000E+01 0.39534587125718E+00
 s    1 1.00
 0.11703108158000E+01 0.10000000000000E+01
 s    1 1.00
 0.46474740994000E+00 0.10000000000000E+01
 s    1 1.00
 0.18504536357000E+00 0.10000000000000E+01
 s    1 1.00
 0.70288026270000E-01 0.10000000000000E+01
 p    4 1.00
 0.63274954801000E+02 0.12018332222616E-01
 0.14627049379000E+02 0.83005421790056E-01
 0.44501223456000E+01 0.31991743925964E+00
 0.15275799647000E+01 0.70715542916104E+00
 p    1 1.00
 0.52935117943000E+00 0.10000000000000E+01
 p    1 1.00
 0.17478421270000E+00 0.10000000000000E+01
 p    1 1.00
 0.51112745706000E-01 0.10000000000000E+01
 d    1 1.00
 0.23140000000000E+01 0.10000000000000E+01
 d    1 1.00
 0.64500000000000E+00 0.10000000000000E+01
 d    1 1.00
 0.14696477366000E+00 0.10000000000000E+01
 f    1 1.00
 0.14280000000000E+01 0.10000000000000E+01
 
   13 0
 s    6 1.00
 0.27032382631000E+05 0.57227335211155E-03
 0.40523871392000E+04 0.44353233492995E-02
 0.92232722710000E+03 0.23020107706038E-01
 0.26124070989000E+03 0.92822490667928E-01
 0.85354641351000E+02 0.29378500009671E+00
 0.31035035245000E+02 0.67401604501641E+00
 s    2 1.00
 0.12260860728000E+02 0.63839937025506E+00
 0.49987076005000E+01 0.39534587125718E+00
 s    1 1.00
 0.11703108158000E+01 0.10000000000000E+01
 s    1 1.00
 0.46474740994000E+00 0.10000000000000E+01
 s    1 1.00
 0.18504536357000E+00 0.10000000000000E+01
 s    1 1.00
 0.70288026270000E-01 0.10000000000000E+01
 p    4 1.00
 0.63274954801000E+02 0.12018332222616E-01
 0.14627049379000E+02 0.83005421790056E-01
 0.44501223456000E+01 0.31991743925964E+00
 0.15275799647000E+01 0.70715542916104E+00
 p    1 1.00
 0.52935117943000E+00 0.10000000000000E+01
 p    1 1.00
 0.17478421270000E+00 0.10000000000000E+01
 p    1 1.00
 0.51112745706000E-01 0.10000000000000E+01
 d    1 1.00
 0.23140000000000E+01 0.10000000000000E+01
 d    1 1.00
 0.64500000000000E+00 0.10000000000000E+01
 d    1 1.00
 0.14696477366000E+00 0.10000000000000E+01
 f    1 1.00
 0.14280000000000E+01 0.10000000000000E+01
 
   14 0
 s    6 1.00
 0.19730800647000E+05 0.58626402628763E-03
 0.29578958745000E+04 0.45428820586397E-02
 0.67322133595000E+03 0.23558413450084E-01
 0.19068249494000E+03 0.94709193292923E-01
 0.62295441898000E+02 0.29719784913376E+00
 0.22654161182000E+02 0.66916246895232E+00
 s    2 1.00
 0.89791477428000E+01 0.64596683630063E+00
 0.36863002370000E+01 0.38700574393705E+00
 s    1 1.00
 0.84660076805000E+00 0.10000000000000E+01
 s    1 1.00
 0.33647133771000E+00 0.10000000000000E+01
 s    1 1.00
 0.13647653675000E+00 0.10000000000000E+01
 s    1 1.00
 0.68441605847000E-01 0.10000000000000E+01
 p    4 1.00
 0.49200380510000E+02 0.11448825101764E-01
 0.11346790537000E+02 0.78422337970864E-01
 0.34273972411000E+01 0.30818094738830E+00
 0.11785525134000E+01 0.72027196368413E+00
 p    1 1.00
 0.41642204972000E+00 0.10000000000000E+01
 p    1 1.00
 0.14260826011000E+00 0.10000000000000E+01
 d    1 1.00
 0.16540000000000E+01 0.10000000000000E+01
 d    1 1.00
 0.46900000000000E+00 0.10000000000000E+01
 d    1 1.00
 0.12829642058000E+00 0.10000000000000E+01
 f    1 1.00
 0.10930000000000E+01 0.10000000000000E+01
 
   15 0
 s    3 1.00
 0.34061341000000E+02 0.25439307208879E-01
 0.51235746000000E+01 0.19008594890375E+00
 0.11646626000000E+01 0.85244113011042E+00
 s    1 1.00
 0.32723041000000E+00 0.10000000000000E+01
 s    1 1.00
 0.10307241000000E+00 0.10000000000000E+01
 p    1 1.00
 0.80000000000000E+00 0.10000000000000E+01
 p    1 1.00
 0.95774129632000E-01 0.10000000000000E+01
 
   16 0
 s    3 1.00
 0.34061341000000E+02 0.25439307208879E-01
 0.51235746000000E+01 0.19008594890375E+00
 0.11646626000000E+01 0.85244113011042E+00
 s    1 1.00
 0.32723041000000E+00 0.10000000000000E+01
 s    1 1.00
 0.10307241000000E+00 0.10000000000000E+01
 p    1 1.00
 0.80000000000000E+00 0.10000000000000E+01
 p    1 1.00
 0.95774129632000E-01 0.10000000000000E+01
 
[MO]
 Sym= X
 Ene= -0.902714
 Spin= Alpha
 Occup= -0.902714
         1    2.697455E-04
         2    6.282155E-04
         3   -1.981917E-03
         4    5.951990E-03
         5   -7.223573E-02
         6    1.943339E-02
         7   -2.652187E-03
         8   -2.406391E-04
         9   -4.013129E-02
        10    5.008049E-03
        11   -9.023299E-04
        12   -3.808310E-02
        13    4.077424E-02
        14   -2.360121E-02
        15   -2.242206E-02
        16    6.576566E-06
        17    1.895207E-05
        18   -2.552864E-05
        19    7.913071E-06
        20    6.045729E-03
        21   -3.969572E-03
        22    1.173857E-03
        23   -6.948134E-04
        24   -4.790431E-04
        25    1.208717E-03
        26    1.379929E-02
        27   -7.406833E-03
        28    1.730983E-03
        29   -1.384821E-03
        30   -3.461623E-04
        31   -3.091672E-03
        32   -4.450634E-03
        33    9.257386E-03
        34    3.934108E-05
        35   -7.854171E-06
        36    1.741784E-04
        37   -1.911112E-05
        38    4.216459E-06
        39    6.685099E-04
        40   -3.367047E-05
        41    6.321017E-06
        42   -9.021948E-04
        43    6.854276E-04
        44   -4.982750E-05
        45   -1.061530E-04
        46   -3.220711E-04
        47    6.256248E-03
        48    8.654444E-02
        49   -1.016283E-02
        50   -4.378252E-04
        51   -1.201748E-06
        52   -2.033528E-01
        53    1.043376E-03
        54   -8.415074E-07
        55   -2.102819E-01
        56    1.567763E-02
        57    1.276924E-05
        58   -1.888594E-01
        59   -7.211865E-05
        60    6.568167E-05
        61    6.436972E-06
        62   -3.612057E-08
        63   -1.241759E-04
        64    3.098615E-08
        65   -6.534710E-04
        66    1.104728E-03
        67   -4.512572E-04
        68    1.076898E-08
        69    1.436872E-03
        70    7.285487E-08
        71   -2.567303E-02
        72    2.843739E-02
        73   -2.764366E-03
        74    1.690881E-06
        75   -3.110519E-03
        76   -5.720806E-07
        77   -1.243619E-05
        78   -1.484423E-08
        79    1.153478E-03
        80    1.323705E-05
        81    4.185448E-09
        82   -6.103134E-04
        83    3.447852E-06
        84    1.573018E-08
        85   -9.372403E-04
        86    3.287948E-09
        87    2.698378E-04
        88    6.284220E-04
        89   -1.982147E-03
        90    5.951056E-03
        91   -7.225311E-02
        92    1.943567E-02
        93   -2.651454E-03
        94    2.407004E-04
        95   -4.013014E-02
        96    5.009020E-03
        97    9.026605E-04
        98   -3.808202E-02
        99    4.078902E-02
       100    2.361340E-02
       101   -2.242152E-02
       102    6.606370E-06
       103    1.897212E-05
       104   -2.557849E-05
       105   -7.859318E-06
       106    6.045711E-03
       107    3.969553E-03
       108    1.173960E-03
       109   -6.948501E-04
       110   -4.791094E-04
       111   -1.208716E-03
       112    1.379918E-02
       113    7.406819E-03
       114    1.733039E-03
       115   -1.387010E-03
       116   -3.460287E-04
       117    3.090676E-03
       118   -4.451382E-03
       119   -9.257987E-03
       120    3.933727E-05
       121    7.842504E-06
       122    1.741801E-04
       123   -1.911322E-05
       124   -4.212303E-06
       125    6.685032E-04
       126   -3.366327E-05
       127   -6.309520E-06
       128   -9.021903E-04
       129   -6.854263E-04
       130   -1.710712E-04
       131   -3.722275E-04
       132   -8.013241E-04
       133    1.573844E-02
       134    2.482182E-02
       135   -2.406823E-02
       136    2.128518E-03
       137   -8.587929E-04
       138    1.504916E-01
       139    1.579190E-02
       140   -1.015154E-02
       141    1.528568E-01
       142    5.089770E-03
       143    1.377906E-02
       144    9.811160E-02
       145   -2.087725E-04
       146    2.530492E-04
       147   -4.427676E-05
       148   -1.281533E-05
       149    1.563836E-03
       150   -3.321860E-03
       151   -1.281813E-03
       152    1.346766E-03
       153   -6.495319E-05
       154   -2.689518E-03
       155    5.917291E-03
       156   -5.382650E-03
       157   -1.018648E-02
       158    6.849995E-03
       159    3.336486E-03
       160    2.199074E-02
       161   -5.278201E-03
       162    9.992037E-03
       163    3.379871E-05
       164   -1.157696E-05
       165   -8.646071E-04
       166    2.226227E-05
       167   -3.203510E-05
       168    1.472910E-04
       169   -6.760801E-05
       170    4.756722E-05
       171    1.012701E-03
       172   -3.986394E-04
       173    1.635858E-03
       174    3.722579E-03
       175   -3.319197E-03
       176   -3.714684E-02
       177    1.099447E-01
       178   -8.623711E-03
       179   -1.280929E-02
       180    3.093992E-07
       181    1.347816E-01
       182    5.926209E-04
       183    4.694560E-07
       184    1.379968E-01
       185    8.390377E-02
       186   -4.181286E-06
       187    1.368219E-01
       188   -7.370094E-04
       189    4.239936E-04
       190    3.130158E-04
       191   -1.405496E-08
       192   -9.219236E-03
       193   -1.259648E-07
       194    2.972159E-03
       195   -6.577702E-03
       196    3.605543E-03
       197    5.014184E-08
       198   -2.307630E-02
       199   -1.948827E-07
       200    1.833543E-02
       201   -1.912062E-02
       202    7.851908E-04
       203    3.330098E-07
       204   -1.087221E-02
       205    4.455626E-07
       206   -1.760938E-04
       207    1.087218E-08
       208   -4.595995E-04
       209    1.377094E-04
       210    1.657685E-10
       211   -9.200578E-04
       212    9.854529E-05
       213   -1.475233E-08
       214    1.536675E-03
       215    6.679128E-09
       216   -1.710671E-04
       217   -3.722201E-04
       218   -8.012830E-04
       219    1.573885E-02
       220    2.483077E-02
       221   -2.406807E-02
       222    2.129077E-03
       223    8.604542E-04
       224    1.504945E-01
       225    1.579212E-02
       226    1.015322E-02
       227    1.528598E-01
       228    5.079049E-03
       229   -1.378415E-02
       230    9.811397E-02
       231   -2.087899E-04
       232    2.531164E-04
       233   -4.432645E-05
       234    1.282702E-05
       235    1.563873E-03
       236    3.321906E-03
       237   -1.281823E-03
       238    1.346817E-03
       239   -6.499386E-05
       240    2.689528E-03
       241    5.917260E-03
       242    5.382655E-03
       243   -1.018561E-02
       244    6.848917E-03
       245    3.336693E-03
       246   -2.199162E-02
       247   -5.277200E-03
       248   -9.991597E-03
       249    3.380037E-05
       250    1.159702E-05
       251   -8.646220E-04
       252    2.226653E-05
       253    3.203820E-05
       254    1.472910E-04
       255   -6.761448E-05
       256   -4.759724E-05
       257    1.012721E-03
       258    3.986291E-04
       259    5.491020E-04
       260    8.009160E-05
       261    2.449429E-02
       262    1.319147E-05
       263   -3.544119E-05
       264   -1.621677E-03
       265    7.539722E-03
       266    2.057798E-03
       267    4.298403E-03
       268    5.488655E-04
       269    7.970027E-05
       270    2.449531E-02
       271    1.318503E-05
       272    3.548233E-05
       273   -1.621634E-03
       274    7.539754E-03
       275   -2.057701E-03
       276    4.298527E-03
       277    5.427056E-04
       278    3.753612E-03
       279   -6.139020E-02
       280    4.550646E-05
       281   -1.436316E-04
       282    6.184198E-03
       283    4.207369E-04
       284    5.941563E-03
       285    2.468266E-03
       286    5.427963E-04
       287    3.753888E-03
       288   -6.139224E-02
       289    4.551417E-05
       290    1.437187E-04
       291    6.184399E-03
       292    4.205680E-04
       293   -5.941588E-03
       294    2.468508E-03
       295    6.761574E-05
       296    1.588048E-04
       297   -1.812499E-04
       298   -1.165534E-04
       299    1.608030E-02
       300    4.877692E-03
       301   -6.699680E-04
       302    1.156600E-07
       303   -4.348741E-03
       304   -7.459811E-05
       305    7.838989E-08
       306   -6.889716E-03
       307    4.681029E-03
       308   -1.091952E-07
       309    1.792898E-03
       310   -2.825374E-05
       311    1.196042E-05
       312    1.629332E-05
       313    7.517614E-08
       314   -4.050146E-03
       315   -4.586827E-10
       316   -2.742261E-06
       317   -8.262164E-05
       318    8.536390E-05
       319    1.965946E-07
       320   -1.199732E-02
       321   -1.414680E-09
       322   -8.637829E-05
       323   -4.163470E-03
       324    4.249849E-03
       325   -2.892594E-07
       326   -3.238462E-03
       327    7.728615E-08
       328   -1.062400E-05
       329    7.870293E-09
       330   -1.609503E-05
       331    7.292053E-06
       332   -3.004777E-08
       333   -6.625211E-04
       334    6.961535E-06
       335    1.948867E-08
       336    6.841149E-04
       337    1.154948E-09
       338    1.791891E-05
       339    3.734946E-05
       340    2.381690E-05
       341   -8.604623E-04
       342    1.047930E-02
       343    2.219670E-03
       344    3.340263E-04
       345   -1.620406E-04
       346    7.025170E-02
       347    5.623298E-04
       348   -3.632873E-04
       349    6.505976E-02
       350    1.424916E-03
       351   -1.227447E-03
       352    4.947359E-02
       353    5.830323E-04
       354   -2.920090E-04
       355    5.338907E-03
       356   -3.844670E-06
       357    6.704164E-06
       358   -2.859493E-06
       359   -1.802148E-06
       360    6.144263E-05
       361   -5.674776E-04
       362    1.392830E-05
       363    1.642859E-05
       364   -3.035689E-05
       365   -1.599329E-05
       366    6.895180E-04
       367   -1.788914E-03
       368    7.118729E-05
       369    6.696366E-05
       370   -1.381510E-04
       371    1.495380E-04
       372    1.012747E-03
       373   -3.910340E-04
       374   -1.090728E-06
       375   -2.846283E-06
       376   -7.395297E-05
       377    1.677202E-06
       378    7.142904E-07
       379   -8.744802E-05
       380   -2.138369E-07
       381    3.104399E-06
       382    1.866664E-04
       383   -1.463983E-04
       384    1.796589E-05
       385    3.746484E-05
       386    2.363941E-05
       387   -8.607623E-04
       388    1.047952E-02
       389    2.220063E-03
       390    3.286069E-04
       391    1.631193E-04
       392    7.025183E-02
       393    5.574067E-04
       394    3.642005E-04
       395    6.505986E-02
       396    1.421029E-03
       397    1.228357E-03
       398    4.947404E-02
       399    5.828723E-04
       400    2.917637E-04
       401    5.338945E-03
       402   -3.868275E-06
       403    6.703726E-06
       404   -2.835451E-06
       405    1.780458E-06
       406    6.144221E-05
       407    5.674779E-04
       408    1.383135E-05
       409    1.643235E-05
       410   -3.026370E-05
       411    1.589429E-05
       412    6.895203E-04
       413    1.788924E-03
       414    7.105405E-05
       415    6.709702E-05
       416   -1.381511E-04
       417   -1.496708E-04
       418    1.012779E-03
       419    3.910474E-04
       420   -1.088299E-06
       421    2.846124E-06
       422   -7.395319E-05
       423    1.668302E-06
       424   -7.283805E-07
       425   -8.744828E-05
       426   -2.081950E-07
       427   -3.090096E-06
       428    1.866669E-04
       429    1.463986E-04
       430   -8.028919E-03
       431   -1.902814E-02
       432    2.932704E-02
       433    4.969241E-02
       434    2.294106E-03
       435    9.746021E-02
       436    2.809899E-02
       437   -2.458957E-07
       438   -2.448226E-01
       439    3.222390E-02
       440   -3.508672E-07
       441   -2.407197E-01
       442    4.146545E-02
       443   -6.497396E-07
       444   -1.973657E-01
       445    2.459208E-04
       446    7.784660E-05
       447   -3.237674E-04
       448   -1.492022E-08
       449   -1.194624E-03
       450    8.559902E-09
       451    4.771134E-04
       452    2.688517E-03
       453   -3.165630E-03
       454   -1.346845E-08
       455   -4.332675E-03
       456   -1.479430E-08
       457    4.042313E-03
       458    7.704880E-03
       459   -1.174719E-02
       460    7.274813E-08
       461   -2.522140E-03
       462   -1.170914E-07
       463    2.226836E-04
       464   -3.620579E-09
       465    8.658471E-04
       466    1.529319E-04
       467    1.439051E-11
       468   -3.905478E-04
       469   -4.516933E-04
       470    4.843126E-09
       471   -7.711079E-04
       472   -9.288575E-10
       473   -1.452424E-02
       474   -2.966470E-02
       475   -6.276636E-02
       476    3.435982E-03
       477    2.936225E-03
       478   -1.228923E-02
       479    1.142873E-03
       480    6.978940E-03
       481   -1.496435E-02
       482   -1.452408E-02
       483   -2.966458E-02
       484   -6.276620E-02
       485    3.435988E-03
       486   -2.936280E-03
       487   -1.228926E-02
       488    1.142888E-03
       489   -6.978961E-03
       490   -1.496438E-02
 Sym= X
 Ene= 0.902714
 Spin= Alpha
 Occup= 0.902714
         1    1.906520E-03
         2    4.657898E-03
         3   -1.511540E-02
         4    7.298744E-02
         5   -2.592791E+00
         6   -1.752002E+00
         7    1.951043E-02
         8    3.135356E-02
         9    7.111134E-05
        10   -1.334670E-02
        11    1.023661E-01
        12    3.371032E-03
        13   -1.530057E-01
        14   -1.418336E+00
        15   -4.017678E-03
        16   -1.869839E-03
        17    5.220514E-03
        18   -3.350674E-03
        19    3.013508E-03
        20    2.228108E-05
        21    7.652353E-06
        22    7.456664E-03
        23    6.560970E-03
        24   -1.401763E-02
        25   -2.507479E-03
        26    1.059117E-03
        27   -2.543993E-04
        28    1.525628E-01
        29   -3.762744E-02
        30   -1.149354E-01
        31    8.220102E-01
        32   -2.044048E-02
        33    3.301932E-02
        34   -3.310966E-05
        35    2.309366E-04
        36   -2.154051E-05
        37    3.733149E-04
        38    3.347991E-04
        39    7.493832E-05
        40   -3.288936E-04
        41   -6.446331E-04
        42   -4.603870E-05
        43    1.488532E-07
        44   -2.219163E-04
        45    7.814445E-05
        46   -7.811076E-03
        47    1.348184E-01
        48    6.487066E+00
        49   -3.349089E+00
        50    5.137541E-02
        51   -2.822184E-07
        52   -4.937213E-04
        53    1.935233E-02
        54   -6.253103E-07
        55    3.444904E-03
        56    2.157528E+00
        57   -1.417906E-04
        58   -1.327710E-01
        59    5.854688E-03
        60   -1.568254E-03
        61   -4.286434E-03
        62    1.719892E-09