[Molden Format]
[Title]
ADC(2) - opt by CAM-B3LYP gaussian                                              
[Atoms] AU
 c     1    6 -.12594776649128E+01 -.22773101438193E+01 -.39940542897370E-01
 c     2    6 -.25470425655544E+01 -.11810788300000E-05 -.37653974276580E-01
 c     3    6 -.12594776649128E+01 0.22773077816617E+01 -.39959440158700E-01
 c     4    6 0.13393870965995E+01 0.22758904870620E+01 -.43795584208460E-01
 c     5    6 0.26846831306008E+01 -.11810788300000E-05 -.44211323957690E-01
 c     6    6 0.13394059938609E+01 -.22758928492196E+01 -.43776686947130E-01
 h     7    1 -.23144739703802E+01 -.40231336316857E+01 -.37313823572660E-01
 h     8    1 -.23144739703802E+01 0.40231312695281E+01 -.37332720833990E-01
 h     9    1 0.23577983041343E+01 0.40499086888311E+01 -.52469427158400E-01
 h    10    1 0.23577983041343E+01 -.40498921537274E+01 -.52431632635740E-01
 n    11    7 -.52968964450843E+01 -.11810788300000E-05 -.29906097131750E-01
 o    12    8 -.63725096626615E+01 0.20302827815708E+01 -.26599076399200E-01
 o    13    8 -.63725096626615E+01 -.20302851437285E+01 -.26655768183180E-01
 n    14    7 0.52734000627795E+01 -.11810788300000E-05 -.11796733492422E+00
 h    15    1 0.61922038058499E+01 0.16034881344586E+01 0.31500671664254E+00
 h    16    1 0.61921849085885E+01 -.16034904966163E+01 0.31500671664254E+00
[GTO]
    1 0
 s    6 1.00
 0.13575349682000E+05 0.60645503603591E-03
 0.20352333680000E+04 0.46979088884982E-02
 0.46322562359000E+03 0.24332477647552E-01
 0.13120019598000E+03 0.97399968307759E-01
 0.42853015891000E+02 0.30195584253780E+00
 0.15584185766000E+02 0.66233609137875E+00
 s    2 1.00
 0.62067138508000E+01 0.65595308539952E+00
 0.25764896527000E+01 0.37585633285142E+00
 s    1 1.00
 0.57696339419000E+00 0.10000000000000E+01
 s    1 1.00
 0.22972831358000E+00 0.10000000000000E+01
 s    1 1.00
 0.95164440028000E-01 0.10000000000000E+01
 s    1 1.00
 0.48475401370000E-01 0.10000000000000E+01
 p    4 1.00
 0.34697232244000E+02 0.11327220003114E-01
 0.79582622826000E+01 0.76169659202087E-01
 0.23780826883000E+01 0.30192252202676E+00
 0.81433208183000E+00 0.72785027349547E+00
 p    1 1.00
 0.28887547253000E+00 0.10000000000000E+01
 p    1 1.00
 0.10056823671000E+00 0.10000000000000E+01
 d    1 1.00
 0.10970000000000E+01 0.10000000000000E+01
 d    1 1.00
 0.31800000000000E+00 0.10000000000000E+01
 d    1 1.00
 0.90985336424000E-01 0.10000000000000E+01
 f    1 1.00
 0.76100000000000E+00 0.10000000000000E+01
 
    2 0
 s    6 1.00
 0.13575349682000E+05 0.60645503603591E-03
 0.20352333680000E+04 0.46979088884982E-02
 0.46322562359000E+03 0.24332477647552E-01
 0.13120019598000E+03 0.97399968307759E-01
 0.42853015891000E+02 0.30195584253780E+00
 0.15584185766000E+02 0.66233609137875E+00
 s    2 1.00
 0.62067138508000E+01 0.65595308539952E+00
 0.25764896527000E+01 0.37585633285142E+00
 s    1 1.00
 0.57696339419000E+00 0.10000000000000E+01
 s    1 1.00
 0.22972831358000E+00 0.10000000000000E+01
 s    1 1.00
 0.95164440028000E-01 0.10000000000000E+01
 s    1 1.00
 0.48475401370000E-01 0.10000000000000E+01
 p    4 1.00
 0.34697232244000E+02 0.11327220003114E-01
 0.79582622826000E+01 0.76169659202087E-01
 0.23780826883000E+01 0.30192252202676E+00
 0.81433208183000E+00 0.72785027349547E+00
 p    1 1.00
 0.28887547253000E+00 0.10000000000000E+01
 p    1 1.00
 0.10056823671000E+00 0.10000000000000E+01
 d    1 1.00
 0.10970000000000E+01 0.10000000000000E+01
 d    1 1.00
 0.31800000000000E+00 0.10000000000000E+01
 d    1 1.00
 0.90985336424000E-01 0.10000000000000E+01
 f    1 1.00
 0.76100000000000E+00 0.10000000000000E+01
 
    3 0
 s    6 1.00
 0.13575349682000E+05 0.60645503603591E-03
 0.20352333680000E+04 0.46979088884982E-02
 0.46322562359000E+03 0.24332477647552E-01
 0.13120019598000E+03 0.97399968307759E-01
 0.42853015891000E+02 0.30195584253780E+00
 0.15584185766000E+02 0.66233609137875E+00
 s    2 1.00
 0.62067138508000E+01 0.65595308539952E+00
 0.25764896527000E+01 0.37585633285142E+00
 s    1 1.00
 0.57696339419000E+00 0.10000000000000E+01
 s    1 1.00
 0.22972831358000E+00 0.10000000000000E+01
 s    1 1.00
 0.95164440028000E-01 0.10000000000000E+01
 s    1 1.00
 0.48475401370000E-01 0.10000000000000E+01
 p    4 1.00
 0.34697232244000E+02 0.11327220003114E-01
 0.79582622826000E+01 0.76169659202087E-01
 0.23780826883000E+01 0.30192252202676E+00
 0.81433208183000E+00 0.72785027349547E+00
 p    1 1.00
 0.28887547253000E+00 0.10000000000000E+01
 p    1 1.00
 0.10056823671000E+00 0.10000000000000E+01
 d    1 1.00
 0.10970000000000E+01 0.10000000000000E+01
 d    1 1.00
 0.31800000000000E+00 0.10000000000000E+01
 d    1 1.00
 0.90985336424000E-01 0.10000000000000E+01
 f    1 1.00
 0.76100000000000E+00 0.10000000000000E+01
 
    4 0
 s    6 1.00
 0.13575349682000E+05 0.60645503603591E-03
 0.20352333680000E+04 0.46979088884982E-02
 0.46322562359000E+03 0.24332477647552E-01
 0.13120019598000E+03 0.97399968307759E-01
 0.42853015891000E+02 0.30195584253780E+00
 0.15584185766000E+02 0.66233609137875E+00
 s    2 1.00
 0.62067138508000E+01 0.65595308539952E+00
 0.25764896527000E+01 0.37585633285142E+00
 s    1 1.00
 0.57696339419000E+00 0.10000000000000E+01
 s    1 1.00
 0.22972831358000E+00 0.10000000000000E+01
 s    1 1.00
 0.95164440028000E-01 0.10000000000000E+01
 s    1 1.00
 0.48475401370000E-01 0.10000000000000E+01
 p    4 1.00
 0.34697232244000E+02 0.11327220003114E-01
 0.79582622826000E+01 0.76169659202087E-01
 0.23780826883000E+01 0.30192252202676E+00
 0.81433208183000E+00 0.72785027349547E+00
 p    1 1.00
 0.28887547253000E+00 0.10000000000000E+01
 p    1 1.00
 0.10056823671000E+00 0.10000000000000E+01
 d    1 1.00
 0.10970000000000E+01 0.10000000000000E+01
 d    1 1.00
 0.31800000000000E+00 0.10000000000000E+01
 d    1 1.00
 0.90985336424000E-01 0.10000000000000E+01
 f    1 1.00
 0.76100000000000E+00 0.10000000000000E+01
 
    5 0
 s    6 1.00
 0.13575349682000E+05 0.60645503603591E-03
 0.20352333680000E+04 0.46979088884982E-02
 0.46322562359000E+03 0.24332477647552E-01
 0.13120019598000E+03 0.97399968307759E-01
 0.42853015891000E+02 0.30195584253780E+00
 0.15584185766000E+02 0.66233609137875E+00
 s    2 1.00
 0.62067138508000E+01 0.65595308539952E+00
 0.25764896527000E+01 0.37585633285142E+00
 s    1 1.00
 0.57696339419000E+00 0.10000000000000E+01
 s    1 1.00
 0.22972831358000E+00 0.10000000000000E+01
 s    1 1.00
 0.95164440028000E-01 0.10000000000000E+01
 s    1 1.00
 0.48475401370000E-01 0.10000000000000E+01
 p    4 1.00
 0.34697232244000E+02 0.11327220003114E-01
 0.79582622826000E+01 0.76169659202087E-01
 0.23780826883000E+01 0.30192252202676E+00
 0.81433208183000E+00 0.72785027349547E+00
 p    1 1.00
 0.28887547253000E+00 0.10000000000000E+01
 p    1 1.00
 0.10056823671000E+00 0.10000000000000E+01
 d    1 1.00
 0.10970000000000E+01 0.10000000000000E+01
 d    1 1.00
 0.31800000000000E+00 0.10000000000000E+01
 d    1 1.00
 0.90985336424000E-01 0.10000000000000E+01
 f    1 1.00
 0.76100000000000E+00 0.10000000000000E+01
 
    6 0
 s    6 1.00
 0.13575349682000E+05 0.60645503603591E-03
 0.20352333680000E+04 0.46979088884982E-02
 0.46322562359000E+03 0.24332477647552E-01
 0.13120019598000E+03 0.97399968307759E-01
 0.42853015891000E+02 0.30195584253780E+00
 0.15584185766000E+02 0.66233609137875E+00
 s    2 1.00
 0.62067138508000E+01 0.65595308539952E+00
 0.25764896527000E+01 0.37585633285142E+00
 s    1 1.00
 0.57696339419000E+00 0.10000000000000E+01
 s    1 1.00
 0.22972831358000E+00 0.10000000000000E+01
 s    1 1.00
 0.95164440028000E-01 0.10000000000000E+01
 s    1 1.00
 0.48475401370000E-01 0.10000000000000E+01
 p    4 1.00
 0.34697232244000E+02 0.11327220003114E-01
 0.79582622826000E+01 0.76169659202087E-01
 0.23780826883000E+01 0.30192252202676E+00
 0.81433208183000E+00 0.72785027349547E+00
 p    1 1.00
 0.28887547253000E+00 0.10000000000000E+01
 p    1 1.00
 0.10056823671000E+00 0.10000000000000E+01
 d    1 1.00
 0.10970000000000E+01 0.10000000000000E+01
 d    1 1.00
 0.31800000000000E+00 0.10000000000000E+01
 d    1 1.00
 0.90985336424000E-01 0.10000000000000E+01
 f    1 1.00
 0.76100000000000E+00 0.10000000000000E+01
 
    7 0
 s    3 1.00
 0.34061341000000E+02 0.25439307208879E-01
 0.51235746000000E+01 0.19008594890375E+00
 0.11646626000000E+01 0.85244113011042E+00
 s    1 1.00
 0.32723041000000E+00 0.10000000000000E+01
 s    1 1.00
 0.10307241000000E+00 0.10000000000000E+01
 p    1 1.00
 0.80000000000000E+00 0.10000000000000E+01
 p    1 1.00
 0.95774129632000E-01 0.10000000000000E+01
 
    8 0
 s    3 1.00
 0.34061341000000E+02 0.25439307208879E-01
 0.51235746000000E+01 0.19008594890375E+00
 0.11646626000000E+01 0.85244113011042E+00
 s    1 1.00
 0.32723041000000E+00 0.10000000000000E+01
 s    1 1.00
 0.10307241000000E+00 0.10000000000000E+01
 p    1 1.00
 0.80000000000000E+00 0.10000000000000E+01
 p    1 1.00
 0.95774129632000E-01 0.10000000000000E+01
 
    9 0
 s    3 1.00
 0.34061341000000E+02 0.25439307208879E-01
 0.51235746000000E+01 0.19008594890375E+00
 0.11646626000000E+01 0.85244113011042E+00
 s    1 1.00
 0.32723041000000E+00 0.10000000000000E+01
 s    1 1.00
 0.10307241000000E+00 0.10000000000000E+01
 p    1 1.00
 0.80000000000000E+00 0.10000000000000E+01
 p    1 1.00
 0.95774129632000E-01 0.10000000000000E+01
 
   10 0
 s    3 1.00
 0.34061341000000E+02 0.25439307208879E-01
 0.51235746000000E+01 0.19008594890375E+00
 0.11646626000000E+01 0.85244113011042E+00
 s    1 1.00
 0.32723041000000E+00 0.10000000000000E+01
 s    1 1.00
 0.10307241000000E+00 0.10000000000000E+01
 p    1 1.00
 0.80000000000000E+00 0.10000000000000E+01
 p    1 1.00
 0.95774129632000E-01 0.10000000000000E+01
 
   11 0
 s    6 1.00
 0.19730800647000E+05 0.58626402628763E-03
 0.29578958745000E+04 0.45428820586397E-02
 0.67322133595000E+03 0.23558413450084E-01
 0.19068249494000E+03 0.94709193292923E-01
 0.62295441898000E+02 0.29719784913376E+00
 0.22654161182000E+02 0.66916246895232E+00
 s    2 1.00
 0.89791477428000E+01 0.64596683630063E+00
 0.36863002370000E+01 0.38700574393705E+00
 s    1 1.00
 0.84660076805000E+00 0.10000000000000E+01
 s    1 1.00
 0.33647133771000E+00 0.10000000000000E+01
 s    1 1.00
 0.13647653675000E+00 0.10000000000000E+01
 s    1 1.00
 0.68441605847000E-01 0.10000000000000E+01
 p    4 1.00
 0.49200380510000E+02 0.11448825101764E-01
 0.11346790537000E+02 0.78422337970864E-01
 0.34273972411000E+01 0.30818094738830E+00
 0.11785525134000E+01 0.72027196368413E+00
 p    1 1.00
 0.41642204972000E+00 0.10000000000000E+01
 p    1 1.00
 0.14260826011000E+00 0.10000000000000E+01
 d    1 1.00
 0.16540000000000E+01 0.10000000000000E+01
 d    1 1.00
 0.46900000000000E+00 0.10000000000000E+01
 d    1 1.00
 0.12829642058000E+00 0.10000000000000E+01
 f    1 1.00
 0.10930000000000E+01 0.10000000000000E+01
 
   12 0
 s    6 1.00
 0.27032382631000E+05 0.57227335211155E-03
 0.40523871392000E+04 0.44353233492995E-02
 0.92232722710000E+03 0.23020107706038E-01
 0.26124070989000E+03 0.92822490667928E-01
 0.85354641351000E+02 0.29378500009671E+00
 0.31035035245000E+02 0.67401604501641E+00
 s    2 1.00
 0.12260860728000E+02 0.63839937025506E+00
 0.49987076005000E+01 0.39534587125718E+00
 s    1 1.00
 0.11703108158000E+01 0.10000000000000E+01
 s    1 1.00
 0.46474740994000E+00 0.10000000000000E+01
 s    1 1.00
 0.18504536357000E+00 0.10000000000000E+01
 s    1 1.00
 0.70288026270000E-01 0.10000000000000E+01
 p    4 1.00
 0.63274954801000E+02 0.12018332222616E-01
 0.14627049379000E+02 0.83005421790056E-01
 0.44501223456000E+01 0.31991743925964E+00
 0.15275799647000E+01 0.70715542916104E+00
 p    1 1.00
 0.52935117943000E+00 0.10000000000000E+01
 p    1 1.00
 0.17478421270000E+00 0.10000000000000E+01
 p    1 1.00
 0.51112745706000E-01 0.10000000000000E+01
 d    1 1.00
 0.23140000000000E+01 0.10000000000000E+01
 d    1 1.00
 0.64500000000000E+00 0.10000000000000E+01
 d    1 1.00
 0.14696477366000E+00 0.10000000000000E+01
 f    1 1.00
 0.14280000000000E+01 0.10000000000000E+01
 
   13 0
 s    6 1.00
 0.27032382631000E+05 0.57227335211155E-03
 0.40523871392000E+04 0.44353233492995E-02
 0.92232722710000E+03 0.23020107706038E-01
 0.26124070989000E+03 0.92822490667928E-01
 0.85354641351000E+02 0.29378500009671E+00
 0.31035035245000E+02 0.67401604501641E+00
 s    2 1.00
 0.12260860728000E+02 0.63839937025506E+00
 0.49987076005000E+01 0.39534587125718E+00
 s    1 1.00
 0.11703108158000E+01 0.10000000000000E+01
 s    1 1.00
 0.46474740994000E+00 0.10000000000000E+01
 s    1 1.00
 0.18504536357000E+00 0.10000000000000E+01
 s    1 1.00
 0.70288026270000E-01 0.10000000000000E+01
 p    4 1.00
 0.63274954801000E+02 0.12018332222616E-01
 0.14627049379000E+02 0.83005421790056E-01
 0.44501223456000E+01 0.31991743925964E+00
 0.15275799647000E+01 0.70715542916104E+00
 p    1 1.00
 0.52935117943000E+00 0.10000000000000E+01
 p    1 1.00
 0.17478421270000E+00 0.10000000000000E+01
 p    1 1.00
 0.51112745706000E-01 0.10000000000000E+01
 d    1 1.00
 0.23140000000000E+01 0.10000000000000E+01
 d    1 1.00
 0.64500000000000E+00 0.10000000000000E+01
 d    1 1.00
 0.14696477366000E+00 0.10000000000000E+01
 f    1 1.00
 0.14280000000000E+01 0.10000000000000E+01
 
   14 0
 s    6 1.00
 0.19730800647000E+05 0.58626402628763E-03
 0.29578958745000E+04 0.45428820586397E-02
 0.67322133595000E+03 0.23558413450084E-01
 0.19068249494000E+03 0.94709193292923E-01
 0.62295441898000E+02 0.29719784913376E+00
 0.22654161182000E+02 0.66916246895232E+00
 s    2 1.00
 0.89791477428000E+01 0.64596683630063E+00
 0.36863002370000E+01 0.38700574393705E+00
 s    1 1.00
 0.84660076805000E+00 0.10000000000000E+01
 s    1 1.00
 0.33647133771000E+00 0.10000000000000E+01
 s    1 1.00
 0.13647653675000E+00 0.10000000000000E+01
 s    1 1.00
 0.68441605847000E-01 0.10000000000000E+01
 p    4 1.00
 0.49200380510000E+02 0.11448825101764E-01
 0.11346790537000E+02 0.78422337970864E-01
 0.34273972411000E+01 0.30818094738830E+00
 0.11785525134000E+01 0.72027196368413E+00
 p    1 1.00
 0.41642204972000E+00 0.10000000000000E+01
 p    1 1.00
 0.14260826011000E+00 0.10000000000000E+01
 d    1 1.00
 0.16540000000000E+01 0.10000000000000E+01
 d    1 1.00
 0.46900000000000E+00 0.10000000000000E+01
 d    1 1.00
 0.12829642058000E+00 0.10000000000000E+01
 f    1 1.00
 0.10930000000000E+01 0.10000000000000E+01
 
   15 0
 s    3 1.00
 0.34061341000000E+02 0.25439307208879E-01
 0.51235746000000E+01 0.19008594890375E+00
 0.11646626000000E+01 0.85244113011042E+00
 s    1 1.00
 0.32723041000000E+00 0.10000000000000E+01
 s    1 1.00
 0.10307241000000E+00 0.10000000000000E+01
 p    1 1.00
 0.80000000000000E+00 0.10000000000000E+01
 p    1 1.00
 0.95774129632000E-01 0.10000000000000E+01
 
   16 0
 s    3 1.00
 0.34061341000000E+02 0.25439307208879E-01
 0.51235746000000E+01 0.19008594890375E+00
 0.11646626000000E+01 0.85244113011042E+00
 s    1 1.00
 0.32723041000000E+00 0.10000000000000E+01
 s    1 1.00
 0.10307241000000E+00 0.10000000000000E+01
 p    1 1.00
 0.80000000000000E+00 0.10000000000000E+01
 p    1 1.00
 0.95774129632000E-01 0.10000000000000E+01
 
[MO]
 Sym= X
 Ene= -0.833649
 Spin= Alpha
 Occup= -0.833649
         1    5.779851E-03
         2    1.322135E-02
         3   -2.716600E-02
         4    8.164553E-03
         5   -1.803210E-01
         6   -3.494717E-02
         7    5.186005E-02
         8    4.605986E-03
         9   -4.597517E-04
        10    5.993746E-02
        11    6.064409E-03
        12   -4.616338E-04
        13    3.028336E-02
        14   -5.495752E-02
        15   -5.720696E-04
        16    1.711885E-03
        17   -1.945017E-03
        18    2.331319E-04
        19    2.155442E-04
        20   -1.088863E-05
        21   -5.135256E-08
        22    1.041706E-02
        23   -7.245615E-03
        24   -3.171444E-03
        25   -1.242458E-03
        26   -4.548687E-05
        27   -1.278694E-06
        28   -9.100314E-03
        29    5.318463E-03
        30    3.781851E-03
        31    9.021463E-03
        32   -2.552165E-04
        33    1.143085E-04
        34    7.738347E-05
        35   -1.377670E-04
        36    2.785348E-06
        37    7.002719E-05
        38    2.177301E-04
        39   -2.928551E-06
        40   -1.738480E-04
        41   -3.289633E-05
        42   -8.083857E-07
        43   -7.388030E-07
        44    6.711751E-08
        45    1.522866E-07
        46   -2.565338E-07
        47   -3.508085E-07
        48    9.264522E-07
        49   -3.090107E-07
        50    7.117321E-07
        51    3.578267E-02
        52   -1.237719E-07
        53    5.761134E-07
        54    4.342499E-02
        55   -2.097731E-08
        56    1.640648E-06
        57   -1.350427E-01
        58   -4.822720E-08
        59   -2.036666E-08
        60    1.860772E-08
        61    1.758932E-09
        62    2.107827E-03
        63    3.126116E-08
        64    9.545792E-06
        65    1.928391E-08
        66    1.706322E-09
        67   -2.099023E-08
        68   -2.678558E-03
        69    5.497169E-08
        70    3.298106E-05
        71    3.847660E-07
        72   -3.149373E-07
        73   -6.982870E-08
        74   -2.701425E-02
        75   -7.159070E-08
        76    3.484630E-04
        77    4.962504E-09
        78    6.486275E-04
        79    4.106771E-09
        80   -3.426483E-09
        81   -6.322076E-04
        82    3.717413E-09
        83   -3.231414E-09
        84   -2.380174E-04
        85   -9.227224E-09
        86    2.826472E-06
        87   -5.779862E-03
        88   -1.322137E-02
        89    2.716601E-02
        90   -8.165957E-03
        91    1.803220E-01
        92    3.494803E-02
        93   -5.186001E-02
        94    4.605504E-03
        95    4.614850E-04
        96   -5.993824E-02
        97    6.064038E-03
        98    4.633747E-04
        99   -3.028388E-02
       100   -5.495621E-02
       101    5.726427E-04
       102   -1.711906E-03
       103    1.945037E-03
       104   -2.331317E-04
       105    2.155553E-04
       106    1.096593E-05
       107   -7.954555E-08
       108   -1.041718E-02
       109    7.245684E-03
       110    3.171496E-03
       111   -1.242451E-03
       112    4.578749E-05
       113   -1.335905E-06
       114    9.100627E-03
       115   -5.318876E-03
       116   -3.781751E-03
       117    9.021763E-03
       118    2.546826E-04
       119    1.141315E-04
       120   -7.738233E-05
       121   -1.377724E-04
       122   -2.800684E-06
       123   -7.002785E-05
       124    2.177368E-04
       125    2.940665E-06
       126    1.738471E-04
       127   -3.289576E-05
       128    8.168462E-07
       129   -7.400344E-07
       130    3.666825E-03
       131    8.300733E-03
       132   -1.577181E-02
       133    1.082487E-02
       134   -6.468077E-02
       135   -1.106849E-02
       136    3.594914E-02
       137   -5.489585E-04
       138    3.281263E-04
       139    2.356326E-03
       140    6.323309E-03
       141    3.385119E-04
       142    7.839711E-03
       143   -5.885059E-03
       144    1.005322E-04
       145   -9.828222E-04
       146    8.349412E-04
       147    1.478809E-04
       148   -2.321128E-04
       149   -6.978776E-06
       150   -2.524562E-06
       151    4.986222E-03
       152   -3.227777E-03
       153   -1.758445E-03
       154   -4.273777E-05
       155   -4.103261E-05
       156    2.264051E-05
       157    3.065618E-03
       158   -3.804967E-03
       159    7.393484E-04
       160   -3.390419E-03
       161    3.910358E-04
       162   -9.948533E-05
       163    2.724363E-05
       164    2.621114E-05
       165   -1.469323E-06
       166    1.810713E-05
       167   -2.552844E-05
       168    2.067311E-06
       169   -5.465829E-05
       170   -9.637484E-06
       171   -9.600708E-08
       172    1.334879E-06
       173    6.337258E-08
       174    1.433250E-07
       175   -2.071284E-07
       176   -6.434265E-07
       177    1.319421E-07
       178    1.291291E-07
       179   -2.411307E-08
       180    1.791586E-02
       181    5.583938E-07
       182    3.296964E-08
       183    2.328160E-02
       184    5.337061E-07
       185    1.634234E-06
       186    8.738039E-03
       187    6.934142E-07
       188    1.014202E-08
       189   -1.346558E-08
       190    3.323560E-09
       191    4.192852E-05
       192   -1.021362E-07
       193    5.518950E-06
       194    7.372246E-08
       195   -1.239034E-07
       196    5.018099E-08
       197   -3.257049E-03
       198   -2.349146E-07
       199    8.356297E-05
       200   -3.729265E-07
       201    2.999482E-07
       202    7.297834E-08
       203    3.871665E-04
       204   -3.924729E-09
       205   -3.213588E-04
       206   -1.240750E-09
       207    2.207529E-04
       208    1.346786E-11
       209    9.826162E-11
       210   -2.042137E-04
       211   -1.070867E-08
       212    1.566379E-09
       213   -9.195731E-05
       214    1.069060E-08
       215   -2.216598E-06
       216   -3.666779E-03
       217   -8.300635E-03
       218    1.577147E-02
       219   -1.082220E-02
       220    6.468099E-02
       221    1.106726E-02
       222   -3.594931E-02
       223   -5.492628E-04
       224   -3.251263E-04
       225   -2.357480E-03
       226    6.323365E-03
       227   -3.357149E-04
       228   -7.840498E-03
       229   -5.885160E-03
       230   -9.786889E-05
       231    9.828259E-04
       232   -8.349442E-04
       233   -1.478818E-04
       234   -2.321298E-04
       235    6.934944E-06
       236   -2.472395E-06
       237   -4.986030E-03
       238    3.227682E-03
       239    1.758348E-03
       240   -4.271471E-05
       241    4.104312E-05
       242    2.269444E-05
       243   -3.066292E-03
       244    3.805639E-03
       245   -7.393470E-04
       246   -3.390955E-03
       247   -3.914919E-04
       248   -9.955443E-05
       249   -2.724596E-05
       250    2.620714E-05
       251    1.449369E-06
       252   -1.810848E-05
       253   -2.552177E-05
       254   -2.055552E-06
       255    5.466276E-05
       256   -9.638790E-06
       257    1.110196E-07
       258    1.337518E-06
       259   -1.771294E-02
       260   -2.418881E-02
       261   -3.367268E-02
       262   -1.894847E-03
       263   -2.904240E-03
       264   -1.136330E-05
       265   -9.395682E-03
       266    1.901667E-03
       267    1.111098E-05
       268    1.771279E-02
       269    2.418858E-02
       270    3.367307E-02
       271    1.894829E-03
       272   -2.904217E-03
       273    1.139019E-05
       274    9.395812E-03
       275    1.901803E-03
       276   -1.119000E-05
       277    4.880167E-03
       278    8.441491E-03
       279    2.582783E-02
       280    3.574042E-04
       281   -7.619551E-04
       282    2.199943E-05
       283    1.239956E-03
       284   -2.888958E-03
       285    2.441064E-05
       286   -4.880071E-03
       287   -8.441155E-03
       288   -2.583059E-02
       289   -3.574595E-04
       290   -7.619343E-04
       291   -2.188125E-05
       292   -1.239658E-03
       293   -2.889058E-03
       294   -2.402836E-05
       295    1.372930E-08
       296    3.118214E-08
       297   -1.265208E-08
       298   -2.286240E-07
       299   -4.257086E-07
       300   -7.572043E-08
       301   -4.977583E-07
       302    2.931538E-02
       303    6.153315E-07
       304   -4.773415E-07
       305    2.178612E-02
       306    5.208023E-07
       307   -1.941533E-07
       308   -9.358975E-03
       309    2.651355E-09
       310   -5.814286E-08
       311    6.317889E-08
       312   -5.036027E-09
       313   -9.491561E-03
       314   -1.469016E-07
       315    2.193841E-05
       316   -1.646213E-07
       317    1.639184E-07
       318    7.028410E-10
       319   -2.622882E-02
       320   -3.799580E-07
       321    6.056553E-05
       322    2.683518E-08
       323   -2.343340E-08
       324   -3.401772E-09
       325    5.064593E-03
       326   -4.070136E-09
       327   -5.363012E-05
       328   -2.540958E-10
       329   -2.252380E-03
       330   -3.500854E-09
       331   -6.107728E-10
       332    3.122153E-03
       333    4.177576E-08
       334    9.516780E-10
       335   -1.002682E-04
       336   -3.707888E-08
       337   -9.837811E-06
       338   -7.776948E-04
       339   -2.057386E-03
       340    3.150925E-03
       341   -2.936938E-03
       342    9.320635E-03
       343   -2.130984E-02
       344   -2.662202E-01
       345   -2.198729E-01
       346    6.069861E-04
       347   -2.413010E-01
       348   -1.926615E-01
       349    5.449687E-04
       350   -1.761932E-01
       351   -1.389491E-01
       352    4.287642E-04
       353   -3.016005E-02
       354   -1.465143E-02
       355    8.837457E-05
       356   -2.196919E-03
       357    2.755624E-03
       358   -5.587047E-04
       359    1.408179E-04
       360    4.617288E-06
       361    1.182683E-06
       362   -6.828511E-03
       363    7.289416E-03
       364   -4.609053E-04
       365    1.416642E-03
       366    1.668445E-05
       367   -8.612173E-07
       368   -9.188028E-03
       369    7.656681E-03
       370    1.531347E-03
       371    3.316182E-04
       372    3.016606E-05
       373   -6.256972E-06
       374   -1.914076E-04
       375   -7.894271E-04
       376    1.138304E-06
       377    3.825884E-04
       378    9.092475E-04
       379    1.390937E-07
       380   -1.257881E-04
       381    1.498801E-04
       382   -1.666289E-06
       383   -2.163656E-06
       384    7.776809E-04
       385    2.057351E-03
       386   -3.150876E-03
       387    2.936873E-03
       388   -9.320426E-03
       389    2.130987E-02
       390    2.662231E-01
       391   -2.198734E-01
       392   -6.127942E-04
       393    2.413036E-01
       394   -1.926620E-01
       395   -5.500352E-04
       396    1.761951E-01
       397   -1.389495E-01
       398   -4.323618E-04
       399    3.016023E-02
       400   -1.465148E-02
       401   -8.863837E-05
       402    2.196929E-03
       403   -2.755626E-03
       404    5.586974E-04
       405    1.408430E-04
       406   -4.609539E-06
       407    1.082445E-06
       408    6.828550E-03
       409   -7.289431E-03
       410    4.608814E-04
       411    1.416702E-03
       412   -1.662084E-05
       413   -1.096760E-06
       414    9.188089E-03
       415   -7.656705E-03
       416   -1.531384E-03
       417    3.316488E-04
       418   -3.005129E-05
       419   -6.471402E-06
       420    1.914046E-04
       421   -7.894321E-04
       422   -1.132089E-06
       423   -3.825819E-04
       424    9.092566E-04
       425   -1.120386E-07
       426    1.257857E-04
       427    1.498778E-04
       428    1.630896E-06
       429   -2.179970E-06
       430   -1.196115E-07
       431   -2.830422E-07
       432    4.300929E-07
       433    7.089419E-07
       434    4.845719E-07
       435    1.016508E-06
       436    1.789166E-07
       437   -7.217593E-03
       438   -2.895468E-06
       439    2.126423E-07
       440   -5.329228E-03
       441   -2.825126E-06
       442    3.274558E-07
       443   -3.263609E-03
       444   -2.148071E-06
       445    3.000377E-09
       446    1.910809E-09
       447   -4.911186E-09
       448   -4.035299E-04
       449   -3.391983E-10
       450   -1.145200E-04
       451    9.388476E-09
       452    3.514998E-08
       453   -4.453846E-08
       454   -1.369784E-03
       455   -1.385524E-08
       456   -1.700673E-04
       457    1.791517E-08
       458    8.831469E-08
       459   -1.062299E-07
       460    8.680271E-04
       461   -4.227678E-08
       462    1.726830E-04
       463    1.486392E-09
       464   -7.096606E-05
       465    1.207778E-08
       466    1.878777E-09
       467    8.570666E-05
       468   -8.121725E-09
       469   -3.872982E-09
       470    9.504304E-06
       471   -8.082323E-09
       472   -2.647067E-05
       473   -3.971771E-03
       474   -6.087627E-03
       475   -1.111076E-02
       476    2.459701E-04
       477    3.558693E-04
       478    1.270426E-04
       479    1.657063E-03
       480    1.156315E-03
       481    3.892803E-04
       482    3.971436E-03
       483    6.086895E-03
       484    1.111017E-02
       485   -2.458863E-04
       486    3.558038E-04
       487   -1.273208E-04
       488   -1.657178E-03
       489    1.156286E-03
       490   -3.895061E-04
 Sym= X
 Ene= 0.833649
 Spin= Alpha
 Occup= 0.833649
         1   -7.183521E-05
         2   -1.513539E-04
         3   -1.826724E-04
         4    5.576077E-03
         5   -1.187424E-01
         6   -2.033258E-02
         7    6.994394E-04
         8   -9.333347E-05
         9    2.155845E-01
        10    3.864817E-04
        11    1.114645E-03
        12    2.189993E-01
        13   -6.657721E-03
        14   -5.115457E-02
        15    1.351379E-01
        16    4.678420E-06
        17   -2.377223E-06
        18   -2.301197E-06
        19   -3.840466E-05
        20   -6.257770E-03
        21    1.001641E-03
        22   -3.557294E-04
        23    2.868090E-04
        24    6.892035E-05
        25   -3.470919E-04
        26   -2.079240E-02
        27   -4.247039E-03
        28   -3.597448E-03
        29    8.869072E-05
        30    3.508758E-03
        31    8.806617E-03
        32   -2.636489E-02
        33   -2.280143E-02
        34    5.864674E-06
        35    1.426897E-05
        36   -2.180540E-04
        37   -6.139236E-06
        38   -1.226448E-05
        39   -2.700078E-04
        40   -1.729050E-06
        41   -6.879346E-06
        42    5.625579E-04
        43   -4.368084E-06
        44    1.267117E-07
        45    2.883435E-07
        46   -5.170865E-07
        47   -9.708678E-07
        48   -5.759681E-05
        49    3.149647E-05
        50    2.704040E-07
        51   -2.843238E-04
        52   -6.064430E-06
        53    1.193849E-06
        54    1.934452E-03
        55   -6.562652E-06
        56   -1.356115E-05
        57   -1.040607E-01
        58   -5.297704E-06
        59   -3.848154E-08
        60   -6.224187E-08
        61    1.007234E-07
        62   -2.605038E-05