[Molden Format]
[Title]
ADC(2) - opt by CAM-B3LYP gaussian                                              
[Atoms] AU
 c     1    6 -.12594776649128E+01 -.22773101438193E+01 -.39940542897370E-01
 c     2    6 -.25470425655544E+01 -.11810788300000E-05 -.37653974276580E-01
 c     3    6 -.12594776649128E+01 0.22773077816617E+01 -.39959440158700E-01
 c     4    6 0.13393870965995E+01 0.22758904870620E+01 -.43795584208460E-01
 c     5    6 0.26846831306008E+01 -.11810788300000E-05 -.44211323957690E-01
 c     6    6 0.13394059938609E+01 -.22758928492196E+01 -.43776686947130E-01
 h     7    1 -.23144739703802E+01 -.40231336316857E+01 -.37313823572660E-01
 h     8    1 -.23144739703802E+01 0.40231312695281E+01 -.37332720833990E-01
 h     9    1 0.23577983041343E+01 0.40499086888311E+01 -.52469427158400E-01
 h    10    1 0.23577983041343E+01 -.40498921537274E+01 -.52431632635740E-01
 n    11    7 -.52968964450843E+01 -.11810788300000E-05 -.29906097131750E-01
 o    12    8 -.63725096626615E+01 0.20302827815708E+01 -.26599076399200E-01
 o    13    8 -.63725096626615E+01 -.20302851437285E+01 -.26655768183180E-01
 n    14    7 0.52734000627795E+01 -.11810788300000E-05 -.11796733492422E+00
 h    15    1 0.61922038058499E+01 0.16034881344586E+01 0.31500671664254E+00
 h    16    1 0.61921849085885E+01 -.16034904966163E+01 0.31500671664254E+00
[GTO]
    1 0
 s    6 1.00
 0.13575349682000E+05 0.60645503603591E-03
 0.20352333680000E+04 0.46979088884982E-02
 0.46322562359000E+03 0.24332477647552E-01
 0.13120019598000E+03 0.97399968307759E-01
 0.42853015891000E+02 0.30195584253780E+00
 0.15584185766000E+02 0.66233609137875E+00
 s    2 1.00
 0.62067138508000E+01 0.65595308539952E+00
 0.25764896527000E+01 0.37585633285142E+00
 s    1 1.00
 0.57696339419000E+00 0.10000000000000E+01
 s    1 1.00
 0.22972831358000E+00 0.10000000000000E+01
 s    1 1.00
 0.95164440028000E-01 0.10000000000000E+01
 s    1 1.00
 0.48475401370000E-01 0.10000000000000E+01
 p    4 1.00
 0.34697232244000E+02 0.11327220003114E-01
 0.79582622826000E+01 0.76169659202087E-01
 0.23780826883000E+01 0.30192252202676E+00
 0.81433208183000E+00 0.72785027349547E+00
 p    1 1.00
 0.28887547253000E+00 0.10000000000000E+01
 p    1 1.00
 0.10056823671000E+00 0.10000000000000E+01
 d    1 1.00
 0.10970000000000E+01 0.10000000000000E+01
 d    1 1.00
 0.31800000000000E+00 0.10000000000000E+01
 d    1 1.00
 0.90985336424000E-01 0.10000000000000E+01
 f    1 1.00
 0.76100000000000E+00 0.10000000000000E+01
 
    2 0
 s    6 1.00
 0.13575349682000E+05 0.60645503603591E-03
 0.20352333680000E+04 0.46979088884982E-02
 0.46322562359000E+03 0.24332477647552E-01
 0.13120019598000E+03 0.97399968307759E-01
 0.42853015891000E+02 0.30195584253780E+00
 0.15584185766000E+02 0.66233609137875E+00
 s    2 1.00
 0.62067138508000E+01 0.65595308539952E+00
 0.25764896527000E+01 0.37585633285142E+00
 s    1 1.00
 0.57696339419000E+00 0.10000000000000E+01
 s    1 1.00
 0.22972831358000E+00 0.10000000000000E+01
 s    1 1.00
 0.95164440028000E-01 0.10000000000000E+01
 s    1 1.00
 0.48475401370000E-01 0.10000000000000E+01
 p    4 1.00
 0.34697232244000E+02 0.11327220003114E-01
 0.79582622826000E+01 0.76169659202087E-01
 0.23780826883000E+01 0.30192252202676E+00
 0.81433208183000E+00 0.72785027349547E+00
 p    1 1.00
 0.28887547253000E+00 0.10000000000000E+01
 p    1 1.00
 0.10056823671000E+00 0.10000000000000E+01
 d    1 1.00
 0.10970000000000E+01 0.10000000000000E+01
 d    1 1.00
 0.31800000000000E+00 0.10000000000000E+01
 d    1 1.00
 0.90985336424000E-01 0.10000000000000E+01
 f    1 1.00
 0.76100000000000E+00 0.10000000000000E+01
 
    3 0
 s    6 1.00
 0.13575349682000E+05 0.60645503603591E-03
 0.20352333680000E+04 0.46979088884982E-02
 0.46322562359000E+03 0.24332477647552E-01
 0.13120019598000E+03 0.97399968307759E-01
 0.42853015891000E+02 0.30195584253780E+00
 0.15584185766000E+02 0.66233609137875E+00
 s    2 1.00
 0.62067138508000E+01 0.65595308539952E+00
 0.25764896527000E+01 0.37585633285142E+00
 s    1 1.00
 0.57696339419000E+00 0.10000000000000E+01
 s    1 1.00
 0.22972831358000E+00 0.10000000000000E+01
 s    1 1.00
 0.95164440028000E-01 0.10000000000000E+01
 s    1 1.00
 0.48475401370000E-01 0.10000000000000E+01
 p    4 1.00
 0.34697232244000E+02 0.11327220003114E-01
 0.79582622826000E+01 0.76169659202087E-01
 0.23780826883000E+01 0.30192252202676E+00
 0.81433208183000E+00 0.72785027349547E+00
 p    1 1.00
 0.28887547253000E+00 0.10000000000000E+01
 p    1 1.00
 0.10056823671000E+00 0.10000000000000E+01
 d    1 1.00
 0.10970000000000E+01 0.10000000000000E+01
 d    1 1.00
 0.31800000000000E+00 0.10000000000000E+01
 d    1 1.00
 0.90985336424000E-01 0.10000000000000E+01
 f    1 1.00
 0.76100000000000E+00 0.10000000000000E+01
 
    4 0
 s    6 1.00
 0.13575349682000E+05 0.60645503603591E-03
 0.20352333680000E+04 0.46979088884982E-02
 0.46322562359000E+03 0.24332477647552E-01
 0.13120019598000E+03 0.97399968307759E-01
 0.42853015891000E+02 0.30195584253780E+00
 0.15584185766000E+02 0.66233609137875E+00
 s    2 1.00
 0.62067138508000E+01 0.65595308539952E+00
 0.25764896527000E+01 0.37585633285142E+00
 s    1 1.00
 0.57696339419000E+00 0.10000000000000E+01
 s    1 1.00
 0.22972831358000E+00 0.10000000000000E+01
 s    1 1.00
 0.95164440028000E-01 0.10000000000000E+01
 s    1 1.00
 0.48475401370000E-01 0.10000000000000E+01
 p    4 1.00
 0.34697232244000E+02 0.11327220003114E-01
 0.79582622826000E+01 0.76169659202087E-01
 0.23780826883000E+01 0.30192252202676E+00
 0.81433208183000E+00 0.72785027349547E+00
 p    1 1.00
 0.28887547253000E+00 0.10000000000000E+01
 p    1 1.00
 0.10056823671000E+00 0.10000000000000E+01
 d    1 1.00
 0.10970000000000E+01 0.10000000000000E+01
 d    1 1.00
 0.31800000000000E+00 0.10000000000000E+01
 d    1 1.00
 0.90985336424000E-01 0.10000000000000E+01
 f    1 1.00
 0.76100000000000E+00 0.10000000000000E+01
 
    5 0
 s    6 1.00
 0.13575349682000E+05 0.60645503603591E-03
 0.20352333680000E+04 0.46979088884982E-02
 0.46322562359000E+03 0.24332477647552E-01
 0.13120019598000E+03 0.97399968307759E-01
 0.42853015891000E+02 0.30195584253780E+00
 0.15584185766000E+02 0.66233609137875E+00
 s    2 1.00
 0.62067138508000E+01 0.65595308539952E+00
 0.25764896527000E+01 0.37585633285142E+00
 s    1 1.00
 0.57696339419000E+00 0.10000000000000E+01
 s    1 1.00
 0.22972831358000E+00 0.10000000000000E+01
 s    1 1.00
 0.95164440028000E-01 0.10000000000000E+01
 s    1 1.00
 0.48475401370000E-01 0.10000000000000E+01
 p    4 1.00
 0.34697232244000E+02 0.11327220003114E-01
 0.79582622826000E+01 0.76169659202087E-01
 0.23780826883000E+01 0.30192252202676E+00
 0.81433208183000E+00 0.72785027349547E+00
 p    1 1.00
 0.28887547253000E+00 0.10000000000000E+01
 p    1 1.00
 0.10056823671000E+00 0.10000000000000E+01
 d    1 1.00
 0.10970000000000E+01 0.10000000000000E+01
 d    1 1.00
 0.31800000000000E+00 0.10000000000000E+01
 d    1 1.00
 0.90985336424000E-01 0.10000000000000E+01
 f    1 1.00
 0.76100000000000E+00 0.10000000000000E+01
 
    6 0
 s    6 1.00
 0.13575349682000E+05 0.60645503603591E-03
 0.20352333680000E+04 0.46979088884982E-02
 0.46322562359000E+03 0.24332477647552E-01
 0.13120019598000E+03 0.97399968307759E-01
 0.42853015891000E+02 0.30195584253780E+00
 0.15584185766000E+02 0.66233609137875E+00
 s    2 1.00
 0.62067138508000E+01 0.65595308539952E+00
 0.25764896527000E+01 0.37585633285142E+00
 s    1 1.00
 0.57696339419000E+00 0.10000000000000E+01
 s    1 1.00
 0.22972831358000E+00 0.10000000000000E+01
 s    1 1.00
 0.95164440028000E-01 0.10000000000000E+01
 s    1 1.00
 0.48475401370000E-01 0.10000000000000E+01
 p    4 1.00
 0.34697232244000E+02 0.11327220003114E-01
 0.79582622826000E+01 0.76169659202087E-01
 0.23780826883000E+01 0.30192252202676E+00
 0.81433208183000E+00 0.72785027349547E+00
 p    1 1.00
 0.28887547253000E+00 0.10000000000000E+01
 p    1 1.00
 0.10056823671000E+00 0.10000000000000E+01
 d    1 1.00
 0.10970000000000E+01 0.10000000000000E+01
 d    1 1.00
 0.31800000000000E+00 0.10000000000000E+01
 d    1 1.00
 0.90985336424000E-01 0.10000000000000E+01
 f    1 1.00
 0.76100000000000E+00 0.10000000000000E+01
 
    7 0
 s    3 1.00
 0.34061341000000E+02 0.25439307208879E-01
 0.51235746000000E+01 0.19008594890375E+00
 0.11646626000000E+01 0.85244113011042E+00
 s    1 1.00
 0.32723041000000E+00 0.10000000000000E+01
 s    1 1.00
 0.10307241000000E+00 0.10000000000000E+01
 p    1 1.00
 0.80000000000000E+00 0.10000000000000E+01
 p    1 1.00
 0.95774129632000E-01 0.10000000000000E+01
 
    8 0
 s    3 1.00
 0.34061341000000E+02 0.25439307208879E-01
 0.51235746000000E+01 0.19008594890375E+00
 0.11646626000000E+01 0.85244113011042E+00
 s    1 1.00
 0.32723041000000E+00 0.10000000000000E+01
 s    1 1.00
 0.10307241000000E+00 0.10000000000000E+01
 p    1 1.00
 0.80000000000000E+00 0.10000000000000E+01
 p    1 1.00
 0.95774129632000E-01 0.10000000000000E+01
 
    9 0
 s    3 1.00
 0.34061341000000E+02 0.25439307208879E-01
 0.51235746000000E+01 0.19008594890375E+00
 0.11646626000000E+01 0.85244113011042E+00
 s    1 1.00
 0.32723041000000E+00 0.10000000000000E+01
 s    1 1.00
 0.10307241000000E+00 0.10000000000000E+01
 p    1 1.00
 0.80000000000000E+00 0.10000000000000E+01
 p    1 1.00
 0.95774129632000E-01 0.10000000000000E+01
 
   10 0
 s    3 1.00
 0.34061341000000E+02 0.25439307208879E-01
 0.51235746000000E+01 0.19008594890375E+00
 0.11646626000000E+01 0.85244113011042E+00
 s    1 1.00
 0.32723041000000E+00 0.10000000000000E+01
 s    1 1.00
 0.10307241000000E+00 0.10000000000000E+01
 p    1 1.00
 0.80000000000000E+00 0.10000000000000E+01
 p    1 1.00
 0.95774129632000E-01 0.10000000000000E+01
 
   11 0
 s    6 1.00
 0.19730800647000E+05 0.58626402628763E-03
 0.29578958745000E+04 0.45428820586397E-02
 0.67322133595000E+03 0.23558413450084E-01
 0.19068249494000E+03 0.94709193292923E-01
 0.62295441898000E+02 0.29719784913376E+00
 0.22654161182000E+02 0.66916246895232E+00
 s    2 1.00
 0.89791477428000E+01 0.64596683630063E+00
 0.36863002370000E+01 0.38700574393705E+00
 s    1 1.00
 0.84660076805000E+00 0.10000000000000E+01
 s    1 1.00
 0.33647133771000E+00 0.10000000000000E+01
 s    1 1.00
 0.13647653675000E+00 0.10000000000000E+01
 s    1 1.00
 0.68441605847000E-01 0.10000000000000E+01
 p    4 1.00
 0.49200380510000E+02 0.11448825101764E-01
 0.11346790537000E+02 0.78422337970864E-01
 0.34273972411000E+01 0.30818094738830E+00
 0.11785525134000E+01 0.72027196368413E+00
 p    1 1.00
 0.41642204972000E+00 0.10000000000000E+01
 p    1 1.00
 0.14260826011000E+00 0.10000000000000E+01
 d    1 1.00
 0.16540000000000E+01 0.10000000000000E+01
 d    1 1.00
 0.46900000000000E+00 0.10000000000000E+01
 d    1 1.00
 0.12829642058000E+00 0.10000000000000E+01
 f    1 1.00
 0.10930000000000E+01 0.10000000000000E+01
 
   12 0
 s    6 1.00
 0.27032382631000E+05 0.57227335211155E-03
 0.40523871392000E+04 0.44353233492995E-02
 0.92232722710000E+03 0.23020107706038E-01
 0.26124070989000E+03 0.92822490667928E-01
 0.85354641351000E+02 0.29378500009671E+00
 0.31035035245000E+02 0.67401604501641E+00
 s    2 1.00
 0.12260860728000E+02 0.63839937025506E+00
 0.49987076005000E+01 0.39534587125718E+00
 s    1 1.00
 0.11703108158000E+01 0.10000000000000E+01
 s    1 1.00
 0.46474740994000E+00 0.10000000000000E+01
 s    1 1.00
 0.18504536357000E+00 0.10000000000000E+01
 s    1 1.00
 0.70288026270000E-01 0.10000000000000E+01
 p    4 1.00
 0.63274954801000E+02 0.12018332222616E-01
 0.14627049379000E+02 0.83005421790056E-01
 0.44501223456000E+01 0.31991743925964E+00
 0.15275799647000E+01 0.70715542916104E+00
 p    1 1.00
 0.52935117943000E+00 0.10000000000000E+01
 p    1 1.00
 0.17478421270000E+00 0.10000000000000E+01
 p    1 1.00
 0.51112745706000E-01 0.10000000000000E+01
 d    1 1.00
 0.23140000000000E+01 0.10000000000000E+01
 d    1 1.00
 0.64500000000000E+00 0.10000000000000E+01
 d    1 1.00
 0.14696477366000E+00 0.10000000000000E+01
 f    1 1.00
 0.14280000000000E+01 0.10000000000000E+01
 
   13 0
 s    6 1.00
 0.27032382631000E+05 0.57227335211155E-03
 0.40523871392000E+04 0.44353233492995E-02
 0.92232722710000E+03 0.23020107706038E-01
 0.26124070989000E+03 0.92822490667928E-01
 0.85354641351000E+02 0.29378500009671E+00
 0.31035035245000E+02 0.67401604501641E+00
 s    2 1.00
 0.12260860728000E+02 0.63839937025506E+00
 0.49987076005000E+01 0.39534587125718E+00
 s    1 1.00
 0.11703108158000E+01 0.10000000000000E+01
 s    1 1.00
 0.46474740994000E+00 0.10000000000000E+01
 s    1 1.00
 0.18504536357000E+00 0.10000000000000E+01
 s    1 1.00
 0.70288026270000E-01 0.10000000000000E+01
 p    4 1.00
 0.63274954801000E+02 0.12018332222616E-01
 0.14627049379000E+02 0.83005421790056E-01
 0.44501223456000E+01 0.31991743925964E+00
 0.15275799647000E+01 0.70715542916104E+00
 p    1 1.00
 0.52935117943000E+00 0.10000000000000E+01
 p    1 1.00
 0.17478421270000E+00 0.10000000000000E+01
 p    1 1.00
 0.51112745706000E-01 0.10000000000000E+01
 d    1 1.00
 0.23140000000000E+01 0.10000000000000E+01
 d    1 1.00
 0.64500000000000E+00 0.10000000000000E+01
 d    1 1.00
 0.14696477366000E+00 0.10000000000000E+01
 f    1 1.00
 0.14280000000000E+01 0.10000000000000E+01
 
   14 0
 s    6 1.00
 0.19730800647000E+05 0.58626402628763E-03
 0.29578958745000E+04 0.45428820586397E-02
 0.67322133595000E+03 0.23558413450084E-01
 0.19068249494000E+03 0.94709193292923E-01
 0.62295441898000E+02 0.29719784913376E+00
 0.22654161182000E+02 0.66916246895232E+00
 s    2 1.00
 0.89791477428000E+01 0.64596683630063E+00
 0.36863002370000E+01 0.38700574393705E+00
 s    1 1.00
 0.84660076805000E+00 0.10000000000000E+01
 s    1 1.00
 0.33647133771000E+00 0.10000000000000E+01
 s    1 1.00
 0.13647653675000E+00 0.10000000000000E+01
 s    1 1.00
 0.68441605847000E-01 0.10000000000000E+01
 p    4 1.00
 0.49200380510000E+02 0.11448825101764E-01
 0.11346790537000E+02 0.78422337970864E-01
 0.34273972411000E+01 0.30818094738830E+00
 0.11785525134000E+01 0.72027196368413E+00
 p    1 1.00
 0.41642204972000E+00 0.10000000000000E+01
 p    1 1.00
 0.14260826011000E+00 0.10000000000000E+01
 d    1 1.00
 0.16540000000000E+01 0.10000000000000E+01
 d    1 1.00
 0.46900000000000E+00 0.10000000000000E+01
 d    1 1.00
 0.12829642058000E+00 0.10000000000000E+01
 f    1 1.00
 0.10930000000000E+01 0.10000000000000E+01
 
   15 0
 s    3 1.00
 0.34061341000000E+02 0.25439307208879E-01
 0.51235746000000E+01 0.19008594890375E+00
 0.11646626000000E+01 0.85244113011042E+00
 s    1 1.00
 0.32723041000000E+00 0.10000000000000E+01
 s    1 1.00
 0.10307241000000E+00 0.10000000000000E+01
 p    1 1.00
 0.80000000000000E+00 0.10000000000000E+01
 p    1 1.00
 0.95774129632000E-01 0.10000000000000E+01
 
   16 0
 s    3 1.00
 0.34061341000000E+02 0.25439307208879E-01
 0.51235746000000E+01 0.19008594890375E+00
 0.11646626000000E+01 0.85244113011042E+00
 s    1 1.00
 0.32723041000000E+00 0.10000000000000E+01
 s    1 1.00
 0.10307241000000E+00 0.10000000000000E+01
 p    1 1.00
 0.80000000000000E+00 0.10000000000000E+01
 p    1 1.00
 0.95774129632000E-01 0.10000000000000E+01
 
[MO]
 Sym= X
 Ene= -0.053449
 Spin= Alpha
 Occup= -0.053449
         1    1.460708E-04
         2    3.414419E-04
         3   -8.386857E-04
         4    9.182436E-04
         5   -2.768260E-03
         6   -1.977278E-04
         7    1.409445E-03
         8    1.752120E-03
         9    1.877299E-01
        10    3.071146E-03
        11    8.470161E-04
        12    1.886833E-01
        13   -5.830667E-03
        14    2.972788E-03
        15    1.132032E-01
        16    6.177135E-05
        17   -5.896650E-05
        18   -2.804847E-06
        19   -6.962812E-05
        20    4.895650E-03
        21    5.689188E-04
        22    5.636164E-04
        23   -4.204504E-04
        24   -1.431660E-04
        25   -9.583799E-05
        26    9.531812E-03
        27   -4.488215E-04
        28   -9.983866E-04
        29    7.813227E-04
        30    2.170639E-04
        31   -1.768217E-04
        32    5.490284E-03
        33   -2.296187E-03
        34    1.303590E-05
        35   -1.398202E-06
        36   -1.195483E-03
        37   -2.923073E-06
        38    6.927835E-06
        39    1.438074E-03
        40   -1.456642E-05
        41   -5.051950E-06
        42    1.658350E-04
        43   -8.463654E-07
        44    2.274959E-08
        45    5.386342E-08
        46   -1.501412E-07
        47    7.121606E-07
        48   -2.138924E-06
        49   -2.934585E-06
        50    4.341879E-08
        51   -8.309878E-04
        52    3.118867E-05
        53    3.968854E-07
        54   -1.164693E-03
        55    3.176798E-05
        56    2.840004E-06
        57    5.489133E-03
        58    1.230615E-05
        59   -3.735354E-08
        60   -1.488846E-08
        61    5.224200E-08
        62   -2.661516E-05
        63    4.581652E-07
        64   -7.231060E-03
        65   -2.713276E-07
        66    2.113047E-07
        67    6.002293E-08
        68   -4.543759E-04
        69    7.536088E-07
        70   -1.633231E-02
        71   -3.325969E-06
        72    3.547016E-06
        73   -2.210470E-07
        74    1.254975E-04
        75    1.252898E-06
        76   -3.647382E-03
        77    1.966266E-09
        78    1.296127E-05
        79   -2.303080E-07
        80   -7.793250E-09
        81   -2.343300E-05
        82    1.068745E-07
        83    5.155227E-09
        84    6.043634E-06
        85    2.021161E-07
        86   -1.015769E-03
        87   -1.460257E-04
        88   -3.413366E-04
        89    8.382261E-04
        90   -9.168577E-04
        91    2.746283E-03
        92    2.070743E-04
        93   -1.411846E-03
        94    1.751423E-03
        95   -1.876922E-01
        96   -3.071106E-03
        97    8.465107E-04
        98   -1.886456E-01
        99    5.833893E-03
       100    2.974356E-03
       101   -1.131907E-01
       102   -6.181577E-05
       103    5.900279E-05
       104    2.812976E-06
       105   -6.970918E-05
       106   -4.896118E-03
       107    5.675793E-04
       108   -5.634643E-04
       109    4.203899E-04
       110    1.430744E-04
       111   -9.651290E-05
       112   -9.532717E-03
       113   -4.510419E-04
       114    9.986707E-04
       115   -7.815954E-04
       116   -2.170753E-04
       117   -1.738375E-04
       118   -5.492452E-03
       119   -2.297457E-03
       120   -1.303175E-05
       121   -1.390193E-06
       122    1.195172E-03
       123    2.918831E-06
       124    6.912267E-06
       125   -1.437940E-03
       126    1.456509E-05
       127   -5.047127E-06
       128   -1.655514E-04
       129   -6.926525E-07
       130    8.134584E-06
       131    1.928669E-05
       132   -3.403784E-04
       133    2.881514E-03
       134    1.401440E-02
       135   -2.299064E-04
       136    8.912038E-04
       137   -1.043539E-03
       138   -2.018559E-01
       139   -9.689157E-04
       140   -9.770415E-04
       141   -2.049766E-01
       142    1.324861E-02
       143   -1.078908E-02
       144   -1.329561E-01
       145    7.805491E-06
       146    3.918926E-05
       147   -4.699475E-05
       148   -7.635927E-05
       149    4.519405E-03
       150    4.768529E-04
       151    5.675616E-04
       152   -2.271078E-04
       153   -3.404538E-04
       154   -2.529197E-04
       155    7.916954E-03
       156    2.311819E-04
       157    5.782214E-04
       158   -1.104750E-04
       159   -4.677465E-04
       160   -2.482029E-03
       161   -7.204452E-03
       162    3.514815E-03
       163   -1.260328E-05
       164   -2.907237E-06
       165    1.333375E-03
       166    1.313271E-05
       167   -6.006238E-06
       168   -1.466184E-03
       169    3.776369E-06
       170    9.906706E-06
       171   -3.227267E-04
       172    4.425356E-05
       173    2.357272E-07
       174    5.313059E-07
       175   -5.187361E-07
       176   -3.977584E-06
       177    2.078214E-05
       178    9.493263E-07
       179   -3.540791E-06
       180    2.485719E-03
       181   -1.166962E-05
       182   -7.430352E-07
       183    2.039324E-03
       184   -1.129071E-05
       185    1.485890E-05
       186   -3.171447E-02
       187    3.959180E-06
       188   -1.621982E-07
       189    6.279392E-08
       190    9.940425E-08
       191    1.254709E-05
       192   -1.008986E-06
       193   -7.696746E-03
       194    5.518542E-07
       195   -1.156174E-06
       196    6.043197E-07
       197   -4.220700E-05
       198   -2.145250E-06
       199   -1.633422E-02
       200    3.284692E-06
       201   -3.224253E-06
       202   -6.043954E-08
       203   -4.751828E-04
       204   -2.167738E-07
       205    1.215852E-02
       206   -3.141818E-08
       207   -3.369025E-06
       208    1.340304E-07
       209    2.686126E-08
       210    1.561192E-05
       211   -2.221015E-07
       212    1.529065E-08
       213   -1.109190E-05
       214    4.228079E-08
       215    1.192879E-03
       216   -8.121235E-06
       217   -1.925299E-05
       218    3.398950E-04
       219   -2.876600E-03
       220   -1.399150E-02
       221    2.193994E-04
       222   -8.893311E-04
       223   -1.040419E-03
       224    2.018647E-01
       225    9.743567E-04
       226   -9.713780E-04
       227    2.049859E-01
       228   -1.324983E-02
       229   -1.079253E-02
       230    1.329591E-01
       231   -7.949454E-06
       232   -3.901919E-05
       233    4.696864E-05
       234   -7.635926E-05
       235   -4.520377E-03
       236    4.766623E-04
       237   -5.678437E-04
       238    2.274503E-04
       239    3.403933E-04
       240   -2.519568E-04
       241   -7.918857E-03
       242    2.306443E-04
       243   -5.811898E-04
       244    1.128769E-04
       245    4.683129E-04
       246   -2.488857E-03
       247    7.202842E-03
       248    3.511642E-03
       249    1.261500E-05
       250   -2.885910E-06
       251   -1.333461E-03
       252   -1.312303E-05
       253   -5.993193E-06
       254    1.466315E-03
       255   -3.801761E-06
       256    9.865048E-06
       257    3.227112E-04
       258    4.414516E-05
       259   -1.195241E-03
       260   -1.753666E-03
       261   -6.165329E-04
       262   -9.794334E-05
       263   -1.498108E-04
       264    7.783857E-03
       265    1.013571E-04
       266    3.836852E-05
       267    6.730048E-03
       268    1.195755E-03
       269    1.753933E-03
       270    6.298186E-04
       271    9.789680E-05
       272   -1.498604E-04
       273   -7.782478E-03
       274   -9.896558E-05
       275    3.688947E-05
       276   -6.729330E-03
       277   -1.498412E-05
       278    1.193679E-04
       279    4.088224E-03
       280   -2.530758E-05
       281   -6.391387E-05
       282   -8.861105E-03
       283   -2.859819E-04
       284    7.077488E-05
       285   -9.834278E-03
       286    1.516452E-05
       287   -1.179272E-04
       288   -4.111585E-03
       289    2.532457E-05
       290   -6.374502E-05
       291    8.861432E-03
       292    2.881523E-04
       293    6.868609E-05
       294    9.832103E-03
       295    1.092647E-08
       296    2.579945E-08
       297   -1.875277E-08
       298   -1.042640E-07
       299    3.058440E-06
       300   -1.636333E-07
       301   -4.317750E-07
       302    8.151564E-04
       303   -6.583928E-06
       304   -1.811381E-07
       305    5.470457E-04
       306   -6.265598E-06
       307    1.951810E-06
       308   -1.330954E-03
       309   -4.683171E-07
       310   -2.573806E-09
       311    2.276292E-08
       312   -2.018911E-08
       313   -2.233598E-04
       314    6.187953E-07
       315   -9.600194E-04
       316    3.359714E-08
       317    1.590305E-08
       318   -4.950018E-08
       319   -6.479634E-04
       320    1.702443E-06
       321   -3.120517E-03
       322   -1.602125E-07
       323   -5.543350E-07
       324    7.145474E-07
       325   -7.036606E-05
       326    7.954018E-07
       327    1.210346E-03
       328   -8.806050E-10
       329   -4.488185E-05
       330    3.736597E-08
       331   -2.631067E-09
       332    6.295243E-05
       333    8.394972E-08
       334    3.812523E-09
       335   -2.737104E-06
       336   -1.340814E-07
       337    6.701442E-06
       338    1.042631E-05
       339    2.167088E-05
       340   -2.924434E-05
       341   -2.694604E-04
       342    5.052692E-04
       343   -6.017929E-04
       344   -5.619177E-03
       345   -4.935303E-03
       346   -1.938322E-02
       347   -5.094055E-03
       348   -4.310509E-03
       349   -1.736220E-02
       350   -3.528187E-03
       351   -3.200095E-03
       352   -1.284033E-02
       353   -6.385645E-04
       354   -2.928278E-04
       355   -3.596122E-03
       356   -4.961823E-05
       357    6.289675E-05
       358   -1.327852E-05
       359    4.922792E-07
       360   -1.856610E-04
       361    1.849053E-04
       362   -1.464742E-04
       363    1.617014E-04
       364   -1.522714E-05
       365    2.053038E-05
       366   -5.830974E-04
       367    4.554430E-04
       368   -1.651754E-04
       369    1.324514E-04
       370    3.272394E-05
       371   -3.678274E-05
       372   -9.169749E-04
       373    1.234025E-03
       374   -5.009081E-06
       375   -1.733737E-05
       376    4.421490E-05
       377    9.682014E-06
       378    1.964561E-05
       379   -1.449929E-05
       380   -2.961627E-06
       381    3.614912E-06
       382   -4.482123E-05
       383    5.581229E-05
       384   -1.035858E-05
       385   -2.150645E-05
       386    2.900268E-05
       387    2.689868E-04
       388   -5.018487E-04
       389    6.034228E-04
       390    5.619135E-03
       391   -4.935490E-03
       392    1.935757E-02
       393    5.094197E-03
       394   -4.310592E-03
       395    1.733867E-02
       396    3.528070E-03
       397   -3.199516E-03
       398    1.282488E-02
       399    6.388391E-04
       400   -2.925737E-04
       401    3.594870E-03
       402    4.960859E-05
       403   -6.289653E-05
       404    1.328795E-05
       405    4.883680E-07
       406    1.855400E-04
       407    1.845643E-04
       408    1.464447E-04
       409   -1.616883E-04
       410    1.524362E-05
       411    2.053880E-05
       412    5.826005E-04
       413    4.544252E-04
       414    1.650444E-04
       415   -1.323324E-04
       416   -3.271201E-05
       417   -3.695193E-05
       418    9.162464E-04
       419    1.233828E-03
       420    5.006933E-06
       421   -1.733807E-05
       422   -4.416128E-05
       423   -9.682894E-06
       424    1.964372E-05
       425    1.452588E-05
       426    2.965389E-06
       427    3.617747E-06
       428    4.472269E-05
       429    5.572752E-05
       430   -1.263157E-06
       431   -2.987423E-06
       432    4.590005E-06
       433    7.799759E-06
       434   -1.832622E-06
       435    8.626647E-06
       436    5.227390E-06
       437    3.650549E-03
       438   -3.984840E-05
       439    5.955377E-06
       440    3.440554E-03
       441   -3.853473E-05
       442    9.030687E-06
       443    2.676156E-03
       444   -2.642836E-05
       445    4.297117E-08
       446    4.051824E-08
       447   -8.348940E-08
       448   -5.666191E-06
       449    2.460652E-07
       450   -2.826831E-04
       451    5.434569E-09
       452    5.728081E-07
       453   -5.782427E-07
       454   -1.195147E-04
       455    5.422269E-07
       456   -5.900173E-04
       457   -1.201699E-07
       458    1.854331E-06
       459   -1.734161E-06
       460   -8.964366E-04
       461    1.132685E-07
       462   -4.237261E-04
       463    2.416585E-08
       464    6.358950E-06
       465    1.936119E-07
       466    3.231456E-08
       467    2.888394E-05
       468   -1.595319E-07
       469   -6.473646E-08
       470   -3.741537E-05
       471   -1.002257E-07
       472    1.300208E-04
       473    6.887624E-04
       474    1.191839E-03
       475    4.044021E-03
       476   -1.724640E-05
       477   -1.032793E-04
       478   -4.252978E-04
       479   -6.083336E-04
       480   -5.641571E-04
       481   -1.707697E-03
       482   -6.921235E-04
       483   -1.199914E-03
       484   -4.061507E-03
       485    1.851621E-05
       486   -1.042303E-04
       487    4.216953E-04
       488    6.104334E-04
       489   -5.658161E-04
       490    1.706089E-03
 Sym= X
 Ene= -0.058486
 Spin= Alpha
 Occup= -0.058486
         1    5.243114E-04
         2    1.203962E-03
         3   -2.633004E-03
         4    2.361421E-03
         5   -5.769213E-02
         6    1.968136E-02
         7   -7.956719E-03
         8   -1.060121E-03
         9    1.297611E-01
        10    2.287767E-04
        11   -1.827705E-03
        12    1.283625E-01
        13    3.840189E-02
        14   -5.727112E-03
        15    4.472104E-02
        16   -1.797016E-04
        17    1.658317E-04
        18    1.386988E-05
        19    6.761784E-05
        20   -8.209912E-04
        21    4.227811E-03
        22    6.724650E-04
        23   -4.445079E-04
        24   -2.279571E-04
        25    1.403678E-03
        26   -2.188041E-03
        27    6.926125E-03
        28    5.124666E-04
        29    4.176297E-04
        30   -9.300962E-04
        31   -4.069178E-03
        32   -6.573827E-03
        33    4.384993E-03
        34    1.182464E-05
        35   -1.956736E-05
        36   -1.064278E-03
        37   -2.020528E-06
        38    1.417787E-05
        39    5.184998E-04
        40   -1.384389E-05
        41    1.207450E-05
        42    9.093787E-04
        43   -4.787798E-04
        44   -5.789585E-04
        45   -1.283374E-03
        46    1.167621E-03
        47    1.058412E-02
        48    3.277590E-02
        49   -1.588690E-02
        50    3.681087E-04
        51    1.138574E-06
        52    1.964895E-01
        53    2.179736E-03
        54    6.983823E-07
        55    1.992054E-01
        56    7.566021E-03
        57   -1.120184E-05
        58    7.087207E-02
        59   -2.016925E-04
        60    2.327446E-04
        61   -3.105214E-05
        62    2.528393E-08