[Molden Format]
[Title]
ADC(2) - opt by CAM-B3LYP gaussian                                              
[Atoms] AU
 c     1    6 -.12594776649128E+01 -.22773101438193E+01 -.39940542897370E-01
 c     2    6 -.25470425655544E+01 -.11810788300000E-05 -.37653974276580E-01
 c     3    6 -.12594776649128E+01 0.22773077816617E+01 -.39959440158700E-01
 c     4    6 0.13393870965995E+01 0.22758904870620E+01 -.43795584208460E-01
 c     5    6 0.26846831306008E+01 -.11810788300000E-05 -.44211323957690E-01
 c     6    6 0.13394059938609E+01 -.22758928492196E+01 -.43776686947130E-01
 h     7    1 -.23144739703802E+01 -.40231336316857E+01 -.37313823572660E-01
 h     8    1 -.23144739703802E+01 0.40231312695281E+01 -.37332720833990E-01
 h     9    1 0.23577983041343E+01 0.40499086888311E+01 -.52469427158400E-01
 h    10    1 0.23577983041343E+01 -.40498921537274E+01 -.52431632635740E-01
 n    11    7 -.52968964450843E+01 -.11810788300000E-05 -.29906097131750E-01
 o    12    8 -.63725096626615E+01 0.20302827815708E+01 -.26599076399200E-01
 o    13    8 -.63725096626615E+01 -.20302851437285E+01 -.26655768183180E-01
 n    14    7 0.52734000627795E+01 -.11810788300000E-05 -.11796733492422E+00
 h    15    1 0.61922038058499E+01 0.16034881344586E+01 0.31500671664254E+00
 h    16    1 0.61921849085885E+01 -.16034904966163E+01 0.31500671664254E+00
[GTO]
    1 0
 s    6 1.00
 0.13575349682000E+05 0.60645503603591E-03
 0.20352333680000E+04 0.46979088884982E-02
 0.46322562359000E+03 0.24332477647552E-01
 0.13120019598000E+03 0.97399968307759E-01
 0.42853015891000E+02 0.30195584253780E+00
 0.15584185766000E+02 0.66233609137875E+00
 s    2 1.00
 0.62067138508000E+01 0.65595308539952E+00
 0.25764896527000E+01 0.37585633285142E+00
 s    1 1.00
 0.57696339419000E+00 0.10000000000000E+01
 s    1 1.00
 0.22972831358000E+00 0.10000000000000E+01
 s    1 1.00
 0.95164440028000E-01 0.10000000000000E+01
 s    1 1.00
 0.48475401370000E-01 0.10000000000000E+01
 p    4 1.00
 0.34697232244000E+02 0.11327220003114E-01
 0.79582622826000E+01 0.76169659202087E-01
 0.23780826883000E+01 0.30192252202676E+00
 0.81433208183000E+00 0.72785027349547E+00
 p    1 1.00
 0.28887547253000E+00 0.10000000000000E+01
 p    1 1.00
 0.10056823671000E+00 0.10000000000000E+01
 d    1 1.00
 0.10970000000000E+01 0.10000000000000E+01
 d    1 1.00
 0.31800000000000E+00 0.10000000000000E+01
 d    1 1.00
 0.90985336424000E-01 0.10000000000000E+01
 f    1 1.00
 0.76100000000000E+00 0.10000000000000E+01
 
    2 0
 s    6 1.00
 0.13575349682000E+05 0.60645503603591E-03
 0.20352333680000E+04 0.46979088884982E-02
 0.46322562359000E+03 0.24332477647552E-01
 0.13120019598000E+03 0.97399968307759E-01
 0.42853015891000E+02 0.30195584253780E+00
 0.15584185766000E+02 0.66233609137875E+00
 s    2 1.00
 0.62067138508000E+01 0.65595308539952E+00
 0.25764896527000E+01 0.37585633285142E+00
 s    1 1.00
 0.57696339419000E+00 0.10000000000000E+01
 s    1 1.00
 0.22972831358000E+00 0.10000000000000E+01
 s    1 1.00
 0.95164440028000E-01 0.10000000000000E+01
 s    1 1.00
 0.48475401370000E-01 0.10000000000000E+01
 p    4 1.00
 0.34697232244000E+02 0.11327220003114E-01
 0.79582622826000E+01 0.76169659202087E-01
 0.23780826883000E+01 0.30192252202676E+00
 0.81433208183000E+00 0.72785027349547E+00
 p    1 1.00
 0.28887547253000E+00 0.10000000000000E+01
 p    1 1.00
 0.10056823671000E+00 0.10000000000000E+01
 d    1 1.00
 0.10970000000000E+01 0.10000000000000E+01
 d    1 1.00
 0.31800000000000E+00 0.10000000000000E+01
 d    1 1.00
 0.90985336424000E-01 0.10000000000000E+01
 f    1 1.00
 0.76100000000000E+00 0.10000000000000E+01
 
    3 0
 s    6 1.00
 0.13575349682000E+05 0.60645503603591E-03
 0.20352333680000E+04 0.46979088884982E-02
 0.46322562359000E+03 0.24332477647552E-01
 0.13120019598000E+03 0.97399968307759E-01
 0.42853015891000E+02 0.30195584253780E+00
 0.15584185766000E+02 0.66233609137875E+00
 s    2 1.00
 0.62067138508000E+01 0.65595308539952E+00
 0.25764896527000E+01 0.37585633285142E+00
 s    1 1.00
 0.57696339419000E+00 0.10000000000000E+01
 s    1 1.00
 0.22972831358000E+00 0.10000000000000E+01
 s    1 1.00
 0.95164440028000E-01 0.10000000000000E+01
 s    1 1.00
 0.48475401370000E-01 0.10000000000000E+01
 p    4 1.00
 0.34697232244000E+02 0.11327220003114E-01
 0.79582622826000E+01 0.76169659202087E-01
 0.23780826883000E+01 0.30192252202676E+00
 0.81433208183000E+00 0.72785027349547E+00
 p    1 1.00
 0.28887547253000E+00 0.10000000000000E+01
 p    1 1.00
 0.10056823671000E+00 0.10000000000000E+01
 d    1 1.00
 0.10970000000000E+01 0.10000000000000E+01
 d    1 1.00
 0.31800000000000E+00 0.10000000000000E+01
 d    1 1.00
 0.90985336424000E-01 0.10000000000000E+01
 f    1 1.00
 0.76100000000000E+00 0.10000000000000E+01
 
    4 0
 s    6 1.00
 0.13575349682000E+05 0.60645503603591E-03
 0.20352333680000E+04 0.46979088884982E-02
 0.46322562359000E+03 0.24332477647552E-01
 0.13120019598000E+03 0.97399968307759E-01
 0.42853015891000E+02 0.30195584253780E+00
 0.15584185766000E+02 0.66233609137875E+00
 s    2 1.00
 0.62067138508000E+01 0.65595308539952E+00
 0.25764896527000E+01 0.37585633285142E+00
 s    1 1.00
 0.57696339419000E+00 0.10000000000000E+01
 s    1 1.00
 0.22972831358000E+00 0.10000000000000E+01
 s    1 1.00
 0.95164440028000E-01 0.10000000000000E+01
 s    1 1.00
 0.48475401370000E-01 0.10000000000000E+01
 p    4 1.00
 0.34697232244000E+02 0.11327220003114E-01
 0.79582622826000E+01 0.76169659202087E-01
 0.23780826883000E+01 0.30192252202676E+00
 0.81433208183000E+00 0.72785027349547E+00
 p    1 1.00
 0.28887547253000E+00 0.10000000000000E+01
 p    1 1.00
 0.10056823671000E+00 0.10000000000000E+01
 d    1 1.00
 0.10970000000000E+01 0.10000000000000E+01
 d    1 1.00
 0.31800000000000E+00 0.10000000000000E+01
 d    1 1.00
 0.90985336424000E-01 0.10000000000000E+01
 f    1 1.00
 0.76100000000000E+00 0.10000000000000E+01
 
    5 0
 s    6 1.00
 0.13575349682000E+05 0.60645503603591E-03
 0.20352333680000E+04 0.46979088884982E-02
 0.46322562359000E+03 0.24332477647552E-01
 0.13120019598000E+03 0.97399968307759E-01
 0.42853015891000E+02 0.30195584253780E+00
 0.15584185766000E+02 0.66233609137875E+00
 s    2 1.00
 0.62067138508000E+01 0.65595308539952E+00
 0.25764896527000E+01 0.37585633285142E+00
 s    1 1.00
 0.57696339419000E+00 0.10000000000000E+01
 s    1 1.00
 0.22972831358000E+00 0.10000000000000E+01
 s    1 1.00
 0.95164440028000E-01 0.10000000000000E+01
 s    1 1.00
 0.48475401370000E-01 0.10000000000000E+01
 p    4 1.00
 0.34697232244000E+02 0.11327220003114E-01
 0.79582622826000E+01 0.76169659202087E-01
 0.23780826883000E+01 0.30192252202676E+00
 0.81433208183000E+00 0.72785027349547E+00
 p    1 1.00
 0.28887547253000E+00 0.10000000000000E+01
 p    1 1.00
 0.10056823671000E+00 0.10000000000000E+01
 d    1 1.00
 0.10970000000000E+01 0.10000000000000E+01
 d    1 1.00
 0.31800000000000E+00 0.10000000000000E+01
 d    1 1.00
 0.90985336424000E-01 0.10000000000000E+01
 f    1 1.00
 0.76100000000000E+00 0.10000000000000E+01
 
    6 0
 s    6 1.00
 0.13575349682000E+05 0.60645503603591E-03
 0.20352333680000E+04 0.46979088884982E-02
 0.46322562359000E+03 0.24332477647552E-01
 0.13120019598000E+03 0.97399968307759E-01
 0.42853015891000E+02 0.30195584253780E+00
 0.15584185766000E+02 0.66233609137875E+00
 s    2 1.00
 0.62067138508000E+01 0.65595308539952E+00
 0.25764896527000E+01 0.37585633285142E+00
 s    1 1.00
 0.57696339419000E+00 0.10000000000000E+01
 s    1 1.00
 0.22972831358000E+00 0.10000000000000E+01
 s    1 1.00
 0.95164440028000E-01 0.10000000000000E+01
 s    1 1.00
 0.48475401370000E-01 0.10000000000000E+01
 p    4 1.00
 0.34697232244000E+02 0.11327220003114E-01
 0.79582622826000E+01 0.76169659202087E-01
 0.23780826883000E+01 0.30192252202676E+00
 0.81433208183000E+00 0.72785027349547E+00
 p    1 1.00
 0.28887547253000E+00 0.10000000000000E+01
 p    1 1.00
 0.10056823671000E+00 0.10000000000000E+01
 d    1 1.00
 0.10970000000000E+01 0.10000000000000E+01
 d    1 1.00
 0.31800000000000E+00 0.10000000000000E+01
 d    1 1.00
 0.90985336424000E-01 0.10000000000000E+01
 f    1 1.00
 0.76100000000000E+00 0.10000000000000E+01
 
    7 0
 s    3 1.00
 0.34061341000000E+02 0.25439307208879E-01
 0.51235746000000E+01 0.19008594890375E+00
 0.11646626000000E+01 0.85244113011042E+00
 s    1 1.00
 0.32723041000000E+00 0.10000000000000E+01
 s    1 1.00
 0.10307241000000E+00 0.10000000000000E+01
 p    1 1.00
 0.80000000000000E+00 0.10000000000000E+01
 p    1 1.00
 0.95774129632000E-01 0.10000000000000E+01
 
    8 0
 s    3 1.00
 0.34061341000000E+02 0.25439307208879E-01
 0.51235746000000E+01 0.19008594890375E+00
 0.11646626000000E+01 0.85244113011042E+00
 s    1 1.00
 0.32723041000000E+00 0.10000000000000E+01
 s    1 1.00
 0.10307241000000E+00 0.10000000000000E+01
 p    1 1.00
 0.80000000000000E+00 0.10000000000000E+01
 p    1 1.00
 0.95774129632000E-01 0.10000000000000E+01
 
    9 0
 s    3 1.00
 0.34061341000000E+02 0.25439307208879E-01
 0.51235746000000E+01 0.19008594890375E+00
 0.11646626000000E+01 0.85244113011042E+00
 s    1 1.00
 0.32723041000000E+00 0.10000000000000E+01
 s    1 1.00
 0.10307241000000E+00 0.10000000000000E+01
 p    1 1.00
 0.80000000000000E+00 0.10000000000000E+01
 p    1 1.00
 0.95774129632000E-01 0.10000000000000E+01
 
   10 0
 s    3 1.00
 0.34061341000000E+02 0.25439307208879E-01
 0.51235746000000E+01 0.19008594890375E+00
 0.11646626000000E+01 0.85244113011042E+00
 s    1 1.00
 0.32723041000000E+00 0.10000000000000E+01
 s    1 1.00
 0.10307241000000E+00 0.10000000000000E+01
 p    1 1.00
 0.80000000000000E+00 0.10000000000000E+01
 p    1 1.00
 0.95774129632000E-01 0.10000000000000E+01
 
   11 0
 s    6 1.00
 0.19730800647000E+05 0.58626402628763E-03
 0.29578958745000E+04 0.45428820586397E-02
 0.67322133595000E+03 0.23558413450084E-01
 0.19068249494000E+03 0.94709193292923E-01
 0.62295441898000E+02 0.29719784913376E+00
 0.22654161182000E+02 0.66916246895232E+00
 s    2 1.00
 0.89791477428000E+01 0.64596683630063E+00
 0.36863002370000E+01 0.38700574393705E+00
 s    1 1.00
 0.84660076805000E+00 0.10000000000000E+01
 s    1 1.00
 0.33647133771000E+00 0.10000000000000E+01
 s    1 1.00
 0.13647653675000E+00 0.10000000000000E+01
 s    1 1.00
 0.68441605847000E-01 0.10000000000000E+01
 p    4 1.00
 0.49200380510000E+02 0.11448825101764E-01
 0.11346790537000E+02 0.78422337970864E-01
 0.34273972411000E+01 0.30818094738830E+00
 0.11785525134000E+01 0.72027196368413E+00
 p    1 1.00
 0.41642204972000E+00 0.10000000000000E+01
 p    1 1.00
 0.14260826011000E+00 0.10000000000000E+01
 d    1 1.00
 0.16540000000000E+01 0.10000000000000E+01
 d    1 1.00
 0.46900000000000E+00 0.10000000000000E+01
 d    1 1.00
 0.12829642058000E+00 0.10000000000000E+01
 f    1 1.00
 0.10930000000000E+01 0.10000000000000E+01
 
   12 0
 s    6 1.00
 0.27032382631000E+05 0.57227335211155E-03
 0.40523871392000E+04 0.44353233492995E-02
 0.92232722710000E+03 0.23020107706038E-01
 0.26124070989000E+03 0.92822490667928E-01
 0.85354641351000E+02 0.29378500009671E+00
 0.31035035245000E+02 0.67401604501641E+00
 s    2 1.00
 0.12260860728000E+02 0.63839937025506E+00
 0.49987076005000E+01 0.39534587125718E+00
 s    1 1.00
 0.11703108158000E+01 0.10000000000000E+01
 s    1 1.00
 0.46474740994000E+00 0.10000000000000E+01
 s    1 1.00
 0.18504536357000E+00 0.10000000000000E+01
 s    1 1.00
 0.70288026270000E-01 0.10000000000000E+01
 p    4 1.00
 0.63274954801000E+02 0.12018332222616E-01
 0.14627049379000E+02 0.83005421790056E-01
 0.44501223456000E+01 0.31991743925964E+00
 0.15275799647000E+01 0.70715542916104E+00
 p    1 1.00
 0.52935117943000E+00 0.10000000000000E+01
 p    1 1.00
 0.17478421270000E+00 0.10000000000000E+01
 p    1 1.00
 0.51112745706000E-01 0.10000000000000E+01
 d    1 1.00
 0.23140000000000E+01 0.10000000000000E+01
 d    1 1.00
 0.64500000000000E+00 0.10000000000000E+01
 d    1 1.00
 0.14696477366000E+00 0.10000000000000E+01
 f    1 1.00
 0.14280000000000E+01 0.10000000000000E+01
 
   13 0
 s    6 1.00
 0.27032382631000E+05 0.57227335211155E-03
 0.40523871392000E+04 0.44353233492995E-02
 0.92232722710000E+03 0.23020107706038E-01
 0.26124070989000E+03 0.92822490667928E-01
 0.85354641351000E+02 0.29378500009671E+00
 0.31035035245000E+02 0.67401604501641E+00
 s    2 1.00
 0.12260860728000E+02 0.63839937025506E+00
 0.49987076005000E+01 0.39534587125718E+00
 s    1 1.00
 0.11703108158000E+01 0.10000000000000E+01
 s    1 1.00
 0.46474740994000E+00 0.10000000000000E+01
 s    1 1.00
 0.18504536357000E+00 0.10000000000000E+01
 s    1 1.00
 0.70288026270000E-01 0.10000000000000E+01
 p    4 1.00
 0.63274954801000E+02 0.12018332222616E-01
 0.14627049379000E+02 0.83005421790056E-01
 0.44501223456000E+01 0.31991743925964E+00
 0.15275799647000E+01 0.70715542916104E+00
 p    1 1.00
 0.52935117943000E+00 0.10000000000000E+01
 p    1 1.00
 0.17478421270000E+00 0.10000000000000E+01
 p    1 1.00
 0.51112745706000E-01 0.10000000000000E+01
 d    1 1.00
 0.23140000000000E+01 0.10000000000000E+01
 d    1 1.00
 0.64500000000000E+00 0.10000000000000E+01
 d    1 1.00
 0.14696477366000E+00 0.10000000000000E+01
 f    1 1.00
 0.14280000000000E+01 0.10000000000000E+01
 
   14 0
 s    6 1.00
 0.19730800647000E+05 0.58626402628763E-03
 0.29578958745000E+04 0.45428820586397E-02
 0.67322133595000E+03 0.23558413450084E-01
 0.19068249494000E+03 0.94709193292923E-01
 0.62295441898000E+02 0.29719784913376E+00
 0.22654161182000E+02 0.66916246895232E+00
 s    2 1.00
 0.89791477428000E+01 0.64596683630063E+00
 0.36863002370000E+01 0.38700574393705E+00
 s    1 1.00
 0.84660076805000E+00 0.10000000000000E+01
 s    1 1.00
 0.33647133771000E+00 0.10000000000000E+01
 s    1 1.00
 0.13647653675000E+00 0.10000000000000E+01
 s    1 1.00
 0.68441605847000E-01 0.10000000000000E+01
 p    4 1.00
 0.49200380510000E+02 0.11448825101764E-01
 0.11346790537000E+02 0.78422337970864E-01
 0.34273972411000E+01 0.30818094738830E+00
 0.11785525134000E+01 0.72027196368413E+00
 p    1 1.00
 0.41642204972000E+00 0.10000000000000E+01
 p    1 1.00
 0.14260826011000E+00 0.10000000000000E+01
 d    1 1.00
 0.16540000000000E+01 0.10000000000000E+01
 d    1 1.00
 0.46900000000000E+00 0.10000000000000E+01
 d    1 1.00
 0.12829642058000E+00 0.10000000000000E+01
 f    1 1.00
 0.10930000000000E+01 0.10000000000000E+01
 
   15 0
 s    3 1.00
 0.34061341000000E+02 0.25439307208879E-01
 0.51235746000000E+01 0.19008594890375E+00
 0.11646626000000E+01 0.85244113011042E+00
 s    1 1.00
 0.32723041000000E+00 0.10000000000000E+01
 s    1 1.00
 0.10307241000000E+00 0.10000000000000E+01
 p    1 1.00
 0.80000000000000E+00 0.10000000000000E+01
 p    1 1.00
 0.95774129632000E-01 0.10000000000000E+01
 
   16 0
 s    3 1.00
 0.34061341000000E+02 0.25439307208879E-01
 0.51235746000000E+01 0.19008594890375E+00
 0.11646626000000E+01 0.85244113011042E+00
 s    1 1.00
 0.32723041000000E+00 0.10000000000000E+01
 s    1 1.00
 0.10307241000000E+00 0.10000000000000E+01
 p    1 1.00
 0.80000000000000E+00 0.10000000000000E+01
 p    1 1.00
 0.95774129632000E-01 0.10000000000000E+01
 
[MO]
 Sym= X
 Ene= -0.894914
 Spin= Alpha
 Occup= -0.894914
         1    3.291410E-04
         2    7.641484E-04
         3   -2.271013E-03
         4    6.180681E-03
         5   -7.720427E-02
         6    2.122716E-02
         7   -2.992479E-03
         8   -2.109018E-04
         9   -3.058544E-02
        10    5.373071E-03
        11   -9.571654E-04
        12   -2.862989E-02
        13    4.476374E-02
        14   -2.401210E-02
        15   -1.879395E-02
        16    9.264877E-07
        17    2.306194E-05
        18   -2.398843E-05
        19    1.891704E-05
        20    5.897164E-03
        21   -3.623198E-03
        22    1.258639E-03
        23   -7.538062E-04
        24   -5.048330E-04
        25    1.353392E-03
        26    1.344906E-02
        27   -6.829371E-03
        28    1.801480E-03
        29   -1.333126E-03
        30   -4.683540E-04
        31   -3.473127E-03
        32   -4.982520E-03
        33    9.845816E-03
        34    4.127436E-05
        35   -9.994889E-06
        36    9.885089E-05
        37   -1.869070E-05
        38    6.854004E-06
        39    6.947065E-04
        40   -3.668467E-05
        41    6.555546E-06
        42   -8.273289E-04
        43    6.407558E-04
        44   -4.003230E-05
        45   -8.316391E-05
        46   -4.211626E-04
        47    6.963194E-03
        48    8.926961E-02
        49   -1.163002E-02
        50   -3.818208E-04
        51   -1.089594E-06
        52   -1.868528E-01
        53    1.286587E-03
        54   -7.227741E-07
        55   -1.934805E-01
        56    1.632142E-02
        57    1.147927E-05
        58   -1.831358E-01
        59   -7.903912E-05
        60    7.284669E-05
        61    6.192437E-06
        62   -2.872043E-08
        63    8.138592E-05
        64    3.246244E-08
        65   -7.310274E-04
        66    1.224677E-03
        67   -4.936498E-04
        68    1.161883E-08
        69    1.766692E-03
        70    7.413590E-08
        71   -2.855274E-02
        72    3.139519E-02
        73   -2.842457E-03
        74    1.465423E-06
        75   -2.526966E-03
        76   -5.887152E-07
        77   -1.236518E-05
        78   -1.295019E-08
        79    1.032160E-03
        80    1.477327E-05
        81    3.565363E-09
        82   -5.507556E-04
        83    1.816364E-06
        84    1.380914E-08
        85   -8.340326E-04
        86    3.627568E-09
        87    3.291987E-04
        88    7.642752E-04
        89   -2.271093E-03
        90    6.179819E-03
        91   -7.721853E-02
        92    2.122943E-02
        93   -2.991828E-03
        94    2.110105E-04
        95   -3.058415E-02
        96    5.373911E-03
        97    9.575322E-04
        98   -2.862867E-02
        99    4.477798E-02
       100    2.402312E-02
       101   -1.879342E-02
       102    9.521061E-07
       103    2.308322E-05
       104   -2.403532E-05
       105   -1.886918E-05
       106    5.897157E-03
       107    3.623180E-03
       108    1.258706E-03
       109   -7.538252E-04
       110   -5.048805E-04
       111   -1.353400E-03
       112    1.344897E-02
       113    6.829360E-03
       114    1.803468E-03
       115   -1.335221E-03
       116   -4.682468E-04
       117    3.472168E-03
       118   -4.983279E-03
       119   -9.846419E-03
       120    4.127089E-05
       121    9.984053E-06
       122    9.885094E-05
       123   -1.869270E-05
       124   -6.849513E-06
       125    6.947021E-04
       126   -3.667800E-05
       127   -6.545500E-06
       128   -8.273246E-04
       129   -6.407547E-04
       130   -2.170699E-04
       131   -4.744403E-04
       132   -7.976203E-04
       133    1.754044E-02
       134    2.824470E-02
       135   -2.611895E-02
       136    2.477505E-03
       137   -1.373213E-03
       138    1.501974E-01
       139    1.738279E-02
       140   -1.146226E-02
       141    1.526025E-01
       142    6.999324E-03
       143    1.576052E-02
       144    9.709912E-02
       145   -2.474246E-04
       146    3.016290E-04
       147   -5.420442E-05
       148   -1.838931E-05
       149    1.229274E-03
       150   -3.170888E-03
       151   -1.387848E-03
       152    1.486706E-03
       153   -9.885742E-05
       154   -2.965722E-03
       155    5.306043E-03
       156   -5.062718E-03
       157   -1.103093E-02
       158    7.362804E-03
       159    3.668126E-03
       160    2.358505E-02
       161   -5.776932E-03
       162    1.107629E-02
       163    3.561504E-05
       164   -1.631137E-05
       165   -8.615168E-04
       166    2.672689E-05
       167   -3.235456E-05
       168    1.736096E-04
       169   -7.450948E-05
       170    5.423857E-05
       171    9.822364E-04
       172   -3.581879E-04
       173    1.847630E-03
       174    4.202701E-03
       175   -3.844995E-03
       176   -4.009387E-02
       177    1.210089E-01
       178   -9.241168E-03
       179   -1.530266E-02
       180    3.745513E-07
       181    1.231347E-01
       182   -5.723911E-05
       183    5.530769E-07
       184    1.267239E-01
       185    9.113482E-02
       186   -3.273579E-06
       187    1.382253E-01
       188   -8.438068E-04
       189    4.986554E-04
       190    3.451514E-04
       191   -1.823152E-08
       192   -9.756267E-03
       193   -1.191382E-07
       194    3.276306E-03
       195   -7.198319E-03
       196    3.922013E-03
       197    4.380121E-08
       198   -2.415624E-02
       199   -1.791615E-07
       200    2.110105E-02
       201   -2.184625E-02
       202    7.452057E-04
       203    1.497275E-07
       204   -1.076144E-02
       205    4.346316E-07
       206   -2.001948E-04
       207    9.894967E-09
       208   -3.415404E-04
       209    1.527071E-04
       210    1.369463E-09
       211   -1.068998E-03
       212    1.158824E-04
       213   -1.464495E-08
       214    1.527222E-03
       215    5.893427E-09
       216   -2.171070E-04
       217   -4.745258E-04
       218   -7.974201E-04
       219    1.754095E-02
       220    2.825625E-02
       221   -2.611887E-02
       222    2.478093E-03
       223    1.374553E-03
       224    1.501999E-01
       225    1.738312E-02
       226    1.146373E-02
       227    1.526052E-01
       228    6.989017E-03
       229   -1.576473E-02
       230    9.710124E-02
       231   -2.474449E-04
       232    3.016994E-04
       233   -5.425450E-05
       234    1.838563E-05
       235    1.229318E-03
       236    3.170929E-03
       237   -1.387885E-03
       238    1.486772E-03
       239   -9.888756E-05
       240    2.965720E-03
       241    5.306018E-03
       242    5.062715E-03
       243   -1.103022E-02
       244    7.361899E-03
       245    3.668325E-03
       246   -2.358588E-02
       247   -5.775910E-03
       248   -1.107588E-02
       249    3.561682E-05
       250    1.633145E-05
       251   -8.615293E-04
       252    2.673058E-05
       253    3.235589E-05
       254    1.736076E-04
       255   -7.451556E-05
       256   -5.426683E-05
       257    9.822552E-04
       258    3.581773E-04
       259    5.991997E-04
       260    1.206246E-04
       261    2.738721E-02
       262    1.095198E-05
       263   -3.645423E-05
       264   -1.267888E-03
       265    8.203363E-03
       266    2.405638E-03
       267    4.681949E-03
       268    5.990310E-04
       269    1.203456E-04
       270    2.738824E-02
       271    1.095659E-05
       272    3.648472E-05
       273   -1.267839E-03
       274    8.203445E-03
       275   -2.405510E-03
       276    4.682069E-03
       277    5.427869E-04
       278    4.022404E-03
       279   -6.700374E-02
       280    6.031064E-05
       281   -1.518588E-04
       282    6.131368E-03
       283    1.018008E-03
       284    6.475376E-03
       285    1.628387E-03
       286    5.430823E-04
       287    4.023005E-03
       288   -6.700587E-02
       289    6.029981E-05
       290    1.519702E-04
       291    6.131555E-03
       292    1.017901E-03
       293   -6.475356E-03
       294    1.628600E-03
       295    7.493659E-05
       296    1.755368E-04
       297   -1.957863E-04
       298   -1.739733E-04
       299    1.844606E-02
       300    6.132627E-03
       301   -7.917369E-04
       302    1.696710E-07
       303   -6.188308E-03
       304   -1.246774E-04
       305    1.219668E-07
       306   -8.647958E-03
       307    5.319109E-03
       308   -1.116955E-07
       309    2.034893E-03
       310   -2.876900E-05
       311    1.427664E-05
       312    1.449236E-05
       313    5.234461E-08
       314   -3.744383E-03
       315   -9.797414E-10
       316    7.343477E-06
       317   -8.796385E-05
       318    8.062038E-05
       319    1.335598E-07
       320   -1.112930E-02
       321   -3.424768E-09
       322   -1.307950E-04
       323   -4.534430E-03
       324    4.665225E-03
       325   -2.323554E-07
       326   -2.768554E-03
       327    7.802279E-08
       328   -1.095958E-05
       329    3.600246E-09
       330   -7.199537E-06
       331    7.445681E-06
       332   -2.246921E-08
       333   -6.162710E-04
       334    7.258137E-06
       335    1.763898E-08
       336    6.259302E-04
       337    1.235677E-09
       338    2.318204E-05
       339    4.955002E-05
       340    1.369367E-05
       341   -9.684396E-04
       342    1.144716E-02
       343    2.345801E-03
       344    3.445656E-04
       345   -2.005667E-04
       346    6.464182E-02
       347    5.950463E-04
       348   -4.159882E-04
       349    5.989902E-02
       350    1.509340E-03
       351   -1.357834E-03
       352    4.591571E-02
       353    6.451495E-04
       354   -2.917107E-04
       355    5.025717E-03
       356   -4.597540E-06
       357    7.880954E-06
       358   -3.283414E-06
       359   -1.901496E-06
       360    4.184859E-05
       361   -5.014458E-04
       362    1.349294E-05
       363    2.002182E-05
       364   -3.351477E-05
       365   -1.656616E-05
       366    5.992273E-04
       367   -1.587638E-03
       368    7.504989E-05
       369    7.610748E-05
       370   -1.511574E-04
       371    1.721251E-04
       372    8.348579E-04
       373   -3.619268E-04
       374   -1.189025E-06
       375   -3.275977E-06
       376   -6.426611E-05
       377    1.877015E-06
       378    1.046897E-06
       379   -8.104648E-05
       380   -2.817704E-07
       381    3.348287E-06
       382    1.672685E-04
       383   -1.299909E-04
       384    2.323368E-05
       385    4.967735E-05
       386    1.349831E-05
       387   -9.687405E-04
       388    1.144727E-02
       389    2.346260E-03
       390    3.405064E-04
       391    2.008171E-04
       392    6.464198E-02
       393    5.913526E-04
       394    4.161742E-04
       395    5.989915E-02
       396    1.506393E-03
       397    1.358178E-03
       398    4.591621E-02
       399    6.451424E-04
       400    2.914052E-04
       401    5.025760E-03
       402   -4.611380E-06
       403    7.872201E-06
       404   -3.260821E-06
       405    1.882963E-06
       406    4.184830E-05
       407    5.014463E-04
       408    1.342789E-05
       409    2.000241E-05
       410   -3.343030E-05
       411    1.648179E-05
       412    5.992303E-04
       413    1.587650E-03
       414    7.496219E-05
       415    7.620728E-05
       416   -1.511695E-04
       417   -1.722461E-04
       418    8.348925E-04
       419    3.619423E-04
       420   -1.186159E-06
       421    3.273345E-06
       422   -6.426639E-05
       423    1.867785E-06
       424   -1.056635E-06
       425   -8.104675E-05
       426   -2.763856E-07
       427   -3.335018E-06
       428    1.672692E-04
       429    1.299914E-04
       430   -8.841991E-03
       431   -2.094588E-02
       432    3.225362E-02
       433    5.468211E-02
       434    1.327251E-03
       435    1.026041E-01
       436    3.170531E-02
       437   -1.835682E-07
       438   -2.695541E-01
       439    3.619510E-02
       440   -3.066300E-07
       441   -2.645394E-01
       442    4.703216E-02
       443   -7.043537E-07
       444   -2.133250E-01
       445    2.657405E-04
       446    1.154874E-04
       447   -3.812279E-04
       448   -1.396888E-08
       449   -9.876954E-04
       450    1.135257E-08
       451    4.726779E-04
       452    3.066999E-03
       453   -3.539677E-03
       454   -1.049870E-08
       455   -3.846493E-03
       456   -1.179178E-08
       457    3.978289E-03
       458    8.867907E-03
       459   -1.284620E-02
       460    9.420948E-08
       461   -2.348337E-03
       462   -1.253455E-07
       463    2.363972E-04
       464   -3.879151E-09
       465    9.923201E-04
       466    1.740496E-04
       467    1.486517E-10
       468   -5.011636E-04
       469   -4.912097E-04
       470    5.055775E-09
       471   -8.301735E-04
       472   -1.124767E-09
       473   -1.538979E-02
       474   -3.194609E-02
       475   -6.812072E-02
       476    3.834979E-03
       477    3.214573E-03
       478   -1.339367E-02
       479    1.802128E-03
       480    7.554980E-03
       481   -1.532455E-02
       482   -1.538970E-02
       483   -3.194608E-02
       484   -6.812072E-02
       485    3.834994E-03
       486   -3.214642E-03
       487   -1.339371E-02
       488    1.802178E-03
       489   -7.555012E-03
       490   -1.532458E-02
 Sym= X
 Ene= 0.894914
 Spin= Alpha
 Occup= 0.894914
         1   -2.735812E-03
         2   -6.000676E-03
         3    4.643071E-03
         4    1.130832E-01
         5    8.074443E+00
         6    1.627583E+00
         7   -1.442702E-02
         8   -3.359357E-02
         9   -1.054938E-02
        10   -6.579150E-02
        11   -8.223090E-03
        12   -9.040544E-03
        13   -4.594397E+00
        14    4.099328E+00
        15   -3.118882E-02
        16    6.925118E-04
        17   -2.243801E-04
        18   -4.681316E-04
        19   -2.279941E-03
        20    4.168907E-04
        21   -6.420113E-05
        22   -1.467072E-02
        23    1.857947E-02
        24   -3.908747E-03
        25   -1.686859E-02
        26    1.293541E-03
        27    6.118826E-04
        28   -1.410995E+00
        29    1.479865E+00
        30   -6.887033E-02
        31   -1.401954E+00
        32   -8.705597E-03
        33   -1.444353E-02
        34   -2.263016E-04
        35    3.352301E-04
        36   -3.516014E-05
        37   -4.528869E-04
        38   -6.499358E-04
        39    9.549561E-05
        40    7.565023E-04
        41    2.001774E-04
        42   -4.832332E-05
        43    8.554939E-06
        44    2.741807E-07
        45    6.164550E-07
        46   -1.027438E-06
        47   -4.281611E-06
        48    8.251002E-05
        49   -2.941982E-05
        50    6.456642E-07
        51   -2.005736E-02
        52    3.403780E-06
        53    1.654276E-06
        54    5.560827E-02
        55    3.875681E-06
        56    9.644549E-05
        57    9.912941E+00
        58   -5.187223E-05
        59    9.900052E-08
        60   -1.063395E-07
        61    7.339023E-09
        62    1.633383E-03