[Molden Format]
[Title]
ADC(2) - opt by CAM-B3LYP gaussian                                              
[Atoms] AU
 c     1    6 -.12594776649128E+01 -.22773101438193E+01 -.39940542897370E-01
 c     2    6 -.25470425655544E+01 -.11810788300000E-05 -.37653974276580E-01
 c     3    6 -.12594776649128E+01 0.22773077816617E+01 -.39959440158700E-01
 c     4    6 0.13393870965995E+01 0.22758904870620E+01 -.43795584208460E-01
 c     5    6 0.26846831306008E+01 -.11810788300000E-05 -.44211323957690E-01
 c     6    6 0.13394059938609E+01 -.22758928492196E+01 -.43776686947130E-01
 h     7    1 -.23144739703802E+01 -.40231336316857E+01 -.37313823572660E-01
 h     8    1 -.23144739703802E+01 0.40231312695281E+01 -.37332720833990E-01
 h     9    1 0.23577983041343E+01 0.40499086888311E+01 -.52469427158400E-01
 h    10    1 0.23577983041343E+01 -.40498921537274E+01 -.52431632635740E-01
 n    11    7 -.52968964450843E+01 -.11810788300000E-05 -.29906097131750E-01
 o    12    8 -.63725096626615E+01 0.20302827815708E+01 -.26599076399200E-01
 o    13    8 -.63725096626615E+01 -.20302851437285E+01 -.26655768183180E-01
 n    14    7 0.52734000627795E+01 -.11810788300000E-05 -.11796733492422E+00
 h    15    1 0.61922038058499E+01 0.16034881344586E+01 0.31500671664254E+00
 h    16    1 0.61921849085885E+01 -.16034904966163E+01 0.31500671664254E+00
[GTO]
    1 0
 s    6 1.00
 0.13575349682000E+05 0.60645503603591E-03
 0.20352333680000E+04 0.46979088884982E-02
 0.46322562359000E+03 0.24332477647552E-01
 0.13120019598000E+03 0.97399968307759E-01
 0.42853015891000E+02 0.30195584253780E+00
 0.15584185766000E+02 0.66233609137875E+00
 s    2 1.00
 0.62067138508000E+01 0.65595308539952E+00
 0.25764896527000E+01 0.37585633285142E+00
 s    1 1.00
 0.57696339419000E+00 0.10000000000000E+01
 s    1 1.00
 0.22972831358000E+00 0.10000000000000E+01
 s    1 1.00
 0.95164440028000E-01 0.10000000000000E+01
 s    1 1.00
 0.48475401370000E-01 0.10000000000000E+01
 p    4 1.00
 0.34697232244000E+02 0.11327220003114E-01
 0.79582622826000E+01 0.76169659202087E-01
 0.23780826883000E+01 0.30192252202676E+00
 0.81433208183000E+00 0.72785027349547E+00
 p    1 1.00
 0.28887547253000E+00 0.10000000000000E+01
 p    1 1.00
 0.10056823671000E+00 0.10000000000000E+01
 d    1 1.00
 0.10970000000000E+01 0.10000000000000E+01
 d    1 1.00
 0.31800000000000E+00 0.10000000000000E+01
 d    1 1.00
 0.90985336424000E-01 0.10000000000000E+01
 f    1 1.00
 0.76100000000000E+00 0.10000000000000E+01
 
    2 0
 s    6 1.00
 0.13575349682000E+05 0.60645503603591E-03
 0.20352333680000E+04 0.46979088884982E-02
 0.46322562359000E+03 0.24332477647552E-01
 0.13120019598000E+03 0.97399968307759E-01
 0.42853015891000E+02 0.30195584253780E+00
 0.15584185766000E+02 0.66233609137875E+00
 s    2 1.00
 0.62067138508000E+01 0.65595308539952E+00
 0.25764896527000E+01 0.37585633285142E+00
 s    1 1.00
 0.57696339419000E+00 0.10000000000000E+01
 s    1 1.00
 0.22972831358000E+00 0.10000000000000E+01
 s    1 1.00
 0.95164440028000E-01 0.10000000000000E+01
 s    1 1.00
 0.48475401370000E-01 0.10000000000000E+01
 p    4 1.00
 0.34697232244000E+02 0.11327220003114E-01
 0.79582622826000E+01 0.76169659202087E-01
 0.23780826883000E+01 0.30192252202676E+00
 0.81433208183000E+00 0.72785027349547E+00
 p    1 1.00
 0.28887547253000E+00 0.10000000000000E+01
 p    1 1.00
 0.10056823671000E+00 0.10000000000000E+01
 d    1 1.00
 0.10970000000000E+01 0.10000000000000E+01
 d    1 1.00
 0.31800000000000E+00 0.10000000000000E+01
 d    1 1.00
 0.90985336424000E-01 0.10000000000000E+01
 f    1 1.00
 0.76100000000000E+00 0.10000000000000E+01
 
    3 0
 s    6 1.00
 0.13575349682000E+05 0.60645503603591E-03
 0.20352333680000E+04 0.46979088884982E-02
 0.46322562359000E+03 0.24332477647552E-01
 0.13120019598000E+03 0.97399968307759E-01
 0.42853015891000E+02 0.30195584253780E+00
 0.15584185766000E+02 0.66233609137875E+00
 s    2 1.00
 0.62067138508000E+01 0.65595308539952E+00
 0.25764896527000E+01 0.37585633285142E+00
 s    1 1.00
 0.57696339419000E+00 0.10000000000000E+01
 s    1 1.00
 0.22972831358000E+00 0.10000000000000E+01
 s    1 1.00
 0.95164440028000E-01 0.10000000000000E+01
 s    1 1.00
 0.48475401370000E-01 0.10000000000000E+01
 p    4 1.00
 0.34697232244000E+02 0.11327220003114E-01
 0.79582622826000E+01 0.76169659202087E-01
 0.23780826883000E+01 0.30192252202676E+00
 0.81433208183000E+00 0.72785027349547E+00
 p    1 1.00
 0.28887547253000E+00 0.10000000000000E+01
 p    1 1.00
 0.10056823671000E+00 0.10000000000000E+01
 d    1 1.00
 0.10970000000000E+01 0.10000000000000E+01
 d    1 1.00
 0.31800000000000E+00 0.10000000000000E+01
 d    1 1.00
 0.90985336424000E-01 0.10000000000000E+01
 f    1 1.00
 0.76100000000000E+00 0.10000000000000E+01
 
    4 0
 s    6 1.00
 0.13575349682000E+05 0.60645503603591E-03
 0.20352333680000E+04 0.46979088884982E-02
 0.46322562359000E+03 0.24332477647552E-01
 0.13120019598000E+03 0.97399968307759E-01
 0.42853015891000E+02 0.30195584253780E+00
 0.15584185766000E+02 0.66233609137875E+00
 s    2 1.00
 0.62067138508000E+01 0.65595308539952E+00
 0.25764896527000E+01 0.37585633285142E+00
 s    1 1.00
 0.57696339419000E+00 0.10000000000000E+01
 s    1 1.00
 0.22972831358000E+00 0.10000000000000E+01
 s    1 1.00
 0.95164440028000E-01 0.10000000000000E+01
 s    1 1.00
 0.48475401370000E-01 0.10000000000000E+01
 p    4 1.00
 0.34697232244000E+02 0.11327220003114E-01
 0.79582622826000E+01 0.76169659202087E-01
 0.23780826883000E+01 0.30192252202676E+00
 0.81433208183000E+00 0.72785027349547E+00
 p    1 1.00
 0.28887547253000E+00 0.10000000000000E+01
 p    1 1.00
 0.10056823671000E+00 0.10000000000000E+01
 d    1 1.00
 0.10970000000000E+01 0.10000000000000E+01
 d    1 1.00
 0.31800000000000E+00 0.10000000000000E+01
 d    1 1.00
 0.90985336424000E-01 0.10000000000000E+01
 f    1 1.00
 0.76100000000000E+00 0.10000000000000E+01
 
    5 0
 s    6 1.00
 0.13575349682000E+05 0.60645503603591E-03
 0.20352333680000E+04 0.46979088884982E-02
 0.46322562359000E+03 0.24332477647552E-01
 0.13120019598000E+03 0.97399968307759E-01
 0.42853015891000E+02 0.30195584253780E+00
 0.15584185766000E+02 0.66233609137875E+00
 s    2 1.00
 0.62067138508000E+01 0.65595308539952E+00
 0.25764896527000E+01 0.37585633285142E+00
 s    1 1.00
 0.57696339419000E+00 0.10000000000000E+01
 s    1 1.00
 0.22972831358000E+00 0.10000000000000E+01
 s    1 1.00
 0.95164440028000E-01 0.10000000000000E+01
 s    1 1.00
 0.48475401370000E-01 0.10000000000000E+01
 p    4 1.00
 0.34697232244000E+02 0.11327220003114E-01
 0.79582622826000E+01 0.76169659202087E-01
 0.23780826883000E+01 0.30192252202676E+00
 0.81433208183000E+00 0.72785027349547E+00
 p    1 1.00
 0.28887547253000E+00 0.10000000000000E+01
 p    1 1.00
 0.10056823671000E+00 0.10000000000000E+01
 d    1 1.00
 0.10970000000000E+01 0.10000000000000E+01
 d    1 1.00
 0.31800000000000E+00 0.10000000000000E+01
 d    1 1.00
 0.90985336424000E-01 0.10000000000000E+01
 f    1 1.00
 0.76100000000000E+00 0.10000000000000E+01
 
    6 0
 s    6 1.00
 0.13575349682000E+05 0.60645503603591E-03
 0.20352333680000E+04 0.46979088884982E-02
 0.46322562359000E+03 0.24332477647552E-01
 0.13120019598000E+03 0.97399968307759E-01
 0.42853015891000E+02 0.30195584253780E+00
 0.15584185766000E+02 0.66233609137875E+00
 s    2 1.00
 0.62067138508000E+01 0.65595308539952E+00
 0.25764896527000E+01 0.37585633285142E+00
 s    1 1.00
 0.57696339419000E+00 0.10000000000000E+01
 s    1 1.00
 0.22972831358000E+00 0.10000000000000E+01
 s    1 1.00
 0.95164440028000E-01 0.10000000000000E+01
 s    1 1.00
 0.48475401370000E-01 0.10000000000000E+01
 p    4 1.00
 0.34697232244000E+02 0.11327220003114E-01
 0.79582622826000E+01 0.76169659202087E-01
 0.23780826883000E+01 0.30192252202676E+00
 0.81433208183000E+00 0.72785027349547E+00
 p    1 1.00
 0.28887547253000E+00 0.10000000000000E+01
 p    1 1.00
 0.10056823671000E+00 0.10000000000000E+01
 d    1 1.00
 0.10970000000000E+01 0.10000000000000E+01
 d    1 1.00
 0.31800000000000E+00 0.10000000000000E+01
 d    1 1.00
 0.90985336424000E-01 0.10000000000000E+01
 f    1 1.00
 0.76100000000000E+00 0.10000000000000E+01
 
    7 0
 s    3 1.00
 0.34061341000000E+02 0.25439307208879E-01
 0.51235746000000E+01 0.19008594890375E+00
 0.11646626000000E+01 0.85244113011042E+00
 s    1 1.00
 0.32723041000000E+00 0.10000000000000E+01
 s    1 1.00
 0.10307241000000E+00 0.10000000000000E+01
 p    1 1.00
 0.80000000000000E+00 0.10000000000000E+01
 p    1 1.00
 0.95774129632000E-01 0.10000000000000E+01
 
    8 0
 s    3 1.00
 0.34061341000000E+02 0.25439307208879E-01
 0.51235746000000E+01 0.19008594890375E+00
 0.11646626000000E+01 0.85244113011042E+00
 s    1 1.00
 0.32723041000000E+00 0.10000000000000E+01
 s    1 1.00
 0.10307241000000E+00 0.10000000000000E+01
 p    1 1.00
 0.80000000000000E+00 0.10000000000000E+01
 p    1 1.00
 0.95774129632000E-01 0.10000000000000E+01
 
    9 0
 s    3 1.00
 0.34061341000000E+02 0.25439307208879E-01
 0.51235746000000E+01 0.19008594890375E+00
 0.11646626000000E+01 0.85244113011042E+00
 s    1 1.00
 0.32723041000000E+00 0.10000000000000E+01
 s    1 1.00
 0.10307241000000E+00 0.10000000000000E+01
 p    1 1.00
 0.80000000000000E+00 0.10000000000000E+01
 p    1 1.00
 0.95774129632000E-01 0.10000000000000E+01
 
   10 0
 s    3 1.00
 0.34061341000000E+02 0.25439307208879E-01
 0.51235746000000E+01 0.19008594890375E+00
 0.11646626000000E+01 0.85244113011042E+00
 s    1 1.00
 0.32723041000000E+00 0.10000000000000E+01
 s    1 1.00
 0.10307241000000E+00 0.10000000000000E+01
 p    1 1.00
 0.80000000000000E+00 0.10000000000000E+01
 p    1 1.00
 0.95774129632000E-01 0.10000000000000E+01
 
   11 0
 s    6 1.00
 0.19730800647000E+05 0.58626402628763E-03
 0.29578958745000E+04 0.45428820586397E-02
 0.67322133595000E+03 0.23558413450084E-01
 0.19068249494000E+03 0.94709193292923E-01
 0.62295441898000E+02 0.29719784913376E+00
 0.22654161182000E+02 0.66916246895232E+00
 s    2 1.00
 0.89791477428000E+01 0.64596683630063E+00
 0.36863002370000E+01 0.38700574393705E+00
 s    1 1.00
 0.84660076805000E+00 0.10000000000000E+01
 s    1 1.00
 0.33647133771000E+00 0.10000000000000E+01
 s    1 1.00
 0.13647653675000E+00 0.10000000000000E+01
 s    1 1.00
 0.68441605847000E-01 0.10000000000000E+01
 p    4 1.00
 0.49200380510000E+02 0.11448825101764E-01
 0.11346790537000E+02 0.78422337970864E-01
 0.34273972411000E+01 0.30818094738830E+00
 0.11785525134000E+01 0.72027196368413E+00
 p    1 1.00
 0.41642204972000E+00 0.10000000000000E+01
 p    1 1.00
 0.14260826011000E+00 0.10000000000000E+01
 d    1 1.00
 0.16540000000000E+01 0.10000000000000E+01
 d    1 1.00
 0.46900000000000E+00 0.10000000000000E+01
 d    1 1.00
 0.12829642058000E+00 0.10000000000000E+01
 f    1 1.00
 0.10930000000000E+01 0.10000000000000E+01
 
   12 0
 s    6 1.00
 0.27032382631000E+05 0.57227335211155E-03
 0.40523871392000E+04 0.44353233492995E-02
 0.92232722710000E+03 0.23020107706038E-01
 0.26124070989000E+03 0.92822490667928E-01
 0.85354641351000E+02 0.29378500009671E+00
 0.31035035245000E+02 0.67401604501641E+00
 s    2 1.00
 0.12260860728000E+02 0.63839937025506E+00
 0.49987076005000E+01 0.39534587125718E+00
 s    1 1.00
 0.11703108158000E+01 0.10000000000000E+01
 s    1 1.00
 0.46474740994000E+00 0.10000000000000E+01
 s    1 1.00
 0.18504536357000E+00 0.10000000000000E+01
 s    1 1.00
 0.70288026270000E-01 0.10000000000000E+01
 p    4 1.00
 0.63274954801000E+02 0.12018332222616E-01
 0.14627049379000E+02 0.83005421790056E-01
 0.44501223456000E+01 0.31991743925964E+00
 0.15275799647000E+01 0.70715542916104E+00
 p    1 1.00
 0.52935117943000E+00 0.10000000000000E+01
 p    1 1.00
 0.17478421270000E+00 0.10000000000000E+01
 p    1 1.00
 0.51112745706000E-01 0.10000000000000E+01
 d    1 1.00
 0.23140000000000E+01 0.10000000000000E+01
 d    1 1.00
 0.64500000000000E+00 0.10000000000000E+01
 d    1 1.00
 0.14696477366000E+00 0.10000000000000E+01
 f    1 1.00
 0.14280000000000E+01 0.10000000000000E+01
 
   13 0
 s    6 1.00
 0.27032382631000E+05 0.57227335211155E-03
 0.40523871392000E+04 0.44353233492995E-02
 0.92232722710000E+03 0.23020107706038E-01
 0.26124070989000E+03 0.92822490667928E-01
 0.85354641351000E+02 0.29378500009671E+00
 0.31035035245000E+02 0.67401604501641E+00
 s    2 1.00
 0.12260860728000E+02 0.63839937025506E+00
 0.49987076005000E+01 0.39534587125718E+00
 s    1 1.00
 0.11703108158000E+01 0.10000000000000E+01
 s    1 1.00
 0.46474740994000E+00 0.10000000000000E+01
 s    1 1.00
 0.18504536357000E+00 0.10000000000000E+01
 s    1 1.00
 0.70288026270000E-01 0.10000000000000E+01
 p    4 1.00
 0.63274954801000E+02 0.12018332222616E-01
 0.14627049379000E+02 0.83005421790056E-01
 0.44501223456000E+01 0.31991743925964E+00
 0.15275799647000E+01 0.70715542916104E+00
 p    1 1.00
 0.52935117943000E+00 0.10000000000000E+01
 p    1 1.00
 0.17478421270000E+00 0.10000000000000E+01
 p    1 1.00
 0.51112745706000E-01 0.10000000000000E+01
 d    1 1.00
 0.23140000000000E+01 0.10000000000000E+01
 d    1 1.00
 0.64500000000000E+00 0.10000000000000E+01
 d    1 1.00
 0.14696477366000E+00 0.10000000000000E+01
 f    1 1.00
 0.14280000000000E+01 0.10000000000000E+01
 
   14 0
 s    6 1.00
 0.19730800647000E+05 0.58626402628763E-03
 0.29578958745000E+04 0.45428820586397E-02
 0.67322133595000E+03 0.23558413450084E-01
 0.19068249494000E+03 0.94709193292923E-01
 0.62295441898000E+02 0.29719784913376E+00
 0.22654161182000E+02 0.66916246895232E+00
 s    2 1.00
 0.89791477428000E+01 0.64596683630063E+00
 0.36863002370000E+01 0.38700574393705E+00
 s    1 1.00
 0.84660076805000E+00 0.10000000000000E+01
 s    1 1.00
 0.33647133771000E+00 0.10000000000000E+01
 s    1 1.00
 0.13647653675000E+00 0.10000000000000E+01
 s    1 1.00
 0.68441605847000E-01 0.10000000000000E+01
 p    4 1.00
 0.49200380510000E+02 0.11448825101764E-01
 0.11346790537000E+02 0.78422337970864E-01
 0.34273972411000E+01 0.30818094738830E+00
 0.11785525134000E+01 0.72027196368413E+00
 p    1 1.00
 0.41642204972000E+00 0.10000000000000E+01
 p    1 1.00
 0.14260826011000E+00 0.10000000000000E+01
 d    1 1.00
 0.16540000000000E+01 0.10000000000000E+01
 d    1 1.00
 0.46900000000000E+00 0.10000000000000E+01
 d    1 1.00
 0.12829642058000E+00 0.10000000000000E+01
 f    1 1.00
 0.10930000000000E+01 0.10000000000000E+01
 
   15 0
 s    3 1.00
 0.34061341000000E+02 0.25439307208879E-01
 0.51235746000000E+01 0.19008594890375E+00
 0.11646626000000E+01 0.85244113011042E+00
 s    1 1.00
 0.32723041000000E+00 0.10000000000000E+01
 s    1 1.00
 0.10307241000000E+00 0.10000000000000E+01
 p    1 1.00
 0.80000000000000E+00 0.10000000000000E+01
 p    1 1.00
 0.95774129632000E-01 0.10000000000000E+01
 
   16 0
 s    3 1.00
 0.34061341000000E+02 0.25439307208879E-01
 0.51235746000000E+01 0.19008594890375E+00
 0.11646626000000E+01 0.85244113011042E+00
 s    1 1.00
 0.32723041000000E+00 0.10000000000000E+01
 s    1 1.00
 0.10307241000000E+00 0.10000000000000E+01
 p    1 1.00
 0.80000000000000E+00 0.10000000000000E+01
 p    1 1.00
 0.95774129632000E-01 0.10000000000000E+01
 
[MO]
 Sym= X
 Ene= -0.083845
 Spin= Alpha
 Occup= -0.083845
         1   -4.717517E-04
         2   -1.101551E-03
         3    3.013547E-03
         4   -6.643090E-03
         5    8.914942E-02
         6   -2.716651E-02
         7    9.671564E-03
         8    2.186028E-03
         9    7.511545E-03
        10   -2.363476E-03
        11    3.022183E-03
        12    5.738332E-03
        13   -6.623772E-02
        14    2.481242E-02
        15    6.051659E-03
        16    1.660778E-04
        17   -1.865019E-04
        18    2.042409E-05
        19   -1.283483E-04
        20   -4.187607E-03
        21    2.226997E-03
        22   -1.386664E-03
        23    8.484291E-04
        24    5.382345E-04
        25   -1.996416E-03
        26   -9.658853E-03
        27    4.352263E-03
        28   -2.289254E-03
        29    9.123638E-04
        30    1.376891E-03
        31    5.004103E-03
        32    6.429210E-03
        33   -1.322925E-02
        34   -3.390648E-05
        35    2.935542E-05
        36    3.775928E-05
        37    1.879837E-05
        38   -2.197487E-05
        39   -5.674453E-04
        40    2.669194E-05
        41   -1.740956E-05
        42    5.167859E-04
        43   -3.957352E-04
        44    1.913054E-04
        45    4.169212E-04
        46    3.264681E-04
        47   -1.135901E-02
        48   -1.001614E-01
        49    1.668494E-02
        50   -1.165199E-04
        51    2.128326E-06
        52    1.159633E-01
        53   -2.454829E-03
        54    1.885924E-06
        55    1.201801E-01
        56   -1.783615E-02
        57   -8.572028E-06
        58    1.508570E-01
        59    2.980600E-04
        60   -2.890296E-04
        61   -9.030363E-06
        62    7.764082E-08
        63   -3.810713E-04
        64   -2.848314E-08
        65    1.263168E-03
        66   -2.004560E-03
        67    7.413922E-04
        68   -2.487443E-08
        69   -1.961942E-03
        70   -6.734670E-08
        71    4.196451E-02
        72   -4.492078E-02
        73    2.956270E-03
        74   -1.020623E-06
        75    8.339994E-04
        76    5.474095E-07
        77    1.216003E-05
        78    2.183507E-08
        79   -5.873916E-04
        80   -2.154797E-05
        81   -1.338317E-08
        82    3.130656E-04
        83    5.233574E-06
        84   -1.591165E-08
        85    4.750030E-04
        86   -4.984058E-09
        87   -4.718886E-04
        88   -1.101866E-03
        89    3.014192E-03
        90   -6.643396E-03
        91    8.916192E-02
        92   -2.716653E-02
        93    9.668077E-03
        94   -2.187234E-03
        95    7.509986E-03
        96   -2.367139E-03
        97   -3.023133E-03
        98    5.736810E-03
        99   -6.624840E-02
       100   -2.482065E-02
       101    6.051522E-03
       102    1.659677E-04
       103   -1.864201E-04
       104    2.045238E-05
       105    1.283510E-04
       106   -4.187632E-03
       107   -2.226984E-03
       108   -1.387106E-03
       109    8.487216E-04
       110    5.383843E-04
       111    1.996390E-03
       112   -9.658871E-03
       113   -4.352264E-03
       114   -2.289815E-03
       115    9.131557E-04
       116    1.376659E-03
       117   -5.003327E-03
       118    6.429883E-03
       119    1.322978E-02
       120   -3.391122E-05
       121   -2.935086E-05
       122    3.776389E-05
       123    1.879661E-05
       124    2.197009E-05
       125   -5.674489E-04
       126    2.670006E-05
       127    1.740822E-05
       128    5.167834E-04
       129    3.957354E-04
       130    5.856737E-04
       131    1.295406E-03
       132    2.904583E-04
       133   -2.635003E-02
       134   -4.127455E-02
       135    3.139944E-02
       136   -8.890858E-03
       137    3.690286E-03
       138   -1.063141E-01
       139   -2.723080E-02
       140    1.686799E-02
       141   -1.092399E-01
       142   -2.595668E-02
       143   -2.040479E-02
       144   -6.880482E-02
       145    5.950660E-04
       146   -7.125134E-04
       147    1.174473E-04
       148    7.518534E-05
       149    1.243670E-04
       150    1.524305E-03
       151    1.907628E-03
       152   -2.251358E-03
       153    3.437295E-04
       154    4.155986E-03
       155   -2.405360E-03
       156    2.064421E-03
       157    1.413097E-02
       158   -8.939462E-03
       159   -5.191507E-03
       160   -2.848899E-02
       161    8.060193E-03
       162   -1.608997E-02
       163   -4.640974E-05
       164    4.871172E-05
       165    5.119003E-04
       166   -5.874869E-05
       167    1.598287E-05
       168   -8.805765E-05
       169    1.210139E-04
       170   -8.133650E-05
       171   -5.987286E-04
       172    9.005104E-05
       173   -2.461900E-03
       174   -5.577596E-03
       175    4.965772E-03
       176    5.020576E-02
       177   -1.437568E-01
       178    1.661406E-02
       179    3.053471E-02
       180    1.297142E-06
       181   -2.738347E-02
       182    6.596552E-03
       183    9.804273E-07
       184   -3.324632E-02
       185   -1.173060E-01
       186   -1.187604E-06
       187   -1.303064E-01
       188    1.582622E-03
       189   -1.106140E-03
       190   -4.764818E-04
       191   -1.780300E-08
       192    1.087479E-02
       193    6.619828E-08
       194   -4.083742E-03
       195    9.253568E-03
       196   -5.169826E-03
       197   -2.023004E-07
       198    2.539805E-02
       199    7.924170E-08
       200   -3.569954E-02
       201    3.654123E-02
       202   -8.416878E-04
       203    9.313999E-07
       204    8.007661E-03
       205   -3.514873E-07
       206    3.220647E-04
       207    3.279549E-09
       208   -5.316961E-04
       209   -2.170404E-04
       210   -6.376363E-09
       211    1.838962E-03
       212   -2.150548E-04
       213    1.976387E-09
       214   -1.125617E-03
       215   -2.384068E-09
       216    5.855962E-04
       217    1.295233E-03
       218    2.907184E-04
       219   -2.635089E-02
       220   -4.129193E-02
       221    3.140050E-02
       222   -8.893887E-03
       223   -3.692500E-03
       224   -1.063149E-01
       225   -2.723210E-02
       226   -1.686975E-02
       227   -1.092409E-01
       228   -2.595125E-02
       229    2.040384E-02
       230   -6.880552E-02
       231    5.951540E-04
       232   -7.126218E-04
       233    1.174678E-04
       234   -7.520926E-05
       235    1.243185E-04
       236   -1.524309E-03
       237    1.907528E-03
       238   -2.251294E-03
       239    3.437660E-04
       240   -4.155990E-03
       241   -2.405330E-03
       242   -2.064369E-03
       243    1.413128E-02
       244   -8.939545E-03
       245   -5.191736E-03
       246    2.848916E-02
       247    8.059170E-03
       248    1.608974E-02
       249   -4.641676E-05
       250   -4.872510E-05
       251    5.119009E-04
       252   -5.874930E-05
       253   -1.598839E-05
       254   -8.805077E-05
       255    1.210239E-04
       256    8.135996E-05
       257   -5.987363E-04
       258   -9.003948E-05
       259   -3.171353E-03
       260   -3.815243E-03
       261   -4.043426E-02
       262   -1.115637E-04
       263   -3.072407E-04
       264    3.150833E-04
       265   -1.053278E-02
       266   -4.166248E-03
       267   -7.103981E-03
       268   -3.170944E-03
       269   -3.814689E-03
       270   -4.043373E-02
       271   -1.115785E-04
       272    3.071387E-04
       273    3.150274E-04
       274   -1.053211E-02
       275    4.166334E-03
       276   -7.104093E-03
       277   -2.066136E-03
       278   -7.263561E-03
       279    8.406937E-02
       280   -1.140754E-04
       281    4.228482E-04
       282   -4.279483E-03
       283   -3.539373E-03
       284   -7.969760E-03
       285    3.504618E-03
       286   -2.066342E-03
       287   -7.264099E-03
       288    8.407141E-02
       289   -1.141379E-04
       290   -4.229585E-04
       291   -4.279576E-03
       292   -3.539847E-03
       293    7.969419E-03
       294    3.504630E-03
       295   -3.034391E-04
       296   -7.161449E-04
       297    9.674759E-04
       298    1.858347E-03
       299   -2.914143E-02
       300   -1.381280E-02
       301    3.000900E-03
       302    4.214976E-07
       303    4.285858E-03
       304    2.012384E-03
       305    3.118898E-07
       306    6.570647E-03
       307   -7.098312E-03
       308    3.644272E-08
       309   -5.413215E-03
       310    9.199484E-06
       311   -7.936313E-06
       312   -1.263171E-06
       313   -2.004365E-07
       314    2.445699E-03
       315    6.857617E-08
       316   -6.345420E-05
       317    1.172345E-04
       318   -5.378034E-05
       319   -5.389227E-07
       320    7.272801E-03
       321    2.028020E-07
       322    2.481877E-04
       323    6.074371E-03
       324   -6.322558E-03
       325    1.337383E-07
       326    6.280936E-04
       327   -4.909815E-08
       328    1.684792E-05
       329   -4.459191E-08
       330    1.961905E-05
       331   -8.043483E-06
       332    7.364831E-08
       333    3.925372E-04
       334   -1.456037E-05
       335   -1.382199E-08
       336   -4.188589E-04
       337   -1.240725E-08
       338   -9.474057E-05
       339   -2.228641E-04
       340    2.232751E-04
       341    1.723349E-03
       342   -1.494726E-02
       343   -1.970531E-03
       344    4.299077E-04
       345    1.198573E-03
       346   -4.378740E-02
       347    3.675238E-06
       348    1.340777E-03
       349   -4.061752E-02
       350   -1.529343E-03
       351    2.190696E-03
       352   -3.099690E-02
       353   -8.149438E-04
       354    1.907876E-04
       355   -3.460851E-03
       356    2.205870E-05
       357   -3.196809E-05
       358    9.909384E-06
       359   -8.375181E-06
       360   -2.604363E-05
       361    3.336590E-04
       362    1.702153E-05
       363   -8.190485E-05
       364    6.488332E-05
       365   -2.355679E-05
       366   -4.128363E-04
       367    1.036666E-03
       368   -1.111929E-04
       369   -8.299676E-05
       370    1.941897E-04
       371   -2.271782E-04
       372   -1.884404E-04
       373    3.188570E-04
       374    1.095677E-06
       375    1.322316E-05
       376    4.420805E-05
       377   -2.122363E-06
       378   -1.167007E-05
       379    5.364743E-05
       380    6.523583E-07
       381   -6.070660E-06
       382   -1.129588E-04
       383    8.741908E-05
       384   -9.476130E-05
       385   -2.229097E-04
       386    2.233423E-04
       387    1.723727E-03
       388   -1.494740E-02
       389   -1.970139E-03
       390    4.423292E-04
       391   -1.206687E-03
       392   -4.379117E-02
       393    1.495924E-05
       394   -1.347875E-03
       395   -4.062096E-02
       396   -1.521063E-03
       397   -2.195896E-03
       398   -3.099986E-02
       399   -8.139320E-04
       400   -1.910605E-04
       401   -3.461238E-03
       402    2.214658E-05
       403   -3.206137E-05
       404    9.914797E-06
       405    8.392999E-06
       406   -2.606295E-05
       407   -3.336908E-04
       408    1.731180E-05
       409   -8.215578E-05
       410    6.484398E-05
       411    2.366360E-05
       412   -4.129065E-04
       413   -1.036784E-03
       414   -1.108154E-04
       415   -8.335611E-05
       416    1.941715E-04
       417    2.272690E-04
       418   -1.885568E-04
       419   -3.189647E-04
       420    1.100467E-06
       421   -1.324978E-05
       422    4.421373E-05
       423   -2.129716E-06
       424    1.170942E-05
       425    5.364904E-05
       426    6.532842E-07
       427    6.067033E-06
       428   -1.129680E-04
       429   -8.742928E-05
       430    1.205473E-02
       431    2.853336E-02
       432   -4.386983E-02
       433   -7.427360E-02
       434    3.437933E-03
       435   -1.204465E-01
       436   -5.100969E-02
       437   -3.710896E-07
       438    3.703877E-01
       439   -5.634996E-02
       440   -9.453299E-08
       441    3.607728E-01
       442   -7.158673E-02
       443    7.733866E-07
       444    2.731717E-01
       445   -2.762434E-04
       446   -3.825403E-04
       447    6.587837E-04
       448   -1.816739E-08
       449   -4.515052E-04
       450   -2.912570E-08
       451   -3.429038E-04
       452   -4.825834E-03
       453    5.168738E-03
       454   -8.029351E-08
       455    1.879130E-04
       456   -1.094181E-08
       457   -3.599241E-03
       458   -1.388282E-02
       459    1.748206E-02
       460   -1.485939E-07
       461    5.514740E-04
       462    1.621542E-07
       463   -2.849906E-04
       464    1.315863E-09
       465   -1.575726E-03
       466   -2.710505E-04
       467    4.050290E-09
       468    1.074876E-03
       469    6.534054E-04
       470   -5.815706E-09
       471    1.039182E-03
       472    8.878063E-10
       473    1.713816E-02
       474    3.877725E-02
       475    8.874065E-02
       476   -5.546974E-03
       477   -4.186922E-03
       478    1.770577E-02
       479   -4.787050E-03
       480   -1.020964E-02
       481    1.513815E-02
       482    1.713882E-02
       483    3.877841E-02
       484    8.874258E-02
       485   -5.547059E-03
       486    4.187081E-03
       487    1.770582E-02
       488   -4.787413E-03
       489    1.020984E-02
       490    1.513817E-02
 Sym= X
 Ene= -0.800381
 Spin= Alpha
 Occup= -0.800381
         1    7.558289E-05
         2    1.727288E-04
         3   -4.465253E-04
         4    7.613930E-04
         5    1.153078E-03
         6    3.278638E-04
         7   -7.972929E-05
         8    3.646040E-04
         9    1.822213E-01
        10    1.360564E-03
        11   -1.483554E-04
        12    1.832308E-01
        13   -5.075141E-03
        14    3.250472E-03
        15    1.059170E-01
        16    6.953019E-06
        17   -2.214144E-06
        18   -4.738875E-06
        19   -2.462679E-05
        20    4.842451E-03
        21    5.360022E-04
        22    3.151308E-04
        23   -2.285073E-04
        24   -8.662345E-05
        25   -3.226636E-05
        26    9.810038E-03
        27   -5.463045E-04
        28   -7.555445E-04
        29    6.416818E-04
        30    1.138627E-04
        31   -1.476308E-04
        32    6.251437E-03
        33   -3.361112E-03
        34    8.600128E-06
        35    1.002009E-06
        36   -1.138635E-03
        37   -2.644280E-06
        38   -1.361848E-06
        39    1.375747E-03
        40   -8.894002E-06
        41    1.751148E-08
        42    1.518932E-04
        43    1.753552E-05
        44    1.344037E-06
        45    3.039979E-06
        46   -4.588592E-06
        47   -8.186155E-06
        48   -3.928266E-05
        49    3.337793E-07
        50    1.920559E-05
        51   -5.047108E-04
        52    4.631913E-06
        53    1.527652E-05
        54   -9.658760E-04
        55    4.831327E-06
        56   -5.851001E-06
        57    6.661700E-03
        58    3.068116E-06
        59   -7.451022E-07
        60    6.213200E-07
        61    1.237822E-07
        62   -1.090503E-05