[Molden Format]
[Title]
ADC(2) - opt by CAM-B3LYP gaussian                                              
[Atoms] AU
 c     1    6 -.12594776649128E+01 -.22773101438193E+01 -.39940542897370E-01
 c     2    6 -.25470425655544E+01 -.11810788300000E-05 -.37653974276580E-01
 c     3    6 -.12594776649128E+01 0.22773077816617E+01 -.39959440158700E-01
 c     4    6 0.13393870965995E+01 0.22758904870620E+01 -.43795584208460E-01
 c     5    6 0.26846831306008E+01 -.11810788300000E-05 -.44211323957690E-01
 c     6    6 0.13394059938609E+01 -.22758928492196E+01 -.43776686947130E-01
 h     7    1 -.23144739703802E+01 -.40231336316857E+01 -.37313823572660E-01
 h     8    1 -.23144739703802E+01 0.40231312695281E+01 -.37332720833990E-01
 h     9    1 0.23577983041343E+01 0.40499086888311E+01 -.52469427158400E-01
 h    10    1 0.23577983041343E+01 -.40498921537274E+01 -.52431632635740E-01
 n    11    7 -.52968964450843E+01 -.11810788300000E-05 -.29906097131750E-01
 o    12    8 -.63725096626615E+01 0.20302827815708E+01 -.26599076399200E-01
 o    13    8 -.63725096626615E+01 -.20302851437285E+01 -.26655768183180E-01
 n    14    7 0.52734000627795E+01 -.11810788300000E-05 -.11796733492422E+00
 h    15    1 0.61922038058499E+01 0.16034881344586E+01 0.31500671664254E+00
 h    16    1 0.61921849085885E+01 -.16034904966163E+01 0.31500671664254E+00
[GTO]
    1 0
 s    6 1.00
 0.13575349682000E+05 0.60645503603591E-03
 0.20352333680000E+04 0.46979088884982E-02
 0.46322562359000E+03 0.24332477647552E-01
 0.13120019598000E+03 0.97399968307759E-01
 0.42853015891000E+02 0.30195584253780E+00
 0.15584185766000E+02 0.66233609137875E+00
 s    2 1.00
 0.62067138508000E+01 0.65595308539952E+00
 0.25764896527000E+01 0.37585633285142E+00
 s    1 1.00
 0.57696339419000E+00 0.10000000000000E+01
 s    1 1.00
 0.22972831358000E+00 0.10000000000000E+01
 s    1 1.00
 0.95164440028000E-01 0.10000000000000E+01
 s    1 1.00
 0.48475401370000E-01 0.10000000000000E+01
 p    4 1.00
 0.34697232244000E+02 0.11327220003114E-01
 0.79582622826000E+01 0.76169659202087E-01
 0.23780826883000E+01 0.30192252202676E+00
 0.81433208183000E+00 0.72785027349547E+00
 p    1 1.00
 0.28887547253000E+00 0.10000000000000E+01
 p    1 1.00
 0.10056823671000E+00 0.10000000000000E+01
 d    1 1.00
 0.10970000000000E+01 0.10000000000000E+01
 d    1 1.00
 0.31800000000000E+00 0.10000000000000E+01
 d    1 1.00
 0.90985336424000E-01 0.10000000000000E+01
 f    1 1.00
 0.76100000000000E+00 0.10000000000000E+01
 
    2 0
 s    6 1.00
 0.13575349682000E+05 0.60645503603591E-03
 0.20352333680000E+04 0.46979088884982E-02
 0.46322562359000E+03 0.24332477647552E-01
 0.13120019598000E+03 0.97399968307759E-01
 0.42853015891000E+02 0.30195584253780E+00
 0.15584185766000E+02 0.66233609137875E+00
 s    2 1.00
 0.62067138508000E+01 0.65595308539952E+00
 0.25764896527000E+01 0.37585633285142E+00
 s    1 1.00
 0.57696339419000E+00 0.10000000000000E+01
 s    1 1.00
 0.22972831358000E+00 0.10000000000000E+01
 s    1 1.00
 0.95164440028000E-01 0.10000000000000E+01
 s    1 1.00
 0.48475401370000E-01 0.10000000000000E+01
 p    4 1.00
 0.34697232244000E+02 0.11327220003114E-01
 0.79582622826000E+01 0.76169659202087E-01
 0.23780826883000E+01 0.30192252202676E+00
 0.81433208183000E+00 0.72785027349547E+00
 p    1 1.00
 0.28887547253000E+00 0.10000000000000E+01
 p    1 1.00
 0.10056823671000E+00 0.10000000000000E+01
 d    1 1.00
 0.10970000000000E+01 0.10000000000000E+01
 d    1 1.00
 0.31800000000000E+00 0.10000000000000E+01
 d    1 1.00
 0.90985336424000E-01 0.10000000000000E+01
 f    1 1.00
 0.76100000000000E+00 0.10000000000000E+01
 
    3 0
 s    6 1.00
 0.13575349682000E+05 0.60645503603591E-03
 0.20352333680000E+04 0.46979088884982E-02
 0.46322562359000E+03 0.24332477647552E-01
 0.13120019598000E+03 0.97399968307759E-01
 0.42853015891000E+02 0.30195584253780E+00
 0.15584185766000E+02 0.66233609137875E+00
 s    2 1.00
 0.62067138508000E+01 0.65595308539952E+00
 0.25764896527000E+01 0.37585633285142E+00
 s    1 1.00
 0.57696339419000E+00 0.10000000000000E+01
 s    1 1.00
 0.22972831358000E+00 0.10000000000000E+01
 s    1 1.00
 0.95164440028000E-01 0.10000000000000E+01
 s    1 1.00
 0.48475401370000E-01 0.10000000000000E+01
 p    4 1.00
 0.34697232244000E+02 0.11327220003114E-01
 0.79582622826000E+01 0.76169659202087E-01
 0.23780826883000E+01 0.30192252202676E+00
 0.81433208183000E+00 0.72785027349547E+00
 p    1 1.00
 0.28887547253000E+00 0.10000000000000E+01
 p    1 1.00
 0.10056823671000E+00 0.10000000000000E+01
 d    1 1.00
 0.10970000000000E+01 0.10000000000000E+01
 d    1 1.00
 0.31800000000000E+00 0.10000000000000E+01
 d    1 1.00
 0.90985336424000E-01 0.10000000000000E+01
 f    1 1.00
 0.76100000000000E+00 0.10000000000000E+01
 
    4 0
 s    6 1.00
 0.13575349682000E+05 0.60645503603591E-03
 0.20352333680000E+04 0.46979088884982E-02
 0.46322562359000E+03 0.24332477647552E-01
 0.13120019598000E+03 0.97399968307759E-01
 0.42853015891000E+02 0.30195584253780E+00
 0.15584185766000E+02 0.66233609137875E+00
 s    2 1.00
 0.62067138508000E+01 0.65595308539952E+00
 0.25764896527000E+01 0.37585633285142E+00
 s    1 1.00
 0.57696339419000E+00 0.10000000000000E+01
 s    1 1.00
 0.22972831358000E+00 0.10000000000000E+01
 s    1 1.00
 0.95164440028000E-01 0.10000000000000E+01
 s    1 1.00
 0.48475401370000E-01 0.10000000000000E+01
 p    4 1.00
 0.34697232244000E+02 0.11327220003114E-01
 0.79582622826000E+01 0.76169659202087E-01
 0.23780826883000E+01 0.30192252202676E+00
 0.81433208183000E+00 0.72785027349547E+00
 p    1 1.00
 0.28887547253000E+00 0.10000000000000E+01
 p    1 1.00
 0.10056823671000E+00 0.10000000000000E+01
 d    1 1.00
 0.10970000000000E+01 0.10000000000000E+01
 d    1 1.00
 0.31800000000000E+00 0.10000000000000E+01
 d    1 1.00
 0.90985336424000E-01 0.10000000000000E+01
 f    1 1.00
 0.76100000000000E+00 0.10000000000000E+01
 
    5 0
 s    6 1.00
 0.13575349682000E+05 0.60645503603591E-03
 0.20352333680000E+04 0.46979088884982E-02
 0.46322562359000E+03 0.24332477647552E-01
 0.13120019598000E+03 0.97399968307759E-01
 0.42853015891000E+02 0.30195584253780E+00
 0.15584185766000E+02 0.66233609137875E+00
 s    2 1.00
 0.62067138508000E+01 0.65595308539952E+00
 0.25764896527000E+01 0.37585633285142E+00
 s    1 1.00
 0.57696339419000E+00 0.10000000000000E+01
 s    1 1.00
 0.22972831358000E+00 0.10000000000000E+01
 s    1 1.00
 0.95164440028000E-01 0.10000000000000E+01
 s    1 1.00
 0.48475401370000E-01 0.10000000000000E+01
 p    4 1.00
 0.34697232244000E+02 0.11327220003114E-01
 0.79582622826000E+01 0.76169659202087E-01
 0.23780826883000E+01 0.30192252202676E+00
 0.81433208183000E+00 0.72785027349547E+00
 p    1 1.00
 0.28887547253000E+00 0.10000000000000E+01
 p    1 1.00
 0.10056823671000E+00 0.10000000000000E+01
 d    1 1.00
 0.10970000000000E+01 0.10000000000000E+01
 d    1 1.00
 0.31800000000000E+00 0.10000000000000E+01
 d    1 1.00
 0.90985336424000E-01 0.10000000000000E+01
 f    1 1.00
 0.76100000000000E+00 0.10000000000000E+01
 
    6 0
 s    6 1.00
 0.13575349682000E+05 0.60645503603591E-03
 0.20352333680000E+04 0.46979088884982E-02
 0.46322562359000E+03 0.24332477647552E-01
 0.13120019598000E+03 0.97399968307759E-01
 0.42853015891000E+02 0.30195584253780E+00
 0.15584185766000E+02 0.66233609137875E+00
 s    2 1.00
 0.62067138508000E+01 0.65595308539952E+00
 0.25764896527000E+01 0.37585633285142E+00
 s    1 1.00
 0.57696339419000E+00 0.10000000000000E+01
 s    1 1.00
 0.22972831358000E+00 0.10000000000000E+01
 s    1 1.00
 0.95164440028000E-01 0.10000000000000E+01
 s    1 1.00
 0.48475401370000E-01 0.10000000000000E+01
 p    4 1.00
 0.34697232244000E+02 0.11327220003114E-01
 0.79582622826000E+01 0.76169659202087E-01
 0.23780826883000E+01 0.30192252202676E+00
 0.81433208183000E+00 0.72785027349547E+00
 p    1 1.00
 0.28887547253000E+00 0.10000000000000E+01
 p    1 1.00
 0.10056823671000E+00 0.10000000000000E+01
 d    1 1.00
 0.10970000000000E+01 0.10000000000000E+01
 d    1 1.00
 0.31800000000000E+00 0.10000000000000E+01
 d    1 1.00
 0.90985336424000E-01 0.10000000000000E+01
 f    1 1.00
 0.76100000000000E+00 0.10000000000000E+01
 
    7 0
 s    3 1.00
 0.34061341000000E+02 0.25439307208879E-01
 0.51235746000000E+01 0.19008594890375E+00
 0.11646626000000E+01 0.85244113011042E+00
 s    1 1.00
 0.32723041000000E+00 0.10000000000000E+01
 s    1 1.00
 0.10307241000000E+00 0.10000000000000E+01
 p    1 1.00
 0.80000000000000E+00 0.10000000000000E+01
 p    1 1.00
 0.95774129632000E-01 0.10000000000000E+01
 
    8 0
 s    3 1.00
 0.34061341000000E+02 0.25439307208879E-01
 0.51235746000000E+01 0.19008594890375E+00
 0.11646626000000E+01 0.85244113011042E+00
 s    1 1.00
 0.32723041000000E+00 0.10000000000000E+01
 s    1 1.00
 0.10307241000000E+00 0.10000000000000E+01
 p    1 1.00
 0.80000000000000E+00 0.10000000000000E+01
 p    1 1.00
 0.95774129632000E-01 0.10000000000000E+01
 
    9 0
 s    3 1.00
 0.34061341000000E+02 0.25439307208879E-01
 0.51235746000000E+01 0.19008594890375E+00
 0.11646626000000E+01 0.85244113011042E+00
 s    1 1.00
 0.32723041000000E+00 0.10000000000000E+01
 s    1 1.00
 0.10307241000000E+00 0.10000000000000E+01
 p    1 1.00
 0.80000000000000E+00 0.10000000000000E+01
 p    1 1.00
 0.95774129632000E-01 0.10000000000000E+01
 
   10 0
 s    3 1.00
 0.34061341000000E+02 0.25439307208879E-01
 0.51235746000000E+01 0.19008594890375E+00
 0.11646626000000E+01 0.85244113011042E+00
 s    1 1.00
 0.32723041000000E+00 0.10000000000000E+01
 s    1 1.00
 0.10307241000000E+00 0.10000000000000E+01
 p    1 1.00
 0.80000000000000E+00 0.10000000000000E+01
 p    1 1.00
 0.95774129632000E-01 0.10000000000000E+01
 
   11 0
 s    6 1.00
 0.19730800647000E+05 0.58626402628763E-03
 0.29578958745000E+04 0.45428820586397E-02
 0.67322133595000E+03 0.23558413450084E-01
 0.19068249494000E+03 0.94709193292923E-01
 0.62295441898000E+02 0.29719784913376E+00
 0.22654161182000E+02 0.66916246895232E+00
 s    2 1.00
 0.89791477428000E+01 0.64596683630063E+00
 0.36863002370000E+01 0.38700574393705E+00
 s    1 1.00
 0.84660076805000E+00 0.10000000000000E+01
 s    1 1.00
 0.33647133771000E+00 0.10000000000000E+01
 s    1 1.00
 0.13647653675000E+00 0.10000000000000E+01
 s    1 1.00
 0.68441605847000E-01 0.10000000000000E+01
 p    4 1.00
 0.49200380510000E+02 0.11448825101764E-01
 0.11346790537000E+02 0.78422337970864E-01
 0.34273972411000E+01 0.30818094738830E+00
 0.11785525134000E+01 0.72027196368413E+00
 p    1 1.00
 0.41642204972000E+00 0.10000000000000E+01
 p    1 1.00
 0.14260826011000E+00 0.10000000000000E+01
 d    1 1.00
 0.16540000000000E+01 0.10000000000000E+01
 d    1 1.00
 0.46900000000000E+00 0.10000000000000E+01
 d    1 1.00
 0.12829642058000E+00 0.10000000000000E+01
 f    1 1.00
 0.10930000000000E+01 0.10000000000000E+01
 
   12 0
 s    6 1.00
 0.27032382631000E+05 0.57227335211155E-03
 0.40523871392000E+04 0.44353233492995E-02
 0.92232722710000E+03 0.23020107706038E-01
 0.26124070989000E+03 0.92822490667928E-01
 0.85354641351000E+02 0.29378500009671E+00
 0.31035035245000E+02 0.67401604501641E+00
 s    2 1.00
 0.12260860728000E+02 0.63839937025506E+00
 0.49987076005000E+01 0.39534587125718E+00
 s    1 1.00
 0.11703108158000E+01 0.10000000000000E+01
 s    1 1.00
 0.46474740994000E+00 0.10000000000000E+01
 s    1 1.00
 0.18504536357000E+00 0.10000000000000E+01
 s    1 1.00
 0.70288026270000E-01 0.10000000000000E+01
 p    4 1.00
 0.63274954801000E+02 0.12018332222616E-01
 0.14627049379000E+02 0.83005421790056E-01
 0.44501223456000E+01 0.31991743925964E+00
 0.15275799647000E+01 0.70715542916104E+00
 p    1 1.00
 0.52935117943000E+00 0.10000000000000E+01
 p    1 1.00
 0.17478421270000E+00 0.10000000000000E+01
 p    1 1.00
 0.51112745706000E-01 0.10000000000000E+01
 d    1 1.00
 0.23140000000000E+01 0.10000000000000E+01
 d    1 1.00
 0.64500000000000E+00 0.10000000000000E+01
 d    1 1.00
 0.14696477366000E+00 0.10000000000000E+01
 f    1 1.00
 0.14280000000000E+01 0.10000000000000E+01
 
   13 0
 s    6 1.00
 0.27032382631000E+05 0.57227335211155E-03
 0.40523871392000E+04 0.44353233492995E-02
 0.92232722710000E+03 0.23020107706038E-01
 0.26124070989000E+03 0.92822490667928E-01
 0.85354641351000E+02 0.29378500009671E+00
 0.31035035245000E+02 0.67401604501641E+00
 s    2 1.00
 0.12260860728000E+02 0.63839937025506E+00
 0.49987076005000E+01 0.39534587125718E+00
 s    1 1.00
 0.11703108158000E+01 0.10000000000000E+01
 s    1 1.00
 0.46474740994000E+00 0.10000000000000E+01
 s    1 1.00
 0.18504536357000E+00 0.10000000000000E+01
 s    1 1.00
 0.70288026270000E-01 0.10000000000000E+01
 p    4 1.00
 0.63274954801000E+02 0.12018332222616E-01
 0.14627049379000E+02 0.83005421790056E-01
 0.44501223456000E+01 0.31991743925964E+00
 0.15275799647000E+01 0.70715542916104E+00
 p    1 1.00
 0.52935117943000E+00 0.10000000000000E+01
 p    1 1.00
 0.17478421270000E+00 0.10000000000000E+01
 p    1 1.00
 0.51112745706000E-01 0.10000000000000E+01
 d    1 1.00
 0.23140000000000E+01 0.10000000000000E+01
 d    1 1.00
 0.64500000000000E+00 0.10000000000000E+01
 d    1 1.00
 0.14696477366000E+00 0.10000000000000E+01
 f    1 1.00
 0.14280000000000E+01 0.10000000000000E+01
 
   14 0
 s    6 1.00
 0.19730800647000E+05 0.58626402628763E-03
 0.29578958745000E+04 0.45428820586397E-02
 0.67322133595000E+03 0.23558413450084E-01
 0.19068249494000E+03 0.94709193292923E-01
 0.62295441898000E+02 0.29719784913376E+00
 0.22654161182000E+02 0.66916246895232E+00
 s    2 1.00
 0.89791477428000E+01 0.64596683630063E+00
 0.36863002370000E+01 0.38700574393705E+00
 s    1 1.00
 0.84660076805000E+00 0.10000000000000E+01
 s    1 1.00
 0.33647133771000E+00 0.10000000000000E+01
 s    1 1.00
 0.13647653675000E+00 0.10000000000000E+01
 s    1 1.00
 0.68441605847000E-01 0.10000000000000E+01
 p    4 1.00
 0.49200380510000E+02 0.11448825101764E-01
 0.11346790537000E+02 0.78422337970864E-01
 0.34273972411000E+01 0.30818094738830E+00
 0.11785525134000E+01 0.72027196368413E+00
 p    1 1.00
 0.41642204972000E+00 0.10000000000000E+01
 p    1 1.00
 0.14260826011000E+00 0.10000000000000E+01
 d    1 1.00
 0.16540000000000E+01 0.10000000000000E+01
 d    1 1.00
 0.46900000000000E+00 0.10000000000000E+01
 d    1 1.00
 0.12829642058000E+00 0.10000000000000E+01
 f    1 1.00
 0.10930000000000E+01 0.10000000000000E+01
 
   15 0
 s    3 1.00
 0.34061341000000E+02 0.25439307208879E-01
 0.51235746000000E+01 0.19008594890375E+00
 0.11646626000000E+01 0.85244113011042E+00
 s    1 1.00
 0.32723041000000E+00 0.10000000000000E+01
 s    1 1.00
 0.10307241000000E+00 0.10000000000000E+01
 p    1 1.00
 0.80000000000000E+00 0.10000000000000E+01
 p    1 1.00
 0.95774129632000E-01 0.10000000000000E+01
 
   16 0
 s    3 1.00
 0.34061341000000E+02 0.25439307208879E-01
 0.51235746000000E+01 0.19008594890375E+00
 0.11646626000000E+01 0.85244113011042E+00
 s    1 1.00
 0.32723041000000E+00 0.10000000000000E+01
 s    1 1.00
 0.10307241000000E+00 0.10000000000000E+01
 p    1 1.00
 0.80000000000000E+00 0.10000000000000E+01
 p    1 1.00
 0.95774129632000E-01 0.10000000000000E+01
 
[MO]
 Sym= X
 Ene= -0.841288
 Spin= Alpha
 Occup= -0.841288
         1   -3.220869E-04
         2   -7.758027E-04
         3   -2.196548E-03
         4    2.512228E-02
         5    2.806158E-01
         6   -3.099385E-02
         7   -3.666896E-02
         8    4.929713E-02
         9    6.601166E-04
        10   -1.491961E-02
        11    4.085793E-02
        12    6.571356E-04
        13   -3.547284E-02
        14    9.605656E-02
        15    6.805429E-04
        16   -2.712722E-03
        17    2.887580E-03
        18   -1.748572E-04
        19   -4.834829E-04
        20   -1.626204E-05
        21    2.625099E-05
        22    1.439090E-03
        23    1.058072E-03
        24   -2.497161E-03
        25   -5.492114E-04
        26   -2.755100E-05
        27    5.421588E-05
        28    2.754810E-03
        29   -2.192102E-03
        30   -5.627078E-04
        31    1.018215E-02
        32    4.505891E-05
        33   -1.529793E-04
        34    1.037804E-04
        35    5.033282E-04
        36   -5.504200E-06
        37   -1.483646E-04
        38   -5.445725E-04
        39    1.434292E-06
        40    9.128609E-06
        41   -1.307131E-04
        42    5.950368E-06
        43   -1.945196E-06
        44    1.021272E-02
        45    2.308476E-02
        46   -3.429013E-02
        47   -6.604538E-02
        48   -2.630611E-01
        49    1.614159E-02
        50    1.551273E-01
        51    1.193523E-06
        52    9.199445E-04
        53    1.212175E-01
        54    1.446522E-06
        55    9.984386E-04
        56   -6.647840E-02
        57   -5.398336E-06
        58    1.338817E-03
        59   -5.806082E-03
        60    5.301963E-03
        61    5.041194E-04
        62    5.660306E-08
        63    3.500430E-05
        64    1.058345E-06
        65   -2.738065E-03
        66    3.240647E-03
        67   -5.025820E-04
        68    1.361912E-07
        69    2.166012E-05
        70    2.513329E-06
        71    5.260243E-02
        72   -5.467211E-02
        73    2.069677E-03
        74   -9.302947E-07
        75   -7.027462E-05
        76    8.328417E-07
        77    1.027996E-03
        78    1.079688E-08
        79   -5.621977E-06
        80   -7.121672E-04
        81   -6.830789E-09
        82   -2.667882E-06
        83   -6.670337E-04
        84   -7.654750E-09
        85    1.021056E-05
        86    1.494952E-07
        87   -3.222077E-04
        88   -7.760832E-04
        89   -2.196166E-03
        90    2.512376E-02
        91    2.806219E-01
        92   -3.099333E-02
        93   -3.667006E-02
        94   -4.929839E-02
        95    7.172087E-04
        96   -1.491909E-02
        97   -4.085842E-02
        98    7.144080E-04
        99   -3.547916E-02
       100   -9.606285E-02
       101    7.147613E-04
       102   -2.712747E-03
       103    2.887614E-03
       104   -1.748677E-04
       105    4.835821E-04
       106   -1.478193E-05
       107   -2.645557E-05
       108    1.439206E-03
       109    1.058008E-03
       110   -2.497214E-03
       111    5.492940E-04
       112   -2.459008E-05
       113   -5.407931E-05
       114    2.753937E-03
       115   -2.191166E-03
       116   -5.627710E-04
       117   -1.018130E-02
       118    4.667812E-05
       119    1.537239E-04
       120    1.037897E-04
       121   -5.033383E-04
       122   -5.865874E-06
       123   -1.483707E-04
       124    5.445834E-04
       125    1.863562E-06
       126    9.122277E-06
       127    1.307157E-04
       128    6.006334E-06
       129    1.942267E-06
       130    2.418044E-03
       131    5.470566E-03
       132   -5.748676E-03
       133   -3.204501E-02
       134   -1.192931E-01
       135    3.382957E-02
       136    3.911860E-02
       137    1.339269E-02
       138   -3.236083E-04
       139    4.567874E-02
       140    1.129307E-02
       141   -3.420803E-04
       142    3.873052E-02
       143    4.825311E-02
       144   -5.014396E-04
       145   -1.152071E-03
       146    1.001811E-03
       147    1.502603E-04
       148    1.788988E-03
       149   -2.535263E-05
       150    8.598431E-06
       151   -3.872537E-03
       152    1.813367E-03
       153    2.059170E-03
       154    2.445680E-03
       155   -6.212756E-06
       156    4.117291E-05
       157   -3.498869E-03
       158    4.420816E-03
       159   -9.219472E-04
       160   -2.251829E-02
       161    3.279324E-04
       162    2.646967E-05
       163    3.101808E-04
       164    2.894613E-04
       165    2.855753E-06
       166   -1.711388E-04
       167   -3.716055E-04
       168    6.088629E-08
       169   -2.450123E-04
       170   -1.674760E-05
       171   -3.892281E-06
       172    3.245471E-06
       173    2.058268E-03
       174    4.724750E-03
       175   -9.627927E-03
       176   -3.918773E-04
       177   -5.007016E-02
       178   -3.851974E-02
       179    3.265792E-03
       180   -1.232905E-06
       181   -9.524566E-04
       182    7.214406E-04
       183   -1.043727E-06
       184   -1.010212E-03
       185   -3.171197E-02
       186    7.949469E-06
       187   -1.246318E-03
       188   -9.195613E-04
       189    8.859604E-04
       190    3.360097E-05
       191    3.784679E-08
       192   -9.289911E-06
       193    1.160892E-06
       194   -1.472832E-04
       195    1.033397E-03
       196   -8.861136E-04
       197    5.799437E-08
       198   -6.326153E-05
       199    2.447848E-06
       200   -1.607912E-02
       201    1.586412E-02
       202    2.150035E-04
       203   -7.494687E-07
       204   -5.363566E-04
       205   -1.792148E-06
       206   -5.323817E-05
       207   -1.052040E-09
       208    7.984174E-06
       209    5.886130E-05
       210   -2.619446E-09
       211   -6.548352E-06
       212    1.256520E-05
       213    4.030906E-09
       214   -4.163541E-06
       215   -1.801425E-07
       216    2.417890E-03
       217    5.470224E-03
       218   -5.748092E-03
       219   -3.204355E-02
       220   -1.192828E-01
       221    3.382909E-02
       222    3.911808E-02
       223   -1.339071E-02
       224   -3.845188E-04
       225    4.567764E-02
       226   -1.129126E-02
       227   -4.039085E-04
       228    3.873843E-02
       229   -4.824479E-02
       230   -5.414444E-04
       231   -1.152021E-03
       232    1.001785E-03
       233    1.502362E-04
       234   -1.788852E-03
       235   -2.396996E-05
       236   -8.753598E-06
       237   -3.872347E-03
       238    1.813283E-03
       239    2.059064E-03
       240   -2.445467E-03
       241   -3.828083E-06
       242   -4.125166E-05
       243   -3.499853E-03
       244    4.421970E-03
       245   -9.221162E-04
       246    2.251967E-02
       247    3.258937E-04
       248   -2.768283E-05
       249    3.101744E-04
       250   -2.894547E-04
       251    3.258026E-06
       252   -1.711305E-04
       253    3.716054E-04
       254   -3.839206E-07
       255   -2.450121E-04
       256    1.673882E-05
       257   -3.987180E-06
       258   -3.260371E-06
       259   -4.193797E-03
       260   -5.081342E-03
       261   -3.454602E-03
       262   -2.584029E-03
       263   -3.618577E-04
       264    2.961875E-05
       265   -6.480282E-03
       266    7.371267E-04
       267   -1.013396E-04
       268   -4.194160E-03
       269   -5.082020E-03
       270   -3.454263E-03
       271   -2.584030E-03
       272    3.618751E-04
       273    3.196304E-05
       274   -6.480565E-03
       275   -7.373341E-04
       276   -9.917144E-05
       277    1.733612E-02
       278    2.835384E-02
       279    3.177508E-02
       280    2.614779E-05
       281   -2.537337E-03
       282    1.310254E-05
       283    8.197529E-03
       284   -4.380316E-03
       285   -5.304836E-05
       286    1.733504E-02
       287    2.835192E-02
       288    3.177480E-02
       289    2.625908E-05
       290    2.537248E-03
       291    1.038982E-05
       292    8.198405E-03
       293    4.380560E-03
       294   -5.635963E-05
       295    4.387424E-03
       296    1.023435E-02
       297   -1.088850E-02
       298   -4.603616E-02
       299   -1.596333E-01
       300    2.421384E-02
       301   -1.210735E-01
       302    2.259193E-07
       303    2.720928E-04
       304   -1.136604E-01
       305    1.986164E-07
       306    2.619835E-04
       307   -9.534022E-02
       308   -6.720756E-08
       309    2.361246E-04
       310   -1.183817E-02
       311    1.307817E-02
       312   -1.240005E-03
       313   -9.987945E-08
       314    6.007416E-05
       315   -2.438670E-07
       316   -3.396367E-02
       317    3.494075E-02
       318   -9.770811E-04
       319   -2.597812E-07
       320    1.809606E-04
       321   -7.590942E-07
       322    1.284090E-02
       323   -1.415383E-03
       324   -1.142552E-02
       325    1.120513E-07
       326   -8.909900E-05
       327   -3.726642E-07
       328   -7.884874E-05
       329   -2.676131E-08
       330   -1.566456E-06
       331   -1.972122E-04
       332    3.738500E-08
       333    5.532076E-06
       334    3.029989E-04
       335   -1.480935E-09
       336   -3.430455E-06
       337    9.312024E-08
       338   -8.341269E-04
       339   -2.158812E-03
       340    2.438125E-03
       341   -9.586905E-03
       342   -5.461913E-03
       343   -1.773160E-02
       344    3.031202E-01
       345    5.194942E-02
       346   -1.338178E-03
       347    2.668867E-01
       348    5.098532E-02
       349   -1.195423E-03
       350    1.975090E-01
       351    4.337772E-02
       352   -8.701796E-04
       353    1.586132E-02
       354    8.477131E-03
       355   -6.538989E-05
       356    8.687129E-04
       357   -6.743134E-05
       358   -8.012816E-04
       359   -2.547425E-03
       360   -6.737659E-06
       361    1.247234E-05
       362    3.900855E-03
       363   -1.482023E-03
       364   -2.418832E-03
       365   -5.705329E-03
       366   -2.570178E-05
       367    3.175373E-05
       368    5.825776E-03
       369   -4.098616E-03
       370   -1.727160E-03
       371   -5.567357E-03
       372   -1.750371E-05
       373    2.570623E-05
       374   -3.174697E-04
       375    4.552751E-04
       376    2.049383E-06
       377    6.322789E-04
       378   -8.868462E-04
       379    5.647853E-07
       380   -2.063486E-04
       381    2.760305E-04
       382   -3.314321E-06
       383    5.255968E-06
       384   -8.340949E-04
       385   -2.158730E-03
       386    2.438000E-03
       387   -9.586967E-03
       388   -5.462215E-03
       389   -1.773115E-02
       390    3.031263E-01
       391   -5.195409E-02
       392   -1.312828E-03
       393    2.668922E-01
       394   -5.098943E-02
       395   -1.172084E-03
       396    1.975131E-01
       397   -4.338076E-02
       398   -8.535985E-04
       399    1.586204E-02
       400   -8.477480E-03
       401   -6.361697E-05
       402    8.687612E-04
       403   -6.748846E-05
       404   -8.012727E-04
       405    2.547432E-03
       406   -6.539188E-06
       407   -1.222358E-05
       408    3.901012E-03
       409   -1.482180E-03
       410   -2.418832E-03
       411    5.705372E-03
       412   -2.509162E-05
       413   -3.092562E-05
       414    5.825998E-03
       415   -4.098799E-03
       416   -1.727199E-03
       417    5.567368E-03
       418   -1.689435E-05
       419   -2.536652E-05
       420   -3.174662E-04
       421   -4.552920E-04
       422    1.995138E-06
       423    6.322725E-04
       424    8.868668E-04
       425    5.774455E-07
       426   -2.063469E-04
       427   -2.760284E-04
       428   -3.254204E-06
       429   -5.157540E-06
       430    1.103676E-03
       431    2.612243E-03
       432   -3.525415E-03
       433   -1.022443E-02
       434    2.327126E-02
       435    2.514392E-02
       436    5.297856E-03
       437   -1.210204E-07
       438   -1.449915E-03
       439    5.956409E-03
       440   -1.612297E-07
       441   -1.569386E-03
       442    7.611590E-04
       443   -2.176484E-07
       444   -2.937162E-04
       445   -1.442640E-04
       446    1.287272E-04
       447    1.553689E-05
       448    1.849450E-08
       449    3.896298E-05
       450    4.878181E-08
       451   -3.304881E-04
       452    4.712058E-04
       453   -1.407177E-04
       454    5.276421E-08
       455    1.309172E-04
       456    9.952414E-08
       457   -5.908913E-04
       458    4.367518E-04
       459    1.541395E-04
       460    1.334966E-07
       461   -1.850018E-04
       462    5.472359E-08
       463    3.052354E-05
       464    1.570049E-09
       465    2.658665E-06
       466   -2.941416E-05
       467   -6.122011E-09
       468   -3.168279E-06
       469   -1.153747E-05
       470    4.015570E-09
       471   -3.986935E-07
       472   -1.848273E-08
       473    6.903006E-04
       474    6.860777E-04
       475    2.031256E-03
       476    7.884940E-05
       477    1.042316E-04
       478   -7.182297E-05
       479   -1.783130E-03
       480   -9.753702E-04
       481    6.146206E-04
       482    6.900516E-04
       483    6.857842E-04
       484    2.031594E-03
       485    7.888376E-05
       486   -1.042405E-04
       487   -7.193054E-05
       488   -1.783188E-03
       489    9.755315E-04
       490    6.140910E-04
 Sym= X
 Ene= 0.841288
 Spin= Alpha
 Occup= 0.841288
         1    7.380599E-05
         2    1.561247E-04
         3    1.622829E-04
         4   -5.603877E-03
         5    1.207140E-01
         6    2.059256E-02
         7   -6.956954E-04
         8    1.429335E-04
         9   -2.174030E-01
        10   -3.834998E-04
        11   -1.039961E-03
        12   -2.206195E-01
        13    6.293345E-03
        14    5.207700E-02
        15   -1.391355E-01
        16   -5.287138E-06
        17    3.845554E-06
        18    1.441584E-06
        19    3.982225E-05
        20    6.306808E-03
        21   -1.089032E-03
        22    3.664048E-04
        23   -2.879411E-04
        24   -7.846376E-05
        25    3.440463E-04
        26    2.029007E-02
        27    4.141840E-03
        28    3.423630E-03
        29    1.016679E-04
        30   -3.525298E-03
        31   -8.784950E-03
        32    2.011390E-02
        33    2.489344E-02
        34   -5.640441E-06
        35   -1.438493E-05
        36    2.139776E-04
        37    6.126045E-06
        38    1.211783E-05
        39    2.697789E-04
        40    1.441401E-06
        41    7.181576E-06
        42   -5.568600E-04
        43    1.177387E-05
        44   -2.961257E-07
        45   -6.615930E-07
        46    5.259316E-07
        47    7.259968E-06
        48    6.873334E-05
        49   -4.124416E-05
        50   -1.107417E-06
        51    3.350870E-04
        52    4.670213E-06
        53   -2.736948E-06
        54   -1.811100E-03
        55    4.998827E-06
        56    1.363798E-06
        57    1.059567E-01
        58    4.383911E-06
        59    3.341877E-08
        60    5.773148E-08
        61   -9.115025E-08
        62    1.840664E-05