[Molden Format]
[Title]
ADC(2) - opt by CAM-B3LYP gaussian                                              
[Atoms] AU
 c     1    6 -.12594776649128E+01 -.22773101438193E+01 -.39940542897370E-01
 c     2    6 -.25470425655544E+01 -.11810788300000E-05 -.37653974276580E-01
 c     3    6 -.12594776649128E+01 0.22773077816617E+01 -.39959440158700E-01
 c     4    6 0.13393870965995E+01 0.22758904870620E+01 -.43795584208460E-01
 c     5    6 0.26846831306008E+01 -.11810788300000E-05 -.44211323957690E-01
 c     6    6 0.13394059938609E+01 -.22758928492196E+01 -.43776686947130E-01
 h     7    1 -.23144739703802E+01 -.40231336316857E+01 -.37313823572660E-01
 h     8    1 -.23144739703802E+01 0.40231312695281E+01 -.37332720833990E-01
 h     9    1 0.23577983041343E+01 0.40499086888311E+01 -.52469427158400E-01
 h    10    1 0.23577983041343E+01 -.40498921537274E+01 -.52431632635740E-01
 n    11    7 -.52968964450843E+01 -.11810788300000E-05 -.29906097131750E-01
 o    12    8 -.63725096626615E+01 0.20302827815708E+01 -.26599076399200E-01
 o    13    8 -.63725096626615E+01 -.20302851437285E+01 -.26655768183180E-01
 n    14    7 0.52734000627795E+01 -.11810788300000E-05 -.11796733492422E+00
 h    15    1 0.61922038058499E+01 0.16034881344586E+01 0.31500671664254E+00
 h    16    1 0.61921849085885E+01 -.16034904966163E+01 0.31500671664254E+00
[GTO]
    1 0
 s    6 1.00
 0.13575349682000E+05 0.60645503603591E-03
 0.20352333680000E+04 0.46979088884982E-02
 0.46322562359000E+03 0.24332477647552E-01
 0.13120019598000E+03 0.97399968307759E-01
 0.42853015891000E+02 0.30195584253780E+00
 0.15584185766000E+02 0.66233609137875E+00
 s    2 1.00
 0.62067138508000E+01 0.65595308539952E+00
 0.25764896527000E+01 0.37585633285142E+00
 s    1 1.00
 0.57696339419000E+00 0.10000000000000E+01
 s    1 1.00
 0.22972831358000E+00 0.10000000000000E+01
 s    1 1.00
 0.95164440028000E-01 0.10000000000000E+01
 s    1 1.00
 0.48475401370000E-01 0.10000000000000E+01
 p    4 1.00
 0.34697232244000E+02 0.11327220003114E-01
 0.79582622826000E+01 0.76169659202087E-01
 0.23780826883000E+01 0.30192252202676E+00
 0.81433208183000E+00 0.72785027349547E+00
 p    1 1.00
 0.28887547253000E+00 0.10000000000000E+01
 p    1 1.00
 0.10056823671000E+00 0.10000000000000E+01
 d    1 1.00
 0.10970000000000E+01 0.10000000000000E+01
 d    1 1.00
 0.31800000000000E+00 0.10000000000000E+01
 d    1 1.00
 0.90985336424000E-01 0.10000000000000E+01
 f    1 1.00
 0.76100000000000E+00 0.10000000000000E+01
 
    2 0
 s    6 1.00
 0.13575349682000E+05 0.60645503603591E-03
 0.20352333680000E+04 0.46979088884982E-02
 0.46322562359000E+03 0.24332477647552E-01
 0.13120019598000E+03 0.97399968307759E-01
 0.42853015891000E+02 0.30195584253780E+00
 0.15584185766000E+02 0.66233609137875E+00
 s    2 1.00
 0.62067138508000E+01 0.65595308539952E+00
 0.25764896527000E+01 0.37585633285142E+00
 s    1 1.00
 0.57696339419000E+00 0.10000000000000E+01
 s    1 1.00
 0.22972831358000E+00 0.10000000000000E+01
 s    1 1.00
 0.95164440028000E-01 0.10000000000000E+01
 s    1 1.00
 0.48475401370000E-01 0.10000000000000E+01
 p    4 1.00
 0.34697232244000E+02 0.11327220003114E-01
 0.79582622826000E+01 0.76169659202087E-01
 0.23780826883000E+01 0.30192252202676E+00
 0.81433208183000E+00 0.72785027349547E+00
 p    1 1.00
 0.28887547253000E+00 0.10000000000000E+01
 p    1 1.00
 0.10056823671000E+00 0.10000000000000E+01
 d    1 1.00
 0.10970000000000E+01 0.10000000000000E+01
 d    1 1.00
 0.31800000000000E+00 0.10000000000000E+01
 d    1 1.00
 0.90985336424000E-01 0.10000000000000E+01
 f    1 1.00
 0.76100000000000E+00 0.10000000000000E+01
 
    3 0
 s    6 1.00
 0.13575349682000E+05 0.60645503603591E-03
 0.20352333680000E+04 0.46979088884982E-02
 0.46322562359000E+03 0.24332477647552E-01
 0.13120019598000E+03 0.97399968307759E-01
 0.42853015891000E+02 0.30195584253780E+00
 0.15584185766000E+02 0.66233609137875E+00
 s    2 1.00
 0.62067138508000E+01 0.65595308539952E+00
 0.25764896527000E+01 0.37585633285142E+00
 s    1 1.00
 0.57696339419000E+00 0.10000000000000E+01
 s    1 1.00
 0.22972831358000E+00 0.10000000000000E+01
 s    1 1.00
 0.95164440028000E-01 0.10000000000000E+01
 s    1 1.00
 0.48475401370000E-01 0.10000000000000E+01
 p    4 1.00
 0.34697232244000E+02 0.11327220003114E-01
 0.79582622826000E+01 0.76169659202087E-01
 0.23780826883000E+01 0.30192252202676E+00
 0.81433208183000E+00 0.72785027349547E+00
 p    1 1.00
 0.28887547253000E+00 0.10000000000000E+01
 p    1 1.00
 0.10056823671000E+00 0.10000000000000E+01
 d    1 1.00
 0.10970000000000E+01 0.10000000000000E+01
 d    1 1.00
 0.31800000000000E+00 0.10000000000000E+01
 d    1 1.00
 0.90985336424000E-01 0.10000000000000E+01
 f    1 1.00
 0.76100000000000E+00 0.10000000000000E+01
 
    4 0
 s    6 1.00
 0.13575349682000E+05 0.60645503603591E-03
 0.20352333680000E+04 0.46979088884982E-02
 0.46322562359000E+03 0.24332477647552E-01
 0.13120019598000E+03 0.97399968307759E-01
 0.42853015891000E+02 0.30195584253780E+00
 0.15584185766000E+02 0.66233609137875E+00
 s    2 1.00
 0.62067138508000E+01 0.65595308539952E+00
 0.25764896527000E+01 0.37585633285142E+00
 s    1 1.00
 0.57696339419000E+00 0.10000000000000E+01
 s    1 1.00
 0.22972831358000E+00 0.10000000000000E+01
 s    1 1.00
 0.95164440028000E-01 0.10000000000000E+01
 s    1 1.00
 0.48475401370000E-01 0.10000000000000E+01
 p    4 1.00
 0.34697232244000E+02 0.11327220003114E-01
 0.79582622826000E+01 0.76169659202087E-01
 0.23780826883000E+01 0.30192252202676E+00
 0.81433208183000E+00 0.72785027349547E+00
 p    1 1.00
 0.28887547253000E+00 0.10000000000000E+01
 p    1 1.00
 0.10056823671000E+00 0.10000000000000E+01
 d    1 1.00
 0.10970000000000E+01 0.10000000000000E+01
 d    1 1.00
 0.31800000000000E+00 0.10000000000000E+01
 d    1 1.00
 0.90985336424000E-01 0.10000000000000E+01
 f    1 1.00
 0.76100000000000E+00 0.10000000000000E+01
 
    5 0
 s    6 1.00
 0.13575349682000E+05 0.60645503603591E-03
 0.20352333680000E+04 0.46979088884982E-02
 0.46322562359000E+03 0.24332477647552E-01
 0.13120019598000E+03 0.97399968307759E-01
 0.42853015891000E+02 0.30195584253780E+00
 0.15584185766000E+02 0.66233609137875E+00
 s    2 1.00
 0.62067138508000E+01 0.65595308539952E+00
 0.25764896527000E+01 0.37585633285142E+00
 s    1 1.00
 0.57696339419000E+00 0.10000000000000E+01
 s    1 1.00
 0.22972831358000E+00 0.10000000000000E+01
 s    1 1.00
 0.95164440028000E-01 0.10000000000000E+01
 s    1 1.00
 0.48475401370000E-01 0.10000000000000E+01
 p    4 1.00
 0.34697232244000E+02 0.11327220003114E-01
 0.79582622826000E+01 0.76169659202087E-01
 0.23780826883000E+01 0.30192252202676E+00
 0.81433208183000E+00 0.72785027349547E+00
 p    1 1.00
 0.28887547253000E+00 0.10000000000000E+01
 p    1 1.00
 0.10056823671000E+00 0.10000000000000E+01
 d    1 1.00
 0.10970000000000E+01 0.10000000000000E+01
 d    1 1.00
 0.31800000000000E+00 0.10000000000000E+01
 d    1 1.00
 0.90985336424000E-01 0.10000000000000E+01
 f    1 1.00
 0.76100000000000E+00 0.10000000000000E+01
 
    6 0
 s    6 1.00
 0.13575349682000E+05 0.60645503603591E-03
 0.20352333680000E+04 0.46979088884982E-02
 0.46322562359000E+03 0.24332477647552E-01
 0.13120019598000E+03 0.97399968307759E-01
 0.42853015891000E+02 0.30195584253780E+00
 0.15584185766000E+02 0.66233609137875E+00
 s    2 1.00
 0.62067138508000E+01 0.65595308539952E+00
 0.25764896527000E+01 0.37585633285142E+00
 s    1 1.00
 0.57696339419000E+00 0.10000000000000E+01
 s    1 1.00
 0.22972831358000E+00 0.10000000000000E+01
 s    1 1.00
 0.95164440028000E-01 0.10000000000000E+01
 s    1 1.00
 0.48475401370000E-01 0.10000000000000E+01
 p    4 1.00
 0.34697232244000E+02 0.11327220003114E-01
 0.79582622826000E+01 0.76169659202087E-01
 0.23780826883000E+01 0.30192252202676E+00
 0.81433208183000E+00 0.72785027349547E+00
 p    1 1.00
 0.28887547253000E+00 0.10000000000000E+01
 p    1 1.00
 0.10056823671000E+00 0.10000000000000E+01
 d    1 1.00
 0.10970000000000E+01 0.10000000000000E+01
 d    1 1.00
 0.31800000000000E+00 0.10000000000000E+01
 d    1 1.00
 0.90985336424000E-01 0.10000000000000E+01
 f    1 1.00
 0.76100000000000E+00 0.10000000000000E+01
 
    7 0
 s    3 1.00
 0.34061341000000E+02 0.25439307208879E-01
 0.51235746000000E+01 0.19008594890375E+00
 0.11646626000000E+01 0.85244113011042E+00
 s    1 1.00
 0.32723041000000E+00 0.10000000000000E+01
 s    1 1.00
 0.10307241000000E+00 0.10000000000000E+01
 p    1 1.00
 0.80000000000000E+00 0.10000000000000E+01
 p    1 1.00
 0.95774129632000E-01 0.10000000000000E+01
 
    8 0
 s    3 1.00
 0.34061341000000E+02 0.25439307208879E-01
 0.51235746000000E+01 0.19008594890375E+00
 0.11646626000000E+01 0.85244113011042E+00
 s    1 1.00
 0.32723041000000E+00 0.10000000000000E+01
 s    1 1.00
 0.10307241000000E+00 0.10000000000000E+01
 p    1 1.00
 0.80000000000000E+00 0.10000000000000E+01
 p    1 1.00
 0.95774129632000E-01 0.10000000000000E+01
 
    9 0
 s    3 1.00
 0.34061341000000E+02 0.25439307208879E-01
 0.51235746000000E+01 0.19008594890375E+00
 0.11646626000000E+01 0.85244113011042E+00
 s    1 1.00
 0.32723041000000E+00 0.10000000000000E+01
 s    1 1.00
 0.10307241000000E+00 0.10000000000000E+01
 p    1 1.00
 0.80000000000000E+00 0.10000000000000E+01
 p    1 1.00
 0.95774129632000E-01 0.10000000000000E+01
 
   10 0
 s    3 1.00
 0.34061341000000E+02 0.25439307208879E-01
 0.51235746000000E+01 0.19008594890375E+00
 0.11646626000000E+01 0.85244113011042E+00
 s    1 1.00
 0.32723041000000E+00 0.10000000000000E+01
 s    1 1.00
 0.10307241000000E+00 0.10000000000000E+01
 p    1 1.00
 0.80000000000000E+00 0.10000000000000E+01
 p    1 1.00
 0.95774129632000E-01 0.10000000000000E+01
 
   11 0
 s    6 1.00
 0.19730800647000E+05 0.58626402628763E-03
 0.29578958745000E+04 0.45428820586397E-02
 0.67322133595000E+03 0.23558413450084E-01
 0.19068249494000E+03 0.94709193292923E-01
 0.62295441898000E+02 0.29719784913376E+00
 0.22654161182000E+02 0.66916246895232E+00
 s    2 1.00
 0.89791477428000E+01 0.64596683630063E+00
 0.36863002370000E+01 0.38700574393705E+00
 s    1 1.00
 0.84660076805000E+00 0.10000000000000E+01
 s    1 1.00
 0.33647133771000E+00 0.10000000000000E+01
 s    1 1.00
 0.13647653675000E+00 0.10000000000000E+01
 s    1 1.00
 0.68441605847000E-01 0.10000000000000E+01
 p    4 1.00
 0.49200380510000E+02 0.11448825101764E-01
 0.11346790537000E+02 0.78422337970864E-01
 0.34273972411000E+01 0.30818094738830E+00
 0.11785525134000E+01 0.72027196368413E+00
 p    1 1.00
 0.41642204972000E+00 0.10000000000000E+01
 p    1 1.00
 0.14260826011000E+00 0.10000000000000E+01
 d    1 1.00
 0.16540000000000E+01 0.10000000000000E+01
 d    1 1.00
 0.46900000000000E+00 0.10000000000000E+01
 d    1 1.00
 0.12829642058000E+00 0.10000000000000E+01
 f    1 1.00
 0.10930000000000E+01 0.10000000000000E+01
 
   12 0
 s    6 1.00
 0.27032382631000E+05 0.57227335211155E-03
 0.40523871392000E+04 0.44353233492995E-02
 0.92232722710000E+03 0.23020107706038E-01
 0.26124070989000E+03 0.92822490667928E-01
 0.85354641351000E+02 0.29378500009671E+00
 0.31035035245000E+02 0.67401604501641E+00
 s    2 1.00
 0.12260860728000E+02 0.63839937025506E+00
 0.49987076005000E+01 0.39534587125718E+00
 s    1 1.00
 0.11703108158000E+01 0.10000000000000E+01
 s    1 1.00
 0.46474740994000E+00 0.10000000000000E+01
 s    1 1.00
 0.18504536357000E+00 0.10000000000000E+01
 s    1 1.00
 0.70288026270000E-01 0.10000000000000E+01
 p    4 1.00
 0.63274954801000E+02 0.12018332222616E-01
 0.14627049379000E+02 0.83005421790056E-01
 0.44501223456000E+01 0.31991743925964E+00
 0.15275799647000E+01 0.70715542916104E+00
 p    1 1.00
 0.52935117943000E+00 0.10000000000000E+01
 p    1 1.00
 0.17478421270000E+00 0.10000000000000E+01
 p    1 1.00
 0.51112745706000E-01 0.10000000000000E+01
 d    1 1.00
 0.23140000000000E+01 0.10000000000000E+01
 d    1 1.00
 0.64500000000000E+00 0.10000000000000E+01
 d    1 1.00
 0.14696477366000E+00 0.10000000000000E+01
 f    1 1.00
 0.14280000000000E+01 0.10000000000000E+01
 
   13 0
 s    6 1.00
 0.27032382631000E+05 0.57227335211155E-03
 0.40523871392000E+04 0.44353233492995E-02
 0.92232722710000E+03 0.23020107706038E-01
 0.26124070989000E+03 0.92822490667928E-01
 0.85354641351000E+02 0.29378500009671E+00
 0.31035035245000E+02 0.67401604501641E+00
 s    2 1.00
 0.12260860728000E+02 0.63839937025506E+00
 0.49987076005000E+01 0.39534587125718E+00
 s    1 1.00
 0.11703108158000E+01 0.10000000000000E+01
 s    1 1.00
 0.46474740994000E+00 0.10000000000000E+01
 s    1 1.00
 0.18504536357000E+00 0.10000000000000E+01
 s    1 1.00
 0.70288026270000E-01 0.10000000000000E+01
 p    4 1.00
 0.63274954801000E+02 0.12018332222616E-01
 0.14627049379000E+02 0.83005421790056E-01
 0.44501223456000E+01 0.31991743925964E+00
 0.15275799647000E+01 0.70715542916104E+00
 p    1 1.00
 0.52935117943000E+00 0.10000000000000E+01
 p    1 1.00
 0.17478421270000E+00 0.10000000000000E+01
 p    1 1.00
 0.51112745706000E-01 0.10000000000000E+01
 d    1 1.00
 0.23140000000000E+01 0.10000000000000E+01
 d    1 1.00
 0.64500000000000E+00 0.10000000000000E+01
 d    1 1.00
 0.14696477366000E+00 0.10000000000000E+01
 f    1 1.00
 0.14280000000000E+01 0.10000000000000E+01
 
   14 0
 s    6 1.00
 0.19730800647000E+05 0.58626402628763E-03
 0.29578958745000E+04 0.45428820586397E-02
 0.67322133595000E+03 0.23558413450084E-01
 0.19068249494000E+03 0.94709193292923E-01
 0.62295441898000E+02 0.29719784913376E+00
 0.22654161182000E+02 0.66916246895232E+00
 s    2 1.00
 0.89791477428000E+01 0.64596683630063E+00
 0.36863002370000E+01 0.38700574393705E+00
 s    1 1.00
 0.84660076805000E+00 0.10000000000000E+01
 s    1 1.00
 0.33647133771000E+00 0.10000000000000E+01
 s    1 1.00
 0.13647653675000E+00 0.10000000000000E+01
 s    1 1.00
 0.68441605847000E-01 0.10000000000000E+01
 p    4 1.00
 0.49200380510000E+02 0.11448825101764E-01
 0.11346790537000E+02 0.78422337970864E-01
 0.34273972411000E+01 0.30818094738830E+00
 0.11785525134000E+01 0.72027196368413E+00
 p    1 1.00
 0.41642204972000E+00 0.10000000000000E+01
 p    1 1.00
 0.14260826011000E+00 0.10000000000000E+01
 d    1 1.00
 0.16540000000000E+01 0.10000000000000E+01
 d    1 1.00
 0.46900000000000E+00 0.10000000000000E+01
 d    1 1.00
 0.12829642058000E+00 0.10000000000000E+01
 f    1 1.00
 0.10930000000000E+01 0.10000000000000E+01
 
   15 0
 s    3 1.00
 0.34061341000000E+02 0.25439307208879E-01
 0.51235746000000E+01 0.19008594890375E+00
 0.11646626000000E+01 0.85244113011042E+00
 s    1 1.00
 0.32723041000000E+00 0.10000000000000E+01
 s    1 1.00
 0.10307241000000E+00 0.10000000000000E+01
 p    1 1.00
 0.80000000000000E+00 0.10000000000000E+01
 p    1 1.00
 0.95774129632000E-01 0.10000000000000E+01
 
   16 0
 s    3 1.00
 0.34061341000000E+02 0.25439307208879E-01
 0.51235746000000E+01 0.19008594890375E+00
 0.11646626000000E+01 0.85244113011042E+00
 s    1 1.00
 0.32723041000000E+00 0.10000000000000E+01
 s    1 1.00
 0.10307241000000E+00 0.10000000000000E+01
 p    1 1.00
 0.80000000000000E+00 0.10000000000000E+01
 p    1 1.00
 0.95774129632000E-01 0.10000000000000E+01
 
[MO]
 Sym= X
 Ene= -0.848186
 Spin= Alpha
 Occup= -0.848186
         1    2.253069E-04
         2    5.248893E-04
         3   -1.848081E-03
         4    6.425302E-03
         5   -6.223744E-02
         6    1.743274E-02
         7   -3.084057E-03
         8    5.925007E-04
         9   -5.113468E-02
        10    4.585127E-03
        11   -1.432181E-04
        12   -4.897694E-02
        13    3.855963E-02
        14   -2.135818E-02
        15   -2.560814E-02
        16   -4.077286E-05
        17    7.094582E-05
        18   -3.017295E-05
        19    7.311767E-06
        20    6.013933E-03
        21   -4.284709E-03
        22    1.175964E-03
        23   -6.558262E-04
        24   -5.201381E-04
        25    1.129309E-03
        26    1.377023E-02
        27   -7.908537E-03
        28    1.794102E-03
        29   -1.453787E-03
        30   -3.403156E-04
        31   -2.610077E-03
        32   -3.901554E-03
        33    9.310250E-03
        34    4.034163E-05
        35    2.192557E-06
        36    2.660448E-04
        37   -2.207093E-05
        38   -6.818163E-06
        39    6.138895E-04
        40   -3.205305E-05
        41    3.876539E-06
        42   -9.708261E-04
        43    7.139453E-04
        44    2.591601E-04
        45    5.918302E-04
        46   -1.330164E-03
        47    3.981619E-03
        48    7.988650E-02
        49   -8.650460E-03
        50    2.647074E-03
        51   -6.037209E-07
        52   -2.171490E-01
        53    3.360737E-03
        54    5.840291E-08
        55   -2.242960E-01
        56    1.375769E-02
        57    1.066962E-05
        58   -1.952567E-01
        59   -1.816054E-04
        60    1.604736E-04
        61    2.113185E-05
        62    1.433555E-08
        63   -4.935431E-04
        64   -4.108263E-08
        65   -6.459819E-04
        66    1.077877E-03
        67   -4.318955E-04
        68   -5.717128E-08
        69    7.929552E-04
        70   -8.439705E-08
        71   -2.297457E-02
        72    2.563900E-02
        73   -2.664436E-03
        74    1.203468E-06
        75   -3.737267E-03
        76   -5.829519E-07
        77    1.030669E-05
        78   -1.539506E-09
        79    1.250533E-03
        80   -5.333511E-06
        81   -1.044489E-08
        82   -6.353293E-04
        83   -8.494359E-06
        84    1.251035E-08
        85   -1.042437E-03
        86   -6.873658E-09
        87    2.251037E-04
        88    5.244177E-04
        89   -1.846899E-03
        90    6.423854E-03
        91   -6.224936E-02
        92    1.743695E-02
        93   -3.085276E-03
        94   -5.922606E-04
        95   -5.113730E-02
        96    4.583580E-03
        97    1.438427E-04
        98   -4.897962E-02
        99    3.857333E-02
       100    2.136874E-02
       101   -2.560978E-02
       102   -4.081082E-05
       103    7.104815E-05
       104   -3.023733E-05
       105   -7.251486E-06
       106    6.013809E-03
       107    4.284700E-03
       108    1.175545E-03
       109   -6.555047E-04
       110   -5.200407E-04
       111   -1.129398E-03
       112    1.376992E-02
       113    7.908511E-03
       114    1.796664E-03
       115   -1.456311E-03
       116   -3.403531E-04
       117    2.609528E-03
       118   -3.902393E-03
       119   -9.310896E-03
       120    4.033526E-05
       121   -2.212054E-06
       122    2.660710E-04
       123   -2.207601E-05
       124    6.833269E-06
       125    6.138529E-04
       126   -3.203942E-05
       127   -3.865487E-06
       128   -9.708246E-04
       129   -7.139440E-04
       130   -1.093634E-04
       131   -2.315698E-04
       132   -8.732744E-04
       133    1.395479E-02
       134    1.913203E-02
       135   -2.169807E-02
       136    2.577478E-03
       137   -6.844785E-04
       138    1.443042E-01
       139    1.566867E-02
       140   -9.424760E-03
       141    1.467627E-01
       142    6.144199E-03
       143    1.350215E-02
       144    9.510425E-02
       145   -2.101748E-04
       146    2.487032E-04
       147   -3.852844E-05
       148    1.380339E-05
       149    1.845073E-03
       150   -3.277489E-03
       151   -1.311931E-03
       152    1.316773E-03
       153   -4.841770E-06
       154   -2.477980E-03
       155    6.392493E-03
       156   -5.361799E-03
       157   -9.615082E-03
       158    6.446848E-03
       159    3.168234E-03
       160    2.035510E-02
       161   -4.986562E-03
       162    9.566010E-03
       163    3.783158E-05
       164   -5.590483E-06
       165   -8.114395E-04
       166    1.686932E-05
       167   -3.757298E-05
       168    8.996297E-05
       169   -6.762571E-05
       170    4.507339E-05
       171    9.986974E-04
       172   -4.138868E-04
       173    1.513151E-03
       174    3.442586E-03
       175   -3.048074E-03
       176   -3.511491E-02
       177    1.003229E-01
       178   -9.873564E-03
       179   -1.180130E-02
       180    6.218804E-07
       181    1.358581E-01
       182    5.263035E-04
       183    9.621540E-07
       184    1.389907E-01
       185    7.744727E-02
       186   -4.454994E-06
       187    1.355082E-01
       188   -7.018359E-04
       189    4.086572E-04
       190    2.931787E-04
       191   -1.049348E-08
       192   -8.735740E-03
       193   -2.021190E-07
       194    2.757148E-03
       195   -6.143660E-03
       196    3.386511E-03
       197   -3.811517E-08
       198   -2.196895E-02
       199   -3.576423E-07
       200    1.675929E-02
       201   -1.761249E-02
       202    8.531953E-04
       203    4.259751E-07
       204   -1.070040E-02
       205    5.751843E-07
       206   -1.652939E-04
       207    1.414158E-08
       208   -4.759635E-04
       209    1.294729E-04
       210   -2.875872E-09
       211   -8.552823E-04
       212    9.229215E-05
       213   -1.609705E-08
       214    1.493854E-03
       215    1.875678E-08
       216   -1.095104E-04
       217   -2.319057E-04
       218   -8.725547E-04
       219    1.395452E-02
       220    1.914266E-02
       221   -2.169723E-02
       222    2.576819E-03
       223    6.860151E-04
       224    1.443112E-01
       225    1.566927E-02
       226    9.426687E-03
       227    1.467699E-01
       228    6.133249E-03
       229   -1.350819E-02
       230    9.510935E-02
       231   -2.101623E-04
       232    2.487439E-04
       233   -3.858168E-05
       234   -1.379984E-05
       235    1.845013E-03
       236    3.277546E-03
       237   -1.312222E-03
       238    1.317011E-03
       239   -4.788959E-06
       240    2.477994E-03
       241    6.392302E-03
       242    5.361814E-03
       243   -9.614309E-03
       244    6.445898E-03
       245    3.168412E-03
       246   -2.035615E-02
       247   -4.985437E-03
       248   -9.565492E-03
       249    3.783442E-05
       250    5.611343E-06
       251   -8.114817E-04
       252    1.687260E-05
       253    3.757455E-05
       254    8.999320E-05
       255   -6.763281E-05
       256   -4.510296E-05
       257    9.987238E-04
       258    4.138776E-04
       259    4.996854E-04
       260    6.097212E-05
       261    2.257785E-02
       262   -3.271818E-05
       263   -3.674783E-05
       264   -2.007449E-03
       265    6.941326E-03
       266    1.864660E-03
       267    4.384671E-03
       268    5.001682E-04
       269    6.152761E-05
       270    2.258064E-02
       271   -3.263091E-05
       272    3.667297E-05
       273   -2.007561E-03
       274    6.941781E-03
       275   -1.864523E-03
       276    4.384676E-03
       277    7.075658E-04
       278    3.859154E-03
       279   -5.682198E-02
       280    5.078892E-05
       281   -1.663323E-04
       282    5.984196E-03
       283    1.300112E-04
       284    5.540634E-03
       285    2.705143E-03
       286    7.075387E-04
       287    3.859185E-03
       288   -5.682522E-02
       289    5.078388E-05
       290    1.663991E-04
       291    5.984573E-03
       292    1.297665E-04
       293   -5.540822E-03
       294    2.705575E-03
       295    9.799462E-05
       296    2.265468E-04
       297   -1.787168E-04
       298   -7.673394E-04
       299    1.148973E-02
       300    4.810904E-03
       301   -3.032835E-03
       302    8.874104E-07
       303    6.947546E-03
       304   -2.333641E-03
       305    6.197666E-07
       306    3.800961E-03
       307    2.107674E-03
       308   -4.098651E-07
       309    4.196717E-03
       310   -2.932163E-04
       311    3.034448E-04
       312   -1.022852E-05
       313   -1.728985E-07
       314   -4.444964E-03
       315   -1.965651E-08
       316   -7.645609E-04
       317    7.010895E-04
       318    6.347141E-05
       319   -4.848908E-07
       320   -1.295747E-02
       321   -6.230501E-08
       322    2.211162E-04
       323   -3.966679E-03
       324    3.745562E-03
       325   -2.113764E-07
       326   -3.389808E-03
       327    8.311509E-08
       328   -1.084094E-05
       329   -5.148854E-08
       330   -8.775536E-05
       331    2.173035E-06
       332    4.824380E-08
       333   -6.885667E-04
       334    1.237161E-05
       335    2.083532E-08
       336    8.063028E-04
       337    3.388439E-09
       338    1.799282E-05
       339    3.563531E-05
       340    2.326006E-06
       341   -1.128980E-03
       342    9.625632E-03
       343    1.683085E-03
       344    7.232786E-03
       345    1.022302E-03
       346    8.170540E-02
       347    6.616943E-03
       348    8.148945E-04
       349    7.549616E-02
       350    5.830515E-03
       351   -1.370692E-04
       352    5.555154E-02
       353    8.951307E-04
       354   -9.528065E-05
       355    5.764414E-03
       356    1.787269E-05
       357    3.673920E-06
       358   -2.154661E-05
       359   -6.165147E-05
       360    1.509635E-04
       361   -7.617975E-04
       362    1.065908E-04
       363   -2.214042E-05
       364   -8.445038E-05
       365   -1.502789E-04
       366    1.001050E-03
       367   -2.351536E-03
       368    2.074464E-04
       369   -3.892898E-05
       370   -1.685174E-04
       371    8.608269E-06
       372    1.275977E-03
       373   -5.557228E-04
       374   -8.321415E-06
       375    8.289611E-06
       376   -1.082820E-04
       377    1.621075E-05
       378   -2.040558E-05
       379   -9.593022E-05
       380   -5.046399E-06
       381    9.283896E-06
       382    2.412058E-04
       383   -1.950017E-04
       384    1.810031E-05
       385    3.590640E-05
       386    1.919278E-06
       387   -1.129204E-03
       388    9.625431E-03
       389    1.684583E-03
       390    7.240747E-03
       391   -1.032991E-03
       392    8.170666E-02
       393    6.624153E-03
       394   -8.242898E-04
       395    7.549730E-02
       396    5.835476E-03
       397    1.306835E-04
       398    5.555273E-02
       399    8.964881E-04
       400    9.427572E-05
       401    5.764589E-03
       402    1.796307E-05
       403    3.518053E-06
       404   -2.148113E-05
       405    6.162768E-05
       406    1.509728E-04
       407    7.618090E-04
       408    1.068450E-04
       409   -2.254568E-05
       410   -8.429935E-05
       411    1.502252E-04
       412    1.001082E-03
       413    2.351579E-03
       414    2.077840E-04
       415   -3.919509E-05
       416   -1.685889E-04
       417   -8.735022E-06
       418    1.276046E-03
       419    5.557767E-04
       420   -8.307757E-06
       421   -8.333956E-06
       422   -1.082848E-04
       423    1.617753E-05
       424    2.043764E-05
       425   -9.592981E-05
       426   -5.031502E-06
       427   -9.256462E-06
       428    2.412091E-04
       429    1.950059E-04
       430   -7.453522E-03
       431   -1.766719E-02
       432    2.726280E-02
       433    4.614567E-02
       434    3.652729E-03
       435    9.482347E-02
       436    2.627562E-02
       437   -3.309672E-07
       438   -2.299033E-01
       439    3.014054E-02
       440   -3.881938E-07
       441   -2.262373E-01
       442    3.798453E-02
       443   -6.443300E-07
       444   -1.872800E-01
       445    2.267305E-04
       446    6.366680E-05
       447   -2.903973E-04
       448   -2.163166E-08
       449   -1.253076E-03
       450    2.741560E-09
       451    4.694401E-04
       452    2.479903E-03
       453   -2.949343E-03
       454   -4.296317E-08
       455   -4.435713E-03
       456   -2.380693E-08
       457    4.101326E-03
       458    6.991657E-03
       459   -1.109298E-02
       460    8.008189E-08
       461   -2.477049E-03
       462   -1.129751E-07
       463    2.142010E-04
       464   -4.618077E-09
       465    7.980595E-04
       466    1.396851E-04
       467    1.838080E-09
       468   -3.382532E-04
       469   -4.270659E-04
       470    4.357720E-09
       471   -7.324559E-04
       472    1.724829E-11
       473   -1.391300E-02
       474   -2.812742E-02
       475   -5.933892E-02
       476    3.210021E-03
       477    2.769881E-03
       478   -1.159476E-02
       479    6.709999E-04
       480    6.674873E-03
       481   -1.458577E-02
       482   -1.391271E-02
       483   -2.812709E-02
       484   -5.933824E-02
       485    3.210017E-03
       486   -2.769922E-03
       487   -1.159479E-02
       488    6.709293E-04
       489   -6.674833E-03
       490   -1.458578E-02
 Sym= X
 Ene= 0.848186
 Spin= Alpha
 Occup= 0.848186
         1   -7.893882E-05
         2   -1.913358E-04
         3    8.157385E-04
         4   -2.242778E-03
         5   -3.784155E-02
         6   -1.485536E-02
         7    7.231090E-04
         8    1.117189E-04
         9    1.415483E-01
        10    2.002059E-04
        11    1.497136E-04
        12    1.454913E-01
        13   -5.662907E-02
        14    7.455660E-02
        15    1.067048E-01
        16    1.622876E-05
        17   -1.583241E-06
        18   -1.464551E-05
        19    3.756166E-05
        20    2.586423E-03
        21   -2.333062E-03
        22   -3.919539E-04
        23    6.273562E-05
        24    3.292183E-04
        25   -1.748512E-04
        26    1.191435E-03
        27   -8.046105E-03
        28   -2.342715E-02
        29    2.708193E-02
        30   -3.654773E-03
        31    6.080299E-03
        32    8.748994E-03
        33   -2.174018E-02
        34   -1.984540E-05
        35   -3.028454E-08
        36   -1.154709E-04
        37    2.440724E-05
        38    8.881948E-06
        39    1.307393E-04
        40    2.218158E-06
        41   -8.841317E-06
        42    2.418110E-05
        43    2.719999E-04
        44    6.592997E-05
        45    1.613085E-04
        46   -7.033230E-04
        47    6.125982E-03
        48   -2.463356E-01
        49   -1.688541E-02
        50   -2.537178E-04
        51   -4.508141E-07
        52   -1.131423E-01
        53    7.230960E-04
        54    3.070673E-07
        55   -1.223640E-01
        56   -1.018960E-01
        57    2.557144E-05
        58   -7.202103E-02
        59    1.002418E-04
        60   -1.821353E-05
        61   -8.202832E-05
        62   -9.510024E-08