[Molden Format]
[Title]
ADC(2) - opt by CAM-B3LYP gaussian                                              
[Atoms] AU
 c     1    6 -.12594776649128E+01 -.22773101438193E+01 -.39940542897370E-01
 c     2    6 -.25470425655544E+01 -.11810788300000E-05 -.37653974276580E-01
 c     3    6 -.12594776649128E+01 0.22773077816617E+01 -.39959440158700E-01
 c     4    6 0.13393870965995E+01 0.22758904870620E+01 -.43795584208460E-01
 c     5    6 0.26846831306008E+01 -.11810788300000E-05 -.44211323957690E-01
 c     6    6 0.13394059938609E+01 -.22758928492196E+01 -.43776686947130E-01
 h     7    1 -.23144739703802E+01 -.40231336316857E+01 -.37313823572660E-01
 h     8    1 -.23144739703802E+01 0.40231312695281E+01 -.37332720833990E-01
 h     9    1 0.23577983041343E+01 0.40499086888311E+01 -.52469427158400E-01
 h    10    1 0.23577983041343E+01 -.40498921537274E+01 -.52431632635740E-01
 n    11    7 -.52968964450843E+01 -.11810788300000E-05 -.29906097131750E-01
 o    12    8 -.63725096626615E+01 0.20302827815708E+01 -.26599076399200E-01
 o    13    8 -.63725096626615E+01 -.20302851437285E+01 -.26655768183180E-01
 n    14    7 0.52734000627795E+01 -.11810788300000E-05 -.11796733492422E+00
 h    15    1 0.61922038058499E+01 0.16034881344586E+01 0.31500671664254E+00
 h    16    1 0.61921849085885E+01 -.16034904966163E+01 0.31500671664254E+00
[GTO]
    1 0
 s    6 1.00
 0.13575349682000E+05 0.60645503603591E-03
 0.20352333680000E+04 0.46979088884982E-02
 0.46322562359000E+03 0.24332477647552E-01
 0.13120019598000E+03 0.97399968307759E-01
 0.42853015891000E+02 0.30195584253780E+00
 0.15584185766000E+02 0.66233609137875E+00
 s    2 1.00
 0.62067138508000E+01 0.65595308539952E+00
 0.25764896527000E+01 0.37585633285142E+00
 s    1 1.00
 0.57696339419000E+00 0.10000000000000E+01
 s    1 1.00
 0.22972831358000E+00 0.10000000000000E+01
 s    1 1.00
 0.95164440028000E-01 0.10000000000000E+01
 s    1 1.00
 0.48475401370000E-01 0.10000000000000E+01
 p    4 1.00
 0.34697232244000E+02 0.11327220003114E-01
 0.79582622826000E+01 0.76169659202087E-01
 0.23780826883000E+01 0.30192252202676E+00
 0.81433208183000E+00 0.72785027349547E+00
 p    1 1.00
 0.28887547253000E+00 0.10000000000000E+01
 p    1 1.00
 0.10056823671000E+00 0.10000000000000E+01
 d    1 1.00
 0.10970000000000E+01 0.10000000000000E+01
 d    1 1.00
 0.31800000000000E+00 0.10000000000000E+01
 d    1 1.00
 0.90985336424000E-01 0.10000000000000E+01
 f    1 1.00
 0.76100000000000E+00 0.10000000000000E+01
 
    2 0
 s    6 1.00
 0.13575349682000E+05 0.60645503603591E-03
 0.20352333680000E+04 0.46979088884982E-02
 0.46322562359000E+03 0.24332477647552E-01
 0.13120019598000E+03 0.97399968307759E-01
 0.42853015891000E+02 0.30195584253780E+00
 0.15584185766000E+02 0.66233609137875E+00
 s    2 1.00
 0.62067138508000E+01 0.65595308539952E+00
 0.25764896527000E+01 0.37585633285142E+00
 s    1 1.00
 0.57696339419000E+00 0.10000000000000E+01
 s    1 1.00
 0.22972831358000E+00 0.10000000000000E+01
 s    1 1.00
 0.95164440028000E-01 0.10000000000000E+01
 s    1 1.00
 0.48475401370000E-01 0.10000000000000E+01
 p    4 1.00
 0.34697232244000E+02 0.11327220003114E-01
 0.79582622826000E+01 0.76169659202087E-01
 0.23780826883000E+01 0.30192252202676E+00
 0.81433208183000E+00 0.72785027349547E+00
 p    1 1.00
 0.28887547253000E+00 0.10000000000000E+01
 p    1 1.00
 0.10056823671000E+00 0.10000000000000E+01
 d    1 1.00
 0.10970000000000E+01 0.10000000000000E+01
 d    1 1.00
 0.31800000000000E+00 0.10000000000000E+01
 d    1 1.00
 0.90985336424000E-01 0.10000000000000E+01
 f    1 1.00
 0.76100000000000E+00 0.10000000000000E+01
 
    3 0
 s    6 1.00
 0.13575349682000E+05 0.60645503603591E-03
 0.20352333680000E+04 0.46979088884982E-02
 0.46322562359000E+03 0.24332477647552E-01
 0.13120019598000E+03 0.97399968307759E-01
 0.42853015891000E+02 0.30195584253780E+00
 0.15584185766000E+02 0.66233609137875E+00
 s    2 1.00
 0.62067138508000E+01 0.65595308539952E+00
 0.25764896527000E+01 0.37585633285142E+00
 s    1 1.00
 0.57696339419000E+00 0.10000000000000E+01
 s    1 1.00
 0.22972831358000E+00 0.10000000000000E+01
 s    1 1.00
 0.95164440028000E-01 0.10000000000000E+01
 s    1 1.00
 0.48475401370000E-01 0.10000000000000E+01
 p    4 1.00
 0.34697232244000E+02 0.11327220003114E-01
 0.79582622826000E+01 0.76169659202087E-01
 0.23780826883000E+01 0.30192252202676E+00
 0.81433208183000E+00 0.72785027349547E+00
 p    1 1.00
 0.28887547253000E+00 0.10000000000000E+01
 p    1 1.00
 0.10056823671000E+00 0.10000000000000E+01
 d    1 1.00
 0.10970000000000E+01 0.10000000000000E+01
 d    1 1.00
 0.31800000000000E+00 0.10000000000000E+01
 d    1 1.00
 0.90985336424000E-01 0.10000000000000E+01
 f    1 1.00
 0.76100000000000E+00 0.10000000000000E+01
 
    4 0
 s    6 1.00
 0.13575349682000E+05 0.60645503603591E-03
 0.20352333680000E+04 0.46979088884982E-02
 0.46322562359000E+03 0.24332477647552E-01
 0.13120019598000E+03 0.97399968307759E-01
 0.42853015891000E+02 0.30195584253780E+00
 0.15584185766000E+02 0.66233609137875E+00
 s    2 1.00
 0.62067138508000E+01 0.65595308539952E+00
 0.25764896527000E+01 0.37585633285142E+00
 s    1 1.00
 0.57696339419000E+00 0.10000000000000E+01
 s    1 1.00
 0.22972831358000E+00 0.10000000000000E+01
 s    1 1.00
 0.95164440028000E-01 0.10000000000000E+01
 s    1 1.00
 0.48475401370000E-01 0.10000000000000E+01
 p    4 1.00
 0.34697232244000E+02 0.11327220003114E-01
 0.79582622826000E+01 0.76169659202087E-01
 0.23780826883000E+01 0.30192252202676E+00
 0.81433208183000E+00 0.72785027349547E+00
 p    1 1.00
 0.28887547253000E+00 0.10000000000000E+01
 p    1 1.00
 0.10056823671000E+00 0.10000000000000E+01
 d    1 1.00
 0.10970000000000E+01 0.10000000000000E+01
 d    1 1.00
 0.31800000000000E+00 0.10000000000000E+01
 d    1 1.00
 0.90985336424000E-01 0.10000000000000E+01
 f    1 1.00
 0.76100000000000E+00 0.10000000000000E+01
 
    5 0
 s    6 1.00
 0.13575349682000E+05 0.60645503603591E-03
 0.20352333680000E+04 0.46979088884982E-02
 0.46322562359000E+03 0.24332477647552E-01
 0.13120019598000E+03 0.97399968307759E-01
 0.42853015891000E+02 0.30195584253780E+00
 0.15584185766000E+02 0.66233609137875E+00
 s    2 1.00
 0.62067138508000E+01 0.65595308539952E+00
 0.25764896527000E+01 0.37585633285142E+00
 s    1 1.00
 0.57696339419000E+00 0.10000000000000E+01
 s    1 1.00
 0.22972831358000E+00 0.10000000000000E+01
 s    1 1.00
 0.95164440028000E-01 0.10000000000000E+01
 s    1 1.00
 0.48475401370000E-01 0.10000000000000E+01
 p    4 1.00
 0.34697232244000E+02 0.11327220003114E-01
 0.79582622826000E+01 0.76169659202087E-01
 0.23780826883000E+01 0.30192252202676E+00
 0.81433208183000E+00 0.72785027349547E+00
 p    1 1.00
 0.28887547253000E+00 0.10000000000000E+01
 p    1 1.00
 0.10056823671000E+00 0.10000000000000E+01
 d    1 1.00
 0.10970000000000E+01 0.10000000000000E+01
 d    1 1.00
 0.31800000000000E+00 0.10000000000000E+01
 d    1 1.00
 0.90985336424000E-01 0.10000000000000E+01
 f    1 1.00
 0.76100000000000E+00 0.10000000000000E+01
 
    6 0
 s    6 1.00
 0.13575349682000E+05 0.60645503603591E-03
 0.20352333680000E+04 0.46979088884982E-02
 0.46322562359000E+03 0.24332477647552E-01
 0.13120019598000E+03 0.97399968307759E-01
 0.42853015891000E+02 0.30195584253780E+00
 0.15584185766000E+02 0.66233609137875E+00
 s    2 1.00
 0.62067138508000E+01 0.65595308539952E+00
 0.25764896527000E+01 0.37585633285142E+00
 s    1 1.00
 0.57696339419000E+00 0.10000000000000E+01
 s    1 1.00
 0.22972831358000E+00 0.10000000000000E+01
 s    1 1.00
 0.95164440028000E-01 0.10000000000000E+01
 s    1 1.00
 0.48475401370000E-01 0.10000000000000E+01
 p    4 1.00
 0.34697232244000E+02 0.11327220003114E-01
 0.79582622826000E+01 0.76169659202087E-01
 0.23780826883000E+01 0.30192252202676E+00
 0.81433208183000E+00 0.72785027349547E+00
 p    1 1.00
 0.28887547253000E+00 0.10000000000000E+01
 p    1 1.00
 0.10056823671000E+00 0.10000000000000E+01
 d    1 1.00
 0.10970000000000E+01 0.10000000000000E+01
 d    1 1.00
 0.31800000000000E+00 0.10000000000000E+01
 d    1 1.00
 0.90985336424000E-01 0.10000000000000E+01
 f    1 1.00
 0.76100000000000E+00 0.10000000000000E+01
 
    7 0
 s    3 1.00
 0.34061341000000E+02 0.25439307208879E-01
 0.51235746000000E+01 0.19008594890375E+00
 0.11646626000000E+01 0.85244113011042E+00
 s    1 1.00
 0.32723041000000E+00 0.10000000000000E+01
 s    1 1.00
 0.10307241000000E+00 0.10000000000000E+01
 p    1 1.00
 0.80000000000000E+00 0.10000000000000E+01
 p    1 1.00
 0.95774129632000E-01 0.10000000000000E+01
 
    8 0
 s    3 1.00
 0.34061341000000E+02 0.25439307208879E-01
 0.51235746000000E+01 0.19008594890375E+00
 0.11646626000000E+01 0.85244113011042E+00
 s    1 1.00
 0.32723041000000E+00 0.10000000000000E+01
 s    1 1.00
 0.10307241000000E+00 0.10000000000000E+01
 p    1 1.00
 0.80000000000000E+00 0.10000000000000E+01
 p    1 1.00
 0.95774129632000E-01 0.10000000000000E+01
 
    9 0
 s    3 1.00
 0.34061341000000E+02 0.25439307208879E-01
 0.51235746000000E+01 0.19008594890375E+00
 0.11646626000000E+01 0.85244113011042E+00
 s    1 1.00
 0.32723041000000E+00 0.10000000000000E+01
 s    1 1.00
 0.10307241000000E+00 0.10000000000000E+01
 p    1 1.00
 0.80000000000000E+00 0.10000000000000E+01
 p    1 1.00
 0.95774129632000E-01 0.10000000000000E+01
 
   10 0
 s    3 1.00
 0.34061341000000E+02 0.25439307208879E-01
 0.51235746000000E+01 0.19008594890375E+00
 0.11646626000000E+01 0.85244113011042E+00
 s    1 1.00
 0.32723041000000E+00 0.10000000000000E+01
 s    1 1.00
 0.10307241000000E+00 0.10000000000000E+01
 p    1 1.00
 0.80000000000000E+00 0.10000000000000E+01
 p    1 1.00
 0.95774129632000E-01 0.10000000000000E+01
 
   11 0
 s    6 1.00
 0.19730800647000E+05 0.58626402628763E-03
 0.29578958745000E+04 0.45428820586397E-02
 0.67322133595000E+03 0.23558413450084E-01
 0.19068249494000E+03 0.94709193292923E-01
 0.62295441898000E+02 0.29719784913376E+00
 0.22654161182000E+02 0.66916246895232E+00
 s    2 1.00
 0.89791477428000E+01 0.64596683630063E+00
 0.36863002370000E+01 0.38700574393705E+00
 s    1 1.00
 0.84660076805000E+00 0.10000000000000E+01
 s    1 1.00
 0.33647133771000E+00 0.10000000000000E+01
 s    1 1.00
 0.13647653675000E+00 0.10000000000000E+01
 s    1 1.00
 0.68441605847000E-01 0.10000000000000E+01
 p    4 1.00
 0.49200380510000E+02 0.11448825101764E-01
 0.11346790537000E+02 0.78422337970864E-01
 0.34273972411000E+01 0.30818094738830E+00
 0.11785525134000E+01 0.72027196368413E+00
 p    1 1.00
 0.41642204972000E+00 0.10000000000000E+01
 p    1 1.00
 0.14260826011000E+00 0.10000000000000E+01
 d    1 1.00
 0.16540000000000E+01 0.10000000000000E+01
 d    1 1.00
 0.46900000000000E+00 0.10000000000000E+01
 d    1 1.00
 0.12829642058000E+00 0.10000000000000E+01
 f    1 1.00
 0.10930000000000E+01 0.10000000000000E+01
 
   12 0
 s    6 1.00
 0.27032382631000E+05 0.57227335211155E-03
 0.40523871392000E+04 0.44353233492995E-02
 0.92232722710000E+03 0.23020107706038E-01
 0.26124070989000E+03 0.92822490667928E-01
 0.85354641351000E+02 0.29378500009671E+00
 0.31035035245000E+02 0.67401604501641E+00
 s    2 1.00
 0.12260860728000E+02 0.63839937025506E+00
 0.49987076005000E+01 0.39534587125718E+00
 s    1 1.00
 0.11703108158000E+01 0.10000000000000E+01
 s    1 1.00
 0.46474740994000E+00 0.10000000000000E+01
 s    1 1.00
 0.18504536357000E+00 0.10000000000000E+01
 s    1 1.00
 0.70288026270000E-01 0.10000000000000E+01
 p    4 1.00
 0.63274954801000E+02 0.12018332222616E-01
 0.14627049379000E+02 0.83005421790056E-01
 0.44501223456000E+01 0.31991743925964E+00
 0.15275799647000E+01 0.70715542916104E+00
 p    1 1.00
 0.52935117943000E+00 0.10000000000000E+01
 p    1 1.00
 0.17478421270000E+00 0.10000000000000E+01
 p    1 1.00
 0.51112745706000E-01 0.10000000000000E+01
 d    1 1.00
 0.23140000000000E+01 0.10000000000000E+01
 d    1 1.00
 0.64500000000000E+00 0.10000000000000E+01
 d    1 1.00
 0.14696477366000E+00 0.10000000000000E+01
 f    1 1.00
 0.14280000000000E+01 0.10000000000000E+01
 
   13 0
 s    6 1.00
 0.27032382631000E+05 0.57227335211155E-03
 0.40523871392000E+04 0.44353233492995E-02
 0.92232722710000E+03 0.23020107706038E-01
 0.26124070989000E+03 0.92822490667928E-01
 0.85354641351000E+02 0.29378500009671E+00
 0.31035035245000E+02 0.67401604501641E+00
 s    2 1.00
 0.12260860728000E+02 0.63839937025506E+00
 0.49987076005000E+01 0.39534587125718E+00
 s    1 1.00
 0.11703108158000E+01 0.10000000000000E+01
 s    1 1.00
 0.46474740994000E+00 0.10000000000000E+01
 s    1 1.00
 0.18504536357000E+00 0.10000000000000E+01
 s    1 1.00
 0.70288026270000E-01 0.10000000000000E+01
 p    4 1.00
 0.63274954801000E+02 0.12018332222616E-01
 0.14627049379000E+02 0.83005421790056E-01
 0.44501223456000E+01 0.31991743925964E+00
 0.15275799647000E+01 0.70715542916104E+00
 p    1 1.00
 0.52935117943000E+00 0.10000000000000E+01
 p    1 1.00
 0.17478421270000E+00 0.10000000000000E+01
 p    1 1.00
 0.51112745706000E-01 0.10000000000000E+01
 d    1 1.00
 0.23140000000000E+01 0.10000000000000E+01
 d    1 1.00
 0.64500000000000E+00 0.10000000000000E+01
 d    1 1.00
 0.14696477366000E+00 0.10000000000000E+01
 f    1 1.00
 0.14280000000000E+01 0.10000000000000E+01
 
   14 0
 s    6 1.00
 0.19730800647000E+05 0.58626402628763E-03
 0.29578958745000E+04 0.45428820586397E-02
 0.67322133595000E+03 0.23558413450084E-01
 0.19068249494000E+03 0.94709193292923E-01
 0.62295441898000E+02 0.29719784913376E+00
 0.22654161182000E+02 0.66916246895232E+00
 s    2 1.00
 0.89791477428000E+01 0.64596683630063E+00
 0.36863002370000E+01 0.38700574393705E+00
 s    1 1.00
 0.84660076805000E+00 0.10000000000000E+01
 s    1 1.00
 0.33647133771000E+00 0.10000000000000E+01
 s    1 1.00
 0.13647653675000E+00 0.10000000000000E+01
 s    1 1.00
 0.68441605847000E-01 0.10000000000000E+01
 p    4 1.00
 0.49200380510000E+02 0.11448825101764E-01
 0.11346790537000E+02 0.78422337970864E-01
 0.34273972411000E+01 0.30818094738830E+00
 0.11785525134000E+01 0.72027196368413E+00
 p    1 1.00
 0.41642204972000E+00 0.10000000000000E+01
 p    1 1.00
 0.14260826011000E+00 0.10000000000000E+01
 d    1 1.00
 0.16540000000000E+01 0.10000000000000E+01
 d    1 1.00
 0.46900000000000E+00 0.10000000000000E+01
 d    1 1.00
 0.12829642058000E+00 0.10000000000000E+01
 f    1 1.00
 0.10930000000000E+01 0.10000000000000E+01
 
   15 0
 s    3 1.00
 0.34061341000000E+02 0.25439307208879E-01
 0.51235746000000E+01 0.19008594890375E+00
 0.11646626000000E+01 0.85244113011042E+00
 s    1 1.00
 0.32723041000000E+00 0.10000000000000E+01
 s    1 1.00
 0.10307241000000E+00 0.10000000000000E+01
 p    1 1.00
 0.80000000000000E+00 0.10000000000000E+01
 p    1 1.00
 0.95774129632000E-01 0.10000000000000E+01
 
   16 0
 s    3 1.00
 0.34061341000000E+02 0.25439307208879E-01
 0.51235746000000E+01 0.19008594890375E+00
 0.11646626000000E+01 0.85244113011042E+00
 s    1 1.00
 0.32723041000000E+00 0.10000000000000E+01
 s    1 1.00
 0.10307241000000E+00 0.10000000000000E+01
 p    1 1.00
 0.80000000000000E+00 0.10000000000000E+01
 p    1 1.00
 0.95774129632000E-01 0.10000000000000E+01
 
[MO]
 Sym= X
 Ene= -0.899632
 Spin= Alpha
 Occup= -0.899632
         1   -1.116045E-03
         2   -2.571890E-03
         3    2.297833E-04
         4    3.321120E-02
         5    2.704862E-01
         6   -3.404258E-02
         7   -1.831645E-02
         8    3.704645E-02
         9    1.247775E-03
        10    3.508408E-04
        11    3.199743E-02
        12    1.195421E-03
        13   -2.508117E-02
        14    8.563708E-02
        15    8.429858E-04
        16   -1.920194E-03
        17    2.135860E-03
        18   -2.156659E-04
        19    6.431477E-05
        20   -1.260945E-04
        21    9.439797E-05
        22    3.028895E-03
        23   -2.080307E-04
        24   -2.820864E-03
        25    8.835506E-05
        26   -2.943146E-04
        27    1.813033E-04
        28    2.160557E-03
        29   -1.866079E-03
        30   -2.944782E-04
        31    1.136355E-02
        32    1.330690E-04
        33   -3.110062E-04
        34    1.516100E-04
        35    4.299594E-04
        36   -7.124518E-06
        37   -1.451044E-04
        38   -4.875061E-04
        39   -1.219452E-05
        40   -5.830173E-05
        41   -8.934487E-05
        42    2.175307E-05
        43   -1.403082E-05
        44    1.470728E-02
        45    3.326149E-02
        46   -4.975678E-02
        47   -8.670790E-02
        48   -2.284437E-01
        49    2.183769E-02
        50    1.367492E-01
        51    5.611996E-08
        52    4.490593E-03
        53    1.083511E-01
        54    1.848966E-07
        55    4.697720E-03
        56   -6.623123E-02
        57   -1.341355E-06
        58    4.709650E-03
        59   -4.691452E-03
        60    4.063764E-03
        61    6.276881E-04
        62    1.823130E-09
        63    3.321485E-05
        64   -3.117453E-08
        65   -1.442764E-03
        66    1.601419E-03
        67   -1.586549E-04
        68    7.748060E-08
        69   -7.287701E-06
        70   -3.494290E-08
        71    5.056130E-02
        72   -5.159085E-02
        73    1.029556E-03
        74   -3.134149E-07
        75   -6.754933E-05
        76   -1.461288E-07
        77    9.991253E-04
        78    1.530456E-09
        79   -2.521254E-05
        80   -7.964379E-04
        81   -9.766836E-10
        82    7.855759E-06
        83   -5.440293E-04
        84   -1.076639E-09
        85    2.597042E-05
        86   -1.792656E-08
        87   -1.116016E-03
        88   -2.571825E-03
        89    2.295119E-04
        90    3.321288E-02
        91    2.704868E-01
        92   -3.404309E-02
        93   -1.831638E-02
        94   -3.704657E-02
        95    1.245773E-03
        96    3.523077E-04
        97   -3.199731E-02
        98    1.193297E-03
        99   -2.508325E-02
       100   -8.563925E-02
       101    8.428088E-04
       102   -1.920186E-03
       103    2.135852E-03
       104   -2.156663E-04
       105   -6.430475E-05
       106   -1.261777E-04
       107   -9.442116E-05
       108    3.029176E-03
       109   -2.082043E-04
       110   -2.820972E-03
       111   -8.834127E-05
       112   -2.945280E-04
       113   -1.813322E-04
       114    2.159925E-03
       115   -1.865451E-03
       116   -2.944742E-04
       117   -1.136332E-02
       118    1.327482E-04
       119    3.107120E-04
       120    1.516161E-04
       121   -4.299614E-04
       122   -7.117294E-06
       123   -1.451062E-04
       124    4.875093E-04
       125   -1.220978E-05
       126   -5.830818E-05
       127    8.934442E-05
       128    2.175863E-05
       129    1.403308E-05
       130    1.905931E-03
       131    4.335290E-03
       132   -3.691281E-03
       133   -3.489235E-02
       134   -1.366862E-01
       135    3.151013E-02
       136    1.945934E-02
       137    6.895271E-03
       138   -3.070142E-03
       139    3.233888E-02
       140    6.283339E-03
       141   -3.159791E-03
       142    3.391314E-02
       143    5.308977E-02
       144   -2.222273E-03
       145   -5.299748E-04
       146    4.272015E-04
       147    1.027732E-04
       148    1.358506E-03
       149   -4.341940E-05
       150    6.545113E-05
       151   -3.835958E-03
       152    1.630067E-03
       153    2.205891E-03
       154    2.142273E-03
       155   -1.164810E-04
       156    1.239127E-04
       157   -3.075417E-03
       158    3.589907E-03
       159   -5.144899E-04
       160   -2.143070E-02
       161    2.793464E-04
       162   -2.478061E-04
       163    2.505857E-04
       164    2.318372E-04
       165    1.776968E-05
       166   -1.722484E-04
       167   -3.154714E-04
       168   -2.315312E-06
       169   -1.639477E-04
       170    4.429108E-06
       171   -2.152521E-05
       172    9.309688E-06
       173    1.799119E-03
       174    4.139668E-03
       175   -8.778123E-03
       176    1.049019E-03
       177   -1.589893E-02
       178   -3.174325E-02
       179    6.250612E-03
       180   -3.313352E-07
       181   -2.919553E-03
       182    3.190220E-03
       183   -4.911840E-07
       184   -3.061300E-03
       185   -4.298595E-02
       186    1.576057E-06
       187   -3.752817E-03
       188   -2.226990E-04
       189    2.299778E-04
       190   -7.278815E-06
       191    6.141578E-09
       192    1.832756E-04
       193   -5.302518E-08
       194    6.498623E-04
       195    3.971280E-04
       196   -1.046990E-03
       197    7.084840E-08
       198    4.134959E-04
       199   -1.189697E-07
       200   -1.732393E-02
       201    1.795817E-02
       202   -6.342380E-04
       203   -5.379560E-07
       204   -9.480154E-05
       205    1.159897E-07
       206   -2.101134E-05
       207   -3.023794E-09
       208    1.127852E-05
       209    3.273037E-05
       210    2.293543E-09
       211    1.571374E-05
       212   -4.540707E-06
       213    1.763302E-09
       214   -3.084546E-05
       215    8.012284E-09
       216    1.905909E-03
       217    4.335241E-03
       218   -3.691214E-03
       219   -3.489094E-02
       220   -1.366843E-01
       221    3.150956E-02
       222    1.945957E-02
       223   -6.895052E-03
       224   -3.067298E-03
       225    3.233782E-02
       226   -6.283336E-03
       227   -3.156925E-03
       228    3.391557E-02
       229   -5.308659E-02
       230   -2.220054E-03
       231   -5.299626E-04
       232    4.271917E-04
       233    1.027709E-04
       234   -1.358460E-03
       235   -4.346800E-05
       236   -6.545040E-05
       237   -3.835736E-03
       238    1.629919E-03
       239    2.205817E-03
       240   -2.142242E-03
       241   -1.165474E-04
       242   -1.239067E-04
       243   -3.076190E-03
       244    3.590677E-03
       245   -5.144870E-04
       246    2.143119E-02
       247    2.795078E-04
       248    2.479014E-04
       249    2.505833E-04
       250   -2.318368E-04
       251    1.775167E-05
       252   -1.722452E-04
       253    3.154696E-04
       254   -2.298396E-06
       255   -1.639476E-04
       256   -4.427920E-06
       257   -2.151797E-05
       258   -9.308466E-06
       259   -2.809874E-03
       260   -3.281841E-03
       261   -9.776263E-03
       262   -1.982932E-03
       263   -4.564510E-04
       264    5.310977E-05
       265   -6.577537E-03
       266   -5.699612E-04
       267   -1.454708E-04
       268   -2.809997E-03
       269   -3.282042E-03
       270   -9.776603E-03
       271   -1.982934E-03
       272    4.564723E-04
       273    5.304402E-05
       274   -6.577970E-03
       275    5.697560E-04
       276   -1.453104E-04
       277    9.087605E-03
       278    1.533017E-02
       279    2.231191E-02
       280    1.811939E-04
       281   -1.346963E-03
       282   -1.133922E-04
       283    7.466209E-03
       284   -2.562193E-03
       285    7.841781E-06
       286    9.087398E-03
       287    1.532970E-02
       288    2.231181E-02
       289    1.812398E-04
       290    1.346947E-03
       291   -1.132869E-04
       292    7.467056E-03
       293    2.562532E-03
       294    7.870425E-06
       295    1.189649E-03
       296    2.638958E-03
       297    8.080336E-04
       298   -2.762735E-02
       299   -1.514007E-01
       300    2.092446E-02
       301   -1.034128E-01
       302   -9.285580E-08
       303    6.945350E-05
       304   -9.717570E-02
       305   -5.093480E-08
       306    1.265236E-04
       307   -9.521347E-02
       308   -8.643485E-08
       309    1.070429E-04
       310   -1.191497E-02
       311    1.319136E-02
       312   -1.276389E-03
       313    1.820744E-08
       314    1.356345E-04
       315    2.480971E-07
       316   -3.379827E-02
       317    3.500430E-02
       318   -1.206028E-03
       319    6.123771E-08
       320    3.985544E-04
       321    6.237994E-07
       322    1.198290E-02
       323   -9.584713E-04
       324   -1.102442E-02
       325    2.386674E-08
       326   -1.932405E-05
       327    6.217100E-08
       328   -7.991681E-06
       329    4.226987E-09
       330    9.127318E-07
       331   -2.212992E-04
       332   -5.388525E-09
       333    1.618360E-05
       334    2.320211E-04
       335   -2.825731E-10
       336   -1.740815E-05
       337   -1.232521E-08
       338   -2.705959E-04
       339   -7.637427E-04
       340    2.867699E-04
       341   -1.248784E-02
       342   -8.716381E-03
       343   -1.647569E-02
       344    3.123135E-01
       345    5.689413E-02
       346   -2.783382E-03
       347    2.749416E-01
       348    5.544659E-02
       349   -2.530999E-03
       350    2.009194E-01
       351    4.645810E-02
       352   -1.829376E-03
       353    1.611669E-02
       354    8.451286E-03
       355   -1.721806E-04
       356    1.013521E-03
       357   -2.107047E-04
       358   -8.028166E-04
       359   -2.681824E-03
       360   -1.005224E-05
       361    2.622644E-05
       362    4.285557E-03
       363   -1.900302E-03
       364   -2.385256E-03
       365   -6.080734E-03
       366   -4.454874E-05
       367    7.372729E-05
       368    6.078982E-03
       369   -4.270115E-03
       370   -1.808867E-03
       371   -5.464871E-03
       372   -3.990771E-05
       373    3.201773E-05
       374   -3.211522E-04
       375    5.247890E-04
       376    4.047491E-06
       377    6.459481E-04
       378   -9.684108E-04
       379    2.151789E-06
       380   -2.150772E-04
       381    2.643325E-04
       382   -7.582068E-06
       383    8.934832E-06
       384   -2.706028E-04
       385   -7.637603E-04
       386    2.867990E-04
       387   -1.248785E-02
       388   -8.716466E-03
       389   -1.647576E-02
       390    3.123125E-01
       391   -5.689318E-02
       392   -2.786056E-03
       393    2.749406E-01
       394   -5.544576E-02
       395   -2.533528E-03
       396    2.009188E-01
       397   -4.645758E-02
       398   -1.831423E-03
       399    1.611660E-02
       400   -8.451238E-03
       401   -1.725184E-04
       402    1.013512E-03
       403   -2.106917E-04
       404   -8.028206E-04
       405    2.681824E-03
       406   -9.979515E-06
       407   -2.621567E-05
       408    4.285532E-03
       409   -1.900269E-03
       410   -2.385263E-03
       411    6.080734E-03
       412   -4.437176E-05
       413   -7.374472E-05
       414    6.078954E-03
       415   -4.270087E-03
       416   -1.808866E-03
       417    5.464863E-03
       418   -3.972163E-05
       419   -3.212013E-05
       420   -3.211531E-04
       421   -5.247855E-04
       422    4.030052E-06
       423    6.459507E-04
       424    9.684074E-04
       425    2.182667E-06
       426   -2.150786E-04
       427   -2.643338E-04
       428   -7.589548E-06
       429   -8.910490E-06
       430    5.082356E-04
       431    1.198294E-03
       432   -1.480283E-03
       433   -6.673775E-03
       434    2.567562E-02
       435    1.797563E-02
       436   -8.823291E-04
       437    7.931839E-08
       438    4.628157E-03
       439    2.599555E-04
       440    5.812099E-08
       441    4.526625E-03
       442   -2.606924E-03
       443    1.282916E-07
       444    4.193749E-03
       445   -3.468959E-05
       446    2.201749E-05
       447    1.267210E-05
       448    5.089386E-09
       449    2.098821E-05
       450   -1.367152E-09
       451   -1.872234E-04
       452    2.327681E-04
       453   -4.554476E-05
       454    2.955097E-08
       455    1.071604E-04
       456   -2.982212E-09
       457   -1.049069E-03
       458   -4.903517E-05
       459    1.098104E-03
       460   -1.070207E-08
       461   -1.807445E-04
       462   -3.019309E-09
       463    1.418683E-07
       464    1.449552E-09
       465   -1.874747E-05
       466   -1.803739E-05
       467   -1.593327E-09
       468    6.081640E-06
       469    1.784705E-05
       470   -3.514515E-10
       471    1.907073E-05
       472    1.646997E-09
       473    2.004202E-04
       474    1.273064E-04
       475    4.987602E-03
       476   -5.551718E-05
       477    1.091286E-04
       478    2.664135E-04
       479   -1.807712E-03
       480   -1.411382E-03
       481    6.556874E-04
       482    2.003337E-04
       483    1.272189E-04
       484    4.987012E-03
       485   -5.552021E-05
       486   -1.091259E-04
       487    2.664194E-04
       488   -1.807603E-03
       489    1.411369E-03
       490    6.557189E-04
 Sym= X
 Ene= 0.899632
 Spin= Alpha
 Occup= 0.899632
         1   -3.119074E-05
         2   -7.488967E-05
         3    3.345293E-04
         4   -1.293008E-03
         5   -1.951203E-03
         6   -2.974472E-03
         7    2.876127E-04
         8   -1.150844E-05
         9    1.006688E-01
        10   -3.418836E-04
        11   -9.061723E-06
        12    1.009865E-01
        13   -2.408960E-02
        14    2.664484E-02
        15    6.069326E-02
        16    4.505698E-06
        17   -2.173114E-06
        18   -2.332584E-06
        19    1.846116E-06
        20    3.810893E-04
        21   -4.373418E-05
        22   -2.635253E-04
        23    1.090494E-04
        24    1.544759E-04
        25   -1.126978E-04
        26   -3.476482E-03
        27   -1.879914E-03
        28   -6.788136E-03
        29    7.533997E-03
        30   -7.458614E-04
        31    1.412797E-03
        32   -6.655225E-04
        33   -1.703612E-02
        34   -1.000807E-05
        35    1.578429E-06
        36   -1.484283E-04
        37    8.240448E-06
        38    2.672185E-06
        39   -7.287796E-05
        40    5.186788E-06
        41   -4.789871E-06
        42    2.720155E-04
        43    1.264334E-04
        44   -7.685180E-06
        45   -1.553030E-05
        46    1.934096E-05
        47    1.319431E-03
        48   -9.218111E-02
        49   -4.238520E-03
        50   -4.720351E-05
        51   -3.223537E-07
        52   -3.267068E-02
        53    3.264910E-04
        54   -1.466076E-07
        55   -3.003115E-02
        56   -2.791633E-02
        57    5.576171E-06
        58    4.932379E-02
        59    3.490904E-05
        60    1.857984E-05
        61   -5.348888E-05
        62   -1.202541E-07