[Molden Format]
[Title]
ADC(2) - opt by CAM-B3LYP gaussian                                              
[Atoms] AU
 c     1    6 -.12594776649128E+01 -.22773101438193E+01 -.39940542897370E-01
 c     2    6 -.25470425655544E+01 -.11810788300000E-05 -.37653974276580E-01
 c     3    6 -.12594776649128E+01 0.22773077816617E+01 -.39959440158700E-01
 c     4    6 0.13393870965995E+01 0.22758904870620E+01 -.43795584208460E-01
 c     5    6 0.26846831306008E+01 -.11810788300000E-05 -.44211323957690E-01
 c     6    6 0.13394059938609E+01 -.22758928492196E+01 -.43776686947130E-01
 h     7    1 -.23144739703802E+01 -.40231336316857E+01 -.37313823572660E-01
 h     8    1 -.23144739703802E+01 0.40231312695281E+01 -.37332720833990E-01
 h     9    1 0.23577983041343E+01 0.40499086888311E+01 -.52469427158400E-01
 h    10    1 0.23577983041343E+01 -.40498921537274E+01 -.52431632635740E-01
 n    11    7 -.52968964450843E+01 -.11810788300000E-05 -.29906097131750E-01
 o    12    8 -.63725096626615E+01 0.20302827815708E+01 -.26599076399200E-01
 o    13    8 -.63725096626615E+01 -.20302851437285E+01 -.26655768183180E-01
 n    14    7 0.52734000627795E+01 -.11810788300000E-05 -.11796733492422E+00
 h    15    1 0.61922038058499E+01 0.16034881344586E+01 0.31500671664254E+00
 h    16    1 0.61921849085885E+01 -.16034904966163E+01 0.31500671664254E+00
[GTO]
    1 0
 s    6 1.00
 0.13575349682000E+05 0.60645503603591E-03
 0.20352333680000E+04 0.46979088884982E-02
 0.46322562359000E+03 0.24332477647552E-01
 0.13120019598000E+03 0.97399968307759E-01
 0.42853015891000E+02 0.30195584253780E+00
 0.15584185766000E+02 0.66233609137875E+00
 s    2 1.00
 0.62067138508000E+01 0.65595308539952E+00
 0.25764896527000E+01 0.37585633285142E+00
 s    1 1.00
 0.57696339419000E+00 0.10000000000000E+01
 s    1 1.00
 0.22972831358000E+00 0.10000000000000E+01
 s    1 1.00
 0.95164440028000E-01 0.10000000000000E+01
 s    1 1.00
 0.48475401370000E-01 0.10000000000000E+01
 p    4 1.00
 0.34697232244000E+02 0.11327220003114E-01
 0.79582622826000E+01 0.76169659202087E-01
 0.23780826883000E+01 0.30192252202676E+00
 0.81433208183000E+00 0.72785027349547E+00
 p    1 1.00
 0.28887547253000E+00 0.10000000000000E+01
 p    1 1.00
 0.10056823671000E+00 0.10000000000000E+01
 d    1 1.00
 0.10970000000000E+01 0.10000000000000E+01
 d    1 1.00
 0.31800000000000E+00 0.10000000000000E+01
 d    1 1.00
 0.90985336424000E-01 0.10000000000000E+01
 f    1 1.00
 0.76100000000000E+00 0.10000000000000E+01
 
    2 0
 s    6 1.00
 0.13575349682000E+05 0.60645503603591E-03
 0.20352333680000E+04 0.46979088884982E-02
 0.46322562359000E+03 0.24332477647552E-01
 0.13120019598000E+03 0.97399968307759E-01
 0.42853015891000E+02 0.30195584253780E+00
 0.15584185766000E+02 0.66233609137875E+00
 s    2 1.00
 0.62067138508000E+01 0.65595308539952E+00
 0.25764896527000E+01 0.37585633285142E+00
 s    1 1.00
 0.57696339419000E+00 0.10000000000000E+01
 s    1 1.00
 0.22972831358000E+00 0.10000000000000E+01
 s    1 1.00
 0.95164440028000E-01 0.10000000000000E+01
 s    1 1.00
 0.48475401370000E-01 0.10000000000000E+01
 p    4 1.00
 0.34697232244000E+02 0.11327220003114E-01
 0.79582622826000E+01 0.76169659202087E-01
 0.23780826883000E+01 0.30192252202676E+00
 0.81433208183000E+00 0.72785027349547E+00
 p    1 1.00
 0.28887547253000E+00 0.10000000000000E+01
 p    1 1.00
 0.10056823671000E+00 0.10000000000000E+01
 d    1 1.00
 0.10970000000000E+01 0.10000000000000E+01
 d    1 1.00
 0.31800000000000E+00 0.10000000000000E+01
 d    1 1.00
 0.90985336424000E-01 0.10000000000000E+01
 f    1 1.00
 0.76100000000000E+00 0.10000000000000E+01
 
    3 0
 s    6 1.00
 0.13575349682000E+05 0.60645503603591E-03
 0.20352333680000E+04 0.46979088884982E-02
 0.46322562359000E+03 0.24332477647552E-01
 0.13120019598000E+03 0.97399968307759E-01
 0.42853015891000E+02 0.30195584253780E+00
 0.15584185766000E+02 0.66233609137875E+00
 s    2 1.00
 0.62067138508000E+01 0.65595308539952E+00
 0.25764896527000E+01 0.37585633285142E+00
 s    1 1.00
 0.57696339419000E+00 0.10000000000000E+01
 s    1 1.00
 0.22972831358000E+00 0.10000000000000E+01
 s    1 1.00
 0.95164440028000E-01 0.10000000000000E+01
 s    1 1.00
 0.48475401370000E-01 0.10000000000000E+01
 p    4 1.00
 0.34697232244000E+02 0.11327220003114E-01
 0.79582622826000E+01 0.76169659202087E-01
 0.23780826883000E+01 0.30192252202676E+00
 0.81433208183000E+00 0.72785027349547E+00
 p    1 1.00
 0.28887547253000E+00 0.10000000000000E+01
 p    1 1.00
 0.10056823671000E+00 0.10000000000000E+01
 d    1 1.00
 0.10970000000000E+01 0.10000000000000E+01
 d    1 1.00
 0.31800000000000E+00 0.10000000000000E+01
 d    1 1.00
 0.90985336424000E-01 0.10000000000000E+01
 f    1 1.00
 0.76100000000000E+00 0.10000000000000E+01
 
    4 0
 s    6 1.00
 0.13575349682000E+05 0.60645503603591E-03
 0.20352333680000E+04 0.46979088884982E-02
 0.46322562359000E+03 0.24332477647552E-01
 0.13120019598000E+03 0.97399968307759E-01
 0.42853015891000E+02 0.30195584253780E+00
 0.15584185766000E+02 0.66233609137875E+00
 s    2 1.00
 0.62067138508000E+01 0.65595308539952E+00
 0.25764896527000E+01 0.37585633285142E+00
 s    1 1.00
 0.57696339419000E+00 0.10000000000000E+01
 s    1 1.00
 0.22972831358000E+00 0.10000000000000E+01
 s    1 1.00
 0.95164440028000E-01 0.10000000000000E+01
 s    1 1.00
 0.48475401370000E-01 0.10000000000000E+01
 p    4 1.00
 0.34697232244000E+02 0.11327220003114E-01
 0.79582622826000E+01 0.76169659202087E-01
 0.23780826883000E+01 0.30192252202676E+00
 0.81433208183000E+00 0.72785027349547E+00
 p    1 1.00
 0.28887547253000E+00 0.10000000000000E+01
 p    1 1.00
 0.10056823671000E+00 0.10000000000000E+01
 d    1 1.00
 0.10970000000000E+01 0.10000000000000E+01
 d    1 1.00
 0.31800000000000E+00 0.10000000000000E+01
 d    1 1.00
 0.90985336424000E-01 0.10000000000000E+01
 f    1 1.00
 0.76100000000000E+00 0.10000000000000E+01
 
    5 0
 s    6 1.00
 0.13575349682000E+05 0.60645503603591E-03
 0.20352333680000E+04 0.46979088884982E-02
 0.46322562359000E+03 0.24332477647552E-01
 0.13120019598000E+03 0.97399968307759E-01
 0.42853015891000E+02 0.30195584253780E+00
 0.15584185766000E+02 0.66233609137875E+00
 s    2 1.00
 0.62067138508000E+01 0.65595308539952E+00
 0.25764896527000E+01 0.37585633285142E+00
 s    1 1.00
 0.57696339419000E+00 0.10000000000000E+01
 s    1 1.00
 0.22972831358000E+00 0.10000000000000E+01
 s    1 1.00
 0.95164440028000E-01 0.10000000000000E+01
 s    1 1.00
 0.48475401370000E-01 0.10000000000000E+01
 p    4 1.00
 0.34697232244000E+02 0.11327220003114E-01
 0.79582622826000E+01 0.76169659202087E-01
 0.23780826883000E+01 0.30192252202676E+00
 0.81433208183000E+00 0.72785027349547E+00
 p    1 1.00
 0.28887547253000E+00 0.10000000000000E+01
 p    1 1.00
 0.10056823671000E+00 0.10000000000000E+01
 d    1 1.00
 0.10970000000000E+01 0.10000000000000E+01
 d    1 1.00
 0.31800000000000E+00 0.10000000000000E+01
 d    1 1.00
 0.90985336424000E-01 0.10000000000000E+01
 f    1 1.00
 0.76100000000000E+00 0.10000000000000E+01
 
    6 0
 s    6 1.00
 0.13575349682000E+05 0.60645503603591E-03
 0.20352333680000E+04 0.46979088884982E-02
 0.46322562359000E+03 0.24332477647552E-01
 0.13120019598000E+03 0.97399968307759E-01
 0.42853015891000E+02 0.30195584253780E+00
 0.15584185766000E+02 0.66233609137875E+00
 s    2 1.00
 0.62067138508000E+01 0.65595308539952E+00
 0.25764896527000E+01 0.37585633285142E+00
 s    1 1.00
 0.57696339419000E+00 0.10000000000000E+01
 s    1 1.00
 0.22972831358000E+00 0.10000000000000E+01
 s    1 1.00
 0.95164440028000E-01 0.10000000000000E+01
 s    1 1.00
 0.48475401370000E-01 0.10000000000000E+01
 p    4 1.00
 0.34697232244000E+02 0.11327220003114E-01
 0.79582622826000E+01 0.76169659202087E-01
 0.23780826883000E+01 0.30192252202676E+00
 0.81433208183000E+00 0.72785027349547E+00
 p    1 1.00
 0.28887547253000E+00 0.10000000000000E+01
 p    1 1.00
 0.10056823671000E+00 0.10000000000000E+01
 d    1 1.00
 0.10970000000000E+01 0.10000000000000E+01
 d    1 1.00
 0.31800000000000E+00 0.10000000000000E+01
 d    1 1.00
 0.90985336424000E-01 0.10000000000000E+01
 f    1 1.00
 0.76100000000000E+00 0.10000000000000E+01
 
    7 0
 s    3 1.00
 0.34061341000000E+02 0.25439307208879E-01
 0.51235746000000E+01 0.19008594890375E+00
 0.11646626000000E+01 0.85244113011042E+00
 s    1 1.00
 0.32723041000000E+00 0.10000000000000E+01
 s    1 1.00
 0.10307241000000E+00 0.10000000000000E+01
 p    1 1.00
 0.80000000000000E+00 0.10000000000000E+01
 p    1 1.00
 0.95774129632000E-01 0.10000000000000E+01
 
    8 0
 s    3 1.00
 0.34061341000000E+02 0.25439307208879E-01
 0.51235746000000E+01 0.19008594890375E+00
 0.11646626000000E+01 0.85244113011042E+00
 s    1 1.00
 0.32723041000000E+00 0.10000000000000E+01
 s    1 1.00
 0.10307241000000E+00 0.10000000000000E+01
 p    1 1.00
 0.80000000000000E+00 0.10000000000000E+01
 p    1 1.00
 0.95774129632000E-01 0.10000000000000E+01
 
    9 0
 s    3 1.00
 0.34061341000000E+02 0.25439307208879E-01
 0.51235746000000E+01 0.19008594890375E+00
 0.11646626000000E+01 0.85244113011042E+00
 s    1 1.00
 0.32723041000000E+00 0.10000000000000E+01
 s    1 1.00
 0.10307241000000E+00 0.10000000000000E+01
 p    1 1.00
 0.80000000000000E+00 0.10000000000000E+01
 p    1 1.00
 0.95774129632000E-01 0.10000000000000E+01
 
   10 0
 s    3 1.00
 0.34061341000000E+02 0.25439307208879E-01
 0.51235746000000E+01 0.19008594890375E+00
 0.11646626000000E+01 0.85244113011042E+00
 s    1 1.00
 0.32723041000000E+00 0.10000000000000E+01
 s    1 1.00
 0.10307241000000E+00 0.10000000000000E+01
 p    1 1.00
 0.80000000000000E+00 0.10000000000000E+01
 p    1 1.00
 0.95774129632000E-01 0.10000000000000E+01
 
   11 0
 s    6 1.00
 0.19730800647000E+05 0.58626402628763E-03
 0.29578958745000E+04 0.45428820586397E-02
 0.67322133595000E+03 0.23558413450084E-01
 0.19068249494000E+03 0.94709193292923E-01
 0.62295441898000E+02 0.29719784913376E+00
 0.22654161182000E+02 0.66916246895232E+00
 s    2 1.00
 0.89791477428000E+01 0.64596683630063E+00
 0.36863002370000E+01 0.38700574393705E+00
 s    1 1.00
 0.84660076805000E+00 0.10000000000000E+01
 s    1 1.00
 0.33647133771000E+00 0.10000000000000E+01
 s    1 1.00
 0.13647653675000E+00 0.10000000000000E+01
 s    1 1.00
 0.68441605847000E-01 0.10000000000000E+01
 p    4 1.00
 0.49200380510000E+02 0.11448825101764E-01
 0.11346790537000E+02 0.78422337970864E-01
 0.34273972411000E+01 0.30818094738830E+00
 0.11785525134000E+01 0.72027196368413E+00
 p    1 1.00
 0.41642204972000E+00 0.10000000000000E+01
 p    1 1.00
 0.14260826011000E+00 0.10000000000000E+01
 d    1 1.00
 0.16540000000000E+01 0.10000000000000E+01
 d    1 1.00
 0.46900000000000E+00 0.10000000000000E+01
 d    1 1.00
 0.12829642058000E+00 0.10000000000000E+01
 f    1 1.00
 0.10930000000000E+01 0.10000000000000E+01
 
   12 0
 s    6 1.00
 0.27032382631000E+05 0.57227335211155E-03
 0.40523871392000E+04 0.44353233492995E-02
 0.92232722710000E+03 0.23020107706038E-01
 0.26124070989000E+03 0.92822490667928E-01
 0.85354641351000E+02 0.29378500009671E+00
 0.31035035245000E+02 0.67401604501641E+00
 s    2 1.00
 0.12260860728000E+02 0.63839937025506E+00
 0.49987076005000E+01 0.39534587125718E+00
 s    1 1.00
 0.11703108158000E+01 0.10000000000000E+01
 s    1 1.00
 0.46474740994000E+00 0.10000000000000E+01
 s    1 1.00
 0.18504536357000E+00 0.10000000000000E+01
 s    1 1.00
 0.70288026270000E-01 0.10000000000000E+01
 p    4 1.00
 0.63274954801000E+02 0.12018332222616E-01
 0.14627049379000E+02 0.83005421790056E-01
 0.44501223456000E+01 0.31991743925964E+00
 0.15275799647000E+01 0.70715542916104E+00
 p    1 1.00
 0.52935117943000E+00 0.10000000000000E+01
 p    1 1.00
 0.17478421270000E+00 0.10000000000000E+01
 p    1 1.00
 0.51112745706000E-01 0.10000000000000E+01
 d    1 1.00
 0.23140000000000E+01 0.10000000000000E+01
 d    1 1.00
 0.64500000000000E+00 0.10000000000000E+01
 d    1 1.00
 0.14696477366000E+00 0.10000000000000E+01
 f    1 1.00
 0.14280000000000E+01 0.10000000000000E+01
 
   13 0
 s    6 1.00
 0.27032382631000E+05 0.57227335211155E-03
 0.40523871392000E+04 0.44353233492995E-02
 0.92232722710000E+03 0.23020107706038E-01
 0.26124070989000E+03 0.92822490667928E-01
 0.85354641351000E+02 0.29378500009671E+00
 0.31035035245000E+02 0.67401604501641E+00
 s    2 1.00
 0.12260860728000E+02 0.63839937025506E+00
 0.49987076005000E+01 0.39534587125718E+00
 s    1 1.00
 0.11703108158000E+01 0.10000000000000E+01
 s    1 1.00
 0.46474740994000E+00 0.10000000000000E+01
 s    1 1.00
 0.18504536357000E+00 0.10000000000000E+01
 s    1 1.00
 0.70288026270000E-01 0.10000000000000E+01
 p    4 1.00
 0.63274954801000E+02 0.12018332222616E-01
 0.14627049379000E+02 0.83005421790056E-01
 0.44501223456000E+01 0.31991743925964E+00
 0.15275799647000E+01 0.70715542916104E+00
 p    1 1.00
 0.52935117943000E+00 0.10000000000000E+01
 p    1 1.00
 0.17478421270000E+00 0.10000000000000E+01
 p    1 1.00
 0.51112745706000E-01 0.10000000000000E+01
 d    1 1.00
 0.23140000000000E+01 0.10000000000000E+01
 d    1 1.00
 0.64500000000000E+00 0.10000000000000E+01
 d    1 1.00
 0.14696477366000E+00 0.10000000000000E+01
 f    1 1.00
 0.14280000000000E+01 0.10000000000000E+01
 
   14 0
 s    6 1.00
 0.19730800647000E+05 0.58626402628763E-03
 0.29578958745000E+04 0.45428820586397E-02
 0.67322133595000E+03 0.23558413450084E-01
 0.19068249494000E+03 0.94709193292923E-01
 0.62295441898000E+02 0.29719784913376E+00
 0.22654161182000E+02 0.66916246895232E+00
 s    2 1.00
 0.89791477428000E+01 0.64596683630063E+00
 0.36863002370000E+01 0.38700574393705E+00
 s    1 1.00
 0.84660076805000E+00 0.10000000000000E+01
 s    1 1.00
 0.33647133771000E+00 0.10000000000000E+01
 s    1 1.00
 0.13647653675000E+00 0.10000000000000E+01
 s    1 1.00
 0.68441605847000E-01 0.10000000000000E+01
 p    4 1.00
 0.49200380510000E+02 0.11448825101764E-01
 0.11346790537000E+02 0.78422337970864E-01
 0.34273972411000E+01 0.30818094738830E+00
 0.11785525134000E+01 0.72027196368413E+00
 p    1 1.00
 0.41642204972000E+00 0.10000000000000E+01
 p    1 1.00
 0.14260826011000E+00 0.10000000000000E+01
 d    1 1.00
 0.16540000000000E+01 0.10000000000000E+01
 d    1 1.00
 0.46900000000000E+00 0.10000000000000E+01
 d    1 1.00
 0.12829642058000E+00 0.10000000000000E+01
 f    1 1.00
 0.10930000000000E+01 0.10000000000000E+01
 
   15 0
 s    3 1.00
 0.34061341000000E+02 0.25439307208879E-01
 0.51235746000000E+01 0.19008594890375E+00
 0.11646626000000E+01 0.85244113011042E+00
 s    1 1.00
 0.32723041000000E+00 0.10000000000000E+01
 s    1 1.00
 0.10307241000000E+00 0.10000000000000E+01
 p    1 1.00
 0.80000000000000E+00 0.10000000000000E+01
 p    1 1.00
 0.95774129632000E-01 0.10000000000000E+01
 
   16 0
 s    3 1.00
 0.34061341000000E+02 0.25439307208879E-01
 0.51235746000000E+01 0.19008594890375E+00
 0.11646626000000E+01 0.85244113011042E+00
 s    1 1.00
 0.32723041000000E+00 0.10000000000000E+01
 s    1 1.00
 0.10307241000000E+00 0.10000000000000E+01
 p    1 1.00
 0.80000000000000E+00 0.10000000000000E+01
 p    1 1.00
 0.95774129632000E-01 0.10000000000000E+01
 
[MO]
 Sym= X
 Ene= -0.912154
 Spin= Alpha
 Occup= -0.912154
         1    3.584827E-04
         2    8.327955E-04
         3   -2.422137E-03
         4    6.222766E-03
         5   -8.172987E-02
         6    2.252176E-02
         7   -3.208015E-03
         8   -2.721714E-04
         9   -2.591991E-02
        10    5.594619E-03
        11   -1.076970E-03
        12   -2.399124E-02
        13    4.769308E-02
        14   -2.433489E-02
        15   -1.670604E-02
        16    4.692840E-07
        17    2.289402E-05
        18   -2.336330E-05
        19    1.236857E-05
        20    5.726301E-03
        21   -3.415344E-03
        22    1.305995E-03
        23   -7.903492E-04
        24   -5.156457E-04
        25    1.440514E-03
        26    1.306692E-02
        27   -6.473438E-03
        28    1.846869E-03
        29   -1.297363E-03
        30   -5.495063E-04
        31   -3.848452E-03
        32   -5.305187E-03
        33    1.037764E-02
        34    4.269783E-05
        35   -1.031675E-05
        36    6.580769E-05
        37   -1.856193E-05
        38    6.121051E-06
        39    6.933934E-04
        40   -3.872322E-05
        41    7.720318E-06
        42   -7.816836E-04
        43    6.087246E-04
        44   -7.697478E-05
        45   -1.663749E-04
        46   -3.485490E-04
        47    7.736108E-03
        48    9.161189E-02
        49   -1.262621E-02
        50   -5.197366E-04
        51   -9.220853E-07
        52   -1.766575E-01
        53    1.318103E-03
        54   -5.649891E-07
        55   -1.829974E-01
        56    1.713544E-02
        57    1.020821E-05
        58   -1.794343E-01
        59   -8.074605E-05
        60    7.570664E-05
        61    5.039413E-06
        62   -2.259783E-08
        63    1.761907E-04
        64    1.512109E-08
        65   -7.894540E-04
        66    1.319917E-03
        67   -5.304632E-04
        68    1.012747E-08
        69    1.902401E-03
        70    3.436046E-08
        71   -3.078024E-02
        72    3.370104E-02
        73   -2.920798E-03
        74    1.250280E-06
        75   -2.216982E-03
        76   -5.958936E-07
        77   -1.470999E-05
        78   -1.098775E-08
        79    9.638890E-04
        80    1.770934E-05
        81    2.482588E-09
        82   -5.172882E-04
        83    2.026178E-06
        84    1.225903E-08
        85   -7.759046E-04
        86    1.376311E-09
        87    3.585234E-04
        88    8.328837E-04
        89   -2.422137E-03
        90    6.221874E-03
        91   -8.174183E-02
        92    2.252404E-02
        93   -3.207553E-03
        94    2.722368E-04
        95   -2.591945E-02
        96    5.595241E-03
        97    1.077295E-03
        98   -2.399086E-02
        99    4.770635E-02
       100    2.434475E-02
       101   -1.670610E-02
       102    4.889823E-07
       103    2.291945E-05
       104   -2.340843E-05
       105   -1.231189E-05
       106    5.726276E-03
       107    3.415329E-03
       108    1.306027E-03
       109   -7.903477E-04
       110   -5.156789E-04
       111   -1.440511E-03
       112    1.306681E-02
       113    6.473426E-03
       114    1.848723E-03
       115   -1.299303E-03
       116   -5.494199E-04
       117    3.847663E-03
       118   -5.305963E-03
       119   -1.037825E-02
       120    4.269415E-05
       121    1.030531E-05
       122    6.581267E-05
       123   -1.856380E-05
       124   -6.114983E-06
       125    6.933833E-04
       126   -3.871642E-05
       127   -7.711047E-06
       128   -7.816803E-04
       129   -6.087237E-04
       130   -3.377932E-04
       131   -7.446386E-04
       132   -5.090537E-04
       133    1.934082E-02
       134    3.148064E-02
       135   -2.751742E-02
       136    2.882708E-03
       137   -1.005826E-03
       138    1.467195E-01
       139    1.860800E-02
       140   -1.183800E-02
       141    1.492010E-01
       142    8.418477E-03
       143    1.705166E-02
       144    9.469908E-02
       145   -2.672694E-04
       146    3.349256E-04
       147   -6.765624E-05
       148   -2.586932E-06
       149    1.011391E-03
       150   -2.986172E-03
       151   -1.422121E-03
       152    1.563902E-03
       153   -1.417815E-04
       154   -3.153910E-03
       155    4.885642E-03
       156   -4.708950E-03
       157   -1.160960E-02
       158    7.722193E-03
       159    3.887410E-03
       160    2.473924E-02
       161   -6.176187E-03
       162    1.190821E-02
       163    3.622600E-05
       164   -1.620818E-05
       165   -8.312718E-04
       166    3.170976E-05
       167   -3.399311E-05
       168    1.732108E-04
       169   -8.031204E-05
       170    5.573866E-05
       171    9.420574E-04
       172   -3.227677E-04
       173    2.029617E-03
       174    4.614938E-03
       175   -4.322295E-03
       176   -4.234697E-02
       177    1.281126E-01
       178   -9.897183E-03
       179   -1.632710E-02
       180    2.149676E-07
       181    1.111941E-01
       182    4.037000E-05
       183    4.198724E-07
       184    1.151385E-01
       185    9.635412E-02
       186   -2.679185E-06
       187    1.385457E-01
       188   -9.042736E-04
       189    5.393981E-04
       190    3.648755E-04
       191   -1.413547E-08
       192   -1.008172E-02
       193   -1.314489E-07
       194    3.505595E-03
       195   -7.658372E-03
       196    4.152777E-03
       197    5.544818E-08
       198   -2.474094E-02
       199   -2.063004E-07
       200    2.317512E-02
       201   -2.393566E-02
       202    7.605409E-04
       203   -3.721123E-08
       204   -1.052108E-02
       205    4.450760E-07
       206   -2.143050E-04
       207    1.029555E-08
       208   -2.238932E-04
       209    1.633979E-04
       210   -3.851228E-10
       211   -1.194484E-03
       212    1.241224E-04
       213   -1.342781E-08
       214    1.494868E-03
       215    8.257063E-09
       216   -3.378204E-04
       217   -7.447029E-04
       218   -5.088644E-04
       219    1.934115E-02
       220    3.149349E-02
       221   -2.751741E-02
       222    2.883122E-03
       223    1.007477E-03
       224    1.467228E-01
       225    1.860826E-02
       226    1.183971E-02
       227    1.492044E-01
       228    8.408704E-03
       229   -1.705515E-02
       230    9.470164E-02
       231   -2.672837E-04
       232    3.349862E-04
       233   -6.770242E-05
       234    2.595619E-06
       235    1.011416E-03
       236    2.986211E-03
       237   -1.422172E-03
       238    1.563967E-03
       239   -1.417945E-04
       240    3.153918E-03
       241    4.885579E-03
       242    4.708940E-03
       243   -1.160913E-02
       244    7.721509E-03
       245    3.887617E-03
       246   -2.474001E-02
       247   -6.175129E-03
       248   -1.190780E-02
       249    3.622804E-05
       250    1.622808E-05
       251   -8.312892E-04
       252    3.171229E-05
       253    3.399503E-05
       254    1.732150E-04
       255   -8.031730E-05
       256   -5.576729E-05
       257    9.420765E-04
       258    3.227571E-04
       259    6.321217E-04
       260    1.228062E-04
       261    2.970593E-02
       262    1.468325E-05
       263   -3.722483E-05
       264   -1.086370E-03
       265    8.664603E-03
       266    2.689812E-03
       267    5.035723E-03
       268    6.319650E-04
       269    1.225390E-04
       270    2.970702E-02
       271    1.469177E-05
       272    3.724916E-05
       273   -1.086357E-03
       274    8.664626E-03
       275   -2.689700E-03
       276    5.035809E-03
       277    9.922757E-04
       278    4.864641E-03
       279   -7.072702E-02
       280    3.236909E-05
       281   -2.145045E-04
       282    5.972611E-03
       283    1.460221E-03
       284    6.810116E-03
       285    9.283916E-04
       286    9.923437E-04
       287    4.864895E-03
       288   -7.072954E-02
       289    3.237431E-05
       290    2.145879E-04
       291    5.972829E-03
       292    1.460222E-03
       293   -6.810064E-03
       294    9.286239E-04
       295    7.873614E-05
       296    1.845567E-04
       297   -2.044155E-04
       298   -2.036075E-04
       299    2.044194E-02
       300    6.997222E-03
       301   -6.847803E-04
       302    2.244025E-07
       303   -7.245592E-03
       304    1.835421E-05
       305    1.670377E-07
       306   -9.639604E-03
       307    5.883896E-03
       308   -1.350678E-07
       309    2.259861E-03
       310   -1.487962E-05
       311    2.717659E-07
       312    1.460785E-05
       313    3.522460E-08
       314   -3.547138E-03
       315   -8.669990E-09
       316    5.663886E-05
       317   -1.379287E-04
       318    8.128982E-05
       319    8.722010E-08
       320   -1.056760E-02
       321   -2.694568E-08
       322   -1.887226E-04
       323   -4.813543E-03
       324    5.002266E-03
       325   -1.906272E-07
       326   -2.466985E-03
       327    7.875589E-08
       328   -1.129227E-05
       329   -1.868522E-11
       330   -1.253157E-06
       331    8.282165E-06
       332   -1.630181E-08
       333   -5.866055E-04
       334    6.868004E-06
       335    1.632688E-08
       336    5.882868E-04
       337    2.115616E-09
       338    2.491039E-05
       339    5.337219E-05
       340    1.400365E-05
       341   -1.008036E-03
       342    1.220996E-02
       343    2.467225E-03
       344    1.400418E-05
       345   -2.494408E-04
       346    6.096953E-02
       347    3.274086E-04
       348   -4.866392E-04
       349    5.652159E-02
       350    1.354427E-03
       351   -1.492955E-03
       352    4.353170E-02
       353    6.749791E-04
       354   -3.006383E-04
       355    4.803808E-03
       356   -5.579455E-06
       357    7.860417E-06
       358   -2.280962E-06
       359    1.289205E-06
       360    2.990815E-05
       361   -4.600611E-04
       362    1.017480E-05
       363    2.263906E-05
       364   -3.281386E-05
       365   -1.122683E-05
       366    5.429579E-04
       367   -1.459954E-03
       368    7.386712E-05
       369    8.570488E-05
       370   -1.595720E-04
       371    1.964405E-04
       372    7.198531E-04
       373   -3.413355E-04
       374   -8.160104E-07
       375   -3.860472E-06
       376   -5.814369E-05
       377    1.186595E-06
       378    2.030182E-06
       379   -7.689489E-05
       380   -9.180243E-08
       381    3.149185E-06
       382    1.549028E-04
       383   -1.196138E-04
       384    2.496190E-05
       385    5.349968E-05
       386    1.380796E-05
       387   -1.008315E-03
       388    1.220999E-02
       389    2.467753E-03
       390    1.099156E-05
       391    2.490060E-04
       392    6.097005E-02
       393    3.246630E-04
       394    4.862247E-04
       395    5.652206E-02
       396    1.352205E-03
       397    1.492837E-03
       398    4.353246E-02
       399    6.750912E-04
       400    3.002868E-04
       401    4.803897E-03
       402   -5.585774E-06
       403    7.844426E-06
       404   -2.258652E-06
       405   -1.306028E-06
       406    2.991014E-05
       407    4.600647E-04
       408    1.013485E-05
       409    2.259961E-05
       410   -3.273446E-05
       411    1.115204E-05
       412    5.429687E-04
       413    1.459976E-03
       414    7.381382E-05
       415    8.577923E-05
       416   -1.595931E-04
       417   -1.965556E-04
       418    7.198987E-04
       419    3.413649E-04
       420   -8.127100E-07
       421    3.855777E-06
       422   -5.814458E-05
       423    1.176841E-06
       424   -2.036605E-06
       425   -7.689520E-05
       426   -8.647586E-08
       427   -3.136463E-06
       428    1.549043E-04
       429    1.196153E-04
       430   -9.436320E-03
       431   -2.235262E-02
       432    3.440207E-02
       433    5.838892E-02
       434    7.740935E-04
       435    1.061942E-01
       436    3.356118E-02
       437   -3.016805E-07
       438   -2.882355E-01
       439    3.840731E-02
       440   -4.191623E-07
       441   -2.824588E-01
       442    5.088013E-02
       443   -7.791547E-07
       444   -2.250460E-01
       445    2.996476E-04
       446    1.292688E-04
       447   -4.289164E-04
       448   -1.503682E-08
       449   -8.032665E-04
       450    1.068132E-08
       451    5.050322E-04
       452    3.331985E-03
       453   -3.837017E-03
       454   -7.083307E-09
       455   -3.395071E-03
       456   -1.440821E-08
       457    3.885220E-03
       458    9.768769E-03
       459   -1.365399E-02
       460    1.062887E-07
       461   -2.166076E-03
       462   -1.309609E-07
       463    2.429413E-04
       464   -4.291137E-09
       465    1.093160E-03
       466    1.895713E-04
       467   -1.124947E-10
       468   -5.930180E-04
       469   -5.155113E-04
       470    5.869660E-09
       471   -8.736098E-04
       472   -1.169916E-09
       473   -1.622192E-02
       474   -3.389063E-02
       475   -7.204941E-02
       476    4.130304E-03
       477    3.466774E-03
       478   -1.419988E-02
       479    2.314171E-03
       480    7.964404E-03
       481   -1.550779E-02
       482   -1.622176E-02
       483   -3.389052E-02
       484   -7.204954E-02
       485    4.130311E-03
       486   -3.466837E-03
       487   -1.419993E-02
       488    2.314257E-03
       489   -7.964449E-03
       490   -1.550782E-02
 Sym= X
 Ene= 0.912154
 Spin= Alpha
 Occup= 0.912154
         1    1.123321E-03
         2    2.425732E-03
         3   -9.750911E-03
         4    2.970473E-02
         5    2.958117E+00
         6   -1.468228E+00
         7    2.059432E-02
         8    4.076569E-03
         9   -2.514894E-03
        10    1.167587E-01
        11    1.897558E-02
        12   -6.704587E-03
        13    6.110483E-01
        14    4.907459E-01
        15   -5.487058E-02
        16   -8.507157E-04
        17    3.516283E-05
        18    8.155529E-04
        19    1.574756E-03
        20    4.419932E-04
        21   -2.061580E-04
        22    1.862923E-02
        23   -1.728756E-02
        24   -1.341669E-03
        25   -3.101616E-04
        26   -1.007899E-03
        27   -1.672695E-04
        28    3.791305E-01
        29   -2.514467E-01
        30   -1.276838E-01
        31    7.226288E-01
        32    2.741417E-02
        33   -3.433128E-02
        34    3.281684E-04
        35    1.230482E-04
        36   -3.665999E-05
        37    2.684855E-04
        38    1.179331E-04
        39    2.119873E-05
        40   -7.087696E-04
        41   -2.830195E-04
        42    2.798580E-05
        43   -4.930279E-05
        44    5.486131E-03
        45    1.229586E-02
        46   -1.219736E-02
        47   -9.733271E-02
        48    1.717782E+00
        49    1.421062E+00
        50    4.084941E-03
        51   -2.256250E-07
        52   -4.329693E-03
        53    4.659214E-02
        54   -2.937106E-07
        55   -1.026489E-02
        56    3.147976E-01
        57   -2.673413E-05
        58    1.453345E-01
        59    2.021278E-03
        60   -2.591832E-03
        61    5.705537E-04
        62    1.372759E-08