[Molden Format]
[Title]
ADC(2) - opt by CAM-B3LYP gaussian                                              
[Atoms] AU
 c     1    6 -.12594776649128E+01 -.22773101438193E+01 -.39940542897370E-01
 c     2    6 -.25470425655544E+01 -.11810788300000E-05 -.37653974276580E-01
 c     3    6 -.12594776649128E+01 0.22773077816617E+01 -.39959440158700E-01
 c     4    6 0.13393870965995E+01 0.22758904870620E+01 -.43795584208460E-01
 c     5    6 0.26846831306008E+01 -.11810788300000E-05 -.44211323957690E-01
 c     6    6 0.13394059938609E+01 -.22758928492196E+01 -.43776686947130E-01
 h     7    1 -.23144739703802E+01 -.40231336316857E+01 -.37313823572660E-01
 h     8    1 -.23144739703802E+01 0.40231312695281E+01 -.37332720833990E-01
 h     9    1 0.23577983041343E+01 0.40499086888311E+01 -.52469427158400E-01
 h    10    1 0.23577983041343E+01 -.40498921537274E+01 -.52431632635740E-01
 n    11    7 -.52968964450843E+01 -.11810788300000E-05 -.29906097131750E-01
 o    12    8 -.63725096626615E+01 0.20302827815708E+01 -.26599076399200E-01
 o    13    8 -.63725096626615E+01 -.20302851437285E+01 -.26655768183180E-01
 n    14    7 0.52734000627795E+01 -.11810788300000E-05 -.11796733492422E+00
 h    15    1 0.61922038058499E+01 0.16034881344586E+01 0.31500671664254E+00
 h    16    1 0.61921849085885E+01 -.16034904966163E+01 0.31500671664254E+00
[GTO]
    1 0
 s    6 1.00
 0.13575349682000E+05 0.60645503603591E-03
 0.20352333680000E+04 0.46979088884982E-02
 0.46322562359000E+03 0.24332477647552E-01
 0.13120019598000E+03 0.97399968307759E-01
 0.42853015891000E+02 0.30195584253780E+00
 0.15584185766000E+02 0.66233609137875E+00
 s    2 1.00
 0.62067138508000E+01 0.65595308539952E+00
 0.25764896527000E+01 0.37585633285142E+00
 s    1 1.00
 0.57696339419000E+00 0.10000000000000E+01
 s    1 1.00
 0.22972831358000E+00 0.10000000000000E+01
 s    1 1.00
 0.95164440028000E-01 0.10000000000000E+01
 s    1 1.00
 0.48475401370000E-01 0.10000000000000E+01
 p    4 1.00
 0.34697232244000E+02 0.11327220003114E-01
 0.79582622826000E+01 0.76169659202087E-01
 0.23780826883000E+01 0.30192252202676E+00
 0.81433208183000E+00 0.72785027349547E+00
 p    1 1.00
 0.28887547253000E+00 0.10000000000000E+01
 p    1 1.00
 0.10056823671000E+00 0.10000000000000E+01
 d    1 1.00
 0.10970000000000E+01 0.10000000000000E+01
 d    1 1.00
 0.31800000000000E+00 0.10000000000000E+01
 d    1 1.00
 0.90985336424000E-01 0.10000000000000E+01
 f    1 1.00
 0.76100000000000E+00 0.10000000000000E+01
 
    2 0
 s    6 1.00
 0.13575349682000E+05 0.60645503603591E-03
 0.20352333680000E+04 0.46979088884982E-02
 0.46322562359000E+03 0.24332477647552E-01
 0.13120019598000E+03 0.97399968307759E-01
 0.42853015891000E+02 0.30195584253780E+00
 0.15584185766000E+02 0.66233609137875E+00
 s    2 1.00
 0.62067138508000E+01 0.65595308539952E+00
 0.25764896527000E+01 0.37585633285142E+00
 s    1 1.00
 0.57696339419000E+00 0.10000000000000E+01
 s    1 1.00
 0.22972831358000E+00 0.10000000000000E+01
 s    1 1.00
 0.95164440028000E-01 0.10000000000000E+01
 s    1 1.00
 0.48475401370000E-01 0.10000000000000E+01
 p    4 1.00
 0.34697232244000E+02 0.11327220003114E-01
 0.79582622826000E+01 0.76169659202087E-01
 0.23780826883000E+01 0.30192252202676E+00
 0.81433208183000E+00 0.72785027349547E+00
 p    1 1.00
 0.28887547253000E+00 0.10000000000000E+01
 p    1 1.00
 0.10056823671000E+00 0.10000000000000E+01
 d    1 1.00
 0.10970000000000E+01 0.10000000000000E+01
 d    1 1.00
 0.31800000000000E+00 0.10000000000000E+01
 d    1 1.00
 0.90985336424000E-01 0.10000000000000E+01
 f    1 1.00
 0.76100000000000E+00 0.10000000000000E+01
 
    3 0
 s    6 1.00
 0.13575349682000E+05 0.60645503603591E-03
 0.20352333680000E+04 0.46979088884982E-02
 0.46322562359000E+03 0.24332477647552E-01
 0.13120019598000E+03 0.97399968307759E-01
 0.42853015891000E+02 0.30195584253780E+00
 0.15584185766000E+02 0.66233609137875E+00
 s    2 1.00
 0.62067138508000E+01 0.65595308539952E+00
 0.25764896527000E+01 0.37585633285142E+00
 s    1 1.00
 0.57696339419000E+00 0.10000000000000E+01
 s    1 1.00
 0.22972831358000E+00 0.10000000000000E+01
 s    1 1.00
 0.95164440028000E-01 0.10000000000000E+01
 s    1 1.00
 0.48475401370000E-01 0.10000000000000E+01
 p    4 1.00
 0.34697232244000E+02 0.11327220003114E-01
 0.79582622826000E+01 0.76169659202087E-01
 0.23780826883000E+01 0.30192252202676E+00
 0.81433208183000E+00 0.72785027349547E+00
 p    1 1.00
 0.28887547253000E+00 0.10000000000000E+01
 p    1 1.00
 0.10056823671000E+00 0.10000000000000E+01
 d    1 1.00
 0.10970000000000E+01 0.10000000000000E+01
 d    1 1.00
 0.31800000000000E+00 0.10000000000000E+01
 d    1 1.00
 0.90985336424000E-01 0.10000000000000E+01
 f    1 1.00
 0.76100000000000E+00 0.10000000000000E+01
 
    4 0
 s    6 1.00
 0.13575349682000E+05 0.60645503603591E-03
 0.20352333680000E+04 0.46979088884982E-02
 0.46322562359000E+03 0.24332477647552E-01
 0.13120019598000E+03 0.97399968307759E-01
 0.42853015891000E+02 0.30195584253780E+00
 0.15584185766000E+02 0.66233609137875E+00
 s    2 1.00
 0.62067138508000E+01 0.65595308539952E+00
 0.25764896527000E+01 0.37585633285142E+00
 s    1 1.00
 0.57696339419000E+00 0.10000000000000E+01
 s    1 1.00
 0.22972831358000E+00 0.10000000000000E+01
 s    1 1.00
 0.95164440028000E-01 0.10000000000000E+01
 s    1 1.00
 0.48475401370000E-01 0.10000000000000E+01
 p    4 1.00
 0.34697232244000E+02 0.11327220003114E-01
 0.79582622826000E+01 0.76169659202087E-01
 0.23780826883000E+01 0.30192252202676E+00
 0.81433208183000E+00 0.72785027349547E+00
 p    1 1.00
 0.28887547253000E+00 0.10000000000000E+01
 p    1 1.00
 0.10056823671000E+00 0.10000000000000E+01
 d    1 1.00
 0.10970000000000E+01 0.10000000000000E+01
 d    1 1.00
 0.31800000000000E+00 0.10000000000000E+01
 d    1 1.00
 0.90985336424000E-01 0.10000000000000E+01
 f    1 1.00
 0.76100000000000E+00 0.10000000000000E+01
 
    5 0
 s    6 1.00
 0.13575349682000E+05 0.60645503603591E-03
 0.20352333680000E+04 0.46979088884982E-02
 0.46322562359000E+03 0.24332477647552E-01
 0.13120019598000E+03 0.97399968307759E-01
 0.42853015891000E+02 0.30195584253780E+00
 0.15584185766000E+02 0.66233609137875E+00
 s    2 1.00
 0.62067138508000E+01 0.65595308539952E+00
 0.25764896527000E+01 0.37585633285142E+00
 s    1 1.00
 0.57696339419000E+00 0.10000000000000E+01
 s    1 1.00
 0.22972831358000E+00 0.10000000000000E+01
 s    1 1.00
 0.95164440028000E-01 0.10000000000000E+01
 s    1 1.00
 0.48475401370000E-01 0.10000000000000E+01
 p    4 1.00
 0.34697232244000E+02 0.11327220003114E-01
 0.79582622826000E+01 0.76169659202087E-01
 0.23780826883000E+01 0.30192252202676E+00
 0.81433208183000E+00 0.72785027349547E+00
 p    1 1.00
 0.28887547253000E+00 0.10000000000000E+01
 p    1 1.00
 0.10056823671000E+00 0.10000000000000E+01
 d    1 1.00
 0.10970000000000E+01 0.10000000000000E+01
 d    1 1.00
 0.31800000000000E+00 0.10000000000000E+01
 d    1 1.00
 0.90985336424000E-01 0.10000000000000E+01
 f    1 1.00
 0.76100000000000E+00 0.10000000000000E+01
 
    6 0
 s    6 1.00
 0.13575349682000E+05 0.60645503603591E-03
 0.20352333680000E+04 0.46979088884982E-02
 0.46322562359000E+03 0.24332477647552E-01
 0.13120019598000E+03 0.97399968307759E-01
 0.42853015891000E+02 0.30195584253780E+00
 0.15584185766000E+02 0.66233609137875E+00
 s    2 1.00
 0.62067138508000E+01 0.65595308539952E+00
 0.25764896527000E+01 0.37585633285142E+00
 s    1 1.00
 0.57696339419000E+00 0.10000000000000E+01
 s    1 1.00
 0.22972831358000E+00 0.10000000000000E+01
 s    1 1.00
 0.95164440028000E-01 0.10000000000000E+01
 s    1 1.00
 0.48475401370000E-01 0.10000000000000E+01
 p    4 1.00
 0.34697232244000E+02 0.11327220003114E-01
 0.79582622826000E+01 0.76169659202087E-01
 0.23780826883000E+01 0.30192252202676E+00
 0.81433208183000E+00 0.72785027349547E+00
 p    1 1.00
 0.28887547253000E+00 0.10000000000000E+01
 p    1 1.00
 0.10056823671000E+00 0.10000000000000E+01
 d    1 1.00
 0.10970000000000E+01 0.10000000000000E+01
 d    1 1.00
 0.31800000000000E+00 0.10000000000000E+01
 d    1 1.00
 0.90985336424000E-01 0.10000000000000E+01
 f    1 1.00
 0.76100000000000E+00 0.10000000000000E+01
 
    7 0
 s    3 1.00
 0.34061341000000E+02 0.25439307208879E-01
 0.51235746000000E+01 0.19008594890375E+00
 0.11646626000000E+01 0.85244113011042E+00
 s    1 1.00
 0.32723041000000E+00 0.10000000000000E+01
 s    1 1.00
 0.10307241000000E+00 0.10000000000000E+01
 p    1 1.00
 0.80000000000000E+00 0.10000000000000E+01
 p    1 1.00
 0.95774129632000E-01 0.10000000000000E+01
 
    8 0
 s    3 1.00
 0.34061341000000E+02 0.25439307208879E-01
 0.51235746000000E+01 0.19008594890375E+00
 0.11646626000000E+01 0.85244113011042E+00
 s    1 1.00
 0.32723041000000E+00 0.10000000000000E+01
 s    1 1.00
 0.10307241000000E+00 0.10000000000000E+01
 p    1 1.00
 0.80000000000000E+00 0.10000000000000E+01
 p    1 1.00
 0.95774129632000E-01 0.10000000000000E+01
 
    9 0
 s    3 1.00
 0.34061341000000E+02 0.25439307208879E-01
 0.51235746000000E+01 0.19008594890375E+00
 0.11646626000000E+01 0.85244113011042E+00
 s    1 1.00
 0.32723041000000E+00 0.10000000000000E+01
 s    1 1.00
 0.10307241000000E+00 0.10000000000000E+01
 p    1 1.00
 0.80000000000000E+00 0.10000000000000E+01
 p    1 1.00
 0.95774129632000E-01 0.10000000000000E+01
 
   10 0
 s    3 1.00
 0.34061341000000E+02 0.25439307208879E-01
 0.51235746000000E+01 0.19008594890375E+00
 0.11646626000000E+01 0.85244113011042E+00
 s    1 1.00
 0.32723041000000E+00 0.10000000000000E+01
 s    1 1.00
 0.10307241000000E+00 0.10000000000000E+01
 p    1 1.00
 0.80000000000000E+00 0.10000000000000E+01
 p    1 1.00
 0.95774129632000E-01 0.10000000000000E+01
 
   11 0
 s    6 1.00
 0.19730800647000E+05 0.58626402628763E-03
 0.29578958745000E+04 0.45428820586397E-02
 0.67322133595000E+03 0.23558413450084E-01
 0.19068249494000E+03 0.94709193292923E-01
 0.62295441898000E+02 0.29719784913376E+00
 0.22654161182000E+02 0.66916246895232E+00
 s    2 1.00
 0.89791477428000E+01 0.64596683630063E+00
 0.36863002370000E+01 0.38700574393705E+00
 s    1 1.00
 0.84660076805000E+00 0.10000000000000E+01
 s    1 1.00
 0.33647133771000E+00 0.10000000000000E+01
 s    1 1.00
 0.13647653675000E+00 0.10000000000000E+01
 s    1 1.00
 0.68441605847000E-01 0.10000000000000E+01
 p    4 1.00
 0.49200380510000E+02 0.11448825101764E-01
 0.11346790537000E+02 0.78422337970864E-01
 0.34273972411000E+01 0.30818094738830E+00
 0.11785525134000E+01 0.72027196368413E+00
 p    1 1.00
 0.41642204972000E+00 0.10000000000000E+01
 p    1 1.00
 0.14260826011000E+00 0.10000000000000E+01
 d    1 1.00
 0.16540000000000E+01 0.10000000000000E+01
 d    1 1.00
 0.46900000000000E+00 0.10000000000000E+01
 d    1 1.00
 0.12829642058000E+00 0.10000000000000E+01
 f    1 1.00
 0.10930000000000E+01 0.10000000000000E+01
 
   12 0
 s    6 1.00
 0.27032382631000E+05 0.57227335211155E-03
 0.40523871392000E+04 0.44353233492995E-02
 0.92232722710000E+03 0.23020107706038E-01
 0.26124070989000E+03 0.92822490667928E-01
 0.85354641351000E+02 0.29378500009671E+00
 0.31035035245000E+02 0.67401604501641E+00
 s    2 1.00
 0.12260860728000E+02 0.63839937025506E+00
 0.49987076005000E+01 0.39534587125718E+00
 s    1 1.00
 0.11703108158000E+01 0.10000000000000E+01
 s    1 1.00
 0.46474740994000E+00 0.10000000000000E+01
 s    1 1.00
 0.18504536357000E+00 0.10000000000000E+01
 s    1 1.00
 0.70288026270000E-01 0.10000000000000E+01
 p    4 1.00
 0.63274954801000E+02 0.12018332222616E-01
 0.14627049379000E+02 0.83005421790056E-01
 0.44501223456000E+01 0.31991743925964E+00
 0.15275799647000E+01 0.70715542916104E+00
 p    1 1.00
 0.52935117943000E+00 0.10000000000000E+01
 p    1 1.00
 0.17478421270000E+00 0.10000000000000E+01
 p    1 1.00
 0.51112745706000E-01 0.10000000000000E+01
 d    1 1.00
 0.23140000000000E+01 0.10000000000000E+01
 d    1 1.00
 0.64500000000000E+00 0.10000000000000E+01
 d    1 1.00
 0.14696477366000E+00 0.10000000000000E+01
 f    1 1.00
 0.14280000000000E+01 0.10000000000000E+01
 
   13 0
 s    6 1.00
 0.27032382631000E+05 0.57227335211155E-03
 0.40523871392000E+04 0.44353233492995E-02
 0.92232722710000E+03 0.23020107706038E-01
 0.26124070989000E+03 0.92822490667928E-01
 0.85354641351000E+02 0.29378500009671E+00
 0.31035035245000E+02 0.67401604501641E+00
 s    2 1.00
 0.12260860728000E+02 0.63839937025506E+00
 0.49987076005000E+01 0.39534587125718E+00
 s    1 1.00
 0.11703108158000E+01 0.10000000000000E+01
 s    1 1.00
 0.46474740994000E+00 0.10000000000000E+01
 s    1 1.00
 0.18504536357000E+00 0.10000000000000E+01
 s    1 1.00
 0.70288026270000E-01 0.10000000000000E+01
 p    4 1.00
 0.63274954801000E+02 0.12018332222616E-01
 0.14627049379000E+02 0.83005421790056E-01
 0.44501223456000E+01 0.31991743925964E+00
 0.15275799647000E+01 0.70715542916104E+00
 p    1 1.00
 0.52935117943000E+00 0.10000000000000E+01
 p    1 1.00
 0.17478421270000E+00 0.10000000000000E+01
 p    1 1.00
 0.51112745706000E-01 0.10000000000000E+01
 d    1 1.00
 0.23140000000000E+01 0.10000000000000E+01
 d    1 1.00
 0.64500000000000E+00 0.10000000000000E+01
 d    1 1.00
 0.14696477366000E+00 0.10000000000000E+01
 f    1 1.00
 0.14280000000000E+01 0.10000000000000E+01
 
   14 0
 s    6 1.00
 0.19730800647000E+05 0.58626402628763E-03
 0.29578958745000E+04 0.45428820586397E-02
 0.67322133595000E+03 0.23558413450084E-01
 0.19068249494000E+03 0.94709193292923E-01
 0.62295441898000E+02 0.29719784913376E+00
 0.22654161182000E+02 0.66916246895232E+00
 s    2 1.00
 0.89791477428000E+01 0.64596683630063E+00
 0.36863002370000E+01 0.38700574393705E+00
 s    1 1.00
 0.84660076805000E+00 0.10000000000000E+01
 s    1 1.00
 0.33647133771000E+00 0.10000000000000E+01
 s    1 1.00
 0.13647653675000E+00 0.10000000000000E+01
 s    1 1.00
 0.68441605847000E-01 0.10000000000000E+01
 p    4 1.00
 0.49200380510000E+02 0.11448825101764E-01
 0.11346790537000E+02 0.78422337970864E-01
 0.34273972411000E+01 0.30818094738830E+00
 0.11785525134000E+01 0.72027196368413E+00
 p    1 1.00
 0.41642204972000E+00 0.10000000000000E+01
 p    1 1.00
 0.14260826011000E+00 0.10000000000000E+01
 d    1 1.00
 0.16540000000000E+01 0.10000000000000E+01
 d    1 1.00
 0.46900000000000E+00 0.10000000000000E+01
 d    1 1.00
 0.12829642058000E+00 0.10000000000000E+01
 f    1 1.00
 0.10930000000000E+01 0.10000000000000E+01
 
   15 0
 s    3 1.00
 0.34061341000000E+02 0.25439307208879E-01
 0.51235746000000E+01 0.19008594890375E+00
 0.11646626000000E+01 0.85244113011042E+00
 s    1 1.00
 0.32723041000000E+00 0.10000000000000E+01
 s    1 1.00
 0.10307241000000E+00 0.10000000000000E+01
 p    1 1.00
 0.80000000000000E+00 0.10000000000000E+01
 p    1 1.00
 0.95774129632000E-01 0.10000000000000E+01
 
   16 0
 s    3 1.00
 0.34061341000000E+02 0.25439307208879E-01
 0.51235746000000E+01 0.19008594890375E+00
 0.11646626000000E+01 0.85244113011042E+00
 s    1 1.00
 0.32723041000000E+00 0.10000000000000E+01
 s    1 1.00
 0.10307241000000E+00 0.10000000000000E+01
 p    1 1.00
 0.80000000000000E+00 0.10000000000000E+01
 p    1 1.00
 0.95774129632000E-01 0.10000000000000E+01
 
[MO]
 Sym= X
 Ene= -0.899442
 Spin= Alpha
 Occup= -0.899442
         1    1.624414E-05
         2    3.586056E-05
         3    2.710819E-05
         4   -6.477767E-04
         5   -2.975484E-03
         6   -9.728744E-04
         7    4.680858E-04
         8   -2.032230E-04
         9   -1.867157E-01
        10   -7.856762E-04
        11    3.237123E-04
        12   -1.877154E-01
        13    5.179676E-03
        14   -3.608646E-03
        15   -1.101832E-01
        16    6.976090E-06
        17   -1.536243E-05
        18    8.386345E-06
        19    1.701541E-05
        20   -4.924721E-03
        21   -5.555737E-04
        22   -1.726235E-04
        23    1.365568E-04
        24    3.606672E-05
        25   -7.389097E-06
        26   -9.822532E-03
        27    5.143657E-04
        28    5.561248E-04
        29   -4.833093E-04
        30   -7.281543E-05
        31    2.266735E-04
        32   -6.030200E-03
        33    2.978923E-03
        34   -8.841651E-06
        35   -2.328261E-06
        36    1.175703E-03
        37    3.496203E-06
        38    4.027817E-06
        39   -1.418019E-03
        40    8.366116E-06
        41   -9.041271E-07
        42   -1.593529E-04
        43   -1.043470E-05
        44   -1.274982E-07
        45   -2.894702E-07
        46    4.549917E-07
        47    6.260885E-07
        48    8.495964E-06
        49    1.172015E-06
        50   -7.966414E-07
        51    6.724886E-04
        52   -3.222048E-06
        53   -8.212828E-07
        54    1.371650E-03
        55   -3.398763E-06
        56   -1.739238E-06
        57   -7.873665E-03
        58   -2.273432E-06
        59    4.412964E-08
        60    1.736602E-08
        61   -6.149566E-08
        62    3.818209E-05
        63   -7.653393E-09
        64    7.042596E-03
        65    1.927128E-07
        66   -9.149884E-08
        67   -1.012140E-07
        68    2.221303E-04
        69    3.768429E-09
        70    1.621559E-02
        71   -1.220576E-06
        72    1.204993E-06
        73    1.558271E-08
        74   -8.341860E-04
        75   -1.623875E-07
        76    5.252355E-03
        77   -8.140636E-09
        78    9.566476E-06
        79    1.954576E-08
        80    1.327802E-08
        81   -4.674937E-06
        82   -1.090937E-08
        83   -2.356211E-09
        84   -8.159838E-06
        85   -1.531402E-08
        86    1.042272E-03
        87   -1.613013E-05
        88   -3.560153E-05
        89   -2.747673E-05
        90    6.474237E-04
        91    2.978548E-03
        92    9.686288E-04
        93   -4.672082E-04
        94   -2.018531E-04
        95    1.867149E-01
        96    7.860806E-04
        97    3.248147E-04
        98    1.877143E-01
        99   -5.171266E-03
       100   -3.607469E-03
       101    1.101835E-01
       102   -6.942038E-06
       103    1.533425E-05
       104   -8.392212E-06
       105    1.706670E-05
       106    4.924953E-03
       107   -5.554389E-04
       108    1.727200E-04
       109   -1.366535E-04
       110   -3.606655E-05
       111   -7.069674E-06
       112    9.822819E-03
       113    5.146123E-04
       114   -5.563804E-04
       115    4.837875E-04
       116    7.259293E-05
       117    2.248190E-04
       118    6.030447E-03
       119    2.978889E-03
       120    8.840821E-06
       121   -2.325028E-06
       122   -1.175695E-03
       123   -3.492462E-06
       124    4.030728E-06
       125    1.418032E-03
       126   -8.368745E-06
       127   -9.113761E-07
       128    1.593286E-04
       129   -1.045170E-05
       130   -4.484788E-05
       131   -1.021810E-04
       132    3.460359E-04
       133   -1.910709E-03
       134   -1.474095E-02
       135   -2.091396E-04
       136    9.293810E-04
       137    5.463359E-04
       138    2.016514E-01
       139    1.402779E-03
       140    8.979883E-04
       141    2.046562E-01
       142   -1.096563E-02
       143    9.439339E-03
       144    1.330432E-01
       145   -4.138113E-05
       146    5.592195E-06
       147    3.578894E-05
       148    1.816722E-05
       149   -4.507292E-03
       150   -4.750426E-04
       151   -3.545363E-04
       152    1.049455E-04
       153    2.495908E-04
       154    1.784203E-04
       155   -7.806987E-03
       156   -2.438364E-04
       157   -6.507782E-04
       158    1.464505E-04
       159    5.043277E-04
       160    2.138849E-03
       161    7.150811E-03
       162   -3.927334E-03
       163    1.193603E-05
       164    2.977338E-06
       165   -1.330252E-03
       166   -6.823626E-06
       167    4.548514E-06
       168    1.459770E-03
       169   -9.190236E-06
       170   -8.543033E-06
       171    3.249513E-04
       172   -4.586682E-05
       173    2.058905E-08
       174    4.613961E-08
       175   -4.942294E-08
       176   -1.685758E-07
       177   -3.318733E-06
       178   -1.390984E-06
       179    2.982235E-07
       180   -2.788211E-04
       181   -7.254294E-07
       182    2.123295E-07
       183    6.155983E-05
       184   -6.503321E-07
       185   -1.857300E-06
       186    2.920302E-02
       187   -9.545758E-07
       188    1.647831E-08
       189    4.048202E-08
       190   -5.696034E-08
       191   -2.694930E-05
       192    5.154774E-08
       193    7.693049E-03
       194   -7.127228E-08
       195    1.991095E-07
       196   -1.278373E-07
       197   -1.348585E-04
       198    1.009577E-07
       199    1.628456E-02
       200    4.822754E-07
       201   -4.776074E-07
       202   -4.667949E-09
       203    8.181258E-04
       204    1.431908E-07
       205   -1.226493E-02
       206    8.234181E-10
       207    1.304706E-05
       208   -1.479739E-09
       209   -7.796806E-09
       210   -1.679090E-05
       211    1.573673E-08
       212    6.692075E-09
       213   -7.135733E-07
       214   -1.375145E-08
       215   -1.190399E-03
       216    4.475570E-05
       217    1.019719E-04
       218   -3.457487E-04
       219    1.911184E-03
       220    1.473108E-02
       221    2.131157E-04
       222   -9.299122E-04
       223    5.443632E-04
       224   -2.016502E-01
       225   -1.403340E-03
       226    8.960014E-04
       227   -2.046555E-01
       228    1.097017E-02
       229    9.437903E-03
       230   -1.330432E-01
       231    4.140712E-05
       232   -5.623006E-06
       233   -3.578411E-05
       234    1.819966E-05
       235    4.507141E-03
       236   -4.750712E-04
       237    3.545174E-04
       238   -1.048906E-04
       239   -2.496268E-04
       240    1.783093E-04
       241    7.806921E-03
       242   -2.438916E-04
       243    6.507797E-04
       244   -1.467852E-04
       245   -5.039945E-04
       246    2.140281E-03
       247   -7.150664E-03
       248   -3.927208E-03
       249   -1.194015E-05
       250    2.969438E-06
       251    1.330255E-03
       252    6.825759E-06
       253    4.535058E-06
       254   -1.459754E-03
       255    9.193636E-06
       256   -8.518977E-06
       257   -3.249701E-04
       258   -4.586368E-05
       259   -7.341477E-05
       260   -8.409606E-05
       261   -8.146771E-04
       262   -3.045339E-05
       263   -1.585185E-05
       264   -7.670651E-03
       265   -5.129170E-04
       266   -1.264560E-05
       267   -6.467770E-03
       268    7.344397E-05
       269    8.452546E-05
       270    8.097923E-04
       271    3.053136E-05
       272   -1.585497E-05
       273    7.670610E-03
       274    5.126171E-04
       275   -1.209390E-05
       276    6.467842E-03
       277    1.947157E-04
       278    1.051246E-04
       279   -3.526027E-03
       280    4.531750E-05
       281    1.647139E-05
       282    8.858150E-03
       283    4.005592E-04
       284   -1.128539E-04
       285    1.020222E-02
       286   -1.947972E-04
       287   -1.055748E-04
       288    3.531422E-03
       289   -4.530519E-05
       290    1.634280E-05
       291   -8.858233E-03
       292   -4.008568E-04
       293   -1.122201E-04
       294   -1.020221E-02
       295   -4.544386E-08
       296   -1.077547E-07
       297    1.323909E-07
       298    4.072536E-07
       299    1.149678E-06
       300    1.505962E-06
       301    7.285984E-07
       302    2.830269E-04
       303    5.081960E-08
       304    5.216902E-07
       305    2.512895E-04
       306    3.511617E-08
       307   -4.831103E-07
       308    8.916637E-04
       309   -8.060776E-08
       310    8.053414E-08
       311   -4.639082E-08
       312   -3.414332E-08
       313   -1.120408E-04
       314   -6.630457E-08
       315   -1.415736E-03
       316    1.922943E-07
       317   -6.797338E-08
       318   -1.243210E-07
       319   -2.826716E-04
       320   -1.906830E-07
       321   -3.829444E-03
       322   -2.638112E-09
       323    3.215484E-08
       324   -2.951673E-08
       325    2.131328E-04
       326   -9.704293E-08
       327   -2.154184E-03
       328    1.218204E-09
       329   -2.768733E-05
       330   -8.672217E-10
       331   -7.264000E-09
       332    4.036476E-05
       333   -9.556518E-09
       334    5.629607E-09
       335   -3.218311E-06
       336    1.072002E-08
       337    3.913934E-04
       338   -1.518844E-05
       339   -3.870116E-05
       340    5.421165E-05
       341    5.087971E-05
       342   -2.337621E-04
       343   -1.544300E-04
       344   -3.301437E-03
       345   -2.515093E-03
       346   -4.367175E-02
       347   -2.991065E-03
       348   -2.208992E-03
       349   -4.054048E-02
       350   -2.383416E-03
       351   -1.488563E-03
       352   -2.901318E-02
       353   -3.780473E-04
       354   -1.867970E-04
       355   -2.418745E-03
       356   -2.594478E-05
       357    3.124169E-05
       358   -5.296916E-06
       359    3.471636E-06
       360   -1.634319E-04
       361    3.563483E-04
       362   -8.470231E-05
       363    8.415596E-05
       364    5.463513E-07
       365    2.690783E-05
       366   -5.808048E-04
       367    1.348751E-03
       368   -1.412079E-04
       369    1.197008E-04
       370    2.150705E-05
       371    4.943128E-05
       372   -3.954549E-04
       373    2.952232E-04
       374   -1.766654E-06
       375   -9.244046E-06
       376    4.849109E-05
       377    3.627242E-06
       378    1.154088E-05
       379    3.542613E-05
       380   -1.257026E-06
       381    8.613105E-07
       382   -1.004838E-04
       383    1.153152E-04
       384    1.525059E-05
       385    3.885362E-05
       386   -5.440368E-05
       387   -5.123260E-05
       388    2.330091E-04
       389    1.535359E-04
       390    3.297511E-03
       391   -2.515375E-03
       392    4.367396E-02
       393    2.987475E-03
       394   -2.209314E-03
       395    4.054252E-02
       396    2.381195E-03
       397   -1.489153E-03
       398    2.901468E-02
       399    3.777672E-04
       400   -1.870971E-04
       401    2.418870E-03
       402    2.593435E-05
       403   -3.125331E-05
       404    5.318959E-06
       405    3.435547E-06
       406    1.634360E-04
       407    3.563677E-04
       408    8.466355E-05
       409   -8.420647E-05
       410   -4.570767E-07
       411    2.679205E-05
       412    5.808354E-04
       413    1.348813E-03
       414    1.412722E-04
       415   -1.198101E-04
       416   -2.146205E-05
       417    4.941845E-05
       418    3.955119E-04
       419    2.952195E-04
       420    1.771689E-06
       421   -9.242431E-06
       422   -4.849397E-05
       423   -3.641461E-06
       424    1.152812E-05
       425   -3.542835E-05
       426    1.264490E-06
       427    8.719052E-07
       428    1.004898E-04
       429    1.153203E-04
       430    6.403929E-08
       431    1.515440E-07
       432   -2.432673E-07
       433   -3.086425E-07
       434   -1.502626E-07
       435   -6.712124E-07
       436   -3.905638E-07
       437   -2.261943E-03
       438    2.034389E-06
       439   -4.507754E-07
       440   -2.211642E-03
       441    2.015849E-06
       442   -5.319709E-07
       443   -2.184797E-03
       444    1.582704E-06
       445    1.764178E-10
       446   -1.932515E-10
       447    1.683361E-11
       448    8.724491E-06
       449    4.561618E-09
       450    2.985607E-04
       451    4.491713E-09
       452   -2.486991E-08
       453    2.037819E-08
       454    5.028618E-05
       455    1.715605E-08
       456    6.246255E-04
       457   -5.276324E-09
       458   -7.102701E-08
       459    7.630333E-08
       460    8.941814E-04
       461    1.489259E-08
       462    4.415431E-04
       463   -2.305530E-09
       464   -7.532029E-06
       465   -7.194171E-09
       466   -2.260267E-09
       467   -1.994840E-05
       468    3.517538E-09
       469    5.353460E-09
       470    3.005368E-05
       471    6.134455E-09
       472   -1.294439E-04
       473   -1.750315E-04
       474   -5.206471E-04
       475   -4.338723E-03
       476   -5.241490E-05
       477    3.946287E-05
       478    3.905247E-04
       479    6.630832E-04
       480    6.256264E-04
       481    1.761489E-03
       482    1.752042E-04
       483    5.210372E-04
       484    4.339580E-03
       485    5.235021E-05
       486    3.949675E-05
       487   -3.903322E-04
       488   -6.631259E-04
       489    6.256384E-04
       490   -1.761289E-03
 Sym= X
 Ene= 0.899442
 Spin= Alpha
 Occup= 0.899442
         1    8.334575E-03
         2    1.863558E-02
         3   -2.582464E-02
         4   -1.443520E-01
         5    1.353691E+00
         6   -2.168612E-01
         7    2.568167E-02
         8    1.585432E-02
         9   -1.398249E-03
        10    1.175737E-01
        11    2.838634E-02
        12   -4.935080E-03
        13    8.075238E-01
        14    4.604156E-01
        15   -3.115836E-02
        16   -2.137536E-03
        17    6.072830E-04
        18    1.530253E-03
        19    2.339059E-03
        20    3.567723E-04
        21   -2.182417E-04
        22    1.196744E-02
        23   -1.562684E-02
        24    3.659405E-03
        25    3.010132E-03
        26   -7.820020E-04
        27   -1.955204E-04
        28    5.687118E-01
        29   -3.425435E-01
        30   -2.261683E-01
        31    5.048530E-01
        32    2.173072E-02
        33   -2.018817E-02
        34    6.997471E-05
        35    1.353425E-04
        36   -2.065014E-05
        37    6.627168E-04
        38    1.296524E-04
        39    8.962040E-06
        40   -7.565978E-04
        41   -3.112334E-04
        42    1.874303E-05
        43   -3.481217E-05
        44    7.300602E-03
        45    1.612294E-02
        46   -1.328903E-02
        47   -1.909581E-01
        48    1.001826E+00
        49    6.751906E-01
        50    1.378756E-02
        51   -5.147161E-07
        52   -5.559963E-03
        53    7.775070E-02
        54   -5.774524E-07
        55   -1.042410E-02
        56    1.415425E+00
        57   -4.880521E-05
        58    8.630288E-02
        59    2.738585E-03
        60   -4.406021E-03
        61    1.667435E-03
        62    2.715052E-08