[Molden Format]
[Title]
ADC(2) - opt by CAM-B3LYP gaussian                                              
[Atoms] AU
 c     1    6 -.12594776649128E+01 -.22773101438193E+01 -.39940542897370E-01
 c     2    6 -.25470425655544E+01 -.11810788300000E-05 -.37653974276580E-01
 c     3    6 -.12594776649128E+01 0.22773077816617E+01 -.39959440158700E-01
 c     4    6 0.13393870965995E+01 0.22758904870620E+01 -.43795584208460E-01
 c     5    6 0.26846831306008E+01 -.11810788300000E-05 -.44211323957690E-01
 c     6    6 0.13394059938609E+01 -.22758928492196E+01 -.43776686947130E-01
 h     7    1 -.23144739703802E+01 -.40231336316857E+01 -.37313823572660E-01
 h     8    1 -.23144739703802E+01 0.40231312695281E+01 -.37332720833990E-01
 h     9    1 0.23577983041343E+01 0.40499086888311E+01 -.52469427158400E-01
 h    10    1 0.23577983041343E+01 -.40498921537274E+01 -.52431632635740E-01
 n    11    7 -.52968964450843E+01 -.11810788300000E-05 -.29906097131750E-01
 o    12    8 -.63725096626615E+01 0.20302827815708E+01 -.26599076399200E-01
 o    13    8 -.63725096626615E+01 -.20302851437285E+01 -.26655768183180E-01
 n    14    7 0.52734000627795E+01 -.11810788300000E-05 -.11796733492422E+00
 h    15    1 0.61922038058499E+01 0.16034881344586E+01 0.31500671664254E+00
 h    16    1 0.61921849085885E+01 -.16034904966163E+01 0.31500671664254E+00
[GTO]
    1 0
 s    6 1.00
 0.13575349682000E+05 0.60645503603591E-03
 0.20352333680000E+04 0.46979088884982E-02
 0.46322562359000E+03 0.24332477647552E-01
 0.13120019598000E+03 0.97399968307759E-01
 0.42853015891000E+02 0.30195584253780E+00
 0.15584185766000E+02 0.66233609137875E+00
 s    2 1.00
 0.62067138508000E+01 0.65595308539952E+00
 0.25764896527000E+01 0.37585633285142E+00
 s    1 1.00
 0.57696339419000E+00 0.10000000000000E+01
 s    1 1.00
 0.22972831358000E+00 0.10000000000000E+01
 s    1 1.00
 0.95164440028000E-01 0.10000000000000E+01
 s    1 1.00
 0.48475401370000E-01 0.10000000000000E+01
 p    4 1.00
 0.34697232244000E+02 0.11327220003114E-01
 0.79582622826000E+01 0.76169659202087E-01
 0.23780826883000E+01 0.30192252202676E+00
 0.81433208183000E+00 0.72785027349547E+00
 p    1 1.00
 0.28887547253000E+00 0.10000000000000E+01
 p    1 1.00
 0.10056823671000E+00 0.10000000000000E+01
 d    1 1.00
 0.10970000000000E+01 0.10000000000000E+01
 d    1 1.00
 0.31800000000000E+00 0.10000000000000E+01
 d    1 1.00
 0.90985336424000E-01 0.10000000000000E+01
 f    1 1.00
 0.76100000000000E+00 0.10000000000000E+01
 
    2 0
 s    6 1.00
 0.13575349682000E+05 0.60645503603591E-03
 0.20352333680000E+04 0.46979088884982E-02
 0.46322562359000E+03 0.24332477647552E-01
 0.13120019598000E+03 0.97399968307759E-01
 0.42853015891000E+02 0.30195584253780E+00
 0.15584185766000E+02 0.66233609137875E+00
 s    2 1.00
 0.62067138508000E+01 0.65595308539952E+00
 0.25764896527000E+01 0.37585633285142E+00
 s    1 1.00
 0.57696339419000E+00 0.10000000000000E+01
 s    1 1.00
 0.22972831358000E+00 0.10000000000000E+01
 s    1 1.00
 0.95164440028000E-01 0.10000000000000E+01
 s    1 1.00
 0.48475401370000E-01 0.10000000000000E+01
 p    4 1.00
 0.34697232244000E+02 0.11327220003114E-01
 0.79582622826000E+01 0.76169659202087E-01
 0.23780826883000E+01 0.30192252202676E+00
 0.81433208183000E+00 0.72785027349547E+00
 p    1 1.00
 0.28887547253000E+00 0.10000000000000E+01
 p    1 1.00
 0.10056823671000E+00 0.10000000000000E+01
 d    1 1.00
 0.10970000000000E+01 0.10000000000000E+01
 d    1 1.00
 0.31800000000000E+00 0.10000000000000E+01
 d    1 1.00
 0.90985336424000E-01 0.10000000000000E+01
 f    1 1.00
 0.76100000000000E+00 0.10000000000000E+01
 
    3 0
 s    6 1.00
 0.13575349682000E+05 0.60645503603591E-03
 0.20352333680000E+04 0.46979088884982E-02
 0.46322562359000E+03 0.24332477647552E-01
 0.13120019598000E+03 0.97399968307759E-01
 0.42853015891000E+02 0.30195584253780E+00
 0.15584185766000E+02 0.66233609137875E+00
 s    2 1.00
 0.62067138508000E+01 0.65595308539952E+00
 0.25764896527000E+01 0.37585633285142E+00
 s    1 1.00
 0.57696339419000E+00 0.10000000000000E+01
 s    1 1.00
 0.22972831358000E+00 0.10000000000000E+01
 s    1 1.00
 0.95164440028000E-01 0.10000000000000E+01
 s    1 1.00
 0.48475401370000E-01 0.10000000000000E+01
 p    4 1.00
 0.34697232244000E+02 0.11327220003114E-01
 0.79582622826000E+01 0.76169659202087E-01
 0.23780826883000E+01 0.30192252202676E+00
 0.81433208183000E+00 0.72785027349547E+00
 p    1 1.00
 0.28887547253000E+00 0.10000000000000E+01
 p    1 1.00
 0.10056823671000E+00 0.10000000000000E+01
 d    1 1.00
 0.10970000000000E+01 0.10000000000000E+01
 d    1 1.00
 0.31800000000000E+00 0.10000000000000E+01
 d    1 1.00
 0.90985336424000E-01 0.10000000000000E+01
 f    1 1.00
 0.76100000000000E+00 0.10000000000000E+01
 
    4 0
 s    6 1.00
 0.13575349682000E+05 0.60645503603591E-03
 0.20352333680000E+04 0.46979088884982E-02
 0.46322562359000E+03 0.24332477647552E-01
 0.13120019598000E+03 0.97399968307759E-01
 0.42853015891000E+02 0.30195584253780E+00
 0.15584185766000E+02 0.66233609137875E+00
 s    2 1.00
 0.62067138508000E+01 0.65595308539952E+00
 0.25764896527000E+01 0.37585633285142E+00
 s    1 1.00
 0.57696339419000E+00 0.10000000000000E+01
 s    1 1.00
 0.22972831358000E+00 0.10000000000000E+01
 s    1 1.00
 0.95164440028000E-01 0.10000000000000E+01
 s    1 1.00
 0.48475401370000E-01 0.10000000000000E+01
 p    4 1.00
 0.34697232244000E+02 0.11327220003114E-01
 0.79582622826000E+01 0.76169659202087E-01
 0.23780826883000E+01 0.30192252202676E+00
 0.81433208183000E+00 0.72785027349547E+00
 p    1 1.00
 0.28887547253000E+00 0.10000000000000E+01
 p    1 1.00
 0.10056823671000E+00 0.10000000000000E+01
 d    1 1.00
 0.10970000000000E+01 0.10000000000000E+01
 d    1 1.00
 0.31800000000000E+00 0.10000000000000E+01
 d    1 1.00
 0.90985336424000E-01 0.10000000000000E+01
 f    1 1.00
 0.76100000000000E+00 0.10000000000000E+01
 
    5 0
 s    6 1.00
 0.13575349682000E+05 0.60645503603591E-03
 0.20352333680000E+04 0.46979088884982E-02
 0.46322562359000E+03 0.24332477647552E-01
 0.13120019598000E+03 0.97399968307759E-01
 0.42853015891000E+02 0.30195584253780E+00
 0.15584185766000E+02 0.66233609137875E+00
 s    2 1.00
 0.62067138508000E+01 0.65595308539952E+00
 0.25764896527000E+01 0.37585633285142E+00
 s    1 1.00
 0.57696339419000E+00 0.10000000000000E+01
 s    1 1.00
 0.22972831358000E+00 0.10000000000000E+01
 s    1 1.00
 0.95164440028000E-01 0.10000000000000E+01
 s    1 1.00
 0.48475401370000E-01 0.10000000000000E+01
 p    4 1.00
 0.34697232244000E+02 0.11327220003114E-01
 0.79582622826000E+01 0.76169659202087E-01
 0.23780826883000E+01 0.30192252202676E+00
 0.81433208183000E+00 0.72785027349547E+00
 p    1 1.00
 0.28887547253000E+00 0.10000000000000E+01
 p    1 1.00
 0.10056823671000E+00 0.10000000000000E+01
 d    1 1.00
 0.10970000000000E+01 0.10000000000000E+01
 d    1 1.00
 0.31800000000000E+00 0.10000000000000E+01
 d    1 1.00
 0.90985336424000E-01 0.10000000000000E+01
 f    1 1.00
 0.76100000000000E+00 0.10000000000000E+01
 
    6 0
 s    6 1.00
 0.13575349682000E+05 0.60645503603591E-03
 0.20352333680000E+04 0.46979088884982E-02
 0.46322562359000E+03 0.24332477647552E-01
 0.13120019598000E+03 0.97399968307759E-01
 0.42853015891000E+02 0.30195584253780E+00
 0.15584185766000E+02 0.66233609137875E+00
 s    2 1.00
 0.62067138508000E+01 0.65595308539952E+00
 0.25764896527000E+01 0.37585633285142E+00
 s    1 1.00
 0.57696339419000E+00 0.10000000000000E+01
 s    1 1.00
 0.22972831358000E+00 0.10000000000000E+01
 s    1 1.00
 0.95164440028000E-01 0.10000000000000E+01
 s    1 1.00
 0.48475401370000E-01 0.10000000000000E+01
 p    4 1.00
 0.34697232244000E+02 0.11327220003114E-01
 0.79582622826000E+01 0.76169659202087E-01
 0.23780826883000E+01 0.30192252202676E+00
 0.81433208183000E+00 0.72785027349547E+00
 p    1 1.00
 0.28887547253000E+00 0.10000000000000E+01
 p    1 1.00
 0.10056823671000E+00 0.10000000000000E+01
 d    1 1.00
 0.10970000000000E+01 0.10000000000000E+01
 d    1 1.00
 0.31800000000000E+00 0.10000000000000E+01
 d    1 1.00
 0.90985336424000E-01 0.10000000000000E+01
 f    1 1.00
 0.76100000000000E+00 0.10000000000000E+01
 
    7 0
 s    3 1.00
 0.34061341000000E+02 0.25439307208879E-01
 0.51235746000000E+01 0.19008594890375E+00
 0.11646626000000E+01 0.85244113011042E+00
 s    1 1.00
 0.32723041000000E+00 0.10000000000000E+01
 s    1 1.00
 0.10307241000000E+00 0.10000000000000E+01
 p    1 1.00
 0.80000000000000E+00 0.10000000000000E+01
 p    1 1.00
 0.95774129632000E-01 0.10000000000000E+01
 
    8 0
 s    3 1.00
 0.34061341000000E+02 0.25439307208879E-01
 0.51235746000000E+01 0.19008594890375E+00
 0.11646626000000E+01 0.85244113011042E+00
 s    1 1.00
 0.32723041000000E+00 0.10000000000000E+01
 s    1 1.00
 0.10307241000000E+00 0.10000000000000E+01
 p    1 1.00
 0.80000000000000E+00 0.10000000000000E+01
 p    1 1.00
 0.95774129632000E-01 0.10000000000000E+01
 
    9 0
 s    3 1.00
 0.34061341000000E+02 0.25439307208879E-01
 0.51235746000000E+01 0.19008594890375E+00
 0.11646626000000E+01 0.85244113011042E+00
 s    1 1.00
 0.32723041000000E+00 0.10000000000000E+01
 s    1 1.00
 0.10307241000000E+00 0.10000000000000E+01
 p    1 1.00
 0.80000000000000E+00 0.10000000000000E+01
 p    1 1.00
 0.95774129632000E-01 0.10000000000000E+01
 
   10 0
 s    3 1.00
 0.34061341000000E+02 0.25439307208879E-01
 0.51235746000000E+01 0.19008594890375E+00
 0.11646626000000E+01 0.85244113011042E+00
 s    1 1.00
 0.32723041000000E+00 0.10000000000000E+01
 s    1 1.00
 0.10307241000000E+00 0.10000000000000E+01
 p    1 1.00
 0.80000000000000E+00 0.10000000000000E+01
 p    1 1.00
 0.95774129632000E-01 0.10000000000000E+01
 
   11 0
 s    6 1.00
 0.19730800647000E+05 0.58626402628763E-03
 0.29578958745000E+04 0.45428820586397E-02
 0.67322133595000E+03 0.23558413450084E-01
 0.19068249494000E+03 0.94709193292923E-01
 0.62295441898000E+02 0.29719784913376E+00
 0.22654161182000E+02 0.66916246895232E+00
 s    2 1.00
 0.89791477428000E+01 0.64596683630063E+00
 0.36863002370000E+01 0.38700574393705E+00
 s    1 1.00
 0.84660076805000E+00 0.10000000000000E+01
 s    1 1.00
 0.33647133771000E+00 0.10000000000000E+01
 s    1 1.00
 0.13647653675000E+00 0.10000000000000E+01
 s    1 1.00
 0.68441605847000E-01 0.10000000000000E+01
 p    4 1.00
 0.49200380510000E+02 0.11448825101764E-01
 0.11346790537000E+02 0.78422337970864E-01
 0.34273972411000E+01 0.30818094738830E+00
 0.11785525134000E+01 0.72027196368413E+00
 p    1 1.00
 0.41642204972000E+00 0.10000000000000E+01
 p    1 1.00
 0.14260826011000E+00 0.10000000000000E+01
 d    1 1.00
 0.16540000000000E+01 0.10000000000000E+01
 d    1 1.00
 0.46900000000000E+00 0.10000000000000E+01
 d    1 1.00
 0.12829642058000E+00 0.10000000000000E+01
 f    1 1.00
 0.10930000000000E+01 0.10000000000000E+01
 
   12 0
 s    6 1.00
 0.27032382631000E+05 0.57227335211155E-03
 0.40523871392000E+04 0.44353233492995E-02
 0.92232722710000E+03 0.23020107706038E-01
 0.26124070989000E+03 0.92822490667928E-01
 0.85354641351000E+02 0.29378500009671E+00
 0.31035035245000E+02 0.67401604501641E+00
 s    2 1.00
 0.12260860728000E+02 0.63839937025506E+00
 0.49987076005000E+01 0.39534587125718E+00
 s    1 1.00
 0.11703108158000E+01 0.10000000000000E+01
 s    1 1.00
 0.46474740994000E+00 0.10000000000000E+01
 s    1 1.00
 0.18504536357000E+00 0.10000000000000E+01
 s    1 1.00
 0.70288026270000E-01 0.10000000000000E+01
 p    4 1.00
 0.63274954801000E+02 0.12018332222616E-01
 0.14627049379000E+02 0.83005421790056E-01
 0.44501223456000E+01 0.31991743925964E+00
 0.15275799647000E+01 0.70715542916104E+00
 p    1 1.00
 0.52935117943000E+00 0.10000000000000E+01
 p    1 1.00
 0.17478421270000E+00 0.10000000000000E+01
 p    1 1.00
 0.51112745706000E-01 0.10000000000000E+01
 d    1 1.00
 0.23140000000000E+01 0.10000000000000E+01
 d    1 1.00
 0.64500000000000E+00 0.10000000000000E+01
 d    1 1.00
 0.14696477366000E+00 0.10000000000000E+01
 f    1 1.00
 0.14280000000000E+01 0.10000000000000E+01
 
   13 0
 s    6 1.00
 0.27032382631000E+05 0.57227335211155E-03
 0.40523871392000E+04 0.44353233492995E-02
 0.92232722710000E+03 0.23020107706038E-01
 0.26124070989000E+03 0.92822490667928E-01
 0.85354641351000E+02 0.29378500009671E+00
 0.31035035245000E+02 0.67401604501641E+00
 s    2 1.00
 0.12260860728000E+02 0.63839937025506E+00
 0.49987076005000E+01 0.39534587125718E+00
 s    1 1.00
 0.11703108158000E+01 0.10000000000000E+01
 s    1 1.00
 0.46474740994000E+00 0.10000000000000E+01
 s    1 1.00
 0.18504536357000E+00 0.10000000000000E+01
 s    1 1.00
 0.70288026270000E-01 0.10000000000000E+01
 p    4 1.00
 0.63274954801000E+02 0.12018332222616E-01
 0.14627049379000E+02 0.83005421790056E-01
 0.44501223456000E+01 0.31991743925964E+00
 0.15275799647000E+01 0.70715542916104E+00
 p    1 1.00
 0.52935117943000E+00 0.10000000000000E+01
 p    1 1.00
 0.17478421270000E+00 0.10000000000000E+01
 p    1 1.00
 0.51112745706000E-01 0.10000000000000E+01
 d    1 1.00
 0.23140000000000E+01 0.10000000000000E+01
 d    1 1.00
 0.64500000000000E+00 0.10000000000000E+01
 d    1 1.00
 0.14696477366000E+00 0.10000000000000E+01
 f    1 1.00
 0.14280000000000E+01 0.10000000000000E+01
 
   14 0
 s    6 1.00
 0.19730800647000E+05 0.58626402628763E-03
 0.29578958745000E+04 0.45428820586397E-02
 0.67322133595000E+03 0.23558413450084E-01
 0.19068249494000E+03 0.94709193292923E-01
 0.62295441898000E+02 0.29719784913376E+00
 0.22654161182000E+02 0.66916246895232E+00
 s    2 1.00
 0.89791477428000E+01 0.64596683630063E+00
 0.36863002370000E+01 0.38700574393705E+00
 s    1 1.00
 0.84660076805000E+00 0.10000000000000E+01
 s    1 1.00
 0.33647133771000E+00 0.10000000000000E+01
 s    1 1.00
 0.13647653675000E+00 0.10000000000000E+01
 s    1 1.00
 0.68441605847000E-01 0.10000000000000E+01
 p    4 1.00
 0.49200380510000E+02 0.11448825101764E-01
 0.11346790537000E+02 0.78422337970864E-01
 0.34273972411000E+01 0.30818094738830E+00
 0.11785525134000E+01 0.72027196368413E+00
 p    1 1.00
 0.41642204972000E+00 0.10000000000000E+01
 p    1 1.00
 0.14260826011000E+00 0.10000000000000E+01
 d    1 1.00
 0.16540000000000E+01 0.10000000000000E+01
 d    1 1.00
 0.46900000000000E+00 0.10000000000000E+01
 d    1 1.00
 0.12829642058000E+00 0.10000000000000E+01
 f    1 1.00
 0.10930000000000E+01 0.10000000000000E+01
 
   15 0
 s    3 1.00
 0.34061341000000E+02 0.25439307208879E-01
 0.51235746000000E+01 0.19008594890375E+00
 0.11646626000000E+01 0.85244113011042E+00
 s    1 1.00
 0.32723041000000E+00 0.10000000000000E+01
 s    1 1.00
 0.10307241000000E+00 0.10000000000000E+01
 p    1 1.00
 0.80000000000000E+00 0.10000000000000E+01
 p    1 1.00
 0.95774129632000E-01 0.10000000000000E+01
 
   16 0
 s    3 1.00
 0.34061341000000E+02 0.25439307208879E-01
 0.51235746000000E+01 0.19008594890375E+00
 0.11646626000000E+01 0.85244113011042E+00
 s    1 1.00
 0.32723041000000E+00 0.10000000000000E+01
 s    1 1.00
 0.10307241000000E+00 0.10000000000000E+01
 p    1 1.00
 0.80000000000000E+00 0.10000000000000E+01
 p    1 1.00
 0.95774129632000E-01 0.10000000000000E+01
 
[MO]
 Sym= X
 Ene= -0.110756
 Spin= Alpha
 Occup= -0.110756
         1   -4.840440E-04
         2   -1.116993E-03
         3    2.969045E-03
         4   -6.308258E-03
         5    8.813511E-02
         6   -2.559383E-02
         7    5.127031E-03
         8    4.980955E-04
         9   -1.940774E-02
        10   -5.044127E-03
        11    1.403656E-03
        12   -2.061132E-02
        13   -5.181822E-02
        14    2.332776E-02
        15    1.059458E-03
        16    5.516755E-05
        17   -7.107369E-05
        18    1.590615E-05
        19   -2.382481E-05
        20   -5.168095E-03
        21    1.790724E-03
        22   -1.366605E-03
        23    8.295344E-04
        24    5.370710E-04
        25   -1.652581E-03
        26   -1.165375E-02
        27    3.751690E-03
        28   -1.765202E-03
        29    1.115017E-03
        30    6.501843E-04
        31    4.477977E-03
        32    6.704811E-03
        33   -1.013282E-02
        34   -4.184087E-05
        35    1.259492E-05
        36    3.038004E-04
        37    1.751349E-05
        38   -6.392085E-06
        39   -8.384035E-04
        40    3.862192E-05
        41   -1.050578E-05
        42    4.308125E-04
        43   -4.187326E-04
        44    1.552551E-04
        45    3.426370E-04
        46    2.000868E-04
        47   -9.366314E-03
        48   -9.002020E-02
        49    1.571227E-02
        50   -2.060900E-05
        51    4.993757E-07
        52    1.000105E-01
        53   -2.060757E-03
        54    2.136359E-07
        55    1.053235E-01
        56   -1.708686E-02
        57   -6.772652E-06
        58    1.414250E-01
        59    1.457204E-04
        60   -1.443310E-04
        61   -1.389434E-06
        62    6.642548E-09
        63   -1.138725E-03
        64    3.776712E-08
        65    9.894720E-04
        66   -1.593781E-03
        67    6.043086E-04
        68   -3.223791E-08
        69   -3.398591E-03
        70    1.098165E-07
        71    3.484815E-02
        72   -3.780356E-02
        73    2.955406E-03
        74   -7.142975E-07
        75   -4.631693E-04
        76    7.214519E-07
        77    1.346073E-05
        78    6.195153E-09
        79   -3.906410E-04
        80   -2.091308E-05
        81   -3.886694E-09
        82    2.349189E-04
        83    2.853610E-06
        84   -4.424976E-09
        85    2.891810E-04
        86    8.243294E-09
        87   -4.840595E-04
        88   -1.117023E-03
        89    2.968964E-03
        90   -6.307611E-03
        91    8.813702E-02
        92   -2.559552E-02
        93    5.126379E-03
        94   -4.982088E-04
        95   -1.940539E-02
        96   -5.044883E-03
        97   -1.403975E-03
        98   -2.060880E-02
        99   -5.183055E-02
       100   -2.333419E-02
       101    1.061237E-03
       102    5.514494E-05
       103   -7.107754E-05
       104    1.593261E-05
       105    2.376232E-05
       106   -5.168022E-03
       107   -1.790721E-03
       108   -1.366642E-03
       109    8.295687E-04
       110    5.370731E-04
       111    1.652542E-03
       112   -1.165350E-02
       113   -3.751675E-03
       114   -1.766912E-03
       115    1.116749E-03
       116    6.501639E-04
       117   -4.477082E-03
       118    6.705728E-03
       119    1.013348E-02
       120   -4.183920E-05
       121   -1.258719E-05
       122    3.037816E-04
       123    1.751392E-05
       124    6.384199E-06
       125   -8.383780E-04
       126    3.861926E-05
       127    1.050329E-05
       128    4.308122E-04
       129    4.187313E-04
       130    4.430761E-04
       131    9.815281E-04
       132    3.623437E-04
       133   -2.225595E-02
       134   -3.926507E-02
       135    3.135417E-02
       136   -4.981721E-03
       137    9.842448E-04
       138   -1.537003E-01
       139   -2.221525E-02
       140    1.317601E-02
       141   -1.557115E-01
       142   -9.710917E-03
       143   -2.047793E-02
       144   -9.407771E-02
       145    3.756584E-04
       146   -4.564648E-04
       147    8.080631E-05
       148   -1.181879E-05
       149    2.146391E-04
       150    2.776843E-03
       151    1.598360E-03
       152   -1.789745E-03
       153    1.913842E-04
       154    3.576629E-03
       155   -2.500587E-03
       156    4.162731E-03
       157    1.331432E-02
       158   -9.081906E-03
       159   -4.232416E-03
       160   -2.711545E-02
       161    6.653208E-03
       162   -1.330011E-02
       163   -4.335976E-05
       164    2.075090E-05
       165    9.319490E-04
       166   -3.981179E-05
       167    3.337375E-05
       168   -3.649353E-04
       169    9.798502E-05
       170   -6.121401E-05
       171   -8.854054E-04
       172    2.170934E-04
       173   -2.429905E-03
       174   -5.512347E-03
       175    5.460361E-03
       176    4.625562E-02
       177   -1.486512E-01
       178    8.284826E-03
       179    2.047617E-02
       180    1.069968E-07
       181   -9.091753E-02
       182    8.323492E-04
       183   -1.312751E-07
       184   -9.496525E-02
       185   -1.109870E-01
       186    8.307254E-07
       187   -1.324156E-01
       188    1.134065E-03
       189   -7.142230E-04
       190   -4.198422E-04
       191    8.266491E-09
       192    1.105816E-02
       193    1.807843E-07
       194   -3.985752E-03
       195    8.577288E-03
       196   -4.591536E-03
       197   -8.511543E-08
       198    2.674342E-02
       199    3.072696E-07
       200   -2.679366E-02
       201    2.726952E-02
       202   -4.758633E-04
       203    4.593633E-07
       204    1.025746E-02
       205   -4.798869E-07
       206    2.502000E-04
       207   -8.456570E-09
       208    8.388278E-05
       209   -1.863602E-04
       210   -4.953903E-10
       211    1.382804E-03
       212   -1.493183E-04
       213    1.184107E-08
       214   -1.495345E-03
       215   -1.609175E-08
       216    4.431273E-04
       217    9.816470E-04
       218    3.620473E-04
       219   -2.225624E-02
       220   -3.928437E-02
       221    3.135452E-02
       222   -4.982407E-03
       223   -9.861658E-04
       224   -1.537060E-01
       225   -2.221569E-02
       226   -1.317789E-02
       227   -1.557175E-01
       228   -9.701438E-03
       229    2.047870E-02
       230   -9.408186E-02
       231    3.756801E-04
       232   -4.565307E-04
       233    8.085062E-05
       234    1.180534E-05
       235    2.146600E-04
       236   -2.776876E-03
       237    1.598414E-03
       238   -1.789797E-03
       239    1.913828E-04
       240   -3.576640E-03
       241   -2.500427E-03
       242   -4.162708E-03
       243    1.331398E-02
       244   -9.081396E-03
       245   -4.232587E-03
       246    2.711625E-02
       247    6.652064E-03
       248    1.329969E-02
       249   -4.336265E-05
       250   -2.077147E-05
       251    9.319826E-04
       252   -3.981278E-05
       253   -3.337573E-05
       254   -3.649578E-04
       255    9.798989E-05
       256    6.124359E-05
       257   -8.854281E-04
       258   -2.170837E-04
       259   -1.150010E-03
       260   -8.405565E-04
       261   -3.493644E-02
       262   -2.488724E-05
       263   -3.011727E-05
       264   -5.458646E-04
       265   -9.746190E-03
       266   -3.340791E-03
       267   -4.990575E-03
       268   -1.149777E-03
       269   -8.402302E-04
       270   -3.493689E-02
       271   -2.490482E-05
       272    3.008766E-05
       273   -5.457637E-04
       274   -9.746413E-03
       275    3.340487E-03
       276   -4.990522E-03
       277   -1.806372E-03
       278   -6.541165E-03
       279    8.005694E-02
       280   -2.300093E-05
       281    3.428506E-04
       282   -6.059865E-03
       283   -3.205337E-03
       284   -7.436939E-03
       285    7.801007E-04
       286   -1.806409E-03
       287   -6.541383E-03
       288    8.005960E-02
       289   -2.301266E-05
       290   -3.429384E-04
       291   -6.060198E-03
       292   -3.205303E-03
       293    7.436868E-03
       294    7.797269E-04
       295   -1.705736E-04
       296   -4.031481E-04
       297    5.282594E-04
       298    8.245420E-04
       299   -2.321444E-02
       300   -9.201859E-03
       301    1.289759E-03
       302   -3.076716E-07
       303    1.527820E-02
       304    4.704568E-04
       305   -2.429156E-07
       306    1.714683E-02
       307   -6.805505E-03
       308    8.904403E-08
       309   -1.911431E-03
       310    2.616232E-05
       311   -2.192415E-05
       312   -4.238170E-06
       313   -1.220595E-08
       314    2.130516E-03
       315   -1.093749E-07
       316   -3.955455E-05
       317    9.865732E-05
       318   -5.910277E-05
       319   -3.197111E-08
       320    6.535367E-03
       321   -3.140480E-07
       322    2.520467E-04
       323    5.343876E-03
       324   -5.595923E-03
       325    4.411799E-08
       326    6.723506E-04
       327   -1.340960E-07
       328    1.231246E-05
       329    6.914009E-10
       330   -3.866217E-05
       331   -9.054575E-06
       332    7.501978E-09
       333    3.719453E-04
       334   -7.464327E-06
       335   -8.429589E-09
       336   -3.200746E-04
       337    1.910902E-08
       338   -1.233638E-05
       339   -2.137265E-05
       340   -7.136429E-05
       341    1.078321E-03
       342   -1.380454E-02
       343   -2.672026E-03
       344   -3.494714E-04
       345    2.108192E-04
       346   -3.502787E-02
       347   -6.698733E-04
       348    4.814996E-04
       349   -3.262467E-02
       350   -1.709986E-03
       351    1.710276E-03
       352   -2.715699E-02
       353   -8.030126E-04
       354    2.802858E-04
       355   -3.365160E-03
       356    6.340376E-06
       357   -9.524059E-06
       358    3.183683E-06
       359   -1.644558E-06
       360    5.659867E-05
       361    1.582447E-04
       362   -1.448155E-05
       363   -2.649520E-05
       364    4.097676E-05
       365    9.427485E-06
       366   -1.288527E-04
       367    5.495031E-04
       368   -7.501077E-05
       369   -1.113451E-04
       370    1.863559E-04
       371   -2.298579E-04
       372   -3.003394E-05
       373    1.948507E-04
       374    8.368602E-07
       375    4.460467E-06
       376    1.414160E-05
       377   -1.592452E-06
       378   -2.401971E-06
       379    4.708028E-05
       380    4.696859E-07
       381   -3.582374E-06
       382   -6.605323E-05
       383    4.465518E-05
       384   -1.236632E-05
       385   -2.144751E-05
       386   -7.124974E-05
       387    1.078488E-03
       388   -1.380438E-02
       389   -2.672468E-03
       390   -3.480754E-04
       391   -2.102118E-04
       392   -3.502203E-02
       393   -6.685906E-04
       394   -4.809236E-04
       395   -3.261928E-02
       396   -1.708957E-03
       397   -1.709899E-03
       398   -2.715355E-02
       399   -8.032765E-04
       400   -2.799200E-04
       401   -3.364676E-03
       402    6.339787E-06
       403   -9.515214E-06
       404    3.175427E-06
       405    1.652467E-06
       406    5.663047E-05
       407   -1.581942E-04
       408   -1.447078E-05
       409   -2.646906E-05
       410    4.093984E-05
       411   -9.385805E-06
       412   -1.287506E-04
       413   -5.493425E-04
       414   -7.499715E-05
       415   -1.113947E-04
       416    1.863919E-04
       417    2.299330E-04
       418   -2.995848E-05
       419   -1.947420E-04
       420    8.343814E-07
       421   -4.457860E-06
       422    1.413346E-05
       423   -1.586792E-06
       424    2.404394E-06
       425    4.707806E-05
       426    4.673518E-07
       427    3.576452E-06
       428   -6.604008E-05
       429   -4.463944E-05
       430    1.054667E-02
       431    2.498102E-02
       432   -3.845840E-02
       433   -6.532118E-02
       434    3.164841E-03
       435   -1.102272E-01
       436   -3.956148E-02
       437    2.165281E-07
       438    3.251606E-01
       439   -4.506326E-02
       440    3.666332E-07
       441    3.179793E-01
       442   -6.121036E-02
       443    9.080502E-07
       444    2.468413E-01
       445   -3.189022E-04
       446   -2.006781E-04
       447    5.195803E-04
       448    9.594304E-09
       449    4.173661E-04
       450   -1.265613E-08
       451   -4.160139E-04
       452   -3.973770E-03
       453    4.389784E-03
       454   -1.041708E-08
       455    2.456531E-03
       456    1.562937E-08
       457   -3.298734E-03
       458   -1.190741E-02
       459    1.520615E-02
       460   -1.309803E-07
       461    1.997893E-03
       462    1.507798E-07
       463   -2.654764E-04
       464    4.081411E-09
       465   -1.289390E-03
       466   -2.200341E-04
       467    7.657476E-10
       468    7.736266E-04
       469    5.762081E-04
       470   -6.241534E-09
       471    9.562718E-04
       472    3.316249E-10
       473    1.730246E-02
       474    3.713412E-02
       475    7.973130E-02
       476   -4.757194E-03
       477   -3.879374E-03
       478    1.581826E-02
       479   -3.883308E-03
       480   -8.550026E-03
       481    1.550170E-02
       482    1.730243E-02
       483    3.713424E-02
       484    7.973215E-02
       485   -4.757213E-03
       486    3.879458E-03
       487    1.581831E-02
       488   -3.883537E-03
       489    8.550144E-03
       490    1.550171E-02
 Sym= X
 Ene= -0.738072
 Spin= Alpha
 Occup= -0.738072
         1   -4.278936E-05
         2   -9.824200E-05
         3    2.452379E-04
         4   -3.762482E-04
         5    2.546861E-03
         6   -4.653027E-04
         7   -3.741677E-05
         8   -2.223410E-04
         9   -1.157079E-01
        10   -7.890470E-04
        11    9.849604E-05
        12   -1.160977E-01
        13    9.645612E-04
        14    7.474642E-05
        15   -7.930931E-02
        16   -5.193924E-06
        17    3.465473E-06
        18    1.728451E-06
        19    1.069069E-05
        20   -2.805564E-03
        21   -3.865267E-04
        22   -1.550890E-04
        23    1.233969E-04
        24    3.169213E-05
        25    5.712903E-06
        26   -4.569958E-03
        27    1.636248E-05
        28   -2.479167E-04
        29    3.960959E-04
        30   -1.481791E-04
        31   -2.136936E-04
        32   -1.242633E-03
        33   -1.218852E-03
        34   -5.656779E-06
        35   -2.406760E-07
        36    7.880857E-04
        37    1.311642E-06
        38    5.228660E-07
        39   -9.340525E-04
        40    6.277723E-06
        41   -1.999653E-07
        42   -1.232755E-04
        43    4.340544E-05
        44   -4.372537E-08
        45   -9.361096E-08
        46   -1.235140E-07
        47    1.922727E-06
        48    4.242659E-06
        49   -2.050999E-06
        50    1.504439E-07
        51    2.230680E-04
        52   -2.077516E-06
        53    4.958296E-07
        54    5.512626E-04
        55   -2.192049E-06
        56    9.153137E-07
        57    1.786171E-05
        58   -1.653619E-06
        59   -1.185913E-08
        60    2.935075E-08
        61   -1.749162E-08
        62    1.134644E-05