[Molden Format]
[Title]
ADC(2) - opt by CAM-B3LYP gaussian                                              
[Atoms] AU
 c     1    6 0.12592752280008E+01 0.22800132789445E+01 -.35345910021030E-01
 c     2    6 0.25511638220345E+01 0.20078340100000E-05 -.33671612667290E-01
 c     3    6 0.12592790074531E+01 -.22800111530026E+01 -.35357248377820E-01
 c     4    6 -.13364450292264E+01 -.22798221803893E+01 -.38530098554940E-01
 c     5    6 -.26857699593430E+01 -.17716182500000E-05 -.39025206801750E-01
 c     6    6 -.13364469189525E+01 0.22798205268790E+01 -.38516870472010E-01
 h     7    1 0.23055183220207E+01 0.40307538342087E+01 -.32265656424420E-01
 h     8    1 0.23055239911991E+01 -.40307498185407E+01 -.32284553685750E-01
 h     9    1 -.23548467881305E+01 -.40530977197882E+01 -.43619131030800E-01
 h    10    1 -.23548543470350E+01 0.40530922868255E+01 -.43594564591070E-01
 n    11    7 0.52860567397703E+01 0.11810788000000E-06 -.26776002008390E-01
 o    12    8 0.63771222479361E+01 -.20280728649663E+01 -.23850705954680E-01
 o    13    8 0.63771260273883E+01 0.20280712114559E+01 -.23882831298940E-01
 n    14    7 -.52615573853205E+01 0.11810788000000E-06 -.10505223788478E+00
 h    15    1 -.61955753134867E+01 -.16086254730588E+01 0.27588253543458E+00
 h    16    1 -.61955696443083E+01 0.16086275990006E+01 0.27589009433911E+00
[GTO]
    1 0
 s    6 1.00
 0.13575349682000E+05 0.60645503603591E-03
 0.20352333680000E+04 0.46979088884982E-02
 0.46322562359000E+03 0.24332477647552E-01
 0.13120019598000E+03 0.97399968307759E-01
 0.42853015891000E+02 0.30195584253780E+00
 0.15584185766000E+02 0.66233609137875E+00
 s    2 1.00
 0.62067138508000E+01 0.65595308539952E+00
 0.25764896527000E+01 0.37585633285142E+00
 s    1 1.00
 0.57696339419000E+00 0.10000000000000E+01
 s    1 1.00
 0.22972831358000E+00 0.10000000000000E+01
 s    1 1.00
 0.95164440028000E-01 0.10000000000000E+01
 s    1 1.00
 0.48475401370000E-01 0.10000000000000E+01
 p    4 1.00
 0.34697232244000E+02 0.11327220003114E-01
 0.79582622826000E+01 0.76169659202087E-01
 0.23780826883000E+01 0.30192252202676E+00
 0.81433208183000E+00 0.72785027349547E+00
 p    1 1.00
 0.28887547253000E+00 0.10000000000000E+01
 p    1 1.00
 0.10056823671000E+00 0.10000000000000E+01
 d    1 1.00
 0.10970000000000E+01 0.10000000000000E+01
 d    1 1.00
 0.31800000000000E+00 0.10000000000000E+01
 d    1 1.00
 0.90985336424000E-01 0.10000000000000E+01
 f    1 1.00
 0.76100000000000E+00 0.10000000000000E+01
 
    2 0
 s    6 1.00
 0.13575349682000E+05 0.60645503603591E-03
 0.20352333680000E+04 0.46979088884982E-02
 0.46322562359000E+03 0.24332477647552E-01
 0.13120019598000E+03 0.97399968307759E-01
 0.42853015891000E+02 0.30195584253780E+00
 0.15584185766000E+02 0.66233609137875E+00
 s    2 1.00
 0.62067138508000E+01 0.65595308539952E+00
 0.25764896527000E+01 0.37585633285142E+00
 s    1 1.00
 0.57696339419000E+00 0.10000000000000E+01
 s    1 1.00
 0.22972831358000E+00 0.10000000000000E+01
 s    1 1.00
 0.95164440028000E-01 0.10000000000000E+01
 s    1 1.00
 0.48475401370000E-01 0.10000000000000E+01
 p    4 1.00
 0.34697232244000E+02 0.11327220003114E-01
 0.79582622826000E+01 0.76169659202087E-01
 0.23780826883000E+01 0.30192252202676E+00
 0.81433208183000E+00 0.72785027349547E+00
 p    1 1.00
 0.28887547253000E+00 0.10000000000000E+01
 p    1 1.00
 0.10056823671000E+00 0.10000000000000E+01
 d    1 1.00
 0.10970000000000E+01 0.10000000000000E+01
 d    1 1.00
 0.31800000000000E+00 0.10000000000000E+01
 d    1 1.00
 0.90985336424000E-01 0.10000000000000E+01
 f    1 1.00
 0.76100000000000E+00 0.10000000000000E+01
 
    3 0
 s    6 1.00
 0.13575349682000E+05 0.60645503603591E-03
 0.20352333680000E+04 0.46979088884982E-02
 0.46322562359000E+03 0.24332477647552E-01
 0.13120019598000E+03 0.97399968307759E-01
 0.42853015891000E+02 0.30195584253780E+00
 0.15584185766000E+02 0.66233609137875E+00
 s    2 1.00
 0.62067138508000E+01 0.65595308539952E+00
 0.25764896527000E+01 0.37585633285142E+00
 s    1 1.00
 0.57696339419000E+00 0.10000000000000E+01
 s    1 1.00
 0.22972831358000E+00 0.10000000000000E+01
 s    1 1.00
 0.95164440028000E-01 0.10000000000000E+01
 s    1 1.00
 0.48475401370000E-01 0.10000000000000E+01
 p    4 1.00
 0.34697232244000E+02 0.11327220003114E-01
 0.79582622826000E+01 0.76169659202087E-01
 0.23780826883000E+01 0.30192252202676E+00
 0.81433208183000E+00 0.72785027349547E+00
 p    1 1.00
 0.28887547253000E+00 0.10000000000000E+01
 p    1 1.00
 0.10056823671000E+00 0.10000000000000E+01
 d    1 1.00
 0.10970000000000E+01 0.10000000000000E+01
 d    1 1.00
 0.31800000000000E+00 0.10000000000000E+01
 d    1 1.00
 0.90985336424000E-01 0.10000000000000E+01
 f    1 1.00
 0.76100000000000E+00 0.10000000000000E+01
 
    4 0
 s    6 1.00
 0.13575349682000E+05 0.60645503603591E-03
 0.20352333680000E+04 0.46979088884982E-02
 0.46322562359000E+03 0.24332477647552E-01
 0.13120019598000E+03 0.97399968307759E-01
 0.42853015891000E+02 0.30195584253780E+00
 0.15584185766000E+02 0.66233609137875E+00
 s    2 1.00
 0.62067138508000E+01 0.65595308539952E+00
 0.25764896527000E+01 0.37585633285142E+00
 s    1 1.00
 0.57696339419000E+00 0.10000000000000E+01
 s    1 1.00
 0.22972831358000E+00 0.10000000000000E+01
 s    1 1.00
 0.95164440028000E-01 0.10000000000000E+01
 s    1 1.00
 0.48475401370000E-01 0.10000000000000E+01
 p    4 1.00
 0.34697232244000E+02 0.11327220003114E-01
 0.79582622826000E+01 0.76169659202087E-01
 0.23780826883000E+01 0.30192252202676E+00
 0.81433208183000E+00 0.72785027349547E+00
 p    1 1.00
 0.28887547253000E+00 0.10000000000000E+01
 p    1 1.00
 0.10056823671000E+00 0.10000000000000E+01
 d    1 1.00
 0.10970000000000E+01 0.10000000000000E+01
 d    1 1.00
 0.31800000000000E+00 0.10000000000000E+01
 d    1 1.00
 0.90985336424000E-01 0.10000000000000E+01
 f    1 1.00
 0.76100000000000E+00 0.10000000000000E+01
 
    5 0
 s    6 1.00
 0.13575349682000E+05 0.60645503603591E-03
 0.20352333680000E+04 0.46979088884982E-02
 0.46322562359000E+03 0.24332477647552E-01
 0.13120019598000E+03 0.97399968307759E-01
 0.42853015891000E+02 0.30195584253780E+00
 0.15584185766000E+02 0.66233609137875E+00
 s    2 1.00
 0.62067138508000E+01 0.65595308539952E+00
 0.25764896527000E+01 0.37585633285142E+00
 s    1 1.00
 0.57696339419000E+00 0.10000000000000E+01
 s    1 1.00
 0.22972831358000E+00 0.10000000000000E+01
 s    1 1.00
 0.95164440028000E-01 0.10000000000000E+01
 s    1 1.00
 0.48475401370000E-01 0.10000000000000E+01
 p    4 1.00
 0.34697232244000E+02 0.11327220003114E-01
 0.79582622826000E+01 0.76169659202087E-01
 0.23780826883000E+01 0.30192252202676E+00
 0.81433208183000E+00 0.72785027349547E+00
 p    1 1.00
 0.28887547253000E+00 0.10000000000000E+01
 p    1 1.00
 0.10056823671000E+00 0.10000000000000E+01
 d    1 1.00
 0.10970000000000E+01 0.10000000000000E+01
 d    1 1.00
 0.31800000000000E+00 0.10000000000000E+01
 d    1 1.00
 0.90985336424000E-01 0.10000000000000E+01
 f    1 1.00
 0.76100000000000E+00 0.10000000000000E+01
 
    6 0
 s    6 1.00
 0.13575349682000E+05 0.60645503603591E-03
 0.20352333680000E+04 0.46979088884982E-02
 0.46322562359000E+03 0.24332477647552E-01
 0.13120019598000E+03 0.97399968307759E-01
 0.42853015891000E+02 0.30195584253780E+00
 0.15584185766000E+02 0.66233609137875E+00
 s    2 1.00
 0.62067138508000E+01 0.65595308539952E+00
 0.25764896527000E+01 0.37585633285142E+00
 s    1 1.00
 0.57696339419000E+00 0.10000000000000E+01
 s    1 1.00
 0.22972831358000E+00 0.10000000000000E+01
 s    1 1.00
 0.95164440028000E-01 0.10000000000000E+01
 s    1 1.00
 0.48475401370000E-01 0.10000000000000E+01
 p    4 1.00
 0.34697232244000E+02 0.11327220003114E-01
 0.79582622826000E+01 0.76169659202087E-01
 0.23780826883000E+01 0.30192252202676E+00
 0.81433208183000E+00 0.72785027349547E+00
 p    1 1.00
 0.28887547253000E+00 0.10000000000000E+01
 p    1 1.00
 0.10056823671000E+00 0.10000000000000E+01
 d    1 1.00
 0.10970000000000E+01 0.10000000000000E+01
 d    1 1.00
 0.31800000000000E+00 0.10000000000000E+01
 d    1 1.00
 0.90985336424000E-01 0.10000000000000E+01
 f    1 1.00
 0.76100000000000E+00 0.10000000000000E+01
 
    7 0
 s    3 1.00
 0.34061341000000E+02 0.25439307208879E-01
 0.51235746000000E+01 0.19008594890375E+00
 0.11646626000000E+01 0.85244113011042E+00
 s    1 1.00
 0.32723041000000E+00 0.10000000000000E+01
 s    1 1.00
 0.10307241000000E+00 0.10000000000000E+01
 p    1 1.00
 0.80000000000000E+00 0.10000000000000E+01
 p    1 1.00
 0.95774129632000E-01 0.10000000000000E+01
 
    8 0
 s    3 1.00
 0.34061341000000E+02 0.25439307208879E-01
 0.51235746000000E+01 0.19008594890375E+00
 0.11646626000000E+01 0.85244113011042E+00
 s    1 1.00
 0.32723041000000E+00 0.10000000000000E+01
 s    1 1.00
 0.10307241000000E+00 0.10000000000000E+01
 p    1 1.00
 0.80000000000000E+00 0.10000000000000E+01
 p    1 1.00
 0.95774129632000E-01 0.10000000000000E+01
 
    9 0
 s    3 1.00
 0.34061341000000E+02 0.25439307208879E-01
 0.51235746000000E+01 0.19008594890375E+00
 0.11646626000000E+01 0.85244113011042E+00
 s    1 1.00
 0.32723041000000E+00 0.10000000000000E+01
 s    1 1.00
 0.10307241000000E+00 0.10000000000000E+01
 p    1 1.00
 0.80000000000000E+00 0.10000000000000E+01
 p    1 1.00
 0.95774129632000E-01 0.10000000000000E+01
 
   10 0
 s    3 1.00
 0.34061341000000E+02 0.25439307208879E-01
 0.51235746000000E+01 0.19008594890375E+00
 0.11646626000000E+01 0.85244113011042E+00
 s    1 1.00
 0.32723041000000E+00 0.10000000000000E+01
 s    1 1.00
 0.10307241000000E+00 0.10000000000000E+01
 p    1 1.00
 0.80000000000000E+00 0.10000000000000E+01
 p    1 1.00
 0.95774129632000E-01 0.10000000000000E+01
 
   11 0
 s    6 1.00
 0.19730800647000E+05 0.58626402628763E-03
 0.29578958745000E+04 0.45428820586397E-02
 0.67322133595000E+03 0.23558413450084E-01
 0.19068249494000E+03 0.94709193292923E-01
 0.62295441898000E+02 0.29719784913376E+00
 0.22654161182000E+02 0.66916246895232E+00
 s    2 1.00
 0.89791477428000E+01 0.64596683630063E+00
 0.36863002370000E+01 0.38700574393705E+00
 s    1 1.00
 0.84660076805000E+00 0.10000000000000E+01
 s    1 1.00
 0.33647133771000E+00 0.10000000000000E+01
 s    1 1.00
 0.13647653675000E+00 0.10000000000000E+01
 s    1 1.00
 0.68441605847000E-01 0.10000000000000E+01
 p    4 1.00
 0.49200380510000E+02 0.11448825101764E-01
 0.11346790537000E+02 0.78422337970864E-01
 0.34273972411000E+01 0.30818094738830E+00
 0.11785525134000E+01 0.72027196368413E+00
 p    1 1.00
 0.41642204972000E+00 0.10000000000000E+01
 p    1 1.00
 0.14260826011000E+00 0.10000000000000E+01
 d    1 1.00
 0.16540000000000E+01 0.10000000000000E+01
 d    1 1.00
 0.46900000000000E+00 0.10000000000000E+01
 d    1 1.00
 0.12829642058000E+00 0.10000000000000E+01
 f    1 1.00
 0.10930000000000E+01 0.10000000000000E+01
 
   12 0
 s    6 1.00
 0.27032382631000E+05 0.57227335211155E-03
 0.40523871392000E+04 0.44353233492995E-02
 0.92232722710000E+03 0.23020107706038E-01
 0.26124070989000E+03 0.92822490667928E-01
 0.85354641351000E+02 0.29378500009671E+00
 0.31035035245000E+02 0.67401604501641E+00
 s    2 1.00
 0.12260860728000E+02 0.63839937025506E+00
 0.49987076005000E+01 0.39534587125718E+00
 s    1 1.00
 0.11703108158000E+01 0.10000000000000E+01
 s    1 1.00
 0.46474740994000E+00 0.10000000000000E+01
 s    1 1.00
 0.18504536357000E+00 0.10000000000000E+01
 s    1 1.00
 0.70288026270000E-01 0.10000000000000E+01
 p    4 1.00
 0.63274954801000E+02 0.12018332222616E-01
 0.14627049379000E+02 0.83005421790056E-01
 0.44501223456000E+01 0.31991743925964E+00
 0.15275799647000E+01 0.70715542916104E+00
 p    1 1.00
 0.52935117943000E+00 0.10000000000000E+01
 p    1 1.00
 0.17478421270000E+00 0.10000000000000E+01
 p    1 1.00
 0.51112745706000E-01 0.10000000000000E+01
 d    1 1.00
 0.23140000000000E+01 0.10000000000000E+01
 d    1 1.00
 0.64500000000000E+00 0.10000000000000E+01
 d    1 1.00
 0.14696477366000E+00 0.10000000000000E+01
 f    1 1.00
 0.14280000000000E+01 0.10000000000000E+01
 
   13 0
 s    6 1.00
 0.27032382631000E+05 0.57227335211155E-03
 0.40523871392000E+04 0.44353233492995E-02
 0.92232722710000E+03 0.23020107706038E-01
 0.26124070989000E+03 0.92822490667928E-01
 0.85354641351000E+02 0.29378500009671E+00
 0.31035035245000E+02 0.67401604501641E+00
 s    2 1.00
 0.12260860728000E+02 0.63839937025506E+00
 0.49987076005000E+01 0.39534587125718E+00
 s    1 1.00
 0.11703108158000E+01 0.10000000000000E+01
 s    1 1.00
 0.46474740994000E+00 0.10000000000000E+01
 s    1 1.00
 0.18504536357000E+00 0.10000000000000E+01
 s    1 1.00
 0.70288026270000E-01 0.10000000000000E+01
 p    4 1.00
 0.63274954801000E+02 0.12018332222616E-01
 0.14627049379000E+02 0.83005421790056E-01
 0.44501223456000E+01 0.31991743925964E+00
 0.15275799647000E+01 0.70715542916104E+00
 p    1 1.00
 0.52935117943000E+00 0.10000000000000E+01
 p    1 1.00
 0.17478421270000E+00 0.10000000000000E+01
 p    1 1.00
 0.51112745706000E-01 0.10000000000000E+01
 d    1 1.00
 0.23140000000000E+01 0.10000000000000E+01
 d    1 1.00
 0.64500000000000E+00 0.10000000000000E+01
 d    1 1.00
 0.14696477366000E+00 0.10000000000000E+01
 f    1 1.00
 0.14280000000000E+01 0.10000000000000E+01
 
   14 0
 s    6 1.00
 0.19730800647000E+05 0.58626402628763E-03
 0.29578958745000E+04 0.45428820586397E-02
 0.67322133595000E+03 0.23558413450084E-01
 0.19068249494000E+03 0.94709193292923E-01
 0.62295441898000E+02 0.29719784913376E+00
 0.22654161182000E+02 0.66916246895232E+00
 s    2 1.00
 0.89791477428000E+01 0.64596683630063E+00
 0.36863002370000E+01 0.38700574393705E+00
 s    1 1.00
 0.84660076805000E+00 0.10000000000000E+01
 s    1 1.00
 0.33647133771000E+00 0.10000000000000E+01
 s    1 1.00
 0.13647653675000E+00 0.10000000000000E+01
 s    1 1.00
 0.68441605847000E-01 0.10000000000000E+01
 p    4 1.00
 0.49200380510000E+02 0.11448825101764E-01
 0.11346790537000E+02 0.78422337970864E-01
 0.34273972411000E+01 0.30818094738830E+00
 0.11785525134000E+01 0.72027196368413E+00
 p    1 1.00
 0.41642204972000E+00 0.10000000000000E+01
 p    1 1.00
 0.14260826011000E+00 0.10000000000000E+01
 d    1 1.00
 0.16540000000000E+01 0.10000000000000E+01
 d    1 1.00
 0.46900000000000E+00 0.10000000000000E+01
 d    1 1.00
 0.12829642058000E+00 0.10000000000000E+01
 f    1 1.00
 0.10930000000000E+01 0.10000000000000E+01
 
   15 0
 s    3 1.00
 0.34061341000000E+02 0.25439307208879E-01
 0.51235746000000E+01 0.19008594890375E+00
 0.11646626000000E+01 0.85244113011042E+00
 s    1 1.00
 0.32723041000000E+00 0.10000000000000E+01
 s    1 1.00
 0.10307241000000E+00 0.10000000000000E+01
 p    1 1.00
 0.80000000000000E+00 0.10000000000000E+01
 p    1 1.00
 0.95774129632000E-01 0.10000000000000E+01
 
   16 0
 s    3 1.00
 0.34061341000000E+02 0.25439307208879E-01
 0.51235746000000E+01 0.19008594890375E+00
 0.11646626000000E+01 0.85244113011042E+00
 s    1 1.00
 0.32723041000000E+00 0.10000000000000E+01
 s    1 1.00
 0.10307241000000E+00 0.10000000000000E+01
 p    1 1.00
 0.80000000000000E+00 0.10000000000000E+01
 p    1 1.00
 0.95774129632000E-01 0.10000000000000E+01
 
[MO]
 Sym= X
 Ene= -0.910321
 Spin= Alpha
 Occup= -0.910321
         1   -2.962739E-04
         2   -6.887199E-04
         3    1.954461E-03
         4   -4.563058E-03
         5    2.855194E-02
         6   -1.825872E-02
         7   -2.622624E-03
         8   -2.437084E-04
         9    2.324306E-02
        10    4.192400E-03
        11   -7.536326E-04
        12    2.142105E-02
        13    4.612485E-02
        14   -1.824081E-02
        15    1.019036E-02
        16    4.496012E-06
        17   -2.098794E-05
        18    1.649193E-05
        19   -1.488261E-05
        20    5.894201E-03
        21   -3.484005E-03
        22   -1.044293E-03
        23    6.291893E-04
        24    4.151037E-04
        25   -1.159703E-03
        26    1.339420E-02
        27   -6.618312E-03
        28   -4.714438E-03
        29    4.322556E-03
        30    3.918825E-04
        31    2.552963E-03
        32   -3.943539E-03
        33    1.076650E-02
        34    3.273082E-05
        35   -9.483232E-06
        36   -6.402408E-05
        37   -1.348036E-05
        38    7.675525E-06
        39   -7.008675E-04
        40   -3.043265E-05
        41    5.047566E-06
        42    7.867648E-04
        43   -6.287742E-04
        44    5.816085E-05
        45    1.265909E-04
        46    2.361778E-04
        47   -5.456736E-03
        48   -7.675498E-02
        49    9.797908E-03
        50   -4.627915E-04
        51   -1.609408E-06
        52    1.822519E-01
        53    9.403043E-04
        54   -1.090017E-05
        55    1.890002E-01
        56    2.054786E-02
        57    4.737742E-04
        58    1.867634E-01
        59    6.287792E-05
        60   -5.932580E-05
        61   -3.552111E-06
        62    1.098993E-07
        63    4.414681E-04
        64   -1.256581E-07
        65    6.323821E-04
        66   -1.047319E-03
        67    4.149366E-04
        68    1.912577E-06
        69    2.531916E-03
        70    2.561322E-07
        71    1.960504E-02
        72   -2.172266E-02
        73    2.117612E-03
        74   -8.583786E-05
        75   -3.462919E-03
        76    1.727988E-05
        77   -1.182668E-05
        78   -1.977938E-08
        79   -9.994125E-04
        80    1.347958E-05
        81   -2.093705E-08
        82    5.664698E-04
        83    2.387571E-06
        84    4.747388E-08
        85    7.743828E-04
        86   -7.452595E-09
        87   -2.965399E-04
        88   -6.893169E-04
        89    1.956398E-03
        90   -4.571366E-03
        91    2.970226E-02
        92   -1.825573E-02
        93   -2.622848E-03
        94    2.449692E-04
        95    2.324770E-02
        96    4.173002E-03
        97    7.505841E-04
        98    2.142628E-02
        99    4.631738E-02
       100    1.867886E-02
       101    1.021758E-02
       102    4.484071E-06
       103   -2.093534E-05
       104    1.645127E-05
       105    1.504392E-05
       106    5.894250E-03
       107    3.484054E-03
       108   -1.040246E-03
       109    6.248876E-04
       110    4.153588E-04
       111    1.158116E-03
       112    1.339365E-02
       113    6.618369E-03
       114   -4.804079E-03
       115    4.424019E-03
       116    3.800596E-04
       117   -2.459316E-03
       118   -3.925483E-03
       119   -1.075738E-02
       120    3.276766E-05
       121    9.454937E-06
       122   -6.404581E-05
       123   -1.357149E-05
       124   -7.636034E-06
       125   -7.008589E-04
       126   -3.039094E-05
       127   -5.049094E-06
       128    7.867854E-04
       129    6.287599E-04
       130    2.571981E-04
       131    5.634013E-04
       132    5.857358E-04
       133   -1.625407E-02
       134    8.059084E-03
       135    2.154975E-02
       136    2.289533E-03
       137   -9.116474E-04
       138   -1.486939E-01
       139    1.486683E-02
       140   -9.719505E-03
       141   -1.513590E-01
       142    2.021733E-02
       143    1.258647E-02
       144   -9.281066E-02
       145    2.274436E-04
       146   -2.807717E-04
       147    5.332804E-05
       148   -4.583917E-06
       149    8.619920E-04
       150   -2.925303E-03
       151    1.066245E-03
       152   -1.229146E-03
       153    1.629014E-04
       154    2.628259E-03
       155    4.414264E-03
       156   -4.725757E-03
       157    1.151048E-02
       158   -8.579496E-03
       159   -2.930979E-03
       160   -1.723003E-02
       161   -4.858675E-03
       162    1.301570E-02
       163    2.627443E-05
       164   -1.445139E-05
       165    8.350647E-04
       166    2.882246E-05
       167   -2.741678E-05
       168   -1.901124E-04
       169   -6.407331E-05
       170    4.680536E-05
       171   -9.302445E-04
       172    3.168327E-04
       173   -1.752672E-03
       174   -3.989258E-03
       175    3.955860E-03
       176    3.473329E-02
       177   -6.821203E-02
       178    1.078388E-02
       179   -1.392439E-02
       180    1.378613E-06
       181   -1.076220E-01
       182   -4.945254E-04
       183    1.128517E-05
       184   -1.112930E-01
       185    6.250812E-02
       186   -5.434227E-04
       187   -1.391781E-01
       188    7.634473E-04
       189   -4.341913E-04
       190   -3.292561E-04
       191    1.960191E-07
       192   -1.019379E-02
       193   -7.834832E-08
       194   -2.864079E-03
       195    6.360662E-03
       196   -3.496583E-03
       197    2.783643E-06
       198   -2.488553E-02
       199    4.590355E-07
       200   -1.323211E-02
       201    1.456524E-02
       202   -1.333131E-03
       203   -1.475012E-04
       204   -1.503436E-02
       205   -1.540333E-05
       206   -1.835859E-04
       207   -3.036895E-09
       208    2.188409E-04
       209    1.336186E-04
       210    5.357561E-08
       211    1.187218E-03
       212    1.126878E-04
       213   -4.950118E-08
       214   -1.480824E-03
       215    2.418996E-08
       216    2.573902E-04
       217    5.637900E-04
       218    5.860367E-04
       219   -1.626611E-02
       220    9.463318E-03
       221    2.151791E-02
       222    2.289497E-03
       223    9.068546E-04
       224   -1.486957E-01
       225    1.487715E-02
       226    9.724848E-03
       227   -1.513629E-01
       228    2.006968E-02
       229   -1.315976E-02
       230   -9.277780E-02
       231    2.273675E-04
       232   -2.809515E-04
       233    5.358404E-05
       234    4.851487E-06
       235    8.619678E-04
       236    2.925358E-03
       237    1.069858E-03
       238   -1.233499E-03
       239    1.636417E-04
       240   -2.630540E-03
       241    4.413328E-03
       242    4.725430E-03
       243    1.141553E-02
       244   -8.484768E-03
       245   -2.930765E-03
       246    1.731014E-02
       247   -4.878288E-03
       248   -1.303125E-02
       249    2.629311E-05
       250    1.451557E-05
       251    8.351258E-04
       252    2.894239E-05
       253    2.733180E-05
       254   -1.901806E-04
       255   -6.421830E-05
       256   -4.680648E-05
       257   -9.302582E-04
       258   -3.168041E-04
       259   -5.253223E-04
       260   -1.831352E-04
       261   -2.616416E-02
       262    1.446932E-05
       263   -1.974873E-05
       264    9.537718E-04
       265    7.794156E-03
       266    1.331331E-03
       267   -5.843213E-03
       268   -5.261167E-04
       269   -1.794042E-04
       270   -2.613224E-02
       271    1.393687E-05
       272    2.035689E-05
       273    9.539768E-04
       274    7.880322E-03
       275   -1.293888E-03
       276   -5.847308E-03
       277   -8.148110E-04
       278   -3.986505E-03
       279    5.639881E-02
       280    1.599758E-05
       281   -1.784657E-04
       282   -6.029881E-03
       283    2.203261E-03
       284    4.838497E-03
       285    1.247653E-03
       286   -8.179698E-04
       287   -3.984272E-03
       288    5.652214E-02
       289    1.577337E-05
       290    1.781968E-04
       291   -6.030158E-03
       292    2.154866E-03
       293   -4.878004E-03
       294    1.250148E-03
       295   -6.485311E-05
       296   -1.508970E-04
       297    1.430536E-04
       298    3.794326E-04
       299   -1.357036E-02
       300   -1.744478E-03
       301   -5.813950E-04
       302    2.631016E-07
       303    1.242807E-02
       304   -5.542287E-05
       305    5.078632E-07
       306    1.476907E-02
       307    4.955393E-03
       308    1.465634E-06
       309    1.847983E-03
       310    1.617025E-05
       311   -2.125692E-06
       312   -1.404456E-05
       313   -8.650954E-10
       314   -3.799243E-03
       315   -2.209085E-08
       316   -3.884809E-05
       317    1.143416E-04
       318   -7.549352E-05
       319   -5.796606E-08
       320   -1.139240E-02
       321   -9.850149E-08
       322   -7.057626E-04
       323    4.212402E-03
       324   -3.506639E-03
       325    1.298209E-05
       326   -2.510562E-03
       327   -4.156988E-06
       328   -9.354896E-06
       329   -7.662482E-10
       330   -1.166793E-07
       331    7.036081E-06
       332   -9.490246E-09
       333    6.172960E-04
       334    5.514829E-06
       335    1.051828E-08
       336   -6.171394E-04
       337   -7.374582E-09
       338   -2.144809E-05
       339   -4.641994E-05
       340   -5.463373E-06
       341    8.237502E-04
       342   -9.706915E-03
       343   -1.890583E-03
       344    7.811937E-05
       345   -1.995207E-04
       346   -6.607608E-02
       347    2.865152E-04
       348   -4.011037E-04
       349   -6.128797E-02
       350    1.618132E-03
       351   -1.040129E-03
       352   -4.842801E-02
       353    4.106651E-04
       354   -3.093698E-04
       355   -5.610014E-03
       356    5.161037E-06
       357   -6.508677E-06
       358    1.347639E-06
       359   -8.064184E-07
       360    1.119723E-05
       361   -4.482960E-04
       362   -1.312407E-05
       363   -1.743429E-05
       364    3.055836E-05
       365    1.201095E-05
       366    5.102505E-04
       367   -1.447239E-03
       368   -8.350527E-05
       369   -8.290074E-07
       370    8.433427E-05
       371   -2.022607E-05
       372    4.492638E-04
       373   -2.960054E-04
       374   -8.080659E-07
       375   -2.875001E-06
       376    5.795803E-05
       377    1.389031E-06
       378    1.322890E-06
       379    7.757011E-05
       380   -3.048966E-07
       381    2.534329E-06
       382   -1.553290E-04
       383    1.214374E-04
       384   -2.145607E-05
       385   -4.644311E-05
       386   -5.401300E-06
       387    8.239548E-04
       388   -9.722825E-03
       389   -1.875031E-03
       390    7.539516E-05
       391    1.994029E-04
       392   -6.607716E-02
       393    2.842590E-04
       394    4.011522E-04
       395   -6.128949E-02
       396    1.607960E-03
       397    1.045605E-03
       398   -4.842137E-02
       399    4.029390E-04
       400    3.125298E-04
       401   -5.610593E-03
       402    5.154331E-06
       403   -6.483369E-06
       404    1.329038E-06
       405    8.090120E-07
       406    1.122288E-05
       407    4.483221E-04
       408   -1.293350E-05
       409   -1.750984E-05
       410    3.044334E-05
       411   -1.190050E-05
       412    5.101901E-04
       413    1.447172E-03
       414   -8.436428E-05
       415    2.695870E-07
       416    8.409469E-05
       417    1.967575E-05
       418    4.490547E-04
       419    2.950633E-04
       420   -8.051516E-07
       421    2.871698E-06
       422    5.796153E-05
       423    1.382714E-06
       424   -1.329847E-06
       425    7.756234E-05
       426   -3.024896E-07
       427   -2.522939E-06
       428   -1.553259E-04
       429   -1.214392E-04
       430    7.911532E-03
       431    1.875098E-02
       432   -2.898542E-02
       433   -4.733298E-02
       434   -1.762208E-02
       435   -9.645864E-02
       436    2.768976E-02
       437   -7.965922E-06
       438    2.818299E-01
       439    3.158216E-02
       440   -1.782964E-06
       441    2.769753E-01
       442    3.628284E-02
       443    6.204166E-05
       444    2.230808E-01
       445   -2.205489E-04
       446   -7.118451E-05
       447    2.917334E-04
       448    1.741784E-07
       449   -7.313673E-04
       450   -2.016540E-07
       451   -4.378385E-04
       452   -2.624695E-03
       453    3.062533E-03
       454   -2.350282E-06
       455   -3.356887E-03
       456   -3.342349E-07
       457   -2.975661E-03
       458   -6.612664E-03
       459    9.588326E-03
       460   -8.805865E-06
       461   -2.349163E-03
       462   -2.471629E-07
       463    2.090520E-04
       464   -3.720585E-08
       465   -1.098116E-03
       466    1.500252E-04
       467   -2.032791E-08
       468    6.068298E-04
       469   -4.304980E-04
       470    7.024479E-08
       471    8.664476E-04
       472   -3.200752E-08
       473    1.424970E-02
       474    2.831975E-02
       475    5.328890E-02
       476    3.513984E-03
       477    2.964186E-03
       478    1.393697E-02
       479    4.553857E-05
       480    5.980935E-03
       481    1.529040E-02
       482    1.424469E-02
       483    2.826773E-02
       484    5.304269E-02
       485    3.510830E-03
       486   -2.959909E-03
       487    1.393973E-02
       488    3.734424E-06
       489   -5.952405E-03
       490    1.530536E-02
 Sym= X
 Ene= 0.910321
 Spin= Alpha
 Occup= 0.910321
         1   -3.186411E-03
         2   -7.039571E-03
         3    1.448418E-02
         4    1.988143E-02
         5   -2.990789E+00
         6    9.466599E-01
         7    1.990419E-02
         8    5.882634E-03
         9   -5.817796E-04
        10    1.252546E-01
        11    1.652115E-02
        12    2.580794E-03
        13    8.483071E-01
        14    6.127493E-01
        15    4.350033E-02
        16    1.157478E-03
        17    7.393957E-05
        18   -1.231417E-03
        19   -1.619515E-03
        20    3.514423E-04
        21   -1.945723E-04
        22   -1.811170E-02
        23    1.884967E-02
        24   -7.379743E-04
        25   -1.252949E-03
        26   -8.033114E-04
        27   -2.820910E-04
        28   -4.755988E-01
        29    3.167800E-01
        30    1.588188E-01
        31   -6.389721E-01
        32    2.056656E-02
        33   -2.930921E-02
        34    2.794324E-04
        35    1.161304E-04
        36    2.875705E-05
        37    3.642795E-04
        38    9.536853E-05
        39   -1.528061E-05
        40   -7.391774E-04
        41   -2.511738E-04
        42   -2.330101E-05
        43    3.269050E-05
        44   -6.240344E-03
        45   -1.386101E-02
        46    1.173730E-02
        47    1.392759E-01
        48   -1.205940E+00
        49   -1.269940E+00
        50    4.605668E-03
        51    4.274734E-08
        52    5.002393E-03
        53    6.173875E-02
        54    2.749910E-05
        55    1.010562E-02
        56    5.934659E-01
        57    1.817689E-03
        58   -1.190965E-01
        59   -1.922675E-03
        60    3.050568E-03
        61   -1.127893E-03
        62   -1.864121E-09