[Molden Format]
[Title]
ADC(2) - opt by CAM-B3LYP gaussian                                              
[Atoms] AU
 c     1    6 0.12592752280008E+01 0.22800132789445E+01 -.35345910021030E-01
 c     2    6 0.25511638220345E+01 0.20078340100000E-05 -.33671612667290E-01
 c     3    6 0.12592790074531E+01 -.22800111530026E+01 -.35357248377820E-01
 c     4    6 -.13364450292264E+01 -.22798221803893E+01 -.38530098554940E-01
 c     5    6 -.26857699593430E+01 -.17716182500000E-05 -.39025206801750E-01
 c     6    6 -.13364469189525E+01 0.22798205268790E+01 -.38516870472010E-01
 h     7    1 0.23055183220207E+01 0.40307538342087E+01 -.32265656424420E-01
 h     8    1 0.23055239911991E+01 -.40307498185407E+01 -.32284553685750E-01
 h     9    1 -.23548467881305E+01 -.40530977197882E+01 -.43619131030800E-01
 h    10    1 -.23548543470350E+01 0.40530922868255E+01 -.43594564591070E-01
 n    11    7 0.52860567397703E+01 0.11810788000000E-06 -.26776002008390E-01
 o    12    8 0.63771222479361E+01 -.20280728649663E+01 -.23850705954680E-01
 o    13    8 0.63771260273883E+01 0.20280712114559E+01 -.23882831298940E-01
 n    14    7 -.52615573853205E+01 0.11810788000000E-06 -.10505223788478E+00
 h    15    1 -.61955753134867E+01 -.16086254730588E+01 0.27588253543458E+00
 h    16    1 -.61955696443083E+01 0.16086275990006E+01 0.27589009433911E+00
[GTO]
    1 0
 s    6 1.00
 0.13575349682000E+05 0.60645503603591E-03
 0.20352333680000E+04 0.46979088884982E-02
 0.46322562359000E+03 0.24332477647552E-01
 0.13120019598000E+03 0.97399968307759E-01
 0.42853015891000E+02 0.30195584253780E+00
 0.15584185766000E+02 0.66233609137875E+00
 s    2 1.00
 0.62067138508000E+01 0.65595308539952E+00
 0.25764896527000E+01 0.37585633285142E+00
 s    1 1.00
 0.57696339419000E+00 0.10000000000000E+01
 s    1 1.00
 0.22972831358000E+00 0.10000000000000E+01
 s    1 1.00
 0.95164440028000E-01 0.10000000000000E+01
 s    1 1.00
 0.48475401370000E-01 0.10000000000000E+01
 p    4 1.00
 0.34697232244000E+02 0.11327220003114E-01
 0.79582622826000E+01 0.76169659202087E-01
 0.23780826883000E+01 0.30192252202676E+00
 0.81433208183000E+00 0.72785027349547E+00
 p    1 1.00
 0.28887547253000E+00 0.10000000000000E+01
 p    1 1.00
 0.10056823671000E+00 0.10000000000000E+01
 d    1 1.00
 0.10970000000000E+01 0.10000000000000E+01
 d    1 1.00
 0.31800000000000E+00 0.10000000000000E+01
 d    1 1.00
 0.90985336424000E-01 0.10000000000000E+01
 f    1 1.00
 0.76100000000000E+00 0.10000000000000E+01
 
    2 0
 s    6 1.00
 0.13575349682000E+05 0.60645503603591E-03
 0.20352333680000E+04 0.46979088884982E-02
 0.46322562359000E+03 0.24332477647552E-01
 0.13120019598000E+03 0.97399968307759E-01
 0.42853015891000E+02 0.30195584253780E+00
 0.15584185766000E+02 0.66233609137875E+00
 s    2 1.00
 0.62067138508000E+01 0.65595308539952E+00
 0.25764896527000E+01 0.37585633285142E+00
 s    1 1.00
 0.57696339419000E+00 0.10000000000000E+01
 s    1 1.00
 0.22972831358000E+00 0.10000000000000E+01
 s    1 1.00
 0.95164440028000E-01 0.10000000000000E+01
 s    1 1.00
 0.48475401370000E-01 0.10000000000000E+01
 p    4 1.00
 0.34697232244000E+02 0.11327220003114E-01
 0.79582622826000E+01 0.76169659202087E-01
 0.23780826883000E+01 0.30192252202676E+00
 0.81433208183000E+00 0.72785027349547E+00
 p    1 1.00
 0.28887547253000E+00 0.10000000000000E+01
 p    1 1.00
 0.10056823671000E+00 0.10000000000000E+01
 d    1 1.00
 0.10970000000000E+01 0.10000000000000E+01
 d    1 1.00
 0.31800000000000E+00 0.10000000000000E+01
 d    1 1.00
 0.90985336424000E-01 0.10000000000000E+01
 f    1 1.00
 0.76100000000000E+00 0.10000000000000E+01
 
    3 0
 s    6 1.00
 0.13575349682000E+05 0.60645503603591E-03
 0.20352333680000E+04 0.46979088884982E-02
 0.46322562359000E+03 0.24332477647552E-01
 0.13120019598000E+03 0.97399968307759E-01
 0.42853015891000E+02 0.30195584253780E+00
 0.15584185766000E+02 0.66233609137875E+00
 s    2 1.00
 0.62067138508000E+01 0.65595308539952E+00
 0.25764896527000E+01 0.37585633285142E+00
 s    1 1.00
 0.57696339419000E+00 0.10000000000000E+01
 s    1 1.00
 0.22972831358000E+00 0.10000000000000E+01
 s    1 1.00
 0.95164440028000E-01 0.10000000000000E+01
 s    1 1.00
 0.48475401370000E-01 0.10000000000000E+01
 p    4 1.00
 0.34697232244000E+02 0.11327220003114E-01
 0.79582622826000E+01 0.76169659202087E-01
 0.23780826883000E+01 0.30192252202676E+00
 0.81433208183000E+00 0.72785027349547E+00
 p    1 1.00
 0.28887547253000E+00 0.10000000000000E+01
 p    1 1.00
 0.10056823671000E+00 0.10000000000000E+01
 d    1 1.00
 0.10970000000000E+01 0.10000000000000E+01
 d    1 1.00
 0.31800000000000E+00 0.10000000000000E+01
 d    1 1.00
 0.90985336424000E-01 0.10000000000000E+01
 f    1 1.00
 0.76100000000000E+00 0.10000000000000E+01
 
    4 0
 s    6 1.00
 0.13575349682000E+05 0.60645503603591E-03
 0.20352333680000E+04 0.46979088884982E-02
 0.46322562359000E+03 0.24332477647552E-01
 0.13120019598000E+03 0.97399968307759E-01
 0.42853015891000E+02 0.30195584253780E+00
 0.15584185766000E+02 0.66233609137875E+00
 s    2 1.00
 0.62067138508000E+01 0.65595308539952E+00
 0.25764896527000E+01 0.37585633285142E+00
 s    1 1.00
 0.57696339419000E+00 0.10000000000000E+01
 s    1 1.00
 0.22972831358000E+00 0.10000000000000E+01
 s    1 1.00
 0.95164440028000E-01 0.10000000000000E+01
 s    1 1.00
 0.48475401370000E-01 0.10000000000000E+01
 p    4 1.00
 0.34697232244000E+02 0.11327220003114E-01
 0.79582622826000E+01 0.76169659202087E-01
 0.23780826883000E+01 0.30192252202676E+00
 0.81433208183000E+00 0.72785027349547E+00
 p    1 1.00
 0.28887547253000E+00 0.10000000000000E+01
 p    1 1.00
 0.10056823671000E+00 0.10000000000000E+01
 d    1 1.00
 0.10970000000000E+01 0.10000000000000E+01
 d    1 1.00
 0.31800000000000E+00 0.10000000000000E+01
 d    1 1.00
 0.90985336424000E-01 0.10000000000000E+01
 f    1 1.00
 0.76100000000000E+00 0.10000000000000E+01
 
    5 0
 s    6 1.00
 0.13575349682000E+05 0.60645503603591E-03
 0.20352333680000E+04 0.46979088884982E-02
 0.46322562359000E+03 0.24332477647552E-01
 0.13120019598000E+03 0.97399968307759E-01
 0.42853015891000E+02 0.30195584253780E+00
 0.15584185766000E+02 0.66233609137875E+00
 s    2 1.00
 0.62067138508000E+01 0.65595308539952E+00
 0.25764896527000E+01 0.37585633285142E+00
 s    1 1.00
 0.57696339419000E+00 0.10000000000000E+01
 s    1 1.00
 0.22972831358000E+00 0.10000000000000E+01
 s    1 1.00
 0.95164440028000E-01 0.10000000000000E+01
 s    1 1.00
 0.48475401370000E-01 0.10000000000000E+01
 p    4 1.00
 0.34697232244000E+02 0.11327220003114E-01
 0.79582622826000E+01 0.76169659202087E-01
 0.23780826883000E+01 0.30192252202676E+00
 0.81433208183000E+00 0.72785027349547E+00
 p    1 1.00
 0.28887547253000E+00 0.10000000000000E+01
 p    1 1.00
 0.10056823671000E+00 0.10000000000000E+01
 d    1 1.00
 0.10970000000000E+01 0.10000000000000E+01
 d    1 1.00
 0.31800000000000E+00 0.10000000000000E+01
 d    1 1.00
 0.90985336424000E-01 0.10000000000000E+01
 f    1 1.00
 0.76100000000000E+00 0.10000000000000E+01
 
    6 0
 s    6 1.00
 0.13575349682000E+05 0.60645503603591E-03
 0.20352333680000E+04 0.46979088884982E-02
 0.46322562359000E+03 0.24332477647552E-01
 0.13120019598000E+03 0.97399968307759E-01
 0.42853015891000E+02 0.30195584253780E+00
 0.15584185766000E+02 0.66233609137875E+00
 s    2 1.00
 0.62067138508000E+01 0.65595308539952E+00
 0.25764896527000E+01 0.37585633285142E+00
 s    1 1.00
 0.57696339419000E+00 0.10000000000000E+01
 s    1 1.00
 0.22972831358000E+00 0.10000000000000E+01
 s    1 1.00
 0.95164440028000E-01 0.10000000000000E+01
 s    1 1.00
 0.48475401370000E-01 0.10000000000000E+01
 p    4 1.00
 0.34697232244000E+02 0.11327220003114E-01
 0.79582622826000E+01 0.76169659202087E-01
 0.23780826883000E+01 0.30192252202676E+00
 0.81433208183000E+00 0.72785027349547E+00
 p    1 1.00
 0.28887547253000E+00 0.10000000000000E+01
 p    1 1.00
 0.10056823671000E+00 0.10000000000000E+01
 d    1 1.00
 0.10970000000000E+01 0.10000000000000E+01
 d    1 1.00
 0.31800000000000E+00 0.10000000000000E+01
 d    1 1.00
 0.90985336424000E-01 0.10000000000000E+01
 f    1 1.00
 0.76100000000000E+00 0.10000000000000E+01
 
    7 0
 s    3 1.00
 0.34061341000000E+02 0.25439307208879E-01
 0.51235746000000E+01 0.19008594890375E+00
 0.11646626000000E+01 0.85244113011042E+00
 s    1 1.00
 0.32723041000000E+00 0.10000000000000E+01
 s    1 1.00
 0.10307241000000E+00 0.10000000000000E+01
 p    1 1.00
 0.80000000000000E+00 0.10000000000000E+01
 p    1 1.00
 0.95774129632000E-01 0.10000000000000E+01
 
    8 0
 s    3 1.00
 0.34061341000000E+02 0.25439307208879E-01
 0.51235746000000E+01 0.19008594890375E+00
 0.11646626000000E+01 0.85244113011042E+00
 s    1 1.00
 0.32723041000000E+00 0.10000000000000E+01
 s    1 1.00
 0.10307241000000E+00 0.10000000000000E+01
 p    1 1.00
 0.80000000000000E+00 0.10000000000000E+01
 p    1 1.00
 0.95774129632000E-01 0.10000000000000E+01
 
    9 0
 s    3 1.00
 0.34061341000000E+02 0.25439307208879E-01
 0.51235746000000E+01 0.19008594890375E+00
 0.11646626000000E+01 0.85244113011042E+00
 s    1 1.00
 0.32723041000000E+00 0.10000000000000E+01
 s    1 1.00
 0.10307241000000E+00 0.10000000000000E+01
 p    1 1.00
 0.80000000000000E+00 0.10000000000000E+01
 p    1 1.00
 0.95774129632000E-01 0.10000000000000E+01
 
   10 0
 s    3 1.00
 0.34061341000000E+02 0.25439307208879E-01
 0.51235746000000E+01 0.19008594890375E+00
 0.11646626000000E+01 0.85244113011042E+00
 s    1 1.00
 0.32723041000000E+00 0.10000000000000E+01
 s    1 1.00
 0.10307241000000E+00 0.10000000000000E+01
 p    1 1.00
 0.80000000000000E+00 0.10000000000000E+01
 p    1 1.00
 0.95774129632000E-01 0.10000000000000E+01
 
   11 0
 s    6 1.00
 0.19730800647000E+05 0.58626402628763E-03
 0.29578958745000E+04 0.45428820586397E-02
 0.67322133595000E+03 0.23558413450084E-01
 0.19068249494000E+03 0.94709193292923E-01
 0.62295441898000E+02 0.29719784913376E+00
 0.22654161182000E+02 0.66916246895232E+00
 s    2 1.00
 0.89791477428000E+01 0.64596683630063E+00
 0.36863002370000E+01 0.38700574393705E+00
 s    1 1.00
 0.84660076805000E+00 0.10000000000000E+01
 s    1 1.00
 0.33647133771000E+00 0.10000000000000E+01
 s    1 1.00
 0.13647653675000E+00 0.10000000000000E+01
 s    1 1.00
 0.68441605847000E-01 0.10000000000000E+01
 p    4 1.00
 0.49200380510000E+02 0.11448825101764E-01
 0.11346790537000E+02 0.78422337970864E-01
 0.34273972411000E+01 0.30818094738830E+00
 0.11785525134000E+01 0.72027196368413E+00
 p    1 1.00
 0.41642204972000E+00 0.10000000000000E+01
 p    1 1.00
 0.14260826011000E+00 0.10000000000000E+01
 d    1 1.00
 0.16540000000000E+01 0.10000000000000E+01
 d    1 1.00
 0.46900000000000E+00 0.10000000000000E+01
 d    1 1.00
 0.12829642058000E+00 0.10000000000000E+01
 f    1 1.00
 0.10930000000000E+01 0.10000000000000E+01
 
   12 0
 s    6 1.00
 0.27032382631000E+05 0.57227335211155E-03
 0.40523871392000E+04 0.44353233492995E-02
 0.92232722710000E+03 0.23020107706038E-01
 0.26124070989000E+03 0.92822490667928E-01
 0.85354641351000E+02 0.29378500009671E+00
 0.31035035245000E+02 0.67401604501641E+00
 s    2 1.00
 0.12260860728000E+02 0.63839937025506E+00
 0.49987076005000E+01 0.39534587125718E+00
 s    1 1.00
 0.11703108158000E+01 0.10000000000000E+01
 s    1 1.00
 0.46474740994000E+00 0.10000000000000E+01
 s    1 1.00
 0.18504536357000E+00 0.10000000000000E+01
 s    1 1.00
 0.70288026270000E-01 0.10000000000000E+01
 p    4 1.00
 0.63274954801000E+02 0.12018332222616E-01
 0.14627049379000E+02 0.83005421790056E-01
 0.44501223456000E+01 0.31991743925964E+00
 0.15275799647000E+01 0.70715542916104E+00
 p    1 1.00
 0.52935117943000E+00 0.10000000000000E+01
 p    1 1.00
 0.17478421270000E+00 0.10000000000000E+01
 p    1 1.00
 0.51112745706000E-01 0.10000000000000E+01
 d    1 1.00
 0.23140000000000E+01 0.10000000000000E+01
 d    1 1.00
 0.64500000000000E+00 0.10000000000000E+01
 d    1 1.00
 0.14696477366000E+00 0.10000000000000E+01
 f    1 1.00
 0.14280000000000E+01 0.10000000000000E+01
 
   13 0
 s    6 1.00
 0.27032382631000E+05 0.57227335211155E-03
 0.40523871392000E+04 0.44353233492995E-02
 0.92232722710000E+03 0.23020107706038E-01
 0.26124070989000E+03 0.92822490667928E-01
 0.85354641351000E+02 0.29378500009671E+00
 0.31035035245000E+02 0.67401604501641E+00
 s    2 1.00
 0.12260860728000E+02 0.63839937025506E+00
 0.49987076005000E+01 0.39534587125718E+00
 s    1 1.00
 0.11703108158000E+01 0.10000000000000E+01
 s    1 1.00
 0.46474740994000E+00 0.10000000000000E+01
 s    1 1.00
 0.18504536357000E+00 0.10000000000000E+01
 s    1 1.00
 0.70288026270000E-01 0.10000000000000E+01
 p    4 1.00
 0.63274954801000E+02 0.12018332222616E-01
 0.14627049379000E+02 0.83005421790056E-01
 0.44501223456000E+01 0.31991743925964E+00
 0.15275799647000E+01 0.70715542916104E+00
 p    1 1.00
 0.52935117943000E+00 0.10000000000000E+01
 p    1 1.00
 0.17478421270000E+00 0.10000000000000E+01
 p    1 1.00
 0.51112745706000E-01 0.10000000000000E+01
 d    1 1.00
 0.23140000000000E+01 0.10000000000000E+01
 d    1 1.00
 0.64500000000000E+00 0.10000000000000E+01
 d    1 1.00
 0.14696477366000E+00 0.10000000000000E+01
 f    1 1.00
 0.14280000000000E+01 0.10000000000000E+01
 
   14 0
 s    6 1.00
 0.19730800647000E+05 0.58626402628763E-03
 0.29578958745000E+04 0.45428820586397E-02
 0.67322133595000E+03 0.23558413450084E-01
 0.19068249494000E+03 0.94709193292923E-01
 0.62295441898000E+02 0.29719784913376E+00
 0.22654161182000E+02 0.66916246895232E+00
 s    2 1.00
 0.89791477428000E+01 0.64596683630063E+00
 0.36863002370000E+01 0.38700574393705E+00
 s    1 1.00
 0.84660076805000E+00 0.10000000000000E+01
 s    1 1.00
 0.33647133771000E+00 0.10000000000000E+01
 s    1 1.00
 0.13647653675000E+00 0.10000000000000E+01
 s    1 1.00
 0.68441605847000E-01 0.10000000000000E+01
 p    4 1.00
 0.49200380510000E+02 0.11448825101764E-01
 0.11346790537000E+02 0.78422337970864E-01
 0.34273972411000E+01 0.30818094738830E+00
 0.11785525134000E+01 0.72027196368413E+00
 p    1 1.00
 0.41642204972000E+00 0.10000000000000E+01
 p    1 1.00
 0.14260826011000E+00 0.10000000000000E+01
 d    1 1.00
 0.16540000000000E+01 0.10000000000000E+01
 d    1 1.00
 0.46900000000000E+00 0.10000000000000E+01
 d    1 1.00
 0.12829642058000E+00 0.10000000000000E+01
 f    1 1.00
 0.10930000000000E+01 0.10000000000000E+01
 
   15 0
 s    3 1.00
 0.34061341000000E+02 0.25439307208879E-01
 0.51235746000000E+01 0.19008594890375E+00
 0.11646626000000E+01 0.85244113011042E+00
 s    1 1.00
 0.32723041000000E+00 0.10000000000000E+01
 s    1 1.00
 0.10307241000000E+00 0.10000000000000E+01
 p    1 1.00
 0.80000000000000E+00 0.10000000000000E+01
 p    1 1.00
 0.95774129632000E-01 0.10000000000000E+01
 
   16 0
 s    3 1.00
 0.34061341000000E+02 0.25439307208879E-01
 0.51235746000000E+01 0.19008594890375E+00
 0.11646626000000E+01 0.85244113011042E+00
 s    1 1.00
 0.32723041000000E+00 0.10000000000000E+01
 s    1 1.00
 0.10307241000000E+00 0.10000000000000E+01
 p    1 1.00
 0.80000000000000E+00 0.10000000000000E+01
 p    1 1.00
 0.95774129632000E-01 0.10000000000000E+01
 
[MO]
 Sym= X
 Ene= -0.242443
 Spin= Alpha
 Occup= -0.242443
         1    3.424587E-05
         2    7.828113E-05
         3   -2.337862E-04
         4    5.344467E-04
         5    7.013900E-03
         6    7.193568E-04
         7   -1.066639E-04
         8   -1.708737E-04
         9    1.885409E-01
        10   -1.070276E-03
        11    1.379431E-04
        12    1.893128E-01
        13    4.999165E-03
        14   -5.558657E-03
        15    1.112559E-01
        16    9.671749E-06
        17   -3.712047E-06
        18   -5.959702E-06
        19   -2.429819E-07
        20   -4.956809E-03
        21   -5.589467E-04
        22    2.096814E-04
        23   -1.491574E-04
        24   -6.052402E-05
        25   -4.640558E-06
        26   -9.636564E-03
        27    4.386306E-04
        28   -8.956895E-04
        29    9.294181E-04
        30   -3.372855E-05
        31   -4.584900E-04
        32   -4.310227E-03
        33    1.203615E-03
        34   -7.440230E-06
        35   -3.426890E-07
        36   -1.182459E-03
        37    2.040399E-06
        38    3.568181E-08
        39    1.426715E-03
        40    7.941717E-06
        41    4.240838E-07
        42    1.597206E-04
        43    2.259812E-06
        44   -3.336604E-07
        45   -8.366283E-07
        46    6.382532E-06
        47   -2.014904E-05
        48   -1.459867E-03
        49   -1.043853E-04
        50    2.098921E-06
        51    1.278242E-04
        52   -4.153498E-05
        53    1.442736E-05
        54    5.072786E-04
        55   -4.560493E-05
        56    6.122743E-04
        57   -9.789672E-03
        58   -2.837529E-05
        59    1.771943E-07
        60   -2.466509E-07
        61    6.945664E-08
        62   -9.969057E-06
        63   -5.497303E-08
        64    7.142845E-03
        65    1.137211E-06
        66   -4.825374E-06
        67    3.688164E-06
        68   -1.705005E-04
        69    3.992836E-07
        70    1.621303E-02
        71   -3.938443E-05
        72    7.736943E-06
        73    3.164748E-05
        74    1.198822E-03
        75    1.300643E-06
        76    3.083264E-03
        77   -2.529906E-08
        78    7.919980E-07
        79    2.967376E-07
        80    1.148249E-07
        81    2.339134E-06
        82   -1.762221E-07
        83   -8.088263E-08
        84   -3.401711E-06
        85   -2.218932E-07
        86   -1.025531E-03
        87   -3.385074E-05
        88   -7.731505E-05
        89    2.211642E-04
        90   -4.842454E-04
        91   -4.227823E-03
        92   -5.617459E-04
        93    1.035656E-04
        94   -1.696163E-04
        95   -1.885626E-01
        96    1.029046E-03
        97    1.632767E-04
        98   -1.893325E-01
        99   -5.783114E-03
       100   -4.338826E-03
       101   -1.112315E-01
       102   -9.503359E-06
       103    3.461246E-06
       104    6.042113E-06
       105    9.785961E-09
       106    4.954973E-03
       107   -5.606177E-04
       108   -1.980815E-04
       109    1.458508E-04
       110    5.223065E-05
       111    1.783799E-06
       112    9.632130E-03
       113    4.367574E-04
       114    8.851663E-04
       115   -8.654631E-04
       116   -1.970315E-05
       117   -5.277828E-04
       118    4.303060E-03
       119    1.207670E-03
       120    7.047126E-06
       121   -2.317671E-07
       122    1.182626E-03
       123   -1.759400E-06
       124    1.381441E-07
       125   -1.426613E-03
       126   -7.695311E-06
       127    1.728041E-07
       128   -1.600465E-04
       129    2.044897E-06
       130    1.071659E-05
       131    2.766555E-05
       132   -2.114177E-04
       133    1.600705E-03
       134    1.236880E-02
       135    3.863273E-04
       136    3.142057E-04
       137    6.266964E-05
       138   -2.017110E-01
       139    8.671917E-04
       140    2.836624E-04
       141   -2.045937E-01
       142   -9.143799E-03
       143    8.600115E-03
       144   -1.321881E-01
       145    2.199890E-05
       146    7.151620E-06
       147   -2.915052E-05
       148   -5.925889E-06
       149   -4.596757E-03
       150   -4.826924E-04
       151    2.887741E-04
       152   -9.082592E-05
       153   -1.979482E-04
       154   -1.201557E-04
       155   -8.091148E-03
       156   -4.559122E-04
       157    1.118026E-04
       158    2.676189E-04
       159   -3.794215E-04
       160   -1.693999E-03
       161    3.673232E-03
       162   -3.228749E-03
       163    9.540039E-06
       164    1.550509E-06
       165    1.326021E-03
       166   -6.261248E-06
       167    1.814129E-06
       168   -1.467922E-03
       169   -6.538058E-06
       170   -3.894356E-06
       171   -3.111218E-04
       172    4.590808E-05
       173    4.271829E-07
       174    1.053646E-06
       175   -6.831653E-06
       176    8.327398E-06
       177    1.840668E-03
       178    1.356810E-04
       179    2.280540E-07
       180   -2.047959E-04
       181    2.207217E-05
       182    1.439009E-05
       183   -7.960780E-05
       184    2.468603E-05
       185    6.781953E-04
       186    2.356601E-02
       187    1.617915E-05
       188   -2.719999E-07
       189    5.325731E-08
       190    2.187426E-07
       191    2.730370E-05
       192    8.799165E-07
       193    7.637119E-03
       194   -4.844673E-08
       195    5.136011E-06
       196   -5.087564E-06
       197    9.440983E-05
       198    3.323871E-06
       199    1.607924E-02
       200    3.286871E-05
       201    1.013045E-05
       202   -4.299916E-05
       203    1.300880E-03
       204    3.270620E-06
       205   -7.791778E-03
       206   -2.707297E-08
       207    6.219878E-06
       208   -1.159063E-07
       209    1.717523E-07
       210   -7.397781E-06
       211   -4.407203E-08
       212   -1.354301E-07
       213   -9.470613E-07
       214    1.995767E-07
       215    1.191123E-03
       216   -1.143772E-05
       217   -2.936700E-05
       218    2.262075E-04
       219   -1.653305E-03
       220   -1.551144E-02
       221   -5.603023E-04
       222   -3.138681E-04
       223    6.503532E-05
       224    2.017495E-01
       225   -9.039500E-04
       226    3.113551E-04
       227    2.046325E-01
       228    8.491184E-03
       229    9.931710E-03
       230    1.321745E-01
       231   -2.199446E-05
       232   -6.935159E-06
       233    2.892962E-05
       234   -6.229808E-06
       235    4.596169E-03
       236   -4.837307E-04
       237   -3.001389E-04
       238    9.254649E-05
       239    2.075924E-04
       240   -1.263082E-04
       241    8.088855E-03
       242   -4.564555E-04
       243   -1.034136E-04
       244   -3.327779E-04
       245    4.361916E-04
       246   -1.633054E-03
       247   -3.679374E-03
       248   -3.225893E-03
       249   -9.919129E-06
       250    1.710408E-06
       251   -1.326242E-03
       252    6.588977E-06
       253    1.875532E-06
       254    1.467955E-03
       255    6.718931E-06
       256   -4.170286E-06
       257    3.113851E-04
       258    4.601269E-05
       259   -1.978931E-05
       260   -1.795124E-05
       261    7.864938E-04
       262   -1.387524E-05
       263   -5.682789E-07
       264    7.750096E-03
       265   -9.242357E-05
       266   -2.435492E-04
       267    6.929987E-03
       268    1.724059E-05
       269    2.588931E-05
       270   -4.073912E-04
       271    1.343880E-05
       272    3.516472E-07
       273   -7.750864E-03
       274    4.936832E-05
       275   -1.428071E-04
       276   -6.928430E-03
       277    7.598925E-05
       278    2.180209E-04
       279    3.034211E-03
       280    4.092685E-05
       281    2.834300E-05
       282   -8.771680E-03
       283    4.171746E-04
       284    8.371364E-05
       285   -9.820767E-03
       286   -7.322344E-05
       287   -2.209418E-04
       288   -3.425809E-03
       289   -4.123210E-05
       290    2.904891E-05
       291    8.773217E-03
       292   -4.660202E-04
       293    1.906607E-04
       294    9.822797E-03
       295   -1.054628E-07
       296   -2.705947E-07
       297    5.531601E-07
       298   -2.712767E-06
       299   -5.769738E-06
       300    6.040222E-05
       301   -2.823259E-06
       302   -4.313163E-05
       303   -6.547565E-06
       304   -8.055963E-07
       305   -1.312594E-06
       306   -6.348294E-06
       307    8.927093E-07
       308    6.666912E-04
       309   -3.358447E-06
       310    2.178075E-07
       311   -2.742231E-07
       312    5.641554E-08
       313   -5.160829E-06
       314    7.683729E-07
       315   -4.768167E-04
       316    4.842880E-07
       317   -2.641436E-07
       318   -2.201443E-07
       319   -3.462153E-05
       320    2.365182E-06
       321   -1.039655E-03
       322    6.413122E-08
       323    5.309551E-06
       324   -5.373683E-06
       325   -1.826401E-04
       326    2.763526E-06
       327   -1.917938E-03
       328   -3.482065E-09
       329    2.272203E-07
       330    3.271052E-08
       331   -2.477070E-09
       332    8.161348E-07
       333   -1.446254E-07
       334    7.148750E-09
       335   -1.120983E-06
       336    1.007396E-07
       337   -2.427752E-04
       338   -1.928934E-06
       339   -5.016452E-06
       340    1.072412E-05
       341   -2.535038E-05
       342    1.869163E-04
       343   -2.946298E-05
       344    5.504157E-05
       345    1.293375E-04
       346    1.921454E-02
       347    5.333965E-05
       348    1.139174E-04
       349    1.813953E-02
       350   -1.286619E-04
       351    1.040420E-04
       352    1.261827E-02
       353   -1.735140E-05
       354   -1.605611E-05
       355   -2.279765E-04
       356   -1.464275E-06
       357    1.865955E-06
       358   -4.016800E-07
       359   -5.460609E-07
       360   -2.442416E-05
       361    1.431326E-04
       362   -8.786931E-07
       363    3.664278E-06
       364   -2.785585E-06
       365   -4.952271E-06
       366   -1.214303E-04
       367    6.430004E-04
       368    1.664902E-05
       369   -2.149858E-05
       370    4.849562E-06
       371   -2.416934E-05
       372    2.707289E-04
       373   -3.600286E-04
       374    3.677011E-07
       375    3.443369E-07
       376   -1.268782E-05
       377   -5.960015E-07
       378    1.103338E-09
       379   -2.656531E-05
       380    1.026787E-07
       381   -4.630798E-07
       382    4.358780E-05
       383   -4.904517E-05
       384    1.862755E-06
       385    4.868612E-06
       386   -1.053308E-05
       387    2.724750E-05
       388   -2.149159E-04
       389    5.883497E-06
       390   -4.357254E-05
       391    1.274341E-04
       392   -1.919232E-02
       393   -4.245001E-05
       394    1.127666E-04
       395   -1.811862E-02
       396    1.425513E-04
       397    1.083947E-04
       398   -1.260185E-02
       399    2.006612E-05
       400   -1.339932E-05
       401    2.302601E-04
       402    1.422328E-06
       403   -1.867354E-06
       404    4.450259E-07
       405   -6.199390E-07
       406    2.447571E-05
       407    1.430520E-04
       408    7.916414E-07
       409   -3.687841E-06
       410    2.896199E-06
       411   -5.371304E-06
       412    1.214084E-04
       413    6.426839E-04
       414   -1.702124E-05
       415    2.133767E-05
       416   -4.316440E-06
       417   -2.520032E-05
       418   -2.716355E-04
       419   -3.593158E-04
       420   -3.858987E-07
       421    3.308434E-07
       422    1.268738E-05
       423    6.231381E-07
       424    3.567411E-08
       425    2.653334E-05
       426   -1.054006E-07
       427   -4.795471E-07
       428   -4.355524E-05
       429   -4.902224E-05
       430   -4.193417E-07
       431   -9.604654E-07
       432    9.659862E-07
       433    8.864238E-06
       434    8.007154E-06
       435   -3.397000E-05
       436   -3.075874E-06
       437   -1.369455E-03
       438   -2.030959E-05
       439   -1.205978E-06
       440   -1.563498E-03
       441   -2.012160E-05
       442   -2.684924E-05
       443   -1.843304E-03
       444   -1.609793E-05
       445   -2.340561E-08
       446    3.647631E-08
       447   -1.307070E-08
       448   -2.362315E-05
       449    2.178674E-07
       450    3.046526E-04
       451    1.007082E-07
       452   -2.316373E-07
       453    1.309291E-07
       454   -7.309373E-06
       455    9.608897E-07
       456    6.369353E-04
       457   -7.427944E-06
       458    2.923305E-06
       459    4.504639E-06
       460   -6.530950E-05
       461    5.932002E-07
       462   -3.194778E-04
       463   -1.557063E-08
       464   -5.241977E-06
       465    6.065234E-08
       466   -2.567041E-08
       467   -1.904895E-05
       468    8.007827E-09
       469    4.656060E-08
       470    2.608180E-05
       471   -8.938148E-08
       472    1.318696E-04
       473   -8.742882E-05
       474   -3.225721E-04
       475   -3.609683E-04
       476   -8.191503E-05
       477   -4.606153E-05
       478   -3.722248E-04
       479    1.538418E-04
       480   -1.905711E-04
       481   -1.749534E-03
       482    8.535859E-05
       483    3.201588E-04
       484    3.433255E-04
       485    8.179680E-05
       486   -4.585048E-05
       487    3.699222E-04
       488   -1.620500E-04
       489   -1.935523E-04
       490    1.744720E-03
 Sym= X
 Ene= -0.652318
 Spin= Alpha
 Occup= -0.652318
         1   -2.134417E-04
         2   -4.962594E-04
         3    1.518958E-03
         4   -4.210146E-03
         5    2.154420E-02
         6   -1.483401E-02
         7   -2.086779E-03
         8   -2.327054E-04
         9    4.564215E-02
        10    3.533390E-03
        11   -6.076499E-04
        12    4.356314E-02
        13    3.923199E-02
        14   -1.748427E-02
        15    1.915824E-02
        16   -1.693358E-06
        17   -1.619829E-05
        18    1.789165E-05
        19   -9.032045E-06
        20    6.205148E-03
        21   -4.284048E-03
        22   -8.982767E-04
        23    5.280970E-04
        24    3.701797E-04
        25   -9.134199E-04
        26    1.413236E-02
        27   -7.963242E-03
        28   -4.322819E-03
        29    4.030409E-03
        30    2.924094E-04
        31    1.799509E-03
        32   -2.722316E-03
        33    9.356496E-03
        34    2.854051E-05
        35   -7.366604E-06
        36   -2.444860E-04
        37   -1.367217E-05
        38    5.998893E-06
        39   -6.300081E-04
        40   -2.461894E-05
        41    3.884443E-06
        42    9.580205E-04
        43   -7.327515E-04
        44    4.673146E-05
        45    1.020929E-04
        46    1.582330E-04
        47   -4.099983E-03
        48   -7.149646E-02
        49    6.974977E-03
        50   -4.777977E-04
        51   -1.486731E-06
        52    2.209548E-01
        53    5.767029E-04
        54   -1.266091E-05
        55    2.282807E-01
        56    1.808510E-02
        57    4.063109E-04
        58    1.992307E-01
        59    5.241294E-05
        60   -4.850240E-05
        61   -3.910542E-06
        62    1.094143E-07