[Molden Format]
[Title]
ADC(2) - opt by CAM-B3LYP gaussian                                              
[Atoms] AU
 c     1    6 0.12592752280008E+01 0.22800132789445E+01 -.35345910021030E-01
 c     2    6 0.25511638220345E+01 0.20078340100000E-05 -.33671612667290E-01
 c     3    6 0.12592790074531E+01 -.22800111530026E+01 -.35357248377820E-01
 c     4    6 -.13364450292264E+01 -.22798221803893E+01 -.38530098554940E-01
 c     5    6 -.26857699593430E+01 -.17716182500000E-05 -.39025206801750E-01
 c     6    6 -.13364469189525E+01 0.22798205268790E+01 -.38516870472010E-01
 h     7    1 0.23055183220207E+01 0.40307538342087E+01 -.32265656424420E-01
 h     8    1 0.23055239911991E+01 -.40307498185407E+01 -.32284553685750E-01
 h     9    1 -.23548467881305E+01 -.40530977197882E+01 -.43619131030800E-01
 h    10    1 -.23548543470350E+01 0.40530922868255E+01 -.43594564591070E-01
 n    11    7 0.52860567397703E+01 0.11810788000000E-06 -.26776002008390E-01
 o    12    8 0.63771222479361E+01 -.20280728649663E+01 -.23850705954680E-01
 o    13    8 0.63771260273883E+01 0.20280712114559E+01 -.23882831298940E-01
 n    14    7 -.52615573853205E+01 0.11810788000000E-06 -.10505223788478E+00
 h    15    1 -.61955753134867E+01 -.16086254730588E+01 0.27588253543458E+00
 h    16    1 -.61955696443083E+01 0.16086275990006E+01 0.27589009433911E+00
[GTO]
    1 0
 s    6 1.00
 0.13575349682000E+05 0.60645503603591E-03
 0.20352333680000E+04 0.46979088884982E-02
 0.46322562359000E+03 0.24332477647552E-01
 0.13120019598000E+03 0.97399968307759E-01
 0.42853015891000E+02 0.30195584253780E+00
 0.15584185766000E+02 0.66233609137875E+00
 s    2 1.00
 0.62067138508000E+01 0.65595308539952E+00
 0.25764896527000E+01 0.37585633285142E+00
 s    1 1.00
 0.57696339419000E+00 0.10000000000000E+01
 s    1 1.00
 0.22972831358000E+00 0.10000000000000E+01
 s    1 1.00
 0.95164440028000E-01 0.10000000000000E+01
 s    1 1.00
 0.48475401370000E-01 0.10000000000000E+01
 p    4 1.00
 0.34697232244000E+02 0.11327220003114E-01
 0.79582622826000E+01 0.76169659202087E-01
 0.23780826883000E+01 0.30192252202676E+00
 0.81433208183000E+00 0.72785027349547E+00
 p    1 1.00
 0.28887547253000E+00 0.10000000000000E+01
 p    1 1.00
 0.10056823671000E+00 0.10000000000000E+01
 d    1 1.00
 0.10970000000000E+01 0.10000000000000E+01
 d    1 1.00
 0.31800000000000E+00 0.10000000000000E+01
 d    1 1.00
 0.90985336424000E-01 0.10000000000000E+01
 f    1 1.00
 0.76100000000000E+00 0.10000000000000E+01
 
    2 0
 s    6 1.00
 0.13575349682000E+05 0.60645503603591E-03
 0.20352333680000E+04 0.46979088884982E-02
 0.46322562359000E+03 0.24332477647552E-01
 0.13120019598000E+03 0.97399968307759E-01
 0.42853015891000E+02 0.30195584253780E+00
 0.15584185766000E+02 0.66233609137875E+00
 s    2 1.00
 0.62067138508000E+01 0.65595308539952E+00
 0.25764896527000E+01 0.37585633285142E+00
 s    1 1.00
 0.57696339419000E+00 0.10000000000000E+01
 s    1 1.00
 0.22972831358000E+00 0.10000000000000E+01
 s    1 1.00
 0.95164440028000E-01 0.10000000000000E+01
 s    1 1.00
 0.48475401370000E-01 0.10000000000000E+01
 p    4 1.00
 0.34697232244000E+02 0.11327220003114E-01
 0.79582622826000E+01 0.76169659202087E-01
 0.23780826883000E+01 0.30192252202676E+00
 0.81433208183000E+00 0.72785027349547E+00
 p    1 1.00
 0.28887547253000E+00 0.10000000000000E+01
 p    1 1.00
 0.10056823671000E+00 0.10000000000000E+01
 d    1 1.00
 0.10970000000000E+01 0.10000000000000E+01
 d    1 1.00
 0.31800000000000E+00 0.10000000000000E+01
 d    1 1.00
 0.90985336424000E-01 0.10000000000000E+01
 f    1 1.00
 0.76100000000000E+00 0.10000000000000E+01
 
    3 0
 s    6 1.00
 0.13575349682000E+05 0.60645503603591E-03
 0.20352333680000E+04 0.46979088884982E-02
 0.46322562359000E+03 0.24332477647552E-01
 0.13120019598000E+03 0.97399968307759E-01
 0.42853015891000E+02 0.30195584253780E+00
 0.15584185766000E+02 0.66233609137875E+00
 s    2 1.00
 0.62067138508000E+01 0.65595308539952E+00
 0.25764896527000E+01 0.37585633285142E+00
 s    1 1.00
 0.57696339419000E+00 0.10000000000000E+01
 s    1 1.00
 0.22972831358000E+00 0.10000000000000E+01
 s    1 1.00
 0.95164440028000E-01 0.10000000000000E+01
 s    1 1.00
 0.48475401370000E-01 0.10000000000000E+01
 p    4 1.00
 0.34697232244000E+02 0.11327220003114E-01
 0.79582622826000E+01 0.76169659202087E-01
 0.23780826883000E+01 0.30192252202676E+00
 0.81433208183000E+00 0.72785027349547E+00
 p    1 1.00
 0.28887547253000E+00 0.10000000000000E+01
 p    1 1.00
 0.10056823671000E+00 0.10000000000000E+01
 d    1 1.00
 0.10970000000000E+01 0.10000000000000E+01
 d    1 1.00
 0.31800000000000E+00 0.10000000000000E+01
 d    1 1.00
 0.90985336424000E-01 0.10000000000000E+01
 f    1 1.00
 0.76100000000000E+00 0.10000000000000E+01
 
    4 0
 s    6 1.00
 0.13575349682000E+05 0.60645503603591E-03
 0.20352333680000E+04 0.46979088884982E-02
 0.46322562359000E+03 0.24332477647552E-01
 0.13120019598000E+03 0.97399968307759E-01
 0.42853015891000E+02 0.30195584253780E+00
 0.15584185766000E+02 0.66233609137875E+00
 s    2 1.00
 0.62067138508000E+01 0.65595308539952E+00
 0.25764896527000E+01 0.37585633285142E+00
 s    1 1.00
 0.57696339419000E+00 0.10000000000000E+01
 s    1 1.00
 0.22972831358000E+00 0.10000000000000E+01
 s    1 1.00
 0.95164440028000E-01 0.10000000000000E+01
 s    1 1.00
 0.48475401370000E-01 0.10000000000000E+01
 p    4 1.00
 0.34697232244000E+02 0.11327220003114E-01
 0.79582622826000E+01 0.76169659202087E-01
 0.23780826883000E+01 0.30192252202676E+00
 0.81433208183000E+00 0.72785027349547E+00
 p    1 1.00
 0.28887547253000E+00 0.10000000000000E+01
 p    1 1.00
 0.10056823671000E+00 0.10000000000000E+01
 d    1 1.00
 0.10970000000000E+01 0.10000000000000E+01
 d    1 1.00
 0.31800000000000E+00 0.10000000000000E+01
 d    1 1.00
 0.90985336424000E-01 0.10000000000000E+01
 f    1 1.00
 0.76100000000000E+00 0.10000000000000E+01
 
    5 0
 s    6 1.00
 0.13575349682000E+05 0.60645503603591E-03
 0.20352333680000E+04 0.46979088884982E-02
 0.46322562359000E+03 0.24332477647552E-01
 0.13120019598000E+03 0.97399968307759E-01
 0.42853015891000E+02 0.30195584253780E+00
 0.15584185766000E+02 0.66233609137875E+00
 s    2 1.00
 0.62067138508000E+01 0.65595308539952E+00
 0.25764896527000E+01 0.37585633285142E+00
 s    1 1.00
 0.57696339419000E+00 0.10000000000000E+01
 s    1 1.00
 0.22972831358000E+00 0.10000000000000E+01
 s    1 1.00
 0.95164440028000E-01 0.10000000000000E+01
 s    1 1.00
 0.48475401370000E-01 0.10000000000000E+01
 p    4 1.00
 0.34697232244000E+02 0.11327220003114E-01
 0.79582622826000E+01 0.76169659202087E-01
 0.23780826883000E+01 0.30192252202676E+00
 0.81433208183000E+00 0.72785027349547E+00
 p    1 1.00
 0.28887547253000E+00 0.10000000000000E+01
 p    1 1.00
 0.10056823671000E+00 0.10000000000000E+01
 d    1 1.00
 0.10970000000000E+01 0.10000000000000E+01
 d    1 1.00
 0.31800000000000E+00 0.10000000000000E+01
 d    1 1.00
 0.90985336424000E-01 0.10000000000000E+01
 f    1 1.00
 0.76100000000000E+00 0.10000000000000E+01
 
    6 0
 s    6 1.00
 0.13575349682000E+05 0.60645503603591E-03
 0.20352333680000E+04 0.46979088884982E-02
 0.46322562359000E+03 0.24332477647552E-01
 0.13120019598000E+03 0.97399968307759E-01
 0.42853015891000E+02 0.30195584253780E+00
 0.15584185766000E+02 0.66233609137875E+00
 s    2 1.00
 0.62067138508000E+01 0.65595308539952E+00
 0.25764896527000E+01 0.37585633285142E+00
 s    1 1.00
 0.57696339419000E+00 0.10000000000000E+01
 s    1 1.00
 0.22972831358000E+00 0.10000000000000E+01
 s    1 1.00
 0.95164440028000E-01 0.10000000000000E+01
 s    1 1.00
 0.48475401370000E-01 0.10000000000000E+01
 p    4 1.00
 0.34697232244000E+02 0.11327220003114E-01
 0.79582622826000E+01 0.76169659202087E-01
 0.23780826883000E+01 0.30192252202676E+00
 0.81433208183000E+00 0.72785027349547E+00
 p    1 1.00
 0.28887547253000E+00 0.10000000000000E+01
 p    1 1.00
 0.10056823671000E+00 0.10000000000000E+01
 d    1 1.00
 0.10970000000000E+01 0.10000000000000E+01
 d    1 1.00
 0.31800000000000E+00 0.10000000000000E+01
 d    1 1.00
 0.90985336424000E-01 0.10000000000000E+01
 f    1 1.00
 0.76100000000000E+00 0.10000000000000E+01
 
    7 0
 s    3 1.00
 0.34061341000000E+02 0.25439307208879E-01
 0.51235746000000E+01 0.19008594890375E+00
 0.11646626000000E+01 0.85244113011042E+00
 s    1 1.00
 0.32723041000000E+00 0.10000000000000E+01
 s    1 1.00
 0.10307241000000E+00 0.10000000000000E+01
 p    1 1.00
 0.80000000000000E+00 0.10000000000000E+01
 p    1 1.00
 0.95774129632000E-01 0.10000000000000E+01
 
    8 0
 s    3 1.00
 0.34061341000000E+02 0.25439307208879E-01
 0.51235746000000E+01 0.19008594890375E+00
 0.11646626000000E+01 0.85244113011042E+00
 s    1 1.00
 0.32723041000000E+00 0.10000000000000E+01
 s    1 1.00
 0.10307241000000E+00 0.10000000000000E+01
 p    1 1.00
 0.80000000000000E+00 0.10000000000000E+01
 p    1 1.00
 0.95774129632000E-01 0.10000000000000E+01
 
    9 0
 s    3 1.00
 0.34061341000000E+02 0.25439307208879E-01
 0.51235746000000E+01 0.19008594890375E+00
 0.11646626000000E+01 0.85244113011042E+00
 s    1 1.00
 0.32723041000000E+00 0.10000000000000E+01
 s    1 1.00
 0.10307241000000E+00 0.10000000000000E+01
 p    1 1.00
 0.80000000000000E+00 0.10000000000000E+01
 p    1 1.00
 0.95774129632000E-01 0.10000000000000E+01
 
   10 0
 s    3 1.00
 0.34061341000000E+02 0.25439307208879E-01
 0.51235746000000E+01 0.19008594890375E+00
 0.11646626000000E+01 0.85244113011042E+00
 s    1 1.00
 0.32723041000000E+00 0.10000000000000E+01
 s    1 1.00
 0.10307241000000E+00 0.10000000000000E+01
 p    1 1.00
 0.80000000000000E+00 0.10000000000000E+01
 p    1 1.00
 0.95774129632000E-01 0.10000000000000E+01
 
   11 0
 s    6 1.00
 0.19730800647000E+05 0.58626402628763E-03
 0.29578958745000E+04 0.45428820586397E-02
 0.67322133595000E+03 0.23558413450084E-01
 0.19068249494000E+03 0.94709193292923E-01
 0.62295441898000E+02 0.29719784913376E+00
 0.22654161182000E+02 0.66916246895232E+00
 s    2 1.00
 0.89791477428000E+01 0.64596683630063E+00
 0.36863002370000E+01 0.38700574393705E+00
 s    1 1.00
 0.84660076805000E+00 0.10000000000000E+01
 s    1 1.00
 0.33647133771000E+00 0.10000000000000E+01
 s    1 1.00
 0.13647653675000E+00 0.10000000000000E+01
 s    1 1.00
 0.68441605847000E-01 0.10000000000000E+01
 p    4 1.00
 0.49200380510000E+02 0.11448825101764E-01
 0.11346790537000E+02 0.78422337970864E-01
 0.34273972411000E+01 0.30818094738830E+00
 0.11785525134000E+01 0.72027196368413E+00
 p    1 1.00
 0.41642204972000E+00 0.10000000000000E+01
 p    1 1.00
 0.14260826011000E+00 0.10000000000000E+01
 d    1 1.00
 0.16540000000000E+01 0.10000000000000E+01
 d    1 1.00
 0.46900000000000E+00 0.10000000000000E+01
 d    1 1.00
 0.12829642058000E+00 0.10000000000000E+01
 f    1 1.00
 0.10930000000000E+01 0.10000000000000E+01
 
   12 0
 s    6 1.00
 0.27032382631000E+05 0.57227335211155E-03
 0.40523871392000E+04 0.44353233492995E-02
 0.92232722710000E+03 0.23020107706038E-01
 0.26124070989000E+03 0.92822490667928E-01
 0.85354641351000E+02 0.29378500009671E+00
 0.31035035245000E+02 0.67401604501641E+00
 s    2 1.00
 0.12260860728000E+02 0.63839937025506E+00
 0.49987076005000E+01 0.39534587125718E+00
 s    1 1.00
 0.11703108158000E+01 0.10000000000000E+01
 s    1 1.00
 0.46474740994000E+00 0.10000000000000E+01
 s    1 1.00
 0.18504536357000E+00 0.10000000000000E+01
 s    1 1.00
 0.70288026270000E-01 0.10000000000000E+01
 p    4 1.00
 0.63274954801000E+02 0.12018332222616E-01
 0.14627049379000E+02 0.83005421790056E-01
 0.44501223456000E+01 0.31991743925964E+00
 0.15275799647000E+01 0.70715542916104E+00
 p    1 1.00
 0.52935117943000E+00 0.10000000000000E+01
 p    1 1.00
 0.17478421270000E+00 0.10000000000000E+01
 p    1 1.00
 0.51112745706000E-01 0.10000000000000E+01
 d    1 1.00
 0.23140000000000E+01 0.10000000000000E+01
 d    1 1.00
 0.64500000000000E+00 0.10000000000000E+01
 d    1 1.00
 0.14696477366000E+00 0.10000000000000E+01
 f    1 1.00
 0.14280000000000E+01 0.10000000000000E+01
 
   13 0
 s    6 1.00
 0.27032382631000E+05 0.57227335211155E-03
 0.40523871392000E+04 0.44353233492995E-02
 0.92232722710000E+03 0.23020107706038E-01
 0.26124070989000E+03 0.92822490667928E-01
 0.85354641351000E+02 0.29378500009671E+00
 0.31035035245000E+02 0.67401604501641E+00
 s    2 1.00
 0.12260860728000E+02 0.63839937025506E+00
 0.49987076005000E+01 0.39534587125718E+00
 s    1 1.00
 0.11703108158000E+01 0.10000000000000E+01
 s    1 1.00
 0.46474740994000E+00 0.10000000000000E+01
 s    1 1.00
 0.18504536357000E+00 0.10000000000000E+01
 s    1 1.00
 0.70288026270000E-01 0.10000000000000E+01
 p    4 1.00
 0.63274954801000E+02 0.12018332222616E-01
 0.14627049379000E+02 0.83005421790056E-01
 0.44501223456000E+01 0.31991743925964E+00
 0.15275799647000E+01 0.70715542916104E+00
 p    1 1.00
 0.52935117943000E+00 0.10000000000000E+01
 p    1 1.00
 0.17478421270000E+00 0.10000000000000E+01
 p    1 1.00
 0.51112745706000E-01 0.10000000000000E+01
 d    1 1.00
 0.23140000000000E+01 0.10000000000000E+01
 d    1 1.00
 0.64500000000000E+00 0.10000000000000E+01
 d    1 1.00
 0.14696477366000E+00 0.10000000000000E+01
 f    1 1.00
 0.14280000000000E+01 0.10000000000000E+01
 
   14 0
 s    6 1.00
 0.19730800647000E+05 0.58626402628763E-03
 0.29578958745000E+04 0.45428820586397E-02
 0.67322133595000E+03 0.23558413450084E-01
 0.19068249494000E+03 0.94709193292923E-01
 0.62295441898000E+02 0.29719784913376E+00
 0.22654161182000E+02 0.66916246895232E+00
 s    2 1.00
 0.89791477428000E+01 0.64596683630063E+00
 0.36863002370000E+01 0.38700574393705E+00
 s    1 1.00
 0.84660076805000E+00 0.10000000000000E+01
 s    1 1.00
 0.33647133771000E+00 0.10000000000000E+01
 s    1 1.00
 0.13647653675000E+00 0.10000000000000E+01
 s    1 1.00
 0.68441605847000E-01 0.10000000000000E+01
 p    4 1.00
 0.49200380510000E+02 0.11448825101764E-01
 0.11346790537000E+02 0.78422337970864E-01
 0.34273972411000E+01 0.30818094738830E+00
 0.11785525134000E+01 0.72027196368413E+00
 p    1 1.00
 0.41642204972000E+00 0.10000000000000E+01
 p    1 1.00
 0.14260826011000E+00 0.10000000000000E+01
 d    1 1.00
 0.16540000000000E+01 0.10000000000000E+01
 d    1 1.00
 0.46900000000000E+00 0.10000000000000E+01
 d    1 1.00
 0.12829642058000E+00 0.10000000000000E+01
 f    1 1.00
 0.10930000000000E+01 0.10000000000000E+01
 
   15 0
 s    3 1.00
 0.34061341000000E+02 0.25439307208879E-01
 0.51235746000000E+01 0.19008594890375E+00
 0.11646626000000E+01 0.85244113011042E+00
 s    1 1.00
 0.32723041000000E+00 0.10000000000000E+01
 s    1 1.00
 0.10307241000000E+00 0.10000000000000E+01
 p    1 1.00
 0.80000000000000E+00 0.10000000000000E+01
 p    1 1.00
 0.95774129632000E-01 0.10000000000000E+01
 
   16 0
 s    3 1.00
 0.34061341000000E+02 0.25439307208879E-01
 0.51235746000000E+01 0.19008594890375E+00
 0.11646626000000E+01 0.85244113011042E+00
 s    1 1.00
 0.32723041000000E+00 0.10000000000000E+01
 s    1 1.00
 0.10307241000000E+00 0.10000000000000E+01
 p    1 1.00
 0.80000000000000E+00 0.10000000000000E+01
 p    1 1.00
 0.95774129632000E-01 0.10000000000000E+01
 
[MO]
 Sym= X
 Ene= -0.063814
 Spin= Alpha
 Occup= -0.063814
         1    8.579704E-05
         2    1.468588E-04
         3    7.723874E-04
         4   -6.622715E-03
         5    3.232875E-02
         6   -2.070122E-02
         7   -9.290803E-03
         8   -3.990635E-03
         9    2.153488E-02
        10    1.805527E-04
        11   -4.174607E-03
        12    1.954790E-02
        13    6.107566E-02
        14   -2.129397E-02
        15    5.652684E-03
        16    1.432996E-04
        17   -1.885404E-04
        18    4.524083E-05
        19   -1.879260E-04
        20    4.592610E-03
        21   -2.900464E-03
        22   -1.080565E-03
        23    6.391921E-04
        24    4.413734E-04
        25   -1.633585E-03
        26    1.061567E-02
        27   -5.518169E-03
        28   -5.227365E-03
        29    4.274621E-03
        30    9.527436E-04
        31    2.829072E-03
        32   -4.803105E-03
        33    1.364343E-02
        34    2.616597E-05
        35   -3.816310E-05
        36   -9.103248E-05
        37   -2.405960E-05
        38    3.137523E-05
        39   -5.321380E-04
        40   -1.104573E-05
        41    1.982594E-05
        42    6.542709E-04
        43   -4.864202E-04
        44    3.642764E-04
        45    7.883287E-04
        46   -3.677779E-04
        47   -9.008281E-03
        48   -9.203391E-02
        49    1.171806E-02
        50   -1.823931E-03
        51   -5.170471E-06
        52    1.498536E-01
        53    3.281668E-04
        54   -1.365293E-05
        55    1.548568E-01
        56    2.250805E-02
        57    4.356553E-04
        58    1.719985E-01
        59    2.334030E-04
        60   -2.445802E-04
        61    1.117724E-05
        62    3.082640E-07
        63    2.776342E-04
        64    9.390453E-07
        65    1.009687E-03
        66   -1.632878E-03
        67    6.231909E-04
        68    2.347043E-06
        69    2.000925E-03
        70    2.599497E-06
        71    2.783225E-02
        72   -3.007168E-02
        73    2.239423E-03
        74   -7.939833E-05
        75   -2.807064E-03
        76    2.351716E-05
        77   -2.407765E-05
        78    4.815214E-08
        79   -8.321693E-04
        80    2.557199E-05
        81   -1.148786E-07
        82    4.630516E-04
        83    6.731562E-06
        84    5.027575E-08
        85    6.534207E-04
        86   -1.625052E-07
        87    8.778119E-05
        88    1.512695E-04
        89    7.684522E-04
        90   -6.655271E-03
        91    3.331158E-02
        92   -2.071238E-02
        93   -9.306403E-03
        94    4.011870E-03
        95    2.148282E-02
        96    1.602538E-04
        97    4.187310E-03
        98    1.949599E-02
        99    6.125829E-02
       100    2.169275E-02
       101    5.644494E-03
       102    1.436600E-04
       103   -1.890705E-04
       104    4.541046E-05
       105    1.891961E-04
       106    4.594131E-03
       107    2.900332E-03
       108   -1.077957E-03
       109    6.351186E-04
       110    4.428386E-04
       111    1.633139E-03
       112    1.061829E-02
       113    5.518428E-03
       114   -5.315548E-03
       115    4.372959E-03
       116    9.425897E-04
       117   -2.726014E-03
       118   -4.773926E-03
       119   -1.363016E-02
       120    2.627676E-05
       121    3.816889E-05
       122   -9.069754E-05
       123   -2.423814E-05
       124   -3.132773E-05
       125   -5.325654E-04
       126   -1.101584E-05
       127   -1.988120E-05
       128    6.542490E-04
       129    4.864094E-04
       130   -1.377171E-04
       131   -2.996532E-04
       132    2.354170E-03
       133   -1.944215E-02
       134    6.332575E-03
       135    2.341355E-02
       136    6.393944E-03
       137   -4.490627E-03
       138   -1.074380E-01
       139    2.079031E-02
       140   -1.474836E-02
       141   -1.107520E-01
       142    3.322977E-02
       143    1.315230E-02
       144   -6.802676E-02
       145    4.897813E-04
       146   -5.388852E-04
       147    4.910394E-05
       148    1.541980E-04
       149    1.911923E-04
       150   -1.577539E-03
       151    1.457751E-03
       152   -1.754517E-03
       153    2.967652E-04
       154    3.459122E-03
       155    2.931899E-03
       156   -2.312557E-03
       157    1.367824E-02
       158   -9.839101E-03
       159   -3.839136E-03
       160   -1.976338E-02
       161   -6.346492E-03
       162    1.693556E-02
       163    3.823833E-05
       164   -5.092114E-05
       165    4.898068E-04
       166    3.872355E-05
       167   -2.660045E-06
       168   -3.644286E-05
       169   -9.002565E-05
       170    7.097792E-05
       171   -6.207019E-04
       172    1.247207E-04
       173   -2.003913E-03
       174   -4.527468E-03
       175    4.060181E-03
       176    4.009365E-02
       177   -7.477542E-02
       178    1.673344E-02
       179   -2.517078E-02
       180    1.324887E-05
       181   -3.203747E-02
       182   -6.037911E-03
       183    2.935816E-05
       184   -3.777377E-02
       185    7.688003E-02
       186   -3.576051E-04
       187   -1.335556E-01
       188    1.265210E-03
       189   -8.348702E-04
       190   -4.303398E-04
       191    6.896980E-07
       192   -1.081503E-02
       193    1.072236E-06
       194   -3.222283E-03
       195    7.544802E-03
       196   -4.322519E-03
       197    5.997645E-06
       198   -2.514384E-02
       199    2.085742E-06
       200   -2.092174E-02
       201    2.249509E-02
       202   -1.573354E-03
       203   -1.508063E-04
       204   -1.316176E-02
       205   -2.732837E-05
       206   -2.664197E-04
       207    6.266712E-08
       208   -4.810247E-04
       209    1.727584E-04
       210    6.343683E-08
       211    1.782868E-03
       212    1.846811E-04
       213   -1.475136E-07
       214   -1.137505E-03
       215    1.763158E-07
       216   -1.351228E-04
       217   -2.939154E-04
       218    2.349800E-03
       219   -1.948639E-02
       220    7.390686E-03
       221    2.335706E-02
       222    6.386483E-03
       223    4.462446E-03
       224   -1.073799E-01
       225    2.079065E-02
       226    1.474498E-02
       227   -1.106944E-01
       228    3.318635E-02
       229   -1.359065E-02
       230   -6.794487E-02
       231    4.895881E-04
       232   -5.390757E-04
       233    4.948761E-05
       234   -1.526576E-04
       235    1.925937E-04
       236    1.577468E-03
       237    1.458936E-03
       238   -1.759346E-03
       239    3.004100E-04
       240   -3.461892E-03
       241    2.932953E-03
       242    2.311673E-03
       243    1.356512E-02
       244   -9.732784E-03
       245   -3.832338E-03
       246    1.982877E-02
       247   -6.379637E-03
       248   -1.695563E-02
       249    3.805399E-05
       250    5.095456E-05
       251    4.894338E-04
       252    3.904317E-05
       253    2.558307E-06
       254   -3.605621E-05
       255   -9.009795E-05
       256   -7.092102E-05
       257   -6.205881E-04
       258   -1.246500E-04
       259   -4.328773E-03
       260   -5.672769E-03
       261   -3.273997E-02
       262    2.307583E-04
       263    5.007107E-04
       264    7.926473E-04
       265    9.252365E-03
       266    2.058235E-03
       267   -7.696559E-03
       268   -4.345655E-03
       269   -5.693788E-03
       270   -3.269567E-02
       271    2.315002E-04
       272   -5.021719E-04
       273    7.905503E-04
       274    9.345299E-03
       275   -2.016205E-03
       276   -7.704590E-03
       277   -1.137039E-04
       278   -3.527214E-03
       279    6.537608E-02
       280    1.853341E-04
       281   -1.314601E-04
       282   -4.376428E-03
       283    3.514204E-03
       284    5.326990E-03
       285    5.123536E-03
       286   -1.297619E-04
       287   -3.541435E-03
       288    6.545091E-02
       289    1.837189E-04
       290    1.322843E-04
       291   -4.374192E-03
       292    3.448802E-03
       293   -5.369667E-03
       294    5.125703E-03
       295   -2.630979E-04
       296   -6.283163E-04
       297    9.226048E-04
       298    1.671906E-03
       299   -2.066510E-02
       300   -6.381949E-03
       301   -9.858549E-04
       302    5.099601E-07
       303    6.800546E-03
       304   -4.323353E-04
       305    7.536070E-07
       306    9.191370E-03
       307    6.499415E-03
       308    6.487680E-06
       309   -1.844307E-03
       310   -1.050828E-04
       311    1.221020E-04
       312   -1.701918E-05
       313    3.318455E-07
       314   -3.185501E-03
       315   -4.212926E-07
       316   -3.732454E-04
       317    4.331463E-04
       318   -5.990094E-05
       319    9.461667E-07
       320   -9.491742E-03
       321   -1.198539E-06
       322   -6.095052E-04
       323    5.126008E-03
       324   -4.516503E-03
       325    1.293644E-05
       326   -1.411607E-03
       327   -5.086645E-06
       328   -1.482475E-05
       329   -7.505590E-08
       330    2.662208E-05
       331    1.271252E-05
       332    9.713187E-08
       333    5.016950E-04
       334    7.176966E-06
       335    3.566192E-09
       336   -5.374123E-04
       337   -9.945966E-08
       338   -4.954304E-05
       339   -1.157723E-04
       340    8.344986E-05
       341    1.103657E-03
       342   -1.181798E-02
       343   -1.571856E-03
       344   -3.201439E-03
       345   -1.236813E-03
       346   -5.731591E-02
       347   -2.547284E-03
       348   -1.381305E-03
       349   -5.315029E-02
       350   -1.238797E-04
       351   -1.950726E-03
       352   -4.109865E-02
       353    3.215261E-04
       354   -2.975048E-04
       355   -4.703120E-03
       356    2.224947E-05
       357   -2.005461E-05
       358   -2.194854E-06
       359   -3.571649E-05
       360    3.432701E-05
       361   -4.221217E-04
       362    2.588164E-05
       363   -5.859635E-05
       364    3.271471E-05
       365   -8.741162E-05
       366    5.142993E-04
       367   -1.326410E-03
       368   -7.946417E-05
       369   -2.304176E-05
       370    1.025059E-04
       371   -8.702942E-05
       372    2.096769E-04
       373   -3.105114E-04
       374    3.057819E-06
       375   -1.375315E-05
       376    5.779308E-05
       377   -5.273029E-06
       378    1.720112E-05
       379    6.517921E-05
       380    1.170534E-06
       381    1.250661E-06
       382   -1.427168E-04
       383    1.135939E-04
       384   -4.956175E-05
       385   -1.158195E-04
       386    8.341251E-05
       387    1.104113E-03
       388   -1.184034E-02
       389   -1.561910E-03
       390   -3.186002E-03
       391    1.222122E-03
       392   -5.734023E-02
       393   -2.533201E-03
       394    1.368804E-03
       395   -5.317338E-02
       396   -1.199979E-04
       397    1.947918E-03
       398   -4.110682E-02
       399    3.179285E-04
       400    2.989737E-04
       401   -4.704934E-03
       402    2.210043E-05
       403   -1.985450E-05
       404   -2.245927E-06
       405    3.568923E-05
       406    3.445222E-05
       407    4.223409E-04
       408    2.568951E-05
       409   -5.828051E-05
       410    3.259100E-05
       411    8.725957E-05
       412    5.146016E-04
       413    1.327014E-03
       414   -8.116424E-05
       415   -2.105925E-05
       416    1.022235E-04
       417    8.633695E-05
       418    2.094660E-04
       419    3.099541E-04
       420    3.069408E-06
       421    1.369573E-05
       422    5.782592E-05
       423   -5.298307E-06
       424   -1.713953E-05
       425    6.518627E-05
       426    1.180264E-06
       427   -1.235223E-06
       428   -1.427679E-04
       429   -1.136579E-04
       430    9.961002E-03
       431    2.358777E-02
       432   -3.637948E-02
       433   -5.954779E-02
       434   -1.751949E-02
       435   -1.075125E-01
       436    4.089412E-02
       437   -1.652781E-05
       438    3.544317E-01
       439    4.504882E-02
       440   -7.568671E-06
       441    3.463417E-01
       442    5.082012E-02
       443    5.978712E-05
       444    2.663741E-01
       445   -2.007766E-04
       446   -2.566474E-04
       447    4.574240E-04
       448    4.807637E-07
       449    3.912807E-04
       450   -3.064017E-07
       451   -3.533553E-04
       452   -3.703439E-03
       453    4.056794E-03
       454   -2.472087E-06
       455   -5.417088E-04
       456   -3.633165E-07
       457   -2.742669E-03
       458   -9.321044E-03
       459    1.206371E-02
       460   -1.423901E-05
       461   -1.101624E-03
       462   -2.084369E-07
       463    2.398648E-04
       464   -8.545166E-08
       465   -1.536945E-03
       466    2.138564E-04
       467   -6.243956E-09
       468    1.044360E-03
       469   -5.356688E-04
       470    1.208894E-07
       471    1.017668E-03
       472   -4.229081E-09
       473    1.500991E-02
       474    3.192020E-02
       475    6.426799E-02
       476    4.588639E-03
       477    3.499441E-03
       478    1.703643E-02
       479    1.556587E-03
       480    7.538960E-03
       481    1.524485E-02
       482    1.499706E-02
       483    3.184725E-02
       484    6.396888E-02
       485    4.584053E-03
       486   -3.493502E-03
       487    1.704005E-02
       488    1.509800E-03
       489   -7.501799E-03
       490    1.526545E-02
 Sym= X
 Ene= -0.824638
 Spin= Alpha
 Occup= -0.824638
         1    8.280198E-05
         2    1.882207E-04
         3   -4.438317E-04
         4    5.767947E-04
         5    5.740118E-03
         6    4.437992E-04
         7   -4.419471E-04
         8   -1.472510E-04
         9    1.860949E-01
        10   -1.461572E-03
        11    1.362130E-04
        12    1.868781E-01
        13    4.730069E-03
        14   -5.125894E-03
        15    1.084611E-01
        16    1.919348E-05
        17   -1.587540E-05
        18   -3.318080E-06
        19    1.968853E-06
        20   -4.923207E-03
        21   -5.471007E-04
        22    2.746336E-04
        23   -1.936616E-04
        24   -8.097198E-05
        25   -1.364379E-05
        26   -9.715333E-03
        27    4.724414E-04
        28   -9.804701E-04
        29    9.945318E-04
        30   -1.406168E-05
        31   -3.792938E-04
        32   -4.620455E-03
        33    1.582829E-03
        34   -7.581139E-06
        35    3.873236E-07
        36   -1.158990E-03
        37    1.297156E-06
        38   -9.111229E-07
        39    1.400515E-03
        40    8.874010E-06
        41    3.914737E-07
        42    1.544325E-04
        43    8.985097E-06
        44   -4.050528E-07
        45   -9.790807E-07
        46    6.282106E-06
        47   -1.845401E-05
        48   -1.444859E-03
        49   -1.028353E-04
        50    1.454018E-06
        51   -1.753216E-04
        52    1.327632E-05
        53    1.326100E-05
        54    1.589541E-04
        55    9.924201E-06
        56    6.071446E-04
        57   -8.718191E-03
        58   -3.611439E-06
        59    4.178655E-08
        60   -1.075620E-07
        61    6.577540E-08
        62    6.666287E-06