[Molden Format]
[Title]
ADC(2) - opt by CAM-B3LYP gaussian                                              
[Atoms] AU
 c     1    6 0.12592752280008E+01 0.22800132789445E+01 -.35345910021030E-01
 c     2    6 0.25511638220345E+01 0.20078340100000E-05 -.33671612667290E-01
 c     3    6 0.12592790074531E+01 -.22800111530026E+01 -.35357248377820E-01
 c     4    6 -.13364450292264E+01 -.22798221803893E+01 -.38530098554940E-01
 c     5    6 -.26857699593430E+01 -.17716182500000E-05 -.39025206801750E-01
 c     6    6 -.13364469189525E+01 0.22798205268790E+01 -.38516870472010E-01
 h     7    1 0.23055183220207E+01 0.40307538342087E+01 -.32265656424420E-01
 h     8    1 0.23055239911991E+01 -.40307498185407E+01 -.32284553685750E-01
 h     9    1 -.23548467881305E+01 -.40530977197882E+01 -.43619131030800E-01
 h    10    1 -.23548543470350E+01 0.40530922868255E+01 -.43594564591070E-01
 n    11    7 0.52860567397703E+01 0.11810788000000E-06 -.26776002008390E-01
 o    12    8 0.63771222479361E+01 -.20280728649663E+01 -.23850705954680E-01
 o    13    8 0.63771260273883E+01 0.20280712114559E+01 -.23882831298940E-01
 n    14    7 -.52615573853205E+01 0.11810788000000E-06 -.10505223788478E+00
 h    15    1 -.61955753134867E+01 -.16086254730588E+01 0.27588253543458E+00
 h    16    1 -.61955696443083E+01 0.16086275990006E+01 0.27589009433911E+00
[GTO]
    1 0
 s    6 1.00
 0.13575349682000E+05 0.60645503603591E-03
 0.20352333680000E+04 0.46979088884982E-02
 0.46322562359000E+03 0.24332477647552E-01
 0.13120019598000E+03 0.97399968307759E-01
 0.42853015891000E+02 0.30195584253780E+00
 0.15584185766000E+02 0.66233609137875E+00
 s    2 1.00
 0.62067138508000E+01 0.65595308539952E+00
 0.25764896527000E+01 0.37585633285142E+00
 s    1 1.00
 0.57696339419000E+00 0.10000000000000E+01
 s    1 1.00
 0.22972831358000E+00 0.10000000000000E+01
 s    1 1.00
 0.95164440028000E-01 0.10000000000000E+01
 s    1 1.00
 0.48475401370000E-01 0.10000000000000E+01
 p    4 1.00
 0.34697232244000E+02 0.11327220003114E-01
 0.79582622826000E+01 0.76169659202087E-01
 0.23780826883000E+01 0.30192252202676E+00
 0.81433208183000E+00 0.72785027349547E+00
 p    1 1.00
 0.28887547253000E+00 0.10000000000000E+01
 p    1 1.00
 0.10056823671000E+00 0.10000000000000E+01
 d    1 1.00
 0.10970000000000E+01 0.10000000000000E+01
 d    1 1.00
 0.31800000000000E+00 0.10000000000000E+01
 d    1 1.00
 0.90985336424000E-01 0.10000000000000E+01
 f    1 1.00
 0.76100000000000E+00 0.10000000000000E+01
 
    2 0
 s    6 1.00
 0.13575349682000E+05 0.60645503603591E-03
 0.20352333680000E+04 0.46979088884982E-02
 0.46322562359000E+03 0.24332477647552E-01
 0.13120019598000E+03 0.97399968307759E-01
 0.42853015891000E+02 0.30195584253780E+00
 0.15584185766000E+02 0.66233609137875E+00
 s    2 1.00
 0.62067138508000E+01 0.65595308539952E+00
 0.25764896527000E+01 0.37585633285142E+00
 s    1 1.00
 0.57696339419000E+00 0.10000000000000E+01
 s    1 1.00
 0.22972831358000E+00 0.10000000000000E+01
 s    1 1.00
 0.95164440028000E-01 0.10000000000000E+01
 s    1 1.00
 0.48475401370000E-01 0.10000000000000E+01
 p    4 1.00
 0.34697232244000E+02 0.11327220003114E-01
 0.79582622826000E+01 0.76169659202087E-01
 0.23780826883000E+01 0.30192252202676E+00
 0.81433208183000E+00 0.72785027349547E+00
 p    1 1.00
 0.28887547253000E+00 0.10000000000000E+01
 p    1 1.00
 0.10056823671000E+00 0.10000000000000E+01
 d    1 1.00
 0.10970000000000E+01 0.10000000000000E+01
 d    1 1.00
 0.31800000000000E+00 0.10000000000000E+01
 d    1 1.00
 0.90985336424000E-01 0.10000000000000E+01
 f    1 1.00
 0.76100000000000E+00 0.10000000000000E+01
 
    3 0
 s    6 1.00
 0.13575349682000E+05 0.60645503603591E-03
 0.20352333680000E+04 0.46979088884982E-02
 0.46322562359000E+03 0.24332477647552E-01
 0.13120019598000E+03 0.97399968307759E-01
 0.42853015891000E+02 0.30195584253780E+00
 0.15584185766000E+02 0.66233609137875E+00
 s    2 1.00
 0.62067138508000E+01 0.65595308539952E+00
 0.25764896527000E+01 0.37585633285142E+00
 s    1 1.00
 0.57696339419000E+00 0.10000000000000E+01
 s    1 1.00
 0.22972831358000E+00 0.10000000000000E+01
 s    1 1.00
 0.95164440028000E-01 0.10000000000000E+01
 s    1 1.00
 0.48475401370000E-01 0.10000000000000E+01
 p    4 1.00
 0.34697232244000E+02 0.11327220003114E-01
 0.79582622826000E+01 0.76169659202087E-01
 0.23780826883000E+01 0.30192252202676E+00
 0.81433208183000E+00 0.72785027349547E+00
 p    1 1.00
 0.28887547253000E+00 0.10000000000000E+01
 p    1 1.00
 0.10056823671000E+00 0.10000000000000E+01
 d    1 1.00
 0.10970000000000E+01 0.10000000000000E+01
 d    1 1.00
 0.31800000000000E+00 0.10000000000000E+01
 d    1 1.00
 0.90985336424000E-01 0.10000000000000E+01
 f    1 1.00
 0.76100000000000E+00 0.10000000000000E+01
 
    4 0
 s    6 1.00
 0.13575349682000E+05 0.60645503603591E-03
 0.20352333680000E+04 0.46979088884982E-02
 0.46322562359000E+03 0.24332477647552E-01
 0.13120019598000E+03 0.97399968307759E-01
 0.42853015891000E+02 0.30195584253780E+00
 0.15584185766000E+02 0.66233609137875E+00
 s    2 1.00
 0.62067138508000E+01 0.65595308539952E+00
 0.25764896527000E+01 0.37585633285142E+00
 s    1 1.00
 0.57696339419000E+00 0.10000000000000E+01
 s    1 1.00
 0.22972831358000E+00 0.10000000000000E+01
 s    1 1.00
 0.95164440028000E-01 0.10000000000000E+01
 s    1 1.00
 0.48475401370000E-01 0.10000000000000E+01
 p    4 1.00
 0.34697232244000E+02 0.11327220003114E-01
 0.79582622826000E+01 0.76169659202087E-01
 0.23780826883000E+01 0.30192252202676E+00
 0.81433208183000E+00 0.72785027349547E+00
 p    1 1.00
 0.28887547253000E+00 0.10000000000000E+01
 p    1 1.00
 0.10056823671000E+00 0.10000000000000E+01
 d    1 1.00
 0.10970000000000E+01 0.10000000000000E+01
 d    1 1.00
 0.31800000000000E+00 0.10000000000000E+01
 d    1 1.00
 0.90985336424000E-01 0.10000000000000E+01
 f    1 1.00
 0.76100000000000E+00 0.10000000000000E+01
 
    5 0
 s    6 1.00
 0.13575349682000E+05 0.60645503603591E-03
 0.20352333680000E+04 0.46979088884982E-02
 0.46322562359000E+03 0.24332477647552E-01
 0.13120019598000E+03 0.97399968307759E-01
 0.42853015891000E+02 0.30195584253780E+00
 0.15584185766000E+02 0.66233609137875E+00
 s    2 1.00
 0.62067138508000E+01 0.65595308539952E+00
 0.25764896527000E+01 0.37585633285142E+00
 s    1 1.00
 0.57696339419000E+00 0.10000000000000E+01
 s    1 1.00
 0.22972831358000E+00 0.10000000000000E+01
 s    1 1.00
 0.95164440028000E-01 0.10000000000000E+01
 s    1 1.00
 0.48475401370000E-01 0.10000000000000E+01
 p    4 1.00
 0.34697232244000E+02 0.11327220003114E-01
 0.79582622826000E+01 0.76169659202087E-01
 0.23780826883000E+01 0.30192252202676E+00
 0.81433208183000E+00 0.72785027349547E+00
 p    1 1.00
 0.28887547253000E+00 0.10000000000000E+01
 p    1 1.00
 0.10056823671000E+00 0.10000000000000E+01
 d    1 1.00
 0.10970000000000E+01 0.10000000000000E+01
 d    1 1.00
 0.31800000000000E+00 0.10000000000000E+01
 d    1 1.00
 0.90985336424000E-01 0.10000000000000E+01
 f    1 1.00
 0.76100000000000E+00 0.10000000000000E+01
 
    6 0
 s    6 1.00
 0.13575349682000E+05 0.60645503603591E-03
 0.20352333680000E+04 0.46979088884982E-02
 0.46322562359000E+03 0.24332477647552E-01
 0.13120019598000E+03 0.97399968307759E-01
 0.42853015891000E+02 0.30195584253780E+00
 0.15584185766000E+02 0.66233609137875E+00
 s    2 1.00
 0.62067138508000E+01 0.65595308539952E+00
 0.25764896527000E+01 0.37585633285142E+00
 s    1 1.00
 0.57696339419000E+00 0.10000000000000E+01
 s    1 1.00
 0.22972831358000E+00 0.10000000000000E+01
 s    1 1.00
 0.95164440028000E-01 0.10000000000000E+01
 s    1 1.00
 0.48475401370000E-01 0.10000000000000E+01
 p    4 1.00
 0.34697232244000E+02 0.11327220003114E-01
 0.79582622826000E+01 0.76169659202087E-01
 0.23780826883000E+01 0.30192252202676E+00
 0.81433208183000E+00 0.72785027349547E+00
 p    1 1.00
 0.28887547253000E+00 0.10000000000000E+01
 p    1 1.00
 0.10056823671000E+00 0.10000000000000E+01
 d    1 1.00
 0.10970000000000E+01 0.10000000000000E+01
 d    1 1.00
 0.31800000000000E+00 0.10000000000000E+01
 d    1 1.00
 0.90985336424000E-01 0.10000000000000E+01
 f    1 1.00
 0.76100000000000E+00 0.10000000000000E+01
 
    7 0
 s    3 1.00
 0.34061341000000E+02 0.25439307208879E-01
 0.51235746000000E+01 0.19008594890375E+00
 0.11646626000000E+01 0.85244113011042E+00
 s    1 1.00
 0.32723041000000E+00 0.10000000000000E+01
 s    1 1.00
 0.10307241000000E+00 0.10000000000000E+01
 p    1 1.00
 0.80000000000000E+00 0.10000000000000E+01
 p    1 1.00
 0.95774129632000E-01 0.10000000000000E+01
 
    8 0
 s    3 1.00
 0.34061341000000E+02 0.25439307208879E-01
 0.51235746000000E+01 0.19008594890375E+00
 0.11646626000000E+01 0.85244113011042E+00
 s    1 1.00
 0.32723041000000E+00 0.10000000000000E+01
 s    1 1.00
 0.10307241000000E+00 0.10000000000000E+01
 p    1 1.00
 0.80000000000000E+00 0.10000000000000E+01
 p    1 1.00
 0.95774129632000E-01 0.10000000000000E+01
 
    9 0
 s    3 1.00
 0.34061341000000E+02 0.25439307208879E-01
 0.51235746000000E+01 0.19008594890375E+00
 0.11646626000000E+01 0.85244113011042E+00
 s    1 1.00
 0.32723041000000E+00 0.10000000000000E+01
 s    1 1.00
 0.10307241000000E+00 0.10000000000000E+01
 p    1 1.00
 0.80000000000000E+00 0.10000000000000E+01
 p    1 1.00
 0.95774129632000E-01 0.10000000000000E+01
 
   10 0
 s    3 1.00
 0.34061341000000E+02 0.25439307208879E-01
 0.51235746000000E+01 0.19008594890375E+00
 0.11646626000000E+01 0.85244113011042E+00
 s    1 1.00
 0.32723041000000E+00 0.10000000000000E+01
 s    1 1.00
 0.10307241000000E+00 0.10000000000000E+01
 p    1 1.00
 0.80000000000000E+00 0.10000000000000E+01
 p    1 1.00
 0.95774129632000E-01 0.10000000000000E+01
 
   11 0
 s    6 1.00
 0.19730800647000E+05 0.58626402628763E-03
 0.29578958745000E+04 0.45428820586397E-02
 0.67322133595000E+03 0.23558413450084E-01
 0.19068249494000E+03 0.94709193292923E-01
 0.62295441898000E+02 0.29719784913376E+00
 0.22654161182000E+02 0.66916246895232E+00
 s    2 1.00
 0.89791477428000E+01 0.64596683630063E+00
 0.36863002370000E+01 0.38700574393705E+00
 s    1 1.00
 0.84660076805000E+00 0.10000000000000E+01
 s    1 1.00
 0.33647133771000E+00 0.10000000000000E+01
 s    1 1.00
 0.13647653675000E+00 0.10000000000000E+01
 s    1 1.00
 0.68441605847000E-01 0.10000000000000E+01
 p    4 1.00
 0.49200380510000E+02 0.11448825101764E-01
 0.11346790537000E+02 0.78422337970864E-01
 0.34273972411000E+01 0.30818094738830E+00
 0.11785525134000E+01 0.72027196368413E+00
 p    1 1.00
 0.41642204972000E+00 0.10000000000000E+01
 p    1 1.00
 0.14260826011000E+00 0.10000000000000E+01
 d    1 1.00
 0.16540000000000E+01 0.10000000000000E+01
 d    1 1.00
 0.46900000000000E+00 0.10000000000000E+01
 d    1 1.00
 0.12829642058000E+00 0.10000000000000E+01
 f    1 1.00
 0.10930000000000E+01 0.10000000000000E+01
 
   12 0
 s    6 1.00
 0.27032382631000E+05 0.57227335211155E-03
 0.40523871392000E+04 0.44353233492995E-02
 0.92232722710000E+03 0.23020107706038E-01
 0.26124070989000E+03 0.92822490667928E-01
 0.85354641351000E+02 0.29378500009671E+00
 0.31035035245000E+02 0.67401604501641E+00
 s    2 1.00
 0.12260860728000E+02 0.63839937025506E+00
 0.49987076005000E+01 0.39534587125718E+00
 s    1 1.00
 0.11703108158000E+01 0.10000000000000E+01
 s    1 1.00
 0.46474740994000E+00 0.10000000000000E+01
 s    1 1.00
 0.18504536357000E+00 0.10000000000000E+01
 s    1 1.00
 0.70288026270000E-01 0.10000000000000E+01
 p    4 1.00
 0.63274954801000E+02 0.12018332222616E-01
 0.14627049379000E+02 0.83005421790056E-01
 0.44501223456000E+01 0.31991743925964E+00
 0.15275799647000E+01 0.70715542916104E+00
 p    1 1.00
 0.52935117943000E+00 0.10000000000000E+01
 p    1 1.00
 0.17478421270000E+00 0.10000000000000E+01
 p    1 1.00
 0.51112745706000E-01 0.10000000000000E+01
 d    1 1.00
 0.23140000000000E+01 0.10000000000000E+01
 d    1 1.00
 0.64500000000000E+00 0.10000000000000E+01
 d    1 1.00
 0.14696477366000E+00 0.10000000000000E+01
 f    1 1.00
 0.14280000000000E+01 0.10000000000000E+01
 
   13 0
 s    6 1.00
 0.27032382631000E+05 0.57227335211155E-03
 0.40523871392000E+04 0.44353233492995E-02
 0.92232722710000E+03 0.23020107706038E-01
 0.26124070989000E+03 0.92822490667928E-01
 0.85354641351000E+02 0.29378500009671E+00
 0.31035035245000E+02 0.67401604501641E+00
 s    2 1.00
 0.12260860728000E+02 0.63839937025506E+00
 0.49987076005000E+01 0.39534587125718E+00
 s    1 1.00
 0.11703108158000E+01 0.10000000000000E+01
 s    1 1.00
 0.46474740994000E+00 0.10000000000000E+01
 s    1 1.00
 0.18504536357000E+00 0.10000000000000E+01
 s    1 1.00
 0.70288026270000E-01 0.10000000000000E+01
 p    4 1.00
 0.63274954801000E+02 0.12018332222616E-01
 0.14627049379000E+02 0.83005421790056E-01
 0.44501223456000E+01 0.31991743925964E+00
 0.15275799647000E+01 0.70715542916104E+00
 p    1 1.00
 0.52935117943000E+00 0.10000000000000E+01
 p    1 1.00
 0.17478421270000E+00 0.10000000000000E+01
 p    1 1.00
 0.51112745706000E-01 0.10000000000000E+01
 d    1 1.00
 0.23140000000000E+01 0.10000000000000E+01
 d    1 1.00
 0.64500000000000E+00 0.10000000000000E+01
 d    1 1.00
 0.14696477366000E+00 0.10000000000000E+01
 f    1 1.00
 0.14280000000000E+01 0.10000000000000E+01
 
   14 0
 s    6 1.00
 0.19730800647000E+05 0.58626402628763E-03
 0.29578958745000E+04 0.45428820586397E-02
 0.67322133595000E+03 0.23558413450084E-01
 0.19068249494000E+03 0.94709193292923E-01
 0.62295441898000E+02 0.29719784913376E+00
 0.22654161182000E+02 0.66916246895232E+00
 s    2 1.00
 0.89791477428000E+01 0.64596683630063E+00
 0.36863002370000E+01 0.38700574393705E+00
 s    1 1.00
 0.84660076805000E+00 0.10000000000000E+01
 s    1 1.00
 0.33647133771000E+00 0.10000000000000E+01
 s    1 1.00
 0.13647653675000E+00 0.10000000000000E+01
 s    1 1.00
 0.68441605847000E-01 0.10000000000000E+01
 p    4 1.00
 0.49200380510000E+02 0.11448825101764E-01
 0.11346790537000E+02 0.78422337970864E-01
 0.34273972411000E+01 0.30818094738830E+00
 0.11785525134000E+01 0.72027196368413E+00
 p    1 1.00
 0.41642204972000E+00 0.10000000000000E+01
 p    1 1.00
 0.14260826011000E+00 0.10000000000000E+01
 d    1 1.00
 0.16540000000000E+01 0.10000000000000E+01
 d    1 1.00
 0.46900000000000E+00 0.10000000000000E+01
 d    1 1.00
 0.12829642058000E+00 0.10000000000000E+01
 f    1 1.00
 0.10930000000000E+01 0.10000000000000E+01
 
   15 0
 s    3 1.00
 0.34061341000000E+02 0.25439307208879E-01
 0.51235746000000E+01 0.19008594890375E+00
 0.11646626000000E+01 0.85244113011042E+00
 s    1 1.00
 0.32723041000000E+00 0.10000000000000E+01
 s    1 1.00
 0.10307241000000E+00 0.10000000000000E+01
 p    1 1.00
 0.80000000000000E+00 0.10000000000000E+01
 p    1 1.00
 0.95774129632000E-01 0.10000000000000E+01
 
   16 0
 s    3 1.00
 0.34061341000000E+02 0.25439307208879E-01
 0.51235746000000E+01 0.19008594890375E+00
 0.11646626000000E+01 0.85244113011042E+00
 s    1 1.00
 0.32723041000000E+00 0.10000000000000E+01
 s    1 1.00
 0.10307241000000E+00 0.10000000000000E+01
 p    1 1.00
 0.80000000000000E+00 0.10000000000000E+01
 p    1 1.00
 0.95774129632000E-01 0.10000000000000E+01
 
[MO]
 Sym= X
 Ene= -0.895561
 Spin= Alpha
 Occup= -0.895561
         1   -2.774911E-04
         2   -6.417023E-04
         3    1.798535E-03
         4   -4.234964E-03
         5    2.369594E-02
         6   -1.612376E-02
         7   -2.168743E-03
         8   -3.068705E-05
         9    3.488234E-02
        10    3.867248E-03
        11   -4.794681E-04
        12    3.295901E-02
        13    4.125206E-02
        14   -1.755915E-02
        15    1.511901E-02
        16    1.233923E-06
        17   -1.651102E-05
        18    1.527710E-05
        19   -4.736846E-06
        20    6.155399E-03
        21   -3.938050E-03
        22   -9.528553E-04
        23    5.647536E-04
        24    3.881017E-04
        25   -9.934259E-04
        26    1.398829E-02
        27   -7.388816E-03
        28   -4.460848E-03
        29    4.154455E-03
        30    3.063933E-04
        31    2.079800E-03
        32   -3.197479E-03
        33    9.786404E-03
        34    3.013602E-05
        35   -6.806118E-06
        36   -1.536652E-04
        37   -1.299429E-05
        38    5.602354E-06
        39   -6.788875E-04
        40   -2.743743E-05
        41    3.529011E-06
        42    8.850510E-04
        43   -6.929965E-04
        44    3.297830E-05
        45    7.242574E-05
        46    2.293920E-04
        47   -4.467555E-03
        48   -7.250478E-02
        49    8.061256E-03
        50   -2.506823E-04
        51   -2.055981E-06
        52    2.043816E-01
        53    8.719710E-04
        54   -1.228447E-05
        55    2.116122E-01
        56    1.883927E-02
        57    4.430835E-04
        58    1.943436E-01
        59    5.873884E-05
        60   -5.350023E-05
        61   -5.238604E-06
        62    1.260175E-07
        63    2.107693E-04
        64   -3.126199E-08
        65    5.376697E-04
        66   -8.956369E-04
        67    3.579671E-04
        68    2.181871E-06
        69    2.196096E-03
        70    4.940635E-07
        71    1.650931E-02
        72   -1.850365E-02
        73    1.994346E-03
        74   -8.225454E-05
        75   -4.227678E-03
        76    1.517474E-05
        77   -9.264882E-06
        78   -2.856285E-08
        79   -1.157384E-03
        80    9.824976E-06
        81   -1.866358E-08
        82    6.462739E-04
        83    2.605168E-06
        84    5.698467E-08
        85    9.065201E-04
        86   -2.171883E-08
        87   -2.778535E-04
        88   -6.425155E-04
        89    1.800601E-03
        90   -4.240784E-03
        91    2.474907E-02
        92   -1.611494E-02
        93   -2.169018E-03
        94    3.258131E-05
        95    3.488184E-02
        96    3.845619E-03
        97    4.756980E-04
        98    3.295923E-02
        99    4.145330E-02
       100    1.796342E-02
       101    1.514107E-02
       102    1.267227E-06
       103   -1.648106E-05
       104    1.521383E-05
       105    4.916429E-06
       106    6.155582E-03
       107    3.938096E-03
       108   -9.485263E-04
       109    5.602682E-04
       110    3.882581E-04
       111    9.916323E-04
       112    1.398796E-02
       113    7.388794E-03
       114   -4.549467E-03
       115    4.253943E-03
       116    2.955241E-04
       117   -1.991440E-03
       118   -3.182326E-03
       119   -9.780470E-03
       120    3.016119E-05
       121    6.778058E-06
       122   -1.536578E-04
       123   -1.308289E-05
       124   -5.568629E-06
       125   -6.789125E-04
       126   -2.738260E-05
       127   -3.525091E-06
       128    8.850660E-04
       129    6.929793E-04
       130    1.942796E-04
       131    4.215989E-04
       132    6.013418E-04
       133   -1.389003E-02
       134    1.053111E-02
       135    1.912156E-02
       136    1.892391E-03
       137   -7.096241E-04
       138   -1.516606E-01
       139    1.301097E-02
       140   -8.446229E-03
       141   -1.542139E-01
       142    1.807357E-02
       143    1.051682E-02
       144   -9.570609E-02
       145    1.887078E-04
       146   -2.300343E-04
       147    4.132653E-05
       148   -5.113820E-06
       149    1.317473E-03
       150   -3.201300E-03
       151    9.779839E-04
       152   -1.085831E-03
       153    1.078472E-04
       154    2.291022E-03
       155    5.245940E-03
       156   -5.280102E-03
       157    1.030278E-02
       158   -7.686287E-03
       159   -2.616490E-03
       160   -1.538478E-02
       161   -4.232792E-03
       162    1.127691E-02
       163    2.446760E-05
       164   -1.066667E-05
       165    8.625882E-04
       166    2.316763E-05
       167   -2.641814E-05
       168   -1.696193E-04
       169   -5.599435E-05
       170    4.072898E-05
       171   -9.876641E-04
       172    3.799459E-04
       173   -1.476526E-03
       174   -3.364341E-03
       175    3.246884E-03
       176    3.117591E-02
       177   -5.677797E-02
       178    1.004986E-02
       179   -1.153496E-02
       180    1.615216E-06
       181   -1.273653E-01
       182   -1.898662E-04
       183    9.119287E-06
       184   -1.303808E-01
       185    5.435158E-02
       186   -5.640476E-04
       187   -1.376374E-01
       188    6.529720E-04
       189   -3.641743E-04
       190   -2.887977E-04
       191    1.888345E-07
       192   -9.438147E-03
       193    1.559955E-08
       194   -2.478894E-03
       195    5.574091E-03
       196   -3.095197E-03
       197    2.035504E-06
       198   -2.345694E-02
       199    9.430485E-07
       200   -1.078003E-02
       201    1.205666E-02
       202   -1.276628E-03
       203   -1.385835E-04
       204   -1.499608E-02
       205   -1.112709E-05
       206   -1.569715E-04
       207   -9.515634E-09
       208    4.146007E-04
       209    1.162574E-04
       210    4.618781E-08
       211    9.556098E-04
       212    9.434191E-05
       213   -3.342125E-08
       214   -1.511855E-03
       215    4.918217E-08
       216    1.944748E-04
       217    4.219959E-04
       218    6.008153E-04
       219   -1.389615E-02
       220    1.189854E-02
       221    1.910002E-02
       222    1.891991E-03
       223    7.050495E-04
       224   -1.516568E-01
       225    1.302098E-02
       226    8.449032E-03
       227   -1.542125E-01
       228    1.788035E-02
       229   -1.108783E-02
       230   -9.567761E-02
       231    1.886034E-04
       232   -2.301929E-04
       233    4.158942E-05
       234    5.380916E-06
       235    1.317567E-03
       236    3.201329E-03
       237    9.818278E-04
       238   -1.089757E-03
       239    1.079296E-04
       240   -2.292740E-03
       241    5.245345E-03
       242    5.279970E-03
       243    1.021577E-02
       244   -7.598399E-03
       245   -2.617376E-03
       246    1.546870E-02
       247   -4.248091E-03
       248   -1.128948E-02
       249    2.452198E-05
       250    1.072031E-05
       251    8.626265E-04
       252    2.323788E-05
       253    2.634311E-05
       254   -1.696538E-04
       255   -5.613757E-05
       256   -4.072592E-05
       257   -9.876811E-04
       258   -3.799275E-04
       259   -3.260604E-04
       260    4.991742E-05
       261   -2.242574E-02
       262    7.715686E-08
       263   -3.757220E-05
       264    1.389490E-03
       265    6.943951E-03
       266    9.732271E-04
       267   -5.271280E-03
       268   -3.270954E-04
       269    5.295093E-05
       270   -2.240801E-02
       271   -4.064761E-07
       272    3.811362E-05
       273    1.389471E-03
       274    7.027618E-03
       275   -9.386648E-04
       276   -5.276535E-03
       277   -6.477556E-04
       278   -3.423119E-03
       279    4.963918E-02
       280    1.797644E-05
       281   -1.495498E-04
       282   -6.199156E-03
       283    1.377412E-03
       284    4.315757E-03
       285   -1.829136E-04
       286   -6.506945E-04
       287   -3.422351E-03
       288    4.976730E-02
       289    1.781013E-05
       290    1.494059E-04
       291   -6.199182E-03
       292    1.334535E-03
       293   -4.352574E-03
       294   -1.803710E-04
       295   -5.840310E-05
       296   -1.357370E-04
       297    1.272529E-04
       298    3.322380E-04
       299   -1.075059E-02
       300   -5.330018E-04
       301   -6.936318E-04
       302    2.591909E-07
       303    1.033960E-02
       304   -2.247870E-04
       305    3.845450E-07
       306    1.278890E-02
       307    4.000948E-03
       308    1.501491E-06
       309    2.547998E-03
       310    3.468428E-05
       311   -2.029557E-05
       312   -1.438871E-05
       313   -1.608733E-08
       314   -4.230524E-03
       315   -3.497781E-08
       316    2.891856E-05
       317    4.901724E-05
       318   -7.793580E-05
       319   -1.113602E-07
       320   -1.262409E-02
       321   -1.422290E-07
       322   -7.399696E-04
       323    3.755597E-03
       324   -3.015628E-03
       325    1.186271E-05
       326   -3.136676E-03
       327   -4.224220E-06
       328   -8.876074E-06
       329    4.232194E-09
       330    1.247516E-05
       331    5.893994E-06
       332   -1.864197E-08
       333    6.807948E-04
       334    6.014509E-06
       335    1.296389E-08
       336   -6.975320E-04
       337   -1.239580E-08
       338   -1.617589E-05
       339   -3.420058E-05
       340   -1.345077E-05
       341    7.285794E-04
       342   -8.508753E-03
       343   -1.701753E-03
       344    5.268289E-04
       345   -1.136641E-04
       346   -7.406632E-02
       347    6.502411E-04
       348   -2.893728E-04
       349   -6.863966E-02
       350    1.793491E-03
       351   -8.217778E-04
       352   -5.365862E-02
       353    3.687365E-04
       354   -2.925731E-04
       355   -6.080992E-03
       356    3.631757E-06
       357   -6.136847E-06
       358    2.505090E-06
       359    3.518658E-06
       360    3.643072E-05
       361   -5.361131E-04
       362   -1.677013E-05
       363   -1.364211E-05
       364    3.041224E-05
       365    2.048704E-05
       366    6.295479E-04
       367   -1.718065E-03
       368   -8.511771E-05
       369    1.414105E-05
       370    7.097666E-05
       371    9.391841E-06
       372    6.634761E-04
       373   -3.411174E-04
       374   -1.299734E-06
       375   -1.939287E-06
       376    7.123331E-05
       377    2.273040E-06
       378   -2.003226E-07
       379    8.597305E-05
       380   -5.292641E-07
       381    2.802149E-06
       382   -1.815426E-04
       383    1.438799E-04
       384   -1.617513E-05
       385   -3.420472E-05
       386   -1.338707E-05
       387    7.285522E-04
       388   -8.522350E-03
       389   -1.685500E-03
       390    5.228715E-04
       391    1.142183E-04
       392   -7.406833E-02
       393    6.468710E-04
       394    2.899219E-04
       395   -6.864208E-02
       396    1.782682E-03
       397    8.273151E-04
       398   -5.365223E-02
       399    3.603010E-04
       400    2.961915E-04
       401   -6.081540E-03
       402    3.634912E-06
       403   -6.119509E-06
       404    2.484597E-06
       405   -3.513386E-06
       406    3.646160E-05
       407    5.361467E-04
       408   -1.656299E-05
       409   -1.371144E-05
       410    3.027444E-05
       411   -2.034883E-05
       412    6.294874E-04
       413    1.718025E-03
       414   -8.567985E-05
       415    1.494145E-05
       416    7.073840E-05
       417   -1.003494E-05
       418    6.633109E-04
       419    3.400419E-04
       420   -1.297271E-06
       421    1.937599E-06
       422    7.123793E-05
       423    2.265582E-06
       424    1.896618E-07
       425    8.596491E-05
       426   -5.251103E-07
       427   -2.789224E-06
       428   -1.815406E-04
       429   -1.438840E-04
       430    6.920817E-03
       431    1.640904E-02
       432   -2.539768E-02
       433   -4.131864E-02
       434   -1.728525E-02
       435   -9.024788E-02
       436    2.410986E-02
       437   -6.742122E-06
       438    2.454260E-01
       439    2.745304E-02
       440   -1.335114E-06
       441    2.418733E-01
       442    3.003888E-02
       443    5.821607E-05
       444    1.996085E-01
       445   -1.786863E-04
       446   -4.468025E-05
       447    2.233665E-04
       448    1.475384E-07
       449   -1.065738E-03
       450   -1.634229E-07
       451   -4.062871E-04
       452   -2.188828E-03
       453    2.595116E-03
       454   -2.068165E-06
       455   -4.133172E-03
       456   -3.029084E-07
       457   -3.172502E-03
       458   -5.273556E-03
       459    8.446058E-03
       460   -7.194364E-06
       461   -2.562212E-03
       462   -2.810654E-07
       463    1.946135E-04
       464   -3.057028E-08
       465   -9.024509E-04
       466    1.248572E-04
       467   -1.699580E-08
       468    4.325028E-04
       469   -3.859586E-04
       470    5.801014E-08
       471    7.782621E-04
       472   -2.744543E-08
       473    1.286897E-02
       474    2.516935E-02
       475    4.748592E-02
       476    3.008139E-03
       477    2.560655E-03
       478    1.233044E-02
       479   -6.638631E-04
       480    5.396682E-03
       481    1.477402E-02
       482    1.286482E-02
       483    2.512355E-02
       484    4.726484E-02
       485    3.005413E-03
       486   -2.556909E-03
       487    1.233292E-02
       488   -7.019925E-04
       489   -5.371490E-03
       490    1.478668E-02
 Sym= X
 Ene= 0.895561
 Spin= Alpha
 Occup= 0.895561
         1    4.131469E-03
         2    9.594165E-03
         3   -1.916055E-02
         4    1.187791E-02
         5   -2.955370E+00
         6   -6.801110E-01
         7   -2.386342E-02
         8   -3.762815E-02
         9   -2.744060E-03
        10    3.443891E-03
        11   -1.101252E-01
        12   -7.637860E-04
        13   -5.057738E-03
        14    1.533930E+00
        15   -6.487366E-03
        16   -2.341910E-03
        17    5.630711E-03
        18   -3.288801E-03
        19    3.170942E-03
        20    9.632992E-05
        21   -1.130434E-04
        22    6.602512E-03
        23    5.819844E-03
        24   -1.242236E-02
        25   -7.228834E-04
        26   -8.754591E-04
        27   -9.247921E-05
        28    2.520561E-01
        29   -8.665222E-02
        30   -1.654039E-01
        31    7.202615E-01
        32    1.688258E-02
        33   -3.228270E-02
        34    7.501177E-05
        35   -2.881256E-04
        36   -2.316919E-05
        37   -5.067774E-04
        38   -2.938257E-04
        39    5.388710E-05
        40    4.061386E-04
        41    6.803868E-04
        42   -2.280237E-05
        43    1.443647E-05
        44    4.098806E-04
        45    1.304885E-03
        46   -5.309595E-03
        47    1.015612E-01
        48    5.938556E+00
        49   -4.420481E+00
        50   -5.960090E-02
        51    1.847444E-06
        52    3.040726E-03
        53   -4.537860E-02
        54    4.216999E-05
        55    5.550569E-03
        56   -2.826244E+00
        57   -6.144277E-04
        58   -1.183360E-01
        59    6.453341E-03
        60   -2.267728E-03
        61   -4.185613E-03
        62    3.864071E-07