[Molden Format]
[Title]
ADC(2) - opt by CAM-B3LYP gaussian                                              
[Atoms] AU
 c     1    6 0.12592752280008E+01 0.22800132789445E+01 -.35345910021030E-01
 c     2    6 0.25511638220345E+01 0.20078340100000E-05 -.33671612667290E-01
 c     3    6 0.12592790074531E+01 -.22800111530026E+01 -.35357248377820E-01
 c     4    6 -.13364450292264E+01 -.22798221803893E+01 -.38530098554940E-01
 c     5    6 -.26857699593430E+01 -.17716182500000E-05 -.39025206801750E-01
 c     6    6 -.13364469189525E+01 0.22798205268790E+01 -.38516870472010E-01
 h     7    1 0.23055183220207E+01 0.40307538342087E+01 -.32265656424420E-01
 h     8    1 0.23055239911991E+01 -.40307498185407E+01 -.32284553685750E-01
 h     9    1 -.23548467881305E+01 -.40530977197882E+01 -.43619131030800E-01
 h    10    1 -.23548543470350E+01 0.40530922868255E+01 -.43594564591070E-01
 n    11    7 0.52860567397703E+01 0.11810788000000E-06 -.26776002008390E-01
 o    12    8 0.63771222479361E+01 -.20280728649663E+01 -.23850705954680E-01
 o    13    8 0.63771260273883E+01 0.20280712114559E+01 -.23882831298940E-01
 n    14    7 -.52615573853205E+01 0.11810788000000E-06 -.10505223788478E+00
 h    15    1 -.61955753134867E+01 -.16086254730588E+01 0.27588253543458E+00
 h    16    1 -.61955696443083E+01 0.16086275990006E+01 0.27589009433911E+00
[GTO]
    1 0
 s    6 1.00
 0.13575349682000E+05 0.60645503603591E-03
 0.20352333680000E+04 0.46979088884982E-02
 0.46322562359000E+03 0.24332477647552E-01
 0.13120019598000E+03 0.97399968307759E-01
 0.42853015891000E+02 0.30195584253780E+00
 0.15584185766000E+02 0.66233609137875E+00
 s    2 1.00
 0.62067138508000E+01 0.65595308539952E+00
 0.25764896527000E+01 0.37585633285142E+00
 s    1 1.00
 0.57696339419000E+00 0.10000000000000E+01
 s    1 1.00
 0.22972831358000E+00 0.10000000000000E+01
 s    1 1.00
 0.95164440028000E-01 0.10000000000000E+01
 s    1 1.00
 0.48475401370000E-01 0.10000000000000E+01
 p    4 1.00
 0.34697232244000E+02 0.11327220003114E-01
 0.79582622826000E+01 0.76169659202087E-01
 0.23780826883000E+01 0.30192252202676E+00
 0.81433208183000E+00 0.72785027349547E+00
 p    1 1.00
 0.28887547253000E+00 0.10000000000000E+01
 p    1 1.00
 0.10056823671000E+00 0.10000000000000E+01
 d    1 1.00
 0.10970000000000E+01 0.10000000000000E+01
 d    1 1.00
 0.31800000000000E+00 0.10000000000000E+01
 d    1 1.00
 0.90985336424000E-01 0.10000000000000E+01
 f    1 1.00
 0.76100000000000E+00 0.10000000000000E+01
 
    2 0
 s    6 1.00
 0.13575349682000E+05 0.60645503603591E-03
 0.20352333680000E+04 0.46979088884982E-02
 0.46322562359000E+03 0.24332477647552E-01
 0.13120019598000E+03 0.97399968307759E-01
 0.42853015891000E+02 0.30195584253780E+00
 0.15584185766000E+02 0.66233609137875E+00
 s    2 1.00
 0.62067138508000E+01 0.65595308539952E+00
 0.25764896527000E+01 0.37585633285142E+00
 s    1 1.00
 0.57696339419000E+00 0.10000000000000E+01
 s    1 1.00
 0.22972831358000E+00 0.10000000000000E+01
 s    1 1.00
 0.95164440028000E-01 0.10000000000000E+01
 s    1 1.00
 0.48475401370000E-01 0.10000000000000E+01
 p    4 1.00
 0.34697232244000E+02 0.11327220003114E-01
 0.79582622826000E+01 0.76169659202087E-01
 0.23780826883000E+01 0.30192252202676E+00
 0.81433208183000E+00 0.72785027349547E+00
 p    1 1.00
 0.28887547253000E+00 0.10000000000000E+01
 p    1 1.00
 0.10056823671000E+00 0.10000000000000E+01
 d    1 1.00
 0.10970000000000E+01 0.10000000000000E+01
 d    1 1.00
 0.31800000000000E+00 0.10000000000000E+01
 d    1 1.00
 0.90985336424000E-01 0.10000000000000E+01
 f    1 1.00
 0.76100000000000E+00 0.10000000000000E+01
 
    3 0
 s    6 1.00
 0.13575349682000E+05 0.60645503603591E-03
 0.20352333680000E+04 0.46979088884982E-02
 0.46322562359000E+03 0.24332477647552E-01
 0.13120019598000E+03 0.97399968307759E-01
 0.42853015891000E+02 0.30195584253780E+00
 0.15584185766000E+02 0.66233609137875E+00
 s    2 1.00
 0.62067138508000E+01 0.65595308539952E+00
 0.25764896527000E+01 0.37585633285142E+00
 s    1 1.00
 0.57696339419000E+00 0.10000000000000E+01
 s    1 1.00
 0.22972831358000E+00 0.10000000000000E+01
 s    1 1.00
 0.95164440028000E-01 0.10000000000000E+01
 s    1 1.00
 0.48475401370000E-01 0.10000000000000E+01
 p    4 1.00
 0.34697232244000E+02 0.11327220003114E-01
 0.79582622826000E+01 0.76169659202087E-01
 0.23780826883000E+01 0.30192252202676E+00
 0.81433208183000E+00 0.72785027349547E+00
 p    1 1.00
 0.28887547253000E+00 0.10000000000000E+01
 p    1 1.00
 0.10056823671000E+00 0.10000000000000E+01
 d    1 1.00
 0.10970000000000E+01 0.10000000000000E+01
 d    1 1.00
 0.31800000000000E+00 0.10000000000000E+01
 d    1 1.00
 0.90985336424000E-01 0.10000000000000E+01
 f    1 1.00
 0.76100000000000E+00 0.10000000000000E+01
 
    4 0
 s    6 1.00
 0.13575349682000E+05 0.60645503603591E-03
 0.20352333680000E+04 0.46979088884982E-02
 0.46322562359000E+03 0.24332477647552E-01
 0.13120019598000E+03 0.97399968307759E-01
 0.42853015891000E+02 0.30195584253780E+00
 0.15584185766000E+02 0.66233609137875E+00
 s    2 1.00
 0.62067138508000E+01 0.65595308539952E+00
 0.25764896527000E+01 0.37585633285142E+00
 s    1 1.00
 0.57696339419000E+00 0.10000000000000E+01
 s    1 1.00
 0.22972831358000E+00 0.10000000000000E+01
 s    1 1.00
 0.95164440028000E-01 0.10000000000000E+01
 s    1 1.00
 0.48475401370000E-01 0.10000000000000E+01
 p    4 1.00
 0.34697232244000E+02 0.11327220003114E-01
 0.79582622826000E+01 0.76169659202087E-01
 0.23780826883000E+01 0.30192252202676E+00
 0.81433208183000E+00 0.72785027349547E+00
 p    1 1.00
 0.28887547253000E+00 0.10000000000000E+01
 p    1 1.00
 0.10056823671000E+00 0.10000000000000E+01
 d    1 1.00
 0.10970000000000E+01 0.10000000000000E+01
 d    1 1.00
 0.31800000000000E+00 0.10000000000000E+01
 d    1 1.00
 0.90985336424000E-01 0.10000000000000E+01
 f    1 1.00
 0.76100000000000E+00 0.10000000000000E+01
 
    5 0
 s    6 1.00
 0.13575349682000E+05 0.60645503603591E-03
 0.20352333680000E+04 0.46979088884982E-02
 0.46322562359000E+03 0.24332477647552E-01
 0.13120019598000E+03 0.97399968307759E-01
 0.42853015891000E+02 0.30195584253780E+00
 0.15584185766000E+02 0.66233609137875E+00
 s    2 1.00
 0.62067138508000E+01 0.65595308539952E+00
 0.25764896527000E+01 0.37585633285142E+00
 s    1 1.00
 0.57696339419000E+00 0.10000000000000E+01
 s    1 1.00
 0.22972831358000E+00 0.10000000000000E+01
 s    1 1.00
 0.95164440028000E-01 0.10000000000000E+01
 s    1 1.00
 0.48475401370000E-01 0.10000000000000E+01
 p    4 1.00
 0.34697232244000E+02 0.11327220003114E-01
 0.79582622826000E+01 0.76169659202087E-01
 0.23780826883000E+01 0.30192252202676E+00
 0.81433208183000E+00 0.72785027349547E+00
 p    1 1.00
 0.28887547253000E+00 0.10000000000000E+01
 p    1 1.00
 0.10056823671000E+00 0.10000000000000E+01
 d    1 1.00
 0.10970000000000E+01 0.10000000000000E+01
 d    1 1.00
 0.31800000000000E+00 0.10000000000000E+01
 d    1 1.00
 0.90985336424000E-01 0.10000000000000E+01
 f    1 1.00
 0.76100000000000E+00 0.10000000000000E+01
 
    6 0
 s    6 1.00
 0.13575349682000E+05 0.60645503603591E-03
 0.20352333680000E+04 0.46979088884982E-02
 0.46322562359000E+03 0.24332477647552E-01
 0.13120019598000E+03 0.97399968307759E-01
 0.42853015891000E+02 0.30195584253780E+00
 0.15584185766000E+02 0.66233609137875E+00
 s    2 1.00
 0.62067138508000E+01 0.65595308539952E+00
 0.25764896527000E+01 0.37585633285142E+00
 s    1 1.00
 0.57696339419000E+00 0.10000000000000E+01
 s    1 1.00
 0.22972831358000E+00 0.10000000000000E+01
 s    1 1.00
 0.95164440028000E-01 0.10000000000000E+01
 s    1 1.00
 0.48475401370000E-01 0.10000000000000E+01
 p    4 1.00
 0.34697232244000E+02 0.11327220003114E-01
 0.79582622826000E+01 0.76169659202087E-01
 0.23780826883000E+01 0.30192252202676E+00
 0.81433208183000E+00 0.72785027349547E+00
 p    1 1.00
 0.28887547253000E+00 0.10000000000000E+01
 p    1 1.00
 0.10056823671000E+00 0.10000000000000E+01
 d    1 1.00
 0.10970000000000E+01 0.10000000000000E+01
 d    1 1.00
 0.31800000000000E+00 0.10000000000000E+01
 d    1 1.00
 0.90985336424000E-01 0.10000000000000E+01
 f    1 1.00
 0.76100000000000E+00 0.10000000000000E+01
 
    7 0
 s    3 1.00
 0.34061341000000E+02 0.25439307208879E-01
 0.51235746000000E+01 0.19008594890375E+00
 0.11646626000000E+01 0.85244113011042E+00
 s    1 1.00
 0.32723041000000E+00 0.10000000000000E+01
 s    1 1.00
 0.10307241000000E+00 0.10000000000000E+01
 p    1 1.00
 0.80000000000000E+00 0.10000000000000E+01
 p    1 1.00
 0.95774129632000E-01 0.10000000000000E+01
 
    8 0
 s    3 1.00
 0.34061341000000E+02 0.25439307208879E-01
 0.51235746000000E+01 0.19008594890375E+00
 0.11646626000000E+01 0.85244113011042E+00
 s    1 1.00
 0.32723041000000E+00 0.10000000000000E+01
 s    1 1.00
 0.10307241000000E+00 0.10000000000000E+01
 p    1 1.00
 0.80000000000000E+00 0.10000000000000E+01
 p    1 1.00
 0.95774129632000E-01 0.10000000000000E+01
 
    9 0
 s    3 1.00
 0.34061341000000E+02 0.25439307208879E-01
 0.51235746000000E+01 0.19008594890375E+00
 0.11646626000000E+01 0.85244113011042E+00
 s    1 1.00
 0.32723041000000E+00 0.10000000000000E+01
 s    1 1.00
 0.10307241000000E+00 0.10000000000000E+01
 p    1 1.00
 0.80000000000000E+00 0.10000000000000E+01
 p    1 1.00
 0.95774129632000E-01 0.10000000000000E+01
 
   10 0
 s    3 1.00
 0.34061341000000E+02 0.25439307208879E-01
 0.51235746000000E+01 0.19008594890375E+00
 0.11646626000000E+01 0.85244113011042E+00
 s    1 1.00
 0.32723041000000E+00 0.10000000000000E+01
 s    1 1.00
 0.10307241000000E+00 0.10000000000000E+01
 p    1 1.00
 0.80000000000000E+00 0.10000000000000E+01
 p    1 1.00
 0.95774129632000E-01 0.10000000000000E+01
 
   11 0
 s    6 1.00
 0.19730800647000E+05 0.58626402628763E-03
 0.29578958745000E+04 0.45428820586397E-02
 0.67322133595000E+03 0.23558413450084E-01
 0.19068249494000E+03 0.94709193292923E-01
 0.62295441898000E+02 0.29719784913376E+00
 0.22654161182000E+02 0.66916246895232E+00
 s    2 1.00
 0.89791477428000E+01 0.64596683630063E+00
 0.36863002370000E+01 0.38700574393705E+00
 s    1 1.00
 0.84660076805000E+00 0.10000000000000E+01
 s    1 1.00
 0.33647133771000E+00 0.10000000000000E+01
 s    1 1.00
 0.13647653675000E+00 0.10000000000000E+01
 s    1 1.00
 0.68441605847000E-01 0.10000000000000E+01
 p    4 1.00
 0.49200380510000E+02 0.11448825101764E-01
 0.11346790537000E+02 0.78422337970864E-01
 0.34273972411000E+01 0.30818094738830E+00
 0.11785525134000E+01 0.72027196368413E+00
 p    1 1.00
 0.41642204972000E+00 0.10000000000000E+01
 p    1 1.00
 0.14260826011000E+00 0.10000000000000E+01
 d    1 1.00
 0.16540000000000E+01 0.10000000000000E+01
 d    1 1.00
 0.46900000000000E+00 0.10000000000000E+01
 d    1 1.00
 0.12829642058000E+00 0.10000000000000E+01
 f    1 1.00
 0.10930000000000E+01 0.10000000000000E+01
 
   12 0
 s    6 1.00
 0.27032382631000E+05 0.57227335211155E-03
 0.40523871392000E+04 0.44353233492995E-02
 0.92232722710000E+03 0.23020107706038E-01
 0.26124070989000E+03 0.92822490667928E-01
 0.85354641351000E+02 0.29378500009671E+00
 0.31035035245000E+02 0.67401604501641E+00
 s    2 1.00
 0.12260860728000E+02 0.63839937025506E+00
 0.49987076005000E+01 0.39534587125718E+00
 s    1 1.00
 0.11703108158000E+01 0.10000000000000E+01
 s    1 1.00
 0.46474740994000E+00 0.10000000000000E+01
 s    1 1.00
 0.18504536357000E+00 0.10000000000000E+01
 s    1 1.00
 0.70288026270000E-01 0.10000000000000E+01
 p    4 1.00
 0.63274954801000E+02 0.12018332222616E-01
 0.14627049379000E+02 0.83005421790056E-01
 0.44501223456000E+01 0.31991743925964E+00
 0.15275799647000E+01 0.70715542916104E+00
 p    1 1.00
 0.52935117943000E+00 0.10000000000000E+01
 p    1 1.00
 0.17478421270000E+00 0.10000000000000E+01
 p    1 1.00
 0.51112745706000E-01 0.10000000000000E+01
 d    1 1.00
 0.23140000000000E+01 0.10000000000000E+01
 d    1 1.00
 0.64500000000000E+00 0.10000000000000E+01
 d    1 1.00
 0.14696477366000E+00 0.10000000000000E+01
 f    1 1.00
 0.14280000000000E+01 0.10000000000000E+01
 
   13 0
 s    6 1.00
 0.27032382631000E+05 0.57227335211155E-03
 0.40523871392000E+04 0.44353233492995E-02
 0.92232722710000E+03 0.23020107706038E-01
 0.26124070989000E+03 0.92822490667928E-01
 0.85354641351000E+02 0.29378500009671E+00
 0.31035035245000E+02 0.67401604501641E+00
 s    2 1.00
 0.12260860728000E+02 0.63839937025506E+00
 0.49987076005000E+01 0.39534587125718E+00
 s    1 1.00
 0.11703108158000E+01 0.10000000000000E+01
 s    1 1.00
 0.46474740994000E+00 0.10000000000000E+01
 s    1 1.00
 0.18504536357000E+00 0.10000000000000E+01
 s    1 1.00
 0.70288026270000E-01 0.10000000000000E+01
 p    4 1.00
 0.63274954801000E+02 0.12018332222616E-01
 0.14627049379000E+02 0.83005421790056E-01
 0.44501223456000E+01 0.31991743925964E+00
 0.15275799647000E+01 0.70715542916104E+00
 p    1 1.00
 0.52935117943000E+00 0.10000000000000E+01
 p    1 1.00
 0.17478421270000E+00 0.10000000000000E+01
 p    1 1.00
 0.51112745706000E-01 0.10000000000000E+01
 d    1 1.00
 0.23140000000000E+01 0.10000000000000E+01
 d    1 1.00
 0.64500000000000E+00 0.10000000000000E+01
 d    1 1.00
 0.14696477366000E+00 0.10000000000000E+01
 f    1 1.00
 0.14280000000000E+01 0.10000000000000E+01
 
   14 0
 s    6 1.00
 0.19730800647000E+05 0.58626402628763E-03
 0.29578958745000E+04 0.45428820586397E-02
 0.67322133595000E+03 0.23558413450084E-01
 0.19068249494000E+03 0.94709193292923E-01
 0.62295441898000E+02 0.29719784913376E+00
 0.22654161182000E+02 0.66916246895232E+00
 s    2 1.00
 0.89791477428000E+01 0.64596683630063E+00
 0.36863002370000E+01 0.38700574393705E+00
 s    1 1.00
 0.84660076805000E+00 0.10000000000000E+01
 s    1 1.00
 0.33647133771000E+00 0.10000000000000E+01
 s    1 1.00
 0.13647653675000E+00 0.10000000000000E+01
 s    1 1.00
 0.68441605847000E-01 0.10000000000000E+01
 p    4 1.00
 0.49200380510000E+02 0.11448825101764E-01
 0.11346790537000E+02 0.78422337970864E-01
 0.34273972411000E+01 0.30818094738830E+00
 0.11785525134000E+01 0.72027196368413E+00
 p    1 1.00
 0.41642204972000E+00 0.10000000000000E+01
 p    1 1.00
 0.14260826011000E+00 0.10000000000000E+01
 d    1 1.00
 0.16540000000000E+01 0.10000000000000E+01
 d    1 1.00
 0.46900000000000E+00 0.10000000000000E+01
 d    1 1.00
 0.12829642058000E+00 0.10000000000000E+01
 f    1 1.00
 0.10930000000000E+01 0.10000000000000E+01
 
   15 0
 s    3 1.00
 0.34061341000000E+02 0.25439307208879E-01
 0.51235746000000E+01 0.19008594890375E+00
 0.11646626000000E+01 0.85244113011042E+00
 s    1 1.00
 0.32723041000000E+00 0.10000000000000E+01
 s    1 1.00
 0.10307241000000E+00 0.10000000000000E+01
 p    1 1.00
 0.80000000000000E+00 0.10000000000000E+01
 p    1 1.00
 0.95774129632000E-01 0.10000000000000E+01
 
   16 0
 s    3 1.00
 0.34061341000000E+02 0.25439307208879E-01
 0.51235746000000E+01 0.19008594890375E+00
 0.11646626000000E+01 0.85244113011042E+00
 s    1 1.00
 0.32723041000000E+00 0.10000000000000E+01
 s    1 1.00
 0.10307241000000E+00 0.10000000000000E+01
 p    1 1.00
 0.80000000000000E+00 0.10000000000000E+01
 p    1 1.00
 0.95774129632000E-01 0.10000000000000E+01
 
[MO]
 Sym= X
 Ene= -0.147661
 Spin= Alpha
 Occup= -0.147661
         1   -3.129343E-04
         2   -7.247100E-04
         3    2.008954E-03
         4   -4.562600E-03
         5    2.766949E-02
         6   -1.827059E-02
         7   -3.313712E-03
         8   -4.026286E-04
         9    1.853151E-02
        10    3.678478E-03
        11   -8.888248E-04
        12    1.682696E-02
        13    4.620855E-02
        14   -1.821003E-02
        15    8.488871E-03
        16    2.640313E-05
        17   -4.139135E-05
        18    1.498821E-05
        19   -2.509153E-05
        20    5.893044E-03
        21   -3.333773E-03
        22   -1.026628E-03
        23    6.131966E-04
        24    4.134315E-04
        25   -1.171041E-03
        26    1.336935E-02
        27   -6.365578E-03
        28   -4.727565E-03
        29    4.325633E-03
        30    4.019325E-04
        31    2.495868E-03
        32   -4.004092E-03
        33    1.076024E-02
        34    3.094373E-05
        35   -1.075472E-05
        36   -2.127636E-05
        37   -1.356142E-05
        38    8.757078E-06
        39   -7.277106E-04
        40   -2.795396E-05
        41    5.671891E-06
        42    7.562559E-04
        43   -6.131372E-04
        44    7.181348E-05
        45    1.573719E-04
        46    1.982570E-04
        47   -5.550285E-03
        48   -7.661722E-02
        49    9.858413E-03
        50   -2.994793E-04
        51   -8.245891E-07
        52    1.748015E-01
        53    1.057206E-03
        54   -9.713042E-06
        55    1.816448E-01
        56    2.031121E-02
        57    4.875194E-04
        58    1.845078E-01
        59    8.883845E-05
        60   -8.456856E-05
        61   -4.269895E-06
        62    7.961102E-08
        63    4.497986E-04
        64    8.797429E-07
        65    6.608699E-04
        66   -1.079876E-03
        67    4.190059E-04
        68    1.743450E-06
        69    2.528008E-03
        70    2.172102E-06
        71    1.959291E-02
        72   -2.169961E-02
        73    2.106700E-03
        74   -8.713905E-05
        75   -3.212262E-03
        76    1.559931E-05
        77   -1.059943E-05
        78   -7.041423E-09
        79   -9.259055E-04
        80    1.283578E-05
        81   -2.689264E-08
        82    5.123214E-04
        83    1.384844E-06
        84    3.633970E-08
        85    7.299111E-04
        86   -9.017369E-08
        87   -3.117236E-04
        88   -7.220117E-04
        89    2.005685E-03
        90   -4.575315E-03
        91    2.886188E-02
        92   -1.826732E-02
        93   -3.314193E-03
        94    4.060364E-04
        95    1.849223E-02
        96    3.658470E-03
        97    8.882426E-04
        98    1.678815E-02
        99    4.639975E-02
       100    1.866626E-02
       101    8.485836E-03
       102    2.632302E-05
       103   -4.139309E-05
       104    1.507007E-05
       105    2.529804E-05
       106    5.894126E-03
       107    3.333667E-03
       108   -1.022528E-03
       109    6.088294E-04
       110    4.136981E-04
       111    1.169632E-03
       112    1.337025E-02
       113    6.365605E-03
       114   -4.817016E-03
       115    4.427447E-03
       116    3.895694E-04
       117   -2.401510E-03
       118   -3.987178E-03
       119   -1.075193E-02
       120    3.100068E-05
       121    1.072766E-05
       122   -2.099066E-05
       123   -1.368113E-05
       124   -8.707472E-06
       125   -7.280641E-04
       126   -2.791065E-05
       127   -5.685196E-06
       128    7.562260E-04
       129    6.130982E-04
       130    2.033213E-04
       131    4.427294E-04
       132    7.714428E-04
       133   -1.607594E-02
       134    8.205868E-03
       135    2.156360E-02
       136    2.850880E-03
       137   -1.148679E-03
       138   -1.516646E-01
       139    1.532272E-02
       140   -9.921010E-03
       141   -1.542619E-01
       142    2.056144E-02
       143    1.240873E-02
       144   -9.377694E-02
       145    2.549574E-04
       146   -3.036411E-04
       147    4.868368E-05
       148    4.234417E-06
       149    7.697695E-04
       150   -2.976232E-03
       151    1.105119E-03
       152   -1.261674E-03
       153    1.565549E-04
       154    2.645851E-03
       155    4.248435E-03
       156   -4.799191E-03
       157    1.161875E-02
       158   -8.684111E-03
       159   -2.934643E-03
       160   -1.721715E-02
       161   -4.790975E-03
       162    1.310213E-02
       163    2.827438E-05
       164   -1.658625E-05
       165    8.642371E-04
       166    2.845528E-05
       167   -2.540718E-05
       168   -2.182872E-04
       169   -6.638934E-05
       170    4.765997E-05
       171   -9.412085E-04
       172    3.155354E-04
       173   -1.756975E-03
       174   -3.994724E-03
       175    3.958903E-03
       176    3.471411E-02
       177   -6.785929E-02
       178    1.068879E-02
       179   -1.471244E-02
       180    5.744980E-07
       181   -1.095304E-01
       182   -1.009811E-03
       183    1.047576E-05
       184   -1.131103E-01
       185    6.319501E-02
       186   -5.557013E-04
       187   -1.393811E-01
       188    8.073794E-04
       189   -4.717336E-04
       190   -3.356458E-04
       191    1.812182E-07
       192   -1.026706E-02
       193    7.722112E-07
       194   -2.836686E-03
       195    6.339935E-03
       196   -3.503249E-03
       197    2.707017E-06
       198   -2.508437E-02
       199    2.312395E-06
       200   -1.325389E-02
       201    1.455897E-02
       202   -1.305083E-03
       203   -1.493454E-04
       204   -1.516751E-02
       205   -1.594903E-05
       206   -1.874012E-04
       207   -4.942706E-09
       208    2.414428E-04
       209    1.350122E-04
       210    5.155014E-08
       211    1.175817E-03
       212    1.164129E-04
       213   -4.491881E-08
       214   -1.499746E-03
       215    1.588428E-07
       216    2.030980E-04
       217    4.422115E-04
       218    7.729122E-04
       219   -1.608644E-02
       220    9.655805E-03
       221    2.153174E-02
       222    2.852664E-03
       223    1.145287E-03
       224   -1.516211E-01
       225    1.533494E-02
       226    9.927238E-03
       227   -1.542197E-01
       228    2.041520E-02
       229   -1.299811E-02
       230   -9.371342E-02
       231    2.549598E-04
       232   -3.038713E-04
       233    4.891152E-05
       234   -3.982416E-06
       235    7.707831E-04
       236    2.976177E-03
       237    1.108983E-03
       238   -1.266152E-03
       239    1.571694E-04
       240   -2.648113E-03
       241    4.249588E-03
       242    4.798782E-03
       243    1.152330E-02
       244   -8.588481E-03
       245   -2.934822E-03
       246    1.729738E-02
       247   -4.810986E-03
       248   -1.311767E-02
       249    2.831207E-05
       250    1.664639E-05
       251    8.639973E-04
       252    2.856479E-05
       253    2.533410E-05
       254   -2.180146E-04
       255   -6.654941E-05
       256   -4.766757E-05
       257   -9.411595E-04
       258   -3.155010E-04
       259   -7.758240E-04
       260   -5.615807E-04
       261   -2.623888E-02
       262    2.055606E-05
       263    1.745440E-05
       264    7.871660E-04
       265    7.820958E-03
       266    1.337613E-03
       267   -5.865606E-03
       268   -7.790377E-04
       269   -5.608689E-04
       270   -2.620205E-02
       271    2.026326E-05
       272   -1.714612E-05
       273    7.854153E-04
       274    7.906479E-03
       275   -1.299537E-03
       276   -5.870958E-03
       277   -8.107380E-04
       278   -4.005899E-03
       279    5.643771E-02
       280    3.205790E-05
       281   -1.830694E-04
       282   -6.128121E-03
       283    2.273418E-03
       284    4.795442E-03
       285    1.334646E-03
       286   -8.134601E-04
       287   -4.002982E-03
       288    5.656376E-02
       289    3.193656E-05
       290    1.827563E-04
       291   -6.126439E-03
       292    2.225304E-03
       293   -4.835434E-03
       294    1.338835E-03
       295   -8.533320E-05
       296   -1.996487E-04
       297    2.154804E-04
       298    5.329658E-04
       299   -1.331240E-02
       300   -1.872840E-03
       301   -8.761874E-04
       302    1.227966E-07
       303    6.084013E-03
       304   -3.381026E-04
       305    5.164430E-07
       306    8.796142E-03
       307    4.832527E-03
       308    4.137260E-07
       309    1.908844E-04
       310    2.180491E-05
       311   -9.678789E-06
       312   -1.212612E-05
       313   -6.128417E-09
       314   -3.780423E-03
       315    2.724913E-06
       316   -1.765262E-05
       317    9.040088E-05
       318   -7.274826E-05
       319   -6.493692E-08
       320   -1.122676E-02
       321    7.962383E-06
       322   -7.298387E-04
       323    4.217811E-03
       324   -3.487972E-03
       325    1.314156E-05
       326   -2.184826E-03
       327   -3.509718E-06
       328   -9.630967E-06
       329   -7.158387E-09
       330    4.478032E-05
       331    6.675510E-06
       332   -3.706221E-09
       333    5.883689E-04
       334    6.245789E-06
       335    1.331020E-08
       336   -6.484480E-04
       337    4.448141E-07
       338   -3.300211E-05
       339   -7.470230E-05
       340    3.818515E-05
       341    9.054356E-04
       342   -9.651598E-03
       343   -1.833082E-03
       344    2.061713E-04
       345   -2.902163E-04
       346   -6.907671E-02
       347    3.962349E-04
       348   -4.710147E-04
       349   -6.396558E-02
       350    1.722671E-03
       351   -1.069339E-03
       352   -4.960612E-02
       353    4.156598E-04
       354   -3.010564E-04
       355   -5.655673E-03
       356    6.359799E-06
       357   -9.317685E-06
       358    2.957886E-06
       359    2.885872E-07
       360    5.729222E-05
       361   -5.234855E-04
       362   -1.219930E-05
       363   -2.305463E-05
       364    3.525393E-05
       365    1.210047E-05
       366    6.469399E-04
       367   -1.660016E-03
       368   -8.539439E-05
       369    6.780270E-08
       370    8.532659E-05
       371   -1.305894E-05
       372    4.820884E-04
       373   -3.976595E-04
       374   -1.040226E-06
       375   -3.618682E-06
       376    7.366246E-05
       377    1.930176E-06
       378    1.792212E-06
       379    7.712564E-05
       380   -5.345661E-07
       381    3.062758E-06
       382   -1.759542E-04
       383    1.409438E-04
       384   -3.281475E-05
       385   -7.425053E-05
       386    3.755518E-05
       387    9.046679E-04
       388   -9.667386E-03
       389   -1.817239E-03
       390    2.040124E-04
       391    2.892100E-04
       392   -6.893139E-02
       393    3.944765E-04
       394    4.703217E-04
       395   -6.383277E-02
       396    1.712885E-03
       397    1.074091E-03
       398   -4.950147E-02
       399    4.080424E-04
       400    3.040556E-04
       401   -5.642013E-03
       402    6.352198E-06
       403   -9.283844E-06
       404    2.931646E-06
       405   -2.861050E-07
       406    5.650185E-05
       407    5.222778E-04
       408   -1.201000E-05
       409   -2.311755E-05
       410    3.512756E-05
       411   -1.201222E-05
       412    6.442114E-04
       413    1.655843E-03
       414   -8.633642E-05
       415    1.235953E-06
       416    8.510047E-05
       417    1.249508E-05
       418    4.790878E-04
       419    3.932254E-04
       420   -1.038236E-06
       421    3.612419E-06
       422    7.344512E-05
       423    1.923904E-06
       424   -1.796889E-06
       425    7.708102E-05
       426   -5.309633E-07
       427   -3.049680E-06
       428   -1.756180E-04
       429   -1.405472E-04
       430    7.916808E-03
       431    1.876524E-02
       432   -2.902123E-02
       433   -4.732902E-02
       434   -1.731683E-02
       435   -9.655862E-02
       436    2.863482E-02
       437   -8.179686E-06
       438    2.819215E-01
       439    3.244638E-02
       440   -2.043496E-06
       441    2.771141E-01
       442    3.679246E-02
       443    6.263470E-05
       444    2.232506E-01
       445   -2.013949E-04
       446   -8.876570E-05
       447    2.901606E-04
       448    1.643934E-07
       449   -7.429951E-04
       450   -1.678166E-07
       451   -3.995033E-04
       452   -2.655148E-03
       453    3.054652E-03
       454   -2.373112E-06
       455   -3.394162E-03
       456   -2.739976E-07
       457   -2.978474E-03
       458   -6.631690E-03
       459    9.610164E-03
       460   -8.637352E-06
       461   -2.383423E-03
       462   -2.958241E-07
       463    2.125829E-04
       464   -3.672988E-08
       465   -1.095302E-03
       466    1.505127E-04
       467   -2.456132E-08
       468    6.025327E-04
       469   -4.357226E-04
       470    7.383963E-08
       471    8.669693E-04
       472   -1.774587E-08
       473    1.403323E-02
       474    2.805354E-02
       475    5.338591E-02
       476    3.520218E-03
       477    2.923274E-03
       478    1.396093E-02
       479    7.737698E-05
       480    5.991330E-03
       481    1.530723E-02
       482    1.402824E-02
       483    2.800154E-02
       484    5.313881E-02
       485    3.517075E-03
       486   -2.919010E-03
       487    1.396378E-02
       488    3.513676E-05
       489   -5.962936E-03
       490    1.532254E-02
 Sym= X
 Ene= -0.712646
 Spin= Alpha
 Occup= -0.712646
         1    3.493795E-05
         2    7.996784E-05
         3   -2.108170E-04
         4    3.839726E-04
         5    7.091731E-03
         6    4.731105E-04
         7   -4.945756E-05
         8   -1.826399E-04
         9    1.417231E-01
        10   -8.486437E-04
        11    7.591012E-05
        12    1.424165E-01
        13    5.056592E-03
        14   -5.430403E-03
        15    7.663770E-02
        16    6.525116E-06
        17   -2.426138E-06
        18   -4.098978E-06
        19   -3.039605E-06
        20   -3.890221E-03
        21   -3.917593E-04
        22    1.715801E-04
        23   -1.202914E-04
        24   -5.128864E-05
        25   -6.244140E-06
        26   -8.311984E-03
        27    5.434860E-04
        28   -1.084018E-03
        29    1.158075E-03
        30   -7.405682E-05
        31   -5.279654E-04
        32   -5.165827E-03
        33    2.966546E-03
        34   -5.390227E-06
        35   -4.679709E-07
        36   -8.462979E-04
        37    1.431573E-06
        38    8.240821E-08
        39    1.032969E-03
        40    5.800175E-06
        41    5.454406E-07
        42    1.024592E-04
        43    3.735821E-05
        44   -1.609073E-07
        45   -4.211246E-07
        46    4.318261E-06
        47   -1.590549E-05
        48   -1.164930E-03
        49   -6.653223E-05
        50    8.941860E-07
        51    1.496608E-04
        52    1.445190E-05
        53    9.287321E-06
        54    4.614308E-04
        55    1.281584E-05
        56    4.839973E-04
        57   -9.780667E-03
        58    3.085456E-05
        59    9.646011E-08
        60   -1.695039E-07
        61    7.304380E-08
        62   -8.576803E-06