[Molden Format]
[Title]
ADC(2) - opt by CAM-B3LYP gaussian                                              
[Atoms] AU
 c     1    6 0.12592752280008E+01 0.22800132789445E+01 -.35345910021030E-01
 c     2    6 0.25511638220345E+01 0.20078340100000E-05 -.33671612667290E-01
 c     3    6 0.12592790074531E+01 -.22800111530026E+01 -.35357248377820E-01
 c     4    6 -.13364450292264E+01 -.22798221803893E+01 -.38530098554940E-01
 c     5    6 -.26857699593430E+01 -.17716182500000E-05 -.39025206801750E-01
 c     6    6 -.13364469189525E+01 0.22798205268790E+01 -.38516870472010E-01
 h     7    1 0.23055183220207E+01 0.40307538342087E+01 -.32265656424420E-01
 h     8    1 0.23055239911991E+01 -.40307498185407E+01 -.32284553685750E-01
 h     9    1 -.23548467881305E+01 -.40530977197882E+01 -.43619131030800E-01
 h    10    1 -.23548543470350E+01 0.40530922868255E+01 -.43594564591070E-01
 n    11    7 0.52860567397703E+01 0.11810788000000E-06 -.26776002008390E-01
 o    12    8 0.63771222479361E+01 -.20280728649663E+01 -.23850705954680E-01
 o    13    8 0.63771260273883E+01 0.20280712114559E+01 -.23882831298940E-01
 n    14    7 -.52615573853205E+01 0.11810788000000E-06 -.10505223788478E+00
 h    15    1 -.61955753134867E+01 -.16086254730588E+01 0.27588253543458E+00
 h    16    1 -.61955696443083E+01 0.16086275990006E+01 0.27589009433911E+00
[GTO]
    1 0
 s    6 1.00
 0.13575349682000E+05 0.60645503603591E-03
 0.20352333680000E+04 0.46979088884982E-02
 0.46322562359000E+03 0.24332477647552E-01
 0.13120019598000E+03 0.97399968307759E-01
 0.42853015891000E+02 0.30195584253780E+00
 0.15584185766000E+02 0.66233609137875E+00
 s    2 1.00
 0.62067138508000E+01 0.65595308539952E+00
 0.25764896527000E+01 0.37585633285142E+00
 s    1 1.00
 0.57696339419000E+00 0.10000000000000E+01
 s    1 1.00
 0.22972831358000E+00 0.10000000000000E+01
 s    1 1.00
 0.95164440028000E-01 0.10000000000000E+01
 s    1 1.00
 0.48475401370000E-01 0.10000000000000E+01
 p    4 1.00
 0.34697232244000E+02 0.11327220003114E-01
 0.79582622826000E+01 0.76169659202087E-01
 0.23780826883000E+01 0.30192252202676E+00
 0.81433208183000E+00 0.72785027349547E+00
 p    1 1.00
 0.28887547253000E+00 0.10000000000000E+01
 p    1 1.00
 0.10056823671000E+00 0.10000000000000E+01
 d    1 1.00
 0.10970000000000E+01 0.10000000000000E+01
 d    1 1.00
 0.31800000000000E+00 0.10000000000000E+01
 d    1 1.00
 0.90985336424000E-01 0.10000000000000E+01
 f    1 1.00
 0.76100000000000E+00 0.10000000000000E+01
 
    2 0
 s    6 1.00
 0.13575349682000E+05 0.60645503603591E-03
 0.20352333680000E+04 0.46979088884982E-02
 0.46322562359000E+03 0.24332477647552E-01
 0.13120019598000E+03 0.97399968307759E-01
 0.42853015891000E+02 0.30195584253780E+00
 0.15584185766000E+02 0.66233609137875E+00
 s    2 1.00
 0.62067138508000E+01 0.65595308539952E+00
 0.25764896527000E+01 0.37585633285142E+00
 s    1 1.00
 0.57696339419000E+00 0.10000000000000E+01
 s    1 1.00
 0.22972831358000E+00 0.10000000000000E+01
 s    1 1.00
 0.95164440028000E-01 0.10000000000000E+01
 s    1 1.00
 0.48475401370000E-01 0.10000000000000E+01
 p    4 1.00
 0.34697232244000E+02 0.11327220003114E-01
 0.79582622826000E+01 0.76169659202087E-01
 0.23780826883000E+01 0.30192252202676E+00
 0.81433208183000E+00 0.72785027349547E+00
 p    1 1.00
 0.28887547253000E+00 0.10000000000000E+01
 p    1 1.00
 0.10056823671000E+00 0.10000000000000E+01
 d    1 1.00
 0.10970000000000E+01 0.10000000000000E+01
 d    1 1.00
 0.31800000000000E+00 0.10000000000000E+01
 d    1 1.00
 0.90985336424000E-01 0.10000000000000E+01
 f    1 1.00
 0.76100000000000E+00 0.10000000000000E+01
 
    3 0
 s    6 1.00
 0.13575349682000E+05 0.60645503603591E-03
 0.20352333680000E+04 0.46979088884982E-02
 0.46322562359000E+03 0.24332477647552E-01
 0.13120019598000E+03 0.97399968307759E-01
 0.42853015891000E+02 0.30195584253780E+00
 0.15584185766000E+02 0.66233609137875E+00
 s    2 1.00
 0.62067138508000E+01 0.65595308539952E+00
 0.25764896527000E+01 0.37585633285142E+00
 s    1 1.00
 0.57696339419000E+00 0.10000000000000E+01
 s    1 1.00
 0.22972831358000E+00 0.10000000000000E+01
 s    1 1.00
 0.95164440028000E-01 0.10000000000000E+01
 s    1 1.00
 0.48475401370000E-01 0.10000000000000E+01
 p    4 1.00
 0.34697232244000E+02 0.11327220003114E-01
 0.79582622826000E+01 0.76169659202087E-01
 0.23780826883000E+01 0.30192252202676E+00
 0.81433208183000E+00 0.72785027349547E+00
 p    1 1.00
 0.28887547253000E+00 0.10000000000000E+01
 p    1 1.00
 0.10056823671000E+00 0.10000000000000E+01
 d    1 1.00
 0.10970000000000E+01 0.10000000000000E+01
 d    1 1.00
 0.31800000000000E+00 0.10000000000000E+01
 d    1 1.00
 0.90985336424000E-01 0.10000000000000E+01
 f    1 1.00
 0.76100000000000E+00 0.10000000000000E+01
 
    4 0
 s    6 1.00
 0.13575349682000E+05 0.60645503603591E-03
 0.20352333680000E+04 0.46979088884982E-02
 0.46322562359000E+03 0.24332477647552E-01
 0.13120019598000E+03 0.97399968307759E-01
 0.42853015891000E+02 0.30195584253780E+00
 0.15584185766000E+02 0.66233609137875E+00
 s    2 1.00
 0.62067138508000E+01 0.65595308539952E+00
 0.25764896527000E+01 0.37585633285142E+00
 s    1 1.00
 0.57696339419000E+00 0.10000000000000E+01
 s    1 1.00
 0.22972831358000E+00 0.10000000000000E+01
 s    1 1.00
 0.95164440028000E-01 0.10000000000000E+01
 s    1 1.00
 0.48475401370000E-01 0.10000000000000E+01
 p    4 1.00
 0.34697232244000E+02 0.11327220003114E-01
 0.79582622826000E+01 0.76169659202087E-01
 0.23780826883000E+01 0.30192252202676E+00
 0.81433208183000E+00 0.72785027349547E+00
 p    1 1.00
 0.28887547253000E+00 0.10000000000000E+01
 p    1 1.00
 0.10056823671000E+00 0.10000000000000E+01
 d    1 1.00
 0.10970000000000E+01 0.10000000000000E+01
 d    1 1.00
 0.31800000000000E+00 0.10000000000000E+01
 d    1 1.00
 0.90985336424000E-01 0.10000000000000E+01
 f    1 1.00
 0.76100000000000E+00 0.10000000000000E+01
 
    5 0
 s    6 1.00
 0.13575349682000E+05 0.60645503603591E-03
 0.20352333680000E+04 0.46979088884982E-02
 0.46322562359000E+03 0.24332477647552E-01
 0.13120019598000E+03 0.97399968307759E-01
 0.42853015891000E+02 0.30195584253780E+00
 0.15584185766000E+02 0.66233609137875E+00
 s    2 1.00
 0.62067138508000E+01 0.65595308539952E+00
 0.25764896527000E+01 0.37585633285142E+00
 s    1 1.00
 0.57696339419000E+00 0.10000000000000E+01
 s    1 1.00
 0.22972831358000E+00 0.10000000000000E+01
 s    1 1.00
 0.95164440028000E-01 0.10000000000000E+01
 s    1 1.00
 0.48475401370000E-01 0.10000000000000E+01
 p    4 1.00
 0.34697232244000E+02 0.11327220003114E-01
 0.79582622826000E+01 0.76169659202087E-01
 0.23780826883000E+01 0.30192252202676E+00
 0.81433208183000E+00 0.72785027349547E+00
 p    1 1.00
 0.28887547253000E+00 0.10000000000000E+01
 p    1 1.00
 0.10056823671000E+00 0.10000000000000E+01
 d    1 1.00
 0.10970000000000E+01 0.10000000000000E+01
 d    1 1.00
 0.31800000000000E+00 0.10000000000000E+01
 d    1 1.00
 0.90985336424000E-01 0.10000000000000E+01
 f    1 1.00
 0.76100000000000E+00 0.10000000000000E+01
 
    6 0
 s    6 1.00
 0.13575349682000E+05 0.60645503603591E-03
 0.20352333680000E+04 0.46979088884982E-02
 0.46322562359000E+03 0.24332477647552E-01
 0.13120019598000E+03 0.97399968307759E-01
 0.42853015891000E+02 0.30195584253780E+00
 0.15584185766000E+02 0.66233609137875E+00
 s    2 1.00
 0.62067138508000E+01 0.65595308539952E+00
 0.25764896527000E+01 0.37585633285142E+00
 s    1 1.00
 0.57696339419000E+00 0.10000000000000E+01
 s    1 1.00
 0.22972831358000E+00 0.10000000000000E+01
 s    1 1.00
 0.95164440028000E-01 0.10000000000000E+01
 s    1 1.00
 0.48475401370000E-01 0.10000000000000E+01
 p    4 1.00
 0.34697232244000E+02 0.11327220003114E-01
 0.79582622826000E+01 0.76169659202087E-01
 0.23780826883000E+01 0.30192252202676E+00
 0.81433208183000E+00 0.72785027349547E+00
 p    1 1.00
 0.28887547253000E+00 0.10000000000000E+01
 p    1 1.00
 0.10056823671000E+00 0.10000000000000E+01
 d    1 1.00
 0.10970000000000E+01 0.10000000000000E+01
 d    1 1.00
 0.31800000000000E+00 0.10000000000000E+01
 d    1 1.00
 0.90985336424000E-01 0.10000000000000E+01
 f    1 1.00
 0.76100000000000E+00 0.10000000000000E+01
 
    7 0
 s    3 1.00
 0.34061341000000E+02 0.25439307208879E-01
 0.51235746000000E+01 0.19008594890375E+00
 0.11646626000000E+01 0.85244113011042E+00
 s    1 1.00
 0.32723041000000E+00 0.10000000000000E+01
 s    1 1.00
 0.10307241000000E+00 0.10000000000000E+01
 p    1 1.00
 0.80000000000000E+00 0.10000000000000E+01
 p    1 1.00
 0.95774129632000E-01 0.10000000000000E+01
 
    8 0
 s    3 1.00
 0.34061341000000E+02 0.25439307208879E-01
 0.51235746000000E+01 0.19008594890375E+00
 0.11646626000000E+01 0.85244113011042E+00
 s    1 1.00
 0.32723041000000E+00 0.10000000000000E+01
 s    1 1.00
 0.10307241000000E+00 0.10000000000000E+01
 p    1 1.00
 0.80000000000000E+00 0.10000000000000E+01
 p    1 1.00
 0.95774129632000E-01 0.10000000000000E+01
 
    9 0
 s    3 1.00
 0.34061341000000E+02 0.25439307208879E-01
 0.51235746000000E+01 0.19008594890375E+00
 0.11646626000000E+01 0.85244113011042E+00
 s    1 1.00
 0.32723041000000E+00 0.10000000000000E+01
 s    1 1.00
 0.10307241000000E+00 0.10000000000000E+01
 p    1 1.00
 0.80000000000000E+00 0.10000000000000E+01
 p    1 1.00
 0.95774129632000E-01 0.10000000000000E+01
 
   10 0
 s    3 1.00
 0.34061341000000E+02 0.25439307208879E-01
 0.51235746000000E+01 0.19008594890375E+00
 0.11646626000000E+01 0.85244113011042E+00
 s    1 1.00
 0.32723041000000E+00 0.10000000000000E+01
 s    1 1.00
 0.10307241000000E+00 0.10000000000000E+01
 p    1 1.00
 0.80000000000000E+00 0.10000000000000E+01
 p    1 1.00
 0.95774129632000E-01 0.10000000000000E+01
 
   11 0
 s    6 1.00
 0.19730800647000E+05 0.58626402628763E-03
 0.29578958745000E+04 0.45428820586397E-02
 0.67322133595000E+03 0.23558413450084E-01
 0.19068249494000E+03 0.94709193292923E-01
 0.62295441898000E+02 0.29719784913376E+00
 0.22654161182000E+02 0.66916246895232E+00
 s    2 1.00
 0.89791477428000E+01 0.64596683630063E+00
 0.36863002370000E+01 0.38700574393705E+00
 s    1 1.00
 0.84660076805000E+00 0.10000000000000E+01
 s    1 1.00
 0.33647133771000E+00 0.10000000000000E+01
 s    1 1.00
 0.13647653675000E+00 0.10000000000000E+01
 s    1 1.00
 0.68441605847000E-01 0.10000000000000E+01
 p    4 1.00
 0.49200380510000E+02 0.11448825101764E-01
 0.11346790537000E+02 0.78422337970864E-01
 0.34273972411000E+01 0.30818094738830E+00
 0.11785525134000E+01 0.72027196368413E+00
 p    1 1.00
 0.41642204972000E+00 0.10000000000000E+01
 p    1 1.00
 0.14260826011000E+00 0.10000000000000E+01
 d    1 1.00
 0.16540000000000E+01 0.10000000000000E+01
 d    1 1.00
 0.46900000000000E+00 0.10000000000000E+01
 d    1 1.00
 0.12829642058000E+00 0.10000000000000E+01
 f    1 1.00
 0.10930000000000E+01 0.10000000000000E+01
 
   12 0
 s    6 1.00
 0.27032382631000E+05 0.57227335211155E-03
 0.40523871392000E+04 0.44353233492995E-02
 0.92232722710000E+03 0.23020107706038E-01
 0.26124070989000E+03 0.92822490667928E-01
 0.85354641351000E+02 0.29378500009671E+00
 0.31035035245000E+02 0.67401604501641E+00
 s    2 1.00
 0.12260860728000E+02 0.63839937025506E+00
 0.49987076005000E+01 0.39534587125718E+00
 s    1 1.00
 0.11703108158000E+01 0.10000000000000E+01
 s    1 1.00
 0.46474740994000E+00 0.10000000000000E+01
 s    1 1.00
 0.18504536357000E+00 0.10000000000000E+01
 s    1 1.00
 0.70288026270000E-01 0.10000000000000E+01
 p    4 1.00
 0.63274954801000E+02 0.12018332222616E-01
 0.14627049379000E+02 0.83005421790056E-01
 0.44501223456000E+01 0.31991743925964E+00
 0.15275799647000E+01 0.70715542916104E+00
 p    1 1.00
 0.52935117943000E+00 0.10000000000000E+01
 p    1 1.00
 0.17478421270000E+00 0.10000000000000E+01
 p    1 1.00
 0.51112745706000E-01 0.10000000000000E+01
 d    1 1.00
 0.23140000000000E+01 0.10000000000000E+01
 d    1 1.00
 0.64500000000000E+00 0.10000000000000E+01
 d    1 1.00
 0.14696477366000E+00 0.10000000000000E+01
 f    1 1.00
 0.14280000000000E+01 0.10000000000000E+01
 
   13 0
 s    6 1.00
 0.27032382631000E+05 0.57227335211155E-03
 0.40523871392000E+04 0.44353233492995E-02
 0.92232722710000E+03 0.23020107706038E-01
 0.26124070989000E+03 0.92822490667928E-01
 0.85354641351000E+02 0.29378500009671E+00
 0.31035035245000E+02 0.67401604501641E+00
 s    2 1.00
 0.12260860728000E+02 0.63839937025506E+00
 0.49987076005000E+01 0.39534587125718E+00
 s    1 1.00
 0.11703108158000E+01 0.10000000000000E+01
 s    1 1.00
 0.46474740994000E+00 0.10000000000000E+01
 s    1 1.00
 0.18504536357000E+00 0.10000000000000E+01
 s    1 1.00
 0.70288026270000E-01 0.10000000000000E+01
 p    4 1.00
 0.63274954801000E+02 0.12018332222616E-01
 0.14627049379000E+02 0.83005421790056E-01
 0.44501223456000E+01 0.31991743925964E+00
 0.15275799647000E+01 0.70715542916104E+00
 p    1 1.00
 0.52935117943000E+00 0.10000000000000E+01
 p    1 1.00
 0.17478421270000E+00 0.10000000000000E+01
 p    1 1.00
 0.51112745706000E-01 0.10000000000000E+01
 d    1 1.00
 0.23140000000000E+01 0.10000000000000E+01
 d    1 1.00
 0.64500000000000E+00 0.10000000000000E+01
 d    1 1.00
 0.14696477366000E+00 0.10000000000000E+01
 f    1 1.00
 0.14280000000000E+01 0.10000000000000E+01
 
   14 0
 s    6 1.00
 0.19730800647000E+05 0.58626402628763E-03
 0.29578958745000E+04 0.45428820586397E-02
 0.67322133595000E+03 0.23558413450084E-01
 0.19068249494000E+03 0.94709193292923E-01
 0.62295441898000E+02 0.29719784913376E+00
 0.22654161182000E+02 0.66916246895232E+00
 s    2 1.00
 0.89791477428000E+01 0.64596683630063E+00
 0.36863002370000E+01 0.38700574393705E+00
 s    1 1.00
 0.84660076805000E+00 0.10000000000000E+01
 s    1 1.00
 0.33647133771000E+00 0.10000000000000E+01
 s    1 1.00
 0.13647653675000E+00 0.10000000000000E+01
 s    1 1.00
 0.68441605847000E-01 0.10000000000000E+01
 p    4 1.00
 0.49200380510000E+02 0.11448825101764E-01
 0.11346790537000E+02 0.78422337970864E-01
 0.34273972411000E+01 0.30818094738830E+00
 0.11785525134000E+01 0.72027196368413E+00
 p    1 1.00
 0.41642204972000E+00 0.10000000000000E+01
 p    1 1.00
 0.14260826011000E+00 0.10000000000000E+01
 d    1 1.00
 0.16540000000000E+01 0.10000000000000E+01
 d    1 1.00
 0.46900000000000E+00 0.10000000000000E+01
 d    1 1.00
 0.12829642058000E+00 0.10000000000000E+01
 f    1 1.00
 0.10930000000000E+01 0.10000000000000E+01
 
   15 0
 s    3 1.00
 0.34061341000000E+02 0.25439307208879E-01
 0.51235746000000E+01 0.19008594890375E+00
 0.11646626000000E+01 0.85244113011042E+00
 s    1 1.00
 0.32723041000000E+00 0.10000000000000E+01
 s    1 1.00
 0.10307241000000E+00 0.10000000000000E+01
 p    1 1.00
 0.80000000000000E+00 0.10000000000000E+01
 p    1 1.00
 0.95774129632000E-01 0.10000000000000E+01
 
   16 0
 s    3 1.00
 0.34061341000000E+02 0.25439307208879E-01
 0.51235746000000E+01 0.19008594890375E+00
 0.11646626000000E+01 0.85244113011042E+00
 s    1 1.00
 0.32723041000000E+00 0.10000000000000E+01
 s    1 1.00
 0.10307241000000E+00 0.10000000000000E+01
 p    1 1.00
 0.80000000000000E+00 0.10000000000000E+01
 p    1 1.00
 0.95774129632000E-01 0.10000000000000E+01
 
[MO]
 Sym= X
 Ene= -0.833171
 Spin= Alpha
 Occup= -0.833171
         1    5.639594E-03
         2    1.289622E-02
         3   -2.643179E-02
         4    7.612787E-03
         5   -2.081293E-01
         6   -3.409814E-02
         7   -5.318791E-02
         8   -5.376299E-03
         9   -1.585454E-03
        10   -6.039496E-02
        11   -6.304408E-03
        12   -1.590205E-03
        13   -5.816662E-02
        14    7.978759E-02
        15   -1.091809E-03
        16    1.738785E-03
        17   -1.969901E-03
        18    2.311155E-04
        19    1.940972E-04
        20    4.055589E-05
        21    2.598003E-06
        22    1.025369E-02
        23   -7.195038E-03
        24   -3.058655E-03
        25   -1.138736E-03
        26    9.850012E-05
        27   -4.270209E-06
        28   -4.270877E-03
        29    3.131109E-04
        30    3.957766E-03
        31    1.305873E-02
        32    2.044320E-04
        33   -9.312638E-05
        34   -7.693990E-05
        35    1.355421E-04
        36    9.784647E-06
        37   -7.201895E-05
        38   -2.131855E-04
        39   -1.146495E-05
        40    1.752447E-04
        41    3.133676E-05
        42   -1.662527E-06
        43   -7.882044E-07
        44   -3.869136E-07
        45   -8.539883E-07
        46    9.150397E-07
        47    5.188377E-06
        48    3.520063E-05
        49   -2.585326E-06
        50    5.482306E-06
        51   -3.585360E-02
        52    1.704130E-06
        53    5.573687E-06
        54   -4.305803E-02
        55    1.424005E-06
        56   -1.803255E-05
        57    1.901556E-01
        58   -1.345208E-05
        59    1.795541E-07
        60   -1.593303E-07
        61   -2.022382E-08
        62    2.026115E-03
        63   -1.442736E-08
        64   -5.308219E-05
        65    3.462321E-07
        66   -4.058605E-07
        67    5.962837E-08
        68   -2.869247E-03
        69   -3.059002E-07
        70   -1.331001E-04
        71   -1.116047E-05
        72    1.274952E-05
        73   -1.589052E-06
        74   -3.501510E-02
        75    1.231874E-06
        76   -2.976257E-04
        77    3.471505E-08
        78   -6.518646E-04
        79    3.186152E-09
        80   -2.519040E-08
        81    6.356879E-04
        82   -1.047376E-08
        83   -2.138472E-08
        84    2.388802E-04
        85    6.199085E-09
        86    8.987204E-06
        87   -5.639509E-03
        88   -1.289603E-02
        89    2.643154E-02
        90   -7.610839E-03
        91    2.079305E-01
        92    3.410562E-02
        93    5.318605E-02
        94   -5.379903E-03
        95    1.588146E-03
        96    6.039289E-02
        97   -6.307466E-03
        98    1.592773E-03
        99    5.818833E-02
       100    7.974013E-02
       101    1.099830E-03
       102   -1.738618E-03
       103    1.969722E-03
       104   -2.311041E-04
       105    1.940522E-04
       106   -4.058116E-05
       107    2.662201E-06
       108   -1.025340E-02
       109    7.194777E-03
       110    3.058620E-03
       111   -1.138593E-03
       112   -9.875330E-05
       113   -3.822666E-06
       114    4.261572E-03
       115   -3.051115E-04
       116   -3.956461E-03
       117    1.307434E-02
       118   -2.021527E-04
       119   -8.867590E-05
       120    7.693855E-05
       121    1.355065E-04
       122   -9.814302E-06
       123    7.202609E-05
       124   -2.131416E-04
       125    1.149937E-05
       126   -1.752500E-04
       127    3.134047E-05
       128    1.667894E-06
       129   -7.750945E-07
       130    3.645154E-03
       131    8.245729E-03
       132   -1.557072E-02
       133    1.063248E-02
       134   -7.032837E-02
       135   -1.092577E-02
       136   -3.728646E-02
       137    8.147786E-04
       138    1.549683E-03
       139   -4.043572E-03
       140   -6.062389E-03
       141    1.565896E-03
       142    1.570397E-02
       143   -1.176783E-02
       144    1.029208E-03
       145   -1.033482E-03
       146    8.812754E-04
       147    1.522067E-04
       148   -2.737419E-04
       149    3.516584E-05
       150    4.536108E-06
       151    4.784025E-03
       152   -3.088769E-03
       153   -1.695256E-03
       154   -7.832431E-05
       155    8.778977E-05
       156   -1.650718E-05
       157    7.798286E-03
       158   -8.615672E-03
       159    8.173862E-04
       160   -3.220540E-04
       161   -2.741417E-04
       162    1.002844E-04
       163   -3.539136E-05
       164   -2.464273E-05
       165   -9.370572E-06
       166   -1.591877E-05
       167    2.508992E-05
       168    1.086467E-05
       169    6.340126E-05
       170    7.971774E-06
       171    1.707274E-06
       172    1.083913E-06
       173   -6.151708E-08
       174   -1.424305E-07
       175    4.361178E-07
       176   -1.400638E-06
       177   -7.654760E-05
       178   -1.867767E-06
       179    4.922655E-07
       180   -1.926570E-02
       181   -5.281096E-07
       182    7.738385E-07
       183   -2.418315E-02
       184   -5.533785E-07
       185   -2.376230E-05
       186   -4.234365E-02
       187    1.914630E-06
       188    1.180323E-08
       189   -1.825752E-08
       190    6.454283E-09
       191   -9.742422E-06
       192    6.839376E-08
       193   -5.126832E-05
       194   -3.521457E-07
       195    2.010969E-07
       196    1.510488E-07
       197   -3.349548E-03
       198    2.984989E-07
       199   -1.755757E-04
       200    5.574229E-06
       201   -8.321588E-06
       202    2.747359E-06
       203   -6.191127E-03
       204    4.679269E-07
       205    2.950115E-04
       206    6.024688E-09
       207   -2.319346E-04
       208    5.952081E-09
       209   -6.330308E-10
       210    2.142744E-04
       211   -1.053229E-08
       212   -7.449936E-09
       213    9.689852E-05
       214    2.546736E-09
       215   -9.602914E-06
       216   -3.645319E-03
       217   -8.246109E-03
       218    1.557163E-02
       219   -1.063673E-02
       220    7.054265E-02
       221    1.092406E-02
       222    3.728859E-02
       223    8.139613E-04
       224   -1.548077E-03
       225    4.044783E-03
       226   -6.063346E-03
       227   -1.564940E-03
       228   -1.567450E-02
       229   -1.184013E-02
       230   -1.026845E-03
       231    1.033508E-03
       232   -8.813286E-04
       233   -1.521797E-04
       234   -2.735973E-04
       235   -3.509041E-05
       236    4.512203E-06
       237   -4.784097E-03
       238    3.088996E-03
       239    1.695102E-03
       240   -7.824590E-05
       241   -8.781827E-05
       242   -1.631703E-05
       243   -7.792962E-03
       244    8.612923E-03
       245   -8.199611E-04
       246   -3.328958E-04
       247    2.750506E-04
       248    1.020678E-04
       249    3.539984E-05
       250   -2.467151E-05
       251    9.358402E-06
       252    1.591996E-05
       253    2.511959E-05
       254   -1.084993E-05
       255   -6.341382E-05
       256    7.980715E-06
       257   -1.705688E-06
       258    1.080001E-06
       259   -1.829089E-02
       260   -2.522654E-02
       261   -3.617034E-02
       262    1.849635E-03
       263    3.044763E-03
       264   -5.700604E-05
       265    7.019582E-03
       266   -3.848475E-04
       267   -2.631133E-05
       268    1.829135E-02
       269    2.522688E-02
       270    3.617886E-02
       271   -1.849864E-03
       272    3.044832E-03
       273    5.706683E-05
       274   -7.004583E-03
       275   -3.792794E-04
       276    2.838242E-05
       277    5.019485E-03
       278    8.517844E-03
       279    2.358071E-02
       280   -3.660558E-04
       281    8.050679E-04
       282    7.189332E-05
       283    7.404233E-04
       284    1.307154E-03
       285    7.577470E-05
       286   -5.020609E-03
       287   -8.519318E-03
       288   -2.357400E-02
       289    3.660829E-04
       290    8.051522E-04
       291   -7.177427E-05
       292   -7.341743E-04
       293    1.305501E-03
       294   -7.590455E-05
       295   -4.244293E-08
       296   -9.907672E-08
       297    2.803824E-07
       298   -1.763447E-06
       299    1.712765E-05
       300    1.914545E-05
       301   -4.535461E-06
       302   -2.980212E-02
       303   -2.537706E-07
       304   -4.402429E-06
       305   -2.254333E-02
       306   -6.172755E-07
       307    1.102193E-05
       308    7.095596E-03
       309   -3.719306E-06
       310    3.829419E-07
       311   -4.667471E-07
       312    8.380517E-08
       313   -9.315374E-03
       314    7.661434E-08
       315   -8.179890E-06
       316    1.398167E-06
       317   -1.366369E-06
       318   -3.179762E-08
       319   -2.593065E-02
       320   -9.149328E-08
       321   -2.406292E-05
       322   -3.365975E-07
       323   -4.609390E-07
       324    7.975365E-07
       325    6.851852E-03
       326   -3.540261E-06
       327    6.115255E-05
       328    5.998995E-09
       329    2.247237E-03
       330    4.393361E-09
       331   -7.451978E-09
       332   -3.128052E-03
       333    3.218411E-08
       334   -5.965175E-10
       335    1.130674E-04
       336   -3.807843E-08
       337   -5.822146E-06
       338   -6.344303E-04
       339   -1.703354E-03
       340    2.625017E-03
       341   -4.198871E-03
       342    9.641442E-03
       343   -1.939538E-02
       344    2.637591E-01
       345    2.220647E-01
       346    1.996395E-04
       347    2.393150E-01
       348    1.945762E-01
       349    1.699030E-04
       350    1.774197E-01
       351    1.416901E-01
       352    1.600246E-04
       353    2.985664E-02
       354    1.482671E-02
       355    5.659137E-05
       356   -2.138942E-03
       357    2.703191E-03
       358   -5.642496E-04
       359    8.861594E-05
       360   -2.610830E-06
       361   -3.773994E-06
       362   -6.580355E-03
       363    7.100746E-03
       364   -5.203918E-04
       365    1.398391E-03
       366   -9.800168E-06
       367   -9.556277E-06
       368   -8.209838E-03
       369    7.074544E-03
       370    1.135294E-03
       371    7.728910E-04
       372   -2.051383E-05
       373    3.830555E-06
       374    2.103941E-04
       375    7.808916E-04
       376    1.353790E-06
       377   -4.026196E-04
       378   -8.954962E-04
       379    4.316079E-07
       380    1.203463E-04
       381   -1.521799E-04
       382   -2.247908E-06
       383   -9.740568E-07
       384    6.342089E-04
       385    1.702820E-03
       386   -2.624154E-03
       387    4.201513E-03
       388   -9.645247E-03
       389    1.938115E-02
       390   -2.637361E-01
       391    2.220620E-01
       392   -2.042890E-04
       393   -2.392945E-01
       394    1.945734E-01
       395   -1.745452E-04
       396   -1.774112E-01
       397    1.416899E-01
       398   -1.559397E-04
       399   -2.985420E-02
       400    1.482662E-02
       401   -5.590104E-05
       402    2.138849E-03
       403   -2.703202E-03
       404    5.643528E-04
       405    8.841279E-05
       406    2.642081E-06
       407   -3.684792E-06
       408    6.580018E-03
       409   -7.100770E-03
       410    5.207524E-04
       411    1.398271E-03
       412    9.841330E-06
       413   -9.532448E-06
       414    8.210269E-03
       415   -7.076271E-03
       416   -1.133998E-03
       417    7.759302E-04
       418    2.255882E-05
       419    1.174793E-06
       420   -2.104371E-04
       421    7.808522E-04
       422   -1.362293E-06
       423    4.026733E-04
       424   -8.954089E-04
       425   -3.924386E-07
       426   -1.203422E-04
       427   -1.522143E-04
       428    2.220147E-06
       429   -9.937295E-07
       430   -9.819674E-08
       431   -2.371480E-07
       432    3.865003E-07
       433    5.504405E-07
       434   -2.146016E-06
       435   -2.791054E-06
       436   -3.642217E-07
       437    8.045877E-03
       438   -2.632542E-06
       439   -2.036556E-07
       440    6.098542E-03
       441   -2.548615E-06
       442    4.202094E-06
       443    4.362990E-03
       444   -1.493690E-06
       445   -5.422242E-09
       446    8.827910E-09
       447   -3.405667E-09
       448   -4.398011E-04
       449   -1.972827E-08
       450    1.077923E-04
       451    1.296003E-07
       452   -6.747835E-08
       453   -6.212195E-08
       454   -1.452073E-03
       455    4.766651E-09
       456    1.616229E-04
       457    1.290468E-06
       458   -4.256990E-07
       459   -8.647686E-07
       460    9.009882E-04
       461    1.218064E-07
       462   -7.080369E-05
       463    1.303445E-09
       464    7.604358E-05
       465    1.158396E-08
       466   -3.847247E-09
       467   -8.819825E-05
       468   -9.544150E-09
       469    2.098492E-09
       470   -1.382492E-05
       471   -5.997364E-09
       472   -2.627521E-05
       473   -4.347108E-03
       474   -6.465618E-03
       475   -8.567415E-03
       476   -2.929464E-04
       477   -3.917779E-04
       478    1.311850E-04
       479   -1.302203E-03
       480   -7.605041E-04
       481    3.036087E-04
       482    4.346994E-03
       483    6.465657E-03
       484    8.568000E-03
       485    2.928706E-04
       486   -3.917572E-04
       487   -1.313105E-04
       488    1.302655E-03
       489   -7.595650E-04
       490   -3.033400E-04
 Sym= X
 Ene= 0.833171
 Spin= Alpha
 Occup= 0.833171
         1    5.363743E-05
         2    1.105764E-04
         3    2.229395E-04
         4   -5.003407E-03
         5    1.387784E-01
         6    2.880569E-02
         7    6.622435E-04
         8    5.213606E-05
         9   -2.141043E-01
        10    8.815345E-04
        11    8.996816E-04
        12   -2.177831E-01
        13    7.224856E-03
        14   -6.231915E-02
        15   -1.345709E-01
        16   -3.052979E-06
        17   -1.140337E-06
        18    4.193316E-06
        19    3.230453E-05
        20   -6.344770E-03
        21    9.995615E-04
        22    1.710291E-04
        23   -1.087483E-04
        24   -6.228080E-05
        25    2.697064E-04
        26   -2.090114E-02
        27   -4.067468E-03
        28    3.998802E-04
        29    3.359309E-03
        30   -3.759189E-03
        31   -1.318552E-02
        32   -2.297393E-02
        33   -2.562872E-02
        34    6.279704E-06
        35    1.128765E-05
        36    2.106276E-04
        37   -4.120848E-06
        38   -8.800399E-06
        39    2.787430E-04
        40   -4.304259E-06
        41   -6.343567E-06
        42   -5.613295E-04
        43    5.101766E-06
        44   -9.840361E-07
        45   -2.168699E-06
        46   -9.723084E-07
        47    4.558863E-05
        48    9.917170E-04
        49   -1.498905E-04
        50    8.552055E-07
        51   -2.647308E-04
        52    9.246723E-07
        53   -3.977678E-06
        54    1.219736E-03
        55    5.151964E-06
        56   -2.133263E-04
        57   -1.282334E-01
        58    5.916691E-06
        59    1.466100E-08
        60    3.887574E-07
        61   -4.034184E-07
        62    2.465434E-05