[Molden Format]
[Title]
ADC(2) - opt by CAM-B3LYP gaussian                                              
[Atoms] AU
 c     1    6 0.12592752280008E+01 0.22800132789445E+01 -.35345910021030E-01
 c     2    6 0.25511638220345E+01 0.20078340100000E-05 -.33671612667290E-01
 c     3    6 0.12592790074531E+01 -.22800111530026E+01 -.35357248377820E-01
 c     4    6 -.13364450292264E+01 -.22798221803893E+01 -.38530098554940E-01
 c     5    6 -.26857699593430E+01 -.17716182500000E-05 -.39025206801750E-01
 c     6    6 -.13364469189525E+01 0.22798205268790E+01 -.38516870472010E-01
 h     7    1 0.23055183220207E+01 0.40307538342087E+01 -.32265656424420E-01
 h     8    1 0.23055239911991E+01 -.40307498185407E+01 -.32284553685750E-01
 h     9    1 -.23548467881305E+01 -.40530977197882E+01 -.43619131030800E-01
 h    10    1 -.23548543470350E+01 0.40530922868255E+01 -.43594564591070E-01
 n    11    7 0.52860567397703E+01 0.11810788000000E-06 -.26776002008390E-01
 o    12    8 0.63771222479361E+01 -.20280728649663E+01 -.23850705954680E-01
 o    13    8 0.63771260273883E+01 0.20280712114559E+01 -.23882831298940E-01
 n    14    7 -.52615573853205E+01 0.11810788000000E-06 -.10505223788478E+00
 h    15    1 -.61955753134867E+01 -.16086254730588E+01 0.27588253543458E+00
 h    16    1 -.61955696443083E+01 0.16086275990006E+01 0.27589009433911E+00
[GTO]
    1 0
 s    6 1.00
 0.13575349682000E+05 0.60645503603591E-03
 0.20352333680000E+04 0.46979088884982E-02
 0.46322562359000E+03 0.24332477647552E-01
 0.13120019598000E+03 0.97399968307759E-01
 0.42853015891000E+02 0.30195584253780E+00
 0.15584185766000E+02 0.66233609137875E+00
 s    2 1.00
 0.62067138508000E+01 0.65595308539952E+00
 0.25764896527000E+01 0.37585633285142E+00
 s    1 1.00
 0.57696339419000E+00 0.10000000000000E+01
 s    1 1.00
 0.22972831358000E+00 0.10000000000000E+01
 s    1 1.00
 0.95164440028000E-01 0.10000000000000E+01
 s    1 1.00
 0.48475401370000E-01 0.10000000000000E+01
 p    4 1.00
 0.34697232244000E+02 0.11327220003114E-01
 0.79582622826000E+01 0.76169659202087E-01
 0.23780826883000E+01 0.30192252202676E+00
 0.81433208183000E+00 0.72785027349547E+00
 p    1 1.00
 0.28887547253000E+00 0.10000000000000E+01
 p    1 1.00
 0.10056823671000E+00 0.10000000000000E+01
 d    1 1.00
 0.10970000000000E+01 0.10000000000000E+01
 d    1 1.00
 0.31800000000000E+00 0.10000000000000E+01
 d    1 1.00
 0.90985336424000E-01 0.10000000000000E+01
 f    1 1.00
 0.76100000000000E+00 0.10000000000000E+01
 
    2 0
 s    6 1.00
 0.13575349682000E+05 0.60645503603591E-03
 0.20352333680000E+04 0.46979088884982E-02
 0.46322562359000E+03 0.24332477647552E-01
 0.13120019598000E+03 0.97399968307759E-01
 0.42853015891000E+02 0.30195584253780E+00
 0.15584185766000E+02 0.66233609137875E+00
 s    2 1.00
 0.62067138508000E+01 0.65595308539952E+00
 0.25764896527000E+01 0.37585633285142E+00
 s    1 1.00
 0.57696339419000E+00 0.10000000000000E+01
 s    1 1.00
 0.22972831358000E+00 0.10000000000000E+01
 s    1 1.00
 0.95164440028000E-01 0.10000000000000E+01
 s    1 1.00
 0.48475401370000E-01 0.10000000000000E+01
 p    4 1.00
 0.34697232244000E+02 0.11327220003114E-01
 0.79582622826000E+01 0.76169659202087E-01
 0.23780826883000E+01 0.30192252202676E+00
 0.81433208183000E+00 0.72785027349547E+00
 p    1 1.00
 0.28887547253000E+00 0.10000000000000E+01
 p    1 1.00
 0.10056823671000E+00 0.10000000000000E+01
 d    1 1.00
 0.10970000000000E+01 0.10000000000000E+01
 d    1 1.00
 0.31800000000000E+00 0.10000000000000E+01
 d    1 1.00
 0.90985336424000E-01 0.10000000000000E+01
 f    1 1.00
 0.76100000000000E+00 0.10000000000000E+01
 
    3 0
 s    6 1.00
 0.13575349682000E+05 0.60645503603591E-03
 0.20352333680000E+04 0.46979088884982E-02
 0.46322562359000E+03 0.24332477647552E-01
 0.13120019598000E+03 0.97399968307759E-01
 0.42853015891000E+02 0.30195584253780E+00
 0.15584185766000E+02 0.66233609137875E+00
 s    2 1.00
 0.62067138508000E+01 0.65595308539952E+00
 0.25764896527000E+01 0.37585633285142E+00
 s    1 1.00
 0.57696339419000E+00 0.10000000000000E+01
 s    1 1.00
 0.22972831358000E+00 0.10000000000000E+01
 s    1 1.00
 0.95164440028000E-01 0.10000000000000E+01
 s    1 1.00
 0.48475401370000E-01 0.10000000000000E+01
 p    4 1.00
 0.34697232244000E+02 0.11327220003114E-01
 0.79582622826000E+01 0.76169659202087E-01
 0.23780826883000E+01 0.30192252202676E+00
 0.81433208183000E+00 0.72785027349547E+00
 p    1 1.00
 0.28887547253000E+00 0.10000000000000E+01
 p    1 1.00
 0.10056823671000E+00 0.10000000000000E+01
 d    1 1.00
 0.10970000000000E+01 0.10000000000000E+01
 d    1 1.00
 0.31800000000000E+00 0.10000000000000E+01
 d    1 1.00
 0.90985336424000E-01 0.10000000000000E+01
 f    1 1.00
 0.76100000000000E+00 0.10000000000000E+01
 
    4 0
 s    6 1.00
 0.13575349682000E+05 0.60645503603591E-03
 0.20352333680000E+04 0.46979088884982E-02
 0.46322562359000E+03 0.24332477647552E-01
 0.13120019598000E+03 0.97399968307759E-01
 0.42853015891000E+02 0.30195584253780E+00
 0.15584185766000E+02 0.66233609137875E+00
 s    2 1.00
 0.62067138508000E+01 0.65595308539952E+00
 0.25764896527000E+01 0.37585633285142E+00
 s    1 1.00
 0.57696339419000E+00 0.10000000000000E+01
 s    1 1.00
 0.22972831358000E+00 0.10000000000000E+01
 s    1 1.00
 0.95164440028000E-01 0.10000000000000E+01
 s    1 1.00
 0.48475401370000E-01 0.10000000000000E+01
 p    4 1.00
 0.34697232244000E+02 0.11327220003114E-01
 0.79582622826000E+01 0.76169659202087E-01
 0.23780826883000E+01 0.30192252202676E+00
 0.81433208183000E+00 0.72785027349547E+00
 p    1 1.00
 0.28887547253000E+00 0.10000000000000E+01
 p    1 1.00
 0.10056823671000E+00 0.10000000000000E+01
 d    1 1.00
 0.10970000000000E+01 0.10000000000000E+01
 d    1 1.00
 0.31800000000000E+00 0.10000000000000E+01
 d    1 1.00
 0.90985336424000E-01 0.10000000000000E+01
 f    1 1.00
 0.76100000000000E+00 0.10000000000000E+01
 
    5 0
 s    6 1.00
 0.13575349682000E+05 0.60645503603591E-03
 0.20352333680000E+04 0.46979088884982E-02
 0.46322562359000E+03 0.24332477647552E-01
 0.13120019598000E+03 0.97399968307759E-01
 0.42853015891000E+02 0.30195584253780E+00
 0.15584185766000E+02 0.66233609137875E+00
 s    2 1.00
 0.62067138508000E+01 0.65595308539952E+00
 0.25764896527000E+01 0.37585633285142E+00
 s    1 1.00
 0.57696339419000E+00 0.10000000000000E+01
 s    1 1.00
 0.22972831358000E+00 0.10000000000000E+01
 s    1 1.00
 0.95164440028000E-01 0.10000000000000E+01
 s    1 1.00
 0.48475401370000E-01 0.10000000000000E+01
 p    4 1.00
 0.34697232244000E+02 0.11327220003114E-01
 0.79582622826000E+01 0.76169659202087E-01
 0.23780826883000E+01 0.30192252202676E+00
 0.81433208183000E+00 0.72785027349547E+00
 p    1 1.00
 0.28887547253000E+00 0.10000000000000E+01
 p    1 1.00
 0.10056823671000E+00 0.10000000000000E+01
 d    1 1.00
 0.10970000000000E+01 0.10000000000000E+01
 d    1 1.00
 0.31800000000000E+00 0.10000000000000E+01
 d    1 1.00
 0.90985336424000E-01 0.10000000000000E+01
 f    1 1.00
 0.76100000000000E+00 0.10000000000000E+01
 
    6 0
 s    6 1.00
 0.13575349682000E+05 0.60645503603591E-03
 0.20352333680000E+04 0.46979088884982E-02
 0.46322562359000E+03 0.24332477647552E-01
 0.13120019598000E+03 0.97399968307759E-01
 0.42853015891000E+02 0.30195584253780E+00
 0.15584185766000E+02 0.66233609137875E+00
 s    2 1.00
 0.62067138508000E+01 0.65595308539952E+00
 0.25764896527000E+01 0.37585633285142E+00
 s    1 1.00
 0.57696339419000E+00 0.10000000000000E+01
 s    1 1.00
 0.22972831358000E+00 0.10000000000000E+01
 s    1 1.00
 0.95164440028000E-01 0.10000000000000E+01
 s    1 1.00
 0.48475401370000E-01 0.10000000000000E+01
 p    4 1.00
 0.34697232244000E+02 0.11327220003114E-01
 0.79582622826000E+01 0.76169659202087E-01
 0.23780826883000E+01 0.30192252202676E+00
 0.81433208183000E+00 0.72785027349547E+00
 p    1 1.00
 0.28887547253000E+00 0.10000000000000E+01
 p    1 1.00
 0.10056823671000E+00 0.10000000000000E+01
 d    1 1.00
 0.10970000000000E+01 0.10000000000000E+01
 d    1 1.00
 0.31800000000000E+00 0.10000000000000E+01
 d    1 1.00
 0.90985336424000E-01 0.10000000000000E+01
 f    1 1.00
 0.76100000000000E+00 0.10000000000000E+01
 
    7 0
 s    3 1.00
 0.34061341000000E+02 0.25439307208879E-01
 0.51235746000000E+01 0.19008594890375E+00
 0.11646626000000E+01 0.85244113011042E+00
 s    1 1.00
 0.32723041000000E+00 0.10000000000000E+01
 s    1 1.00
 0.10307241000000E+00 0.10000000000000E+01
 p    1 1.00
 0.80000000000000E+00 0.10000000000000E+01
 p    1 1.00
 0.95774129632000E-01 0.10000000000000E+01
 
    8 0
 s    3 1.00
 0.34061341000000E+02 0.25439307208879E-01
 0.51235746000000E+01 0.19008594890375E+00
 0.11646626000000E+01 0.85244113011042E+00
 s    1 1.00
 0.32723041000000E+00 0.10000000000000E+01
 s    1 1.00
 0.10307241000000E+00 0.10000000000000E+01
 p    1 1.00
 0.80000000000000E+00 0.10000000000000E+01
 p    1 1.00
 0.95774129632000E-01 0.10000000000000E+01
 
    9 0
 s    3 1.00
 0.34061341000000E+02 0.25439307208879E-01
 0.51235746000000E+01 0.19008594890375E+00
 0.11646626000000E+01 0.85244113011042E+00
 s    1 1.00
 0.32723041000000E+00 0.10000000000000E+01
 s    1 1.00
 0.10307241000000E+00 0.10000000000000E+01
 p    1 1.00
 0.80000000000000E+00 0.10000000000000E+01
 p    1 1.00
 0.95774129632000E-01 0.10000000000000E+01
 
   10 0
 s    3 1.00
 0.34061341000000E+02 0.25439307208879E-01
 0.51235746000000E+01 0.19008594890375E+00
 0.11646626000000E+01 0.85244113011042E+00
 s    1 1.00
 0.32723041000000E+00 0.10000000000000E+01
 s    1 1.00
 0.10307241000000E+00 0.10000000000000E+01
 p    1 1.00
 0.80000000000000E+00 0.10000000000000E+01
 p    1 1.00
 0.95774129632000E-01 0.10000000000000E+01
 
   11 0
 s    6 1.00
 0.19730800647000E+05 0.58626402628763E-03
 0.29578958745000E+04 0.45428820586397E-02
 0.67322133595000E+03 0.23558413450084E-01
 0.19068249494000E+03 0.94709193292923E-01
 0.62295441898000E+02 0.29719784913376E+00
 0.22654161182000E+02 0.66916246895232E+00
 s    2 1.00
 0.89791477428000E+01 0.64596683630063E+00
 0.36863002370000E+01 0.38700574393705E+00
 s    1 1.00
 0.84660076805000E+00 0.10000000000000E+01
 s    1 1.00
 0.33647133771000E+00 0.10000000000000E+01
 s    1 1.00
 0.13647653675000E+00 0.10000000000000E+01
 s    1 1.00
 0.68441605847000E-01 0.10000000000000E+01
 p    4 1.00
 0.49200380510000E+02 0.11448825101764E-01
 0.11346790537000E+02 0.78422337970864E-01
 0.34273972411000E+01 0.30818094738830E+00
 0.11785525134000E+01 0.72027196368413E+00
 p    1 1.00
 0.41642204972000E+00 0.10000000000000E+01
 p    1 1.00
 0.14260826011000E+00 0.10000000000000E+01
 d    1 1.00
 0.16540000000000E+01 0.10000000000000E+01
 d    1 1.00
 0.46900000000000E+00 0.10000000000000E+01
 d    1 1.00
 0.12829642058000E+00 0.10000000000000E+01
 f    1 1.00
 0.10930000000000E+01 0.10000000000000E+01
 
   12 0
 s    6 1.00
 0.27032382631000E+05 0.57227335211155E-03
 0.40523871392000E+04 0.44353233492995E-02
 0.92232722710000E+03 0.23020107706038E-01
 0.26124070989000E+03 0.92822490667928E-01
 0.85354641351000E+02 0.29378500009671E+00
 0.31035035245000E+02 0.67401604501641E+00
 s    2 1.00
 0.12260860728000E+02 0.63839937025506E+00
 0.49987076005000E+01 0.39534587125718E+00
 s    1 1.00
 0.11703108158000E+01 0.10000000000000E+01
 s    1 1.00
 0.46474740994000E+00 0.10000000000000E+01
 s    1 1.00
 0.18504536357000E+00 0.10000000000000E+01
 s    1 1.00
 0.70288026270000E-01 0.10000000000000E+01
 p    4 1.00
 0.63274954801000E+02 0.12018332222616E-01
 0.14627049379000E+02 0.83005421790056E-01
 0.44501223456000E+01 0.31991743925964E+00
 0.15275799647000E+01 0.70715542916104E+00
 p    1 1.00
 0.52935117943000E+00 0.10000000000000E+01
 p    1 1.00
 0.17478421270000E+00 0.10000000000000E+01
 p    1 1.00
 0.51112745706000E-01 0.10000000000000E+01
 d    1 1.00
 0.23140000000000E+01 0.10000000000000E+01
 d    1 1.00
 0.64500000000000E+00 0.10000000000000E+01
 d    1 1.00
 0.14696477366000E+00 0.10000000000000E+01
 f    1 1.00
 0.14280000000000E+01 0.10000000000000E+01
 
   13 0
 s    6 1.00
 0.27032382631000E+05 0.57227335211155E-03
 0.40523871392000E+04 0.44353233492995E-02
 0.92232722710000E+03 0.23020107706038E-01
 0.26124070989000E+03 0.92822490667928E-01
 0.85354641351000E+02 0.29378500009671E+00
 0.31035035245000E+02 0.67401604501641E+00
 s    2 1.00
 0.12260860728000E+02 0.63839937025506E+00
 0.49987076005000E+01 0.39534587125718E+00
 s    1 1.00
 0.11703108158000E+01 0.10000000000000E+01
 s    1 1.00
 0.46474740994000E+00 0.10000000000000E+01
 s    1 1.00
 0.18504536357000E+00 0.10000000000000E+01
 s    1 1.00
 0.70288026270000E-01 0.10000000000000E+01
 p    4 1.00
 0.63274954801000E+02 0.12018332222616E-01
 0.14627049379000E+02 0.83005421790056E-01
 0.44501223456000E+01 0.31991743925964E+00
 0.15275799647000E+01 0.70715542916104E+00
 p    1 1.00
 0.52935117943000E+00 0.10000000000000E+01
 p    1 1.00
 0.17478421270000E+00 0.10000000000000E+01
 p    1 1.00
 0.51112745706000E-01 0.10000000000000E+01
 d    1 1.00
 0.23140000000000E+01 0.10000000000000E+01
 d    1 1.00
 0.64500000000000E+00 0.10000000000000E+01
 d    1 1.00
 0.14696477366000E+00 0.10000000000000E+01
 f    1 1.00
 0.14280000000000E+01 0.10000000000000E+01
 
   14 0
 s    6 1.00
 0.19730800647000E+05 0.58626402628763E-03
 0.29578958745000E+04 0.45428820586397E-02
 0.67322133595000E+03 0.23558413450084E-01
 0.19068249494000E+03 0.94709193292923E-01
 0.62295441898000E+02 0.29719784913376E+00
 0.22654161182000E+02 0.66916246895232E+00
 s    2 1.00
 0.89791477428000E+01 0.64596683630063E+00
 0.36863002370000E+01 0.38700574393705E+00
 s    1 1.00
 0.84660076805000E+00 0.10000000000000E+01
 s    1 1.00
 0.33647133771000E+00 0.10000000000000E+01
 s    1 1.00
 0.13647653675000E+00 0.10000000000000E+01
 s    1 1.00
 0.68441605847000E-01 0.10000000000000E+01
 p    4 1.00
 0.49200380510000E+02 0.11448825101764E-01
 0.11346790537000E+02 0.78422337970864E-01
 0.34273972411000E+01 0.30818094738830E+00
 0.11785525134000E+01 0.72027196368413E+00
 p    1 1.00
 0.41642204972000E+00 0.10000000000000E+01
 p    1 1.00
 0.14260826011000E+00 0.10000000000000E+01
 d    1 1.00
 0.16540000000000E+01 0.10000000000000E+01
 d    1 1.00
 0.46900000000000E+00 0.10000000000000E+01
 d    1 1.00
 0.12829642058000E+00 0.10000000000000E+01
 f    1 1.00
 0.10930000000000E+01 0.10000000000000E+01
 
   15 0
 s    3 1.00
 0.34061341000000E+02 0.25439307208879E-01
 0.51235746000000E+01 0.19008594890375E+00
 0.11646626000000E+01 0.85244113011042E+00
 s    1 1.00
 0.32723041000000E+00 0.10000000000000E+01
 s    1 1.00
 0.10307241000000E+00 0.10000000000000E+01
 p    1 1.00
 0.80000000000000E+00 0.10000000000000E+01
 p    1 1.00
 0.95774129632000E-01 0.10000000000000E+01
 
   16 0
 s    3 1.00
 0.34061341000000E+02 0.25439307208879E-01
 0.51235746000000E+01 0.19008594890375E+00
 0.11646626000000E+01 0.85244113011042E+00
 s    1 1.00
 0.32723041000000E+00 0.10000000000000E+01
 s    1 1.00
 0.10307241000000E+00 0.10000000000000E+01
 p    1 1.00
 0.80000000000000E+00 0.10000000000000E+01
 p    1 1.00
 0.95774129632000E-01 0.10000000000000E+01
 
[MO]
 Sym= X
 Ene= -0.896377
 Spin= Alpha
 Occup= -0.896377
         1    5.590386E-03
         2    1.283103E-02
         3   -2.658564E-02
         4    8.779267E-03
         5   -1.785460E-01
         6   -3.429778E-02
         7   -3.489837E-02
         8   -2.035365E-03
         9   -1.226775E-04
        10   -4.577032E-02
        11   -3.920693E-03
        12   -1.314917E-04
        13   -5.340054E-02
        14    7.232349E-02
        15   -2.261608E-04
        16    1.207194E-03
        17   -1.421251E-03
        18    2.140567E-04
        19    2.449875E-04
        20    2.474880E-06
        21   -1.129989E-06
        22    9.707561E-03
        23   -6.551318E-03
        24   -3.156242E-03
        25   -1.275755E-03
        26    2.630935E-05
        27   -1.078257E-06
        28   -4.143832E-03
        29    5.926881E-04
        30    3.551144E-03
        31    1.221037E-02
        32    1.509244E-05
        33   -2.049595E-06
        34   -3.159394E-05
        35    1.359714E-04
        36    6.085859E-07
        37   -5.682244E-05
        38   -2.075386E-04
        39   -5.286445E-07
        40    9.921016E-05
        41    2.511388E-05
        42   -2.878591E-07
        43   -6.993290E-07
        44   -6.372661E-07
        45   -1.418934E-06
        46    1.811352E-06
        47    5.962294E-06
        48    1.882103E-05
        49   -2.832730E-06
        50    5.271631E-06
        51   -2.682781E-02
        52    5.383734E-06
        53    5.679153E-06
        54   -3.721047E-02
        55    5.274671E-06
        56   -1.190725E-05
        57    1.710150E-01
        58   -9.120978E-06
        59    1.559962E-07
        60   -1.290245E-07
        61   -2.697170E-08
        62    2.039530E-03
        63   -8.634846E-10
        64    7.512933E-07
        65    3.310615E-07
        66   -4.176043E-07
        67    8.654278E-08
        68   -2.492229E-03
        69   -2.852138E-07
        70   -1.176507E-05
        71   -1.167887E-05
        72    1.280357E-05
        73   -1.124696E-06
        74   -3.213533E-02
        75    1.278628E-06
        76   -7.569626E-05
        77    3.669111E-08
        78   -5.241456E-04
        79   -1.714017E-08
        80   -3.078502E-08
        81    5.158734E-04
        82    7.476388E-11
        83   -1.844127E-08
        84    1.873417E-04
        85    2.292119E-08
        86    9.997655E-07
        87   -5.590351E-03
        88   -1.283096E-02
        89    2.658564E-02
        90   -8.778377E-03
        91    1.783670E-01
        92    3.430490E-02
        93    3.489744E-02
        94   -2.038360E-03
        95    1.260475E-04
        96    4.576961E-02
        97   -3.923041E-03
        98    1.345311E-04
        99    5.342008E-02
       100    7.228929E-02
       101    2.343885E-04
       102   -1.207061E-03
       103    1.421108E-03
       104   -2.140474E-04
       105    2.449863E-04
       106   -2.244505E-06
       107   -9.236822E-07
       108   -9.707452E-03
       109    6.551211E-03
       110    3.156241E-03
       111   -1.275419E-03
       112   -2.590003E-05
       113   -4.398509E-07
       114    4.133740E-03
       115   -5.832041E-04
       116   -3.550536E-03
       117    1.222510E-02
       118   -1.330347E-05
       119    1.802387E-06
       120    3.159514E-05
       121    1.359404E-04
       122   -6.345342E-07
       123    5.683012E-05
       124   -2.074947E-04
       125    5.244980E-07
       126   -9.921945E-05
       127    2.511145E-05
       128    3.268190E-07
       129   -6.619000E-07
       130    2.738471E-03
       131    6.225778E-03
       132   -1.234265E-02
       133    1.283303E-02
       134   -7.990385E-02
       135   -1.146324E-02
       136   -2.124435E-02
       137    1.879535E-04
       138    3.798685E-05
       139    7.973147E-03
       140   -6.461055E-03
       141    3.430603E-05
       142    2.703378E-02
       143   -1.735473E-02
       144   -1.273795E-05
       145   -5.181828E-04
       146    4.290486E-04
       147    8.913428E-05
       148   -1.187598E-04
       149    8.310333E-07
       150    8.052472E-07
       151    5.154777E-03
       152   -3.471213E-03
       153   -1.683564E-03
       154    2.292179E-04
       155    2.348756E-05
       156   -1.610817E-05
       157    6.980158E-03
       158   -7.940891E-03
       159    9.607322E-04
       160    1.194510E-03
       161   -7.098125E-05
       162   -2.326867E-05
       163    2.314411E-05
       164   -3.328421E-05
       165    3.134461E-07
       166   -2.197271E-05
       167    3.044341E-05
       168   -2.662942E-09
       169   -9.078370E-06
       170    1.421205E-05
       171   -4.178691E-07
       172    1.173138E-06
       173   -1.044107E-07
       174   -2.426875E-07
       175    5.786581E-07
       176   -6.046395E-07
       177   -6.189813E-05
       178   -2.043186E-06
       179    1.593371E-07
       180   -9.335995E-03
       181   -2.684028E-06
       182    6.137201E-07
       183   -1.663597E-02
       184   -2.821015E-06
       185   -1.559674E-05
       186   -5.829018E-02
       187   -7.620653E-07
       188    1.536805E-08
       189   -1.174602E-08
       190   -3.622028E-09
       191    1.484641E-04
       192   -1.575601E-07
       193    3.624356E-06
       194   -3.578192E-07
       195    2.806554E-07
       196    7.716383E-08
       197   -3.163266E-03
       198   -3.332708E-07
       199   -4.743125E-05
       200    6.347155E-06
       201   -8.646200E-06
       202    2.299045E-06
       203   -6.941476E-03
       204   -3.288565E-09
       205   -3.742750E-06
       206    1.407431E-09
       207   -1.207893E-04
       208    8.462642E-09
       209    2.095144E-09
       210    1.083338E-04
       211    1.725295E-08
       212   -3.983411E-09
       213    5.372205E-05
       214   -2.860677E-08
       215    1.240625E-07
       216   -2.738597E-03
       217   -6.226071E-03
       218    1.234338E-02
       219   -1.283664E-02
       220    8.009469E-02
       221    1.146273E-02
       222    2.124559E-02
       223    1.875234E-04
       224   -4.297940E-05
       225   -7.971858E-03
       226   -6.461339E-03
       227   -3.986752E-05
       228   -2.700665E-02
       229   -1.741674E-02
       230    1.030120E-05
       231    5.181907E-04
       232   -4.290804E-04
       233   -8.911029E-05
       234   -1.186391E-04
       235   -7.273520E-07
       236    9.147516E-07
       237   -5.154696E-03
       238    3.471316E-03
       239    1.683379E-03
       240    2.291803E-04
       241   -2.326662E-05
       242   -1.579866E-05
       243   -6.973225E-03
       244    7.935892E-03
       245   -9.626676E-04
       246    1.185910E-03
       247    7.185747E-05
       248   -2.220022E-05
       249   -2.313599E-05
       250   -3.330720E-05
       251   -2.913477E-07
       252    2.197136E-05
       253    3.046962E-05
       254    9.945593E-09
       255    9.068824E-06
       256    1.421667E-05
       257    3.809384E-07
       258    1.157052E-06
       259   -1.216019E-02
       260   -1.630967E-02
       261   -3.301893E-02
       262    1.692332E-03
       263    2.107699E-03
       264    8.313648E-07
       265    7.052320E-03
       266   -4.866407E-04
       267    3.605766E-05
       268    1.216061E-02
       269    1.631013E-02
       270    3.302841E-02
       271   -1.692550E-03
       272    2.107808E-03
       273   -7.355546E-07
       274   -7.037143E-03
       275   -4.801430E-04
       276   -3.412958E-05
       277    2.325398E-03
       278    4.465494E-03
       279    1.960392E-02
       280   -2.482130E-04
       281    3.057997E-04
       282    3.970093E-06
       283    2.529925E-04
       284    1.461461E-03
       285   -3.789121E-05
       286   -2.326102E-03
       287   -4.466470E-03
       288   -1.959169E-02
       289    2.482461E-04
       290    3.058573E-04
       291   -4.156935E-06
       292   -2.466514E-04
       293    1.460146E-03
       294    3.800326E-05
       295    1.304290E-07
       296    3.138976E-07
       297   -3.869416E-07
       298   -2.761111E-06
       299    1.776794E-05
       300    1.993429E-05
       301   -4.369076E-06
       302   -3.359987E-02
       303   -1.477683E-07
       304   -4.228000E-06
       305   -2.510755E-02
       306   -4.292857E-07
       307    1.090105E-05
       308    6.942720E-03
       309   -3.996195E-06
       310    4.360412E-07
       311   -5.288336E-07
       312    9.279240E-08
       313   -9.678302E-03
       314   -1.258208E-09
       315   -2.584055E-05
       316    1.534845E-06
       317   -1.514299E-06
       318   -2.054652E-08
       319   -2.676719E-02
       320   -3.360626E-07
       321   -7.214537E-05
       322   -3.891776E-07
       323   -3.351764E-07
       324    7.243540E-07
       325    6.808506E-03
       326   -3.621726E-06
       327    2.380229E-05
       328    9.762246E-09
       329    2.230727E-03
       330    5.115254E-09
       331   -1.086151E-08
       332   -3.121305E-03
       333    4.532311E-08
       334   -2.235918E-09
       335    1.284710E-04
       336   -5.218595E-08
       337   -9.972102E-06
       338   -1.630659E-03
       339   -4.135118E-03
       340    6.130246E-03
       341    4.647045E-04
       342    1.159705E-02
       343   -1.860766E-02
       344    2.654209E-01
       345    2.257191E-01
       346    6.998692E-04
       347    2.407907E-01
       348    1.977574E-01
       349    6.342077E-04
       350    1.786527E-01
       351    1.430537E-01
       352    4.800210E-04
       353    2.986313E-02
       354    1.502885E-02
       355    8.327921E-05
       356   -2.183114E-03
       357    2.781041E-03
       358   -5.979272E-04
       359    3.139117E-05
       360   -4.711562E-06
       361    1.623297E-07
       362   -6.694478E-03
       363    7.280885E-03
       364   -5.864070E-04
       365    1.224718E-03
       366   -1.721196E-05
       367    4.464062E-06
       368   -8.377552E-03
       369    7.156908E-03
       370    1.220643E-03
       371    8.909240E-04
       372   -2.206602E-05
       373    1.048926E-05
       374    2.274481E-04
       375    7.956536E-04
       376    7.773406E-07
       377   -4.311156E-04
       378   -9.003796E-04
       379    1.525869E-07
       380    1.259619E-04
       381   -1.671017E-04
       382   -1.195499E-06
       383   -2.269503E-06
       384    1.630224E-03
       385    4.134060E-03
       386   -6.128597E-03
       387   -4.607666E-04
       388   -1.160075E-02
       389    1.859313E-02
       390   -2.653942E-01
       391    2.257160E-01
       392   -7.075847E-04
       393   -2.407670E-01
       394    1.977540E-01
       395   -6.416975E-04
       396   -1.786420E-01
       397    1.430532E-01
       398   -4.779370E-04
       399   -2.986050E-02
       400    1.502876E-02
       401   -8.283655E-05
       402    2.183004E-03
       403   -2.781046E-03
       404    5.980421E-04
       405    3.114775E-05
       406    4.747036E-06
       407    2.775874E-07
       408    6.694079E-03
       409   -7.280875E-03
       410    5.867956E-04
       411    1.224504E-03
       412    1.728565E-05
       413    4.565130E-06
       414    8.377930E-03
       415   -7.158631E-03
       416   -1.219300E-03
       417    8.939324E-04
       418    2.414356E-05
       419    7.800830E-06
       420   -2.274952E-04
       421    7.956049E-04
       422   -7.823908E-07
       423    4.311772E-04
       424   -9.002772E-04
       425   -1.095139E-07
       426   -1.259603E-04
       427   -1.671388E-04
       428    1.159201E-06
       429   -2.296619E-06
       430    1.072645E-07
       431    2.508957E-07
       432   -3.772346E-07
       433   -7.189400E-07
       434   -2.455564E-06
       435   -4.238681E-06
       436    2.474774E-07
       437    3.292961E-03
       438    3.881165E-06
       439    4.598854E-07
       440    1.925852E-03
       441    3.845896E-06
       442    4.146459E-06
       443    3.427027E-03
       444    3.469674E-06
       445   -9.151944E-09
       446    5.237925E-09
       447    3.914019E-09
       448   -2.107339E-04
       449   -2.977271E-08
       450    4.867982E-05
       451    8.939896E-08
       452   -9.662965E-08
       453    7.230697E-09
       454   -9.606231E-04
       455   -8.009425E-08
       456    6.923909E-05
       457    1.027052E-06
       458   -3.039584E-07
       459   -7.230939E-07
       460    1.092637E-03
       461    1.672706E-08
       462    2.633874E-05
       463    5.994327E-09
       464    4.269133E-05
       465   -1.369822E-08
       466   -4.595759E-10
       467   -5.517587E-05
       468    5.210613E-09
       469   -7.582657E-09
       470   -2.100558E-06
       471    1.316748E-08
       472   -1.349792E-05
       473   -1.919967E-03
       474   -2.785526E-03
       475   -6.033188E-03
       476   -9.446216E-05
       477   -1.547496E-04
       478    4.395233E-05
       479   -9.179046E-04
       480   -6.956084E-04
       481    3.142035E-04
       482    1.920478E-03
       483    2.786452E-03
       484    6.033530E-03
       485    9.453328E-05
       486   -1.548523E-04
       487   -4.349170E-05
       488    9.178278E-04
       489   -6.948380E-04
       490   -3.132431E-04
 Sym= X
 Ene= 0.896377
 Spin= Alpha
 Occup= 0.896377
         1   -1.785522E-05
         2   -4.338523E-05
         3    2.129796E-04
         4   -7.703027E-04
         5   -2.242347E-02
         6   -1.176820E-03
         7   -2.722061E-04
         8   -7.388861E-05
         9    9.732980E-02
        10    4.874730E-05
        11   -6.268347E-05
        12    9.717671E-02
        13    2.497673E-02
        14   -2.142592E-02
        15    5.663297E-02
        16    4.763855E-06
        17   -1.811183E-06
        18   -2.952673E-06
        19    6.906808E-06
        20   -2.643285E-05
        21   -2.732876E-04
        22   -1.862952E-04
        23    7.228364E-05
        24    1.140116E-04
        25   -7.387328E-05
        26    4.337627E-03
        27    1.000181E-03
        28   -7.458702E-03
        29    8.030911E-03
        30   -5.722089E-04
        31    3.196462E-04
        32    4.160510E-03
        33    1.487125E-02
        34    6.731104E-06
        35   -1.392125E-06
        36   -1.645460E-04
        37   -6.584944E-06
        38   -9.754195E-07
        39   -1.071027E-04
        40   -2.445780E-06
        41    2.843152E-06
        42    3.278642E-04
        43    9.007303E-05
        44   -1.352681E-07
        45    3.227438E-06
        46   -1.016731E-04
        47    1.632717E-03
        48   -8.063634E-02
        49   -5.445574E-03
        50    2.498523E-05
        51   -2.624106E-08
        52   -1.712167E-02
        53   -1.958850E-04
        54   -7.858374E-06
        55   -1.466396E-02
        56    2.580807E-02
        57   -6.189976E-05
        58    5.171855E-02
        59    4.323194E-05
        60    2.499051E-06
        61   -4.573099E-05
        62   -9.978925E-08