[Molden Format]
[Title]
ADC(2) - opt by CAM-B3LYP gaussian                                              
[Atoms] AU
 c     1    6 0.12592752280008E+01 0.22800132789445E+01 -.35345910021030E-01
 c     2    6 0.25511638220345E+01 0.20078340100000E-05 -.33671612667290E-01
 c     3    6 0.12592790074531E+01 -.22800111530026E+01 -.35357248377820E-01
 c     4    6 -.13364450292264E+01 -.22798221803893E+01 -.38530098554940E-01
 c     5    6 -.26857699593430E+01 -.17716182500000E-05 -.39025206801750E-01
 c     6    6 -.13364469189525E+01 0.22798205268790E+01 -.38516870472010E-01
 h     7    1 0.23055183220207E+01 0.40307538342087E+01 -.32265656424420E-01
 h     8    1 0.23055239911991E+01 -.40307498185407E+01 -.32284553685750E-01
 h     9    1 -.23548467881305E+01 -.40530977197882E+01 -.43619131030800E-01
 h    10    1 -.23548543470350E+01 0.40530922868255E+01 -.43594564591070E-01
 n    11    7 0.52860567397703E+01 0.11810788000000E-06 -.26776002008390E-01
 o    12    8 0.63771222479361E+01 -.20280728649663E+01 -.23850705954680E-01
 o    13    8 0.63771260273883E+01 0.20280712114559E+01 -.23882831298940E-01
 n    14    7 -.52615573853205E+01 0.11810788000000E-06 -.10505223788478E+00
 h    15    1 -.61955753134867E+01 -.16086254730588E+01 0.27588253543458E+00
 h    16    1 -.61955696443083E+01 0.16086275990006E+01 0.27589009433911E+00
[GTO]
    1 0
 s    6 1.00
 0.13575349682000E+05 0.60645503603591E-03
 0.20352333680000E+04 0.46979088884982E-02
 0.46322562359000E+03 0.24332477647552E-01
 0.13120019598000E+03 0.97399968307759E-01
 0.42853015891000E+02 0.30195584253780E+00
 0.15584185766000E+02 0.66233609137875E+00
 s    2 1.00
 0.62067138508000E+01 0.65595308539952E+00
 0.25764896527000E+01 0.37585633285142E+00
 s    1 1.00
 0.57696339419000E+00 0.10000000000000E+01
 s    1 1.00
 0.22972831358000E+00 0.10000000000000E+01
 s    1 1.00
 0.95164440028000E-01 0.10000000000000E+01
 s    1 1.00
 0.48475401370000E-01 0.10000000000000E+01
 p    4 1.00
 0.34697232244000E+02 0.11327220003114E-01
 0.79582622826000E+01 0.76169659202087E-01
 0.23780826883000E+01 0.30192252202676E+00
 0.81433208183000E+00 0.72785027349547E+00
 p    1 1.00
 0.28887547253000E+00 0.10000000000000E+01
 p    1 1.00
 0.10056823671000E+00 0.10000000000000E+01
 d    1 1.00
 0.10970000000000E+01 0.10000000000000E+01
 d    1 1.00
 0.31800000000000E+00 0.10000000000000E+01
 d    1 1.00
 0.90985336424000E-01 0.10000000000000E+01
 f    1 1.00
 0.76100000000000E+00 0.10000000000000E+01
 
    2 0
 s    6 1.00
 0.13575349682000E+05 0.60645503603591E-03
 0.20352333680000E+04 0.46979088884982E-02
 0.46322562359000E+03 0.24332477647552E-01
 0.13120019598000E+03 0.97399968307759E-01
 0.42853015891000E+02 0.30195584253780E+00
 0.15584185766000E+02 0.66233609137875E+00
 s    2 1.00
 0.62067138508000E+01 0.65595308539952E+00
 0.25764896527000E+01 0.37585633285142E+00
 s    1 1.00
 0.57696339419000E+00 0.10000000000000E+01
 s    1 1.00
 0.22972831358000E+00 0.10000000000000E+01
 s    1 1.00
 0.95164440028000E-01 0.10000000000000E+01
 s    1 1.00
 0.48475401370000E-01 0.10000000000000E+01
 p    4 1.00
 0.34697232244000E+02 0.11327220003114E-01
 0.79582622826000E+01 0.76169659202087E-01
 0.23780826883000E+01 0.30192252202676E+00
 0.81433208183000E+00 0.72785027349547E+00
 p    1 1.00
 0.28887547253000E+00 0.10000000000000E+01
 p    1 1.00
 0.10056823671000E+00 0.10000000000000E+01
 d    1 1.00
 0.10970000000000E+01 0.10000000000000E+01
 d    1 1.00
 0.31800000000000E+00 0.10000000000000E+01
 d    1 1.00
 0.90985336424000E-01 0.10000000000000E+01
 f    1 1.00
 0.76100000000000E+00 0.10000000000000E+01
 
    3 0
 s    6 1.00
 0.13575349682000E+05 0.60645503603591E-03
 0.20352333680000E+04 0.46979088884982E-02
 0.46322562359000E+03 0.24332477647552E-01
 0.13120019598000E+03 0.97399968307759E-01
 0.42853015891000E+02 0.30195584253780E+00
 0.15584185766000E+02 0.66233609137875E+00
 s    2 1.00
 0.62067138508000E+01 0.65595308539952E+00
 0.25764896527000E+01 0.37585633285142E+00
 s    1 1.00
 0.57696339419000E+00 0.10000000000000E+01
 s    1 1.00
 0.22972831358000E+00 0.10000000000000E+01
 s    1 1.00
 0.95164440028000E-01 0.10000000000000E+01
 s    1 1.00
 0.48475401370000E-01 0.10000000000000E+01
 p    4 1.00
 0.34697232244000E+02 0.11327220003114E-01
 0.79582622826000E+01 0.76169659202087E-01
 0.23780826883000E+01 0.30192252202676E+00
 0.81433208183000E+00 0.72785027349547E+00
 p    1 1.00
 0.28887547253000E+00 0.10000000000000E+01
 p    1 1.00
 0.10056823671000E+00 0.10000000000000E+01
 d    1 1.00
 0.10970000000000E+01 0.10000000000000E+01
 d    1 1.00
 0.31800000000000E+00 0.10000000000000E+01
 d    1 1.00
 0.90985336424000E-01 0.10000000000000E+01
 f    1 1.00
 0.76100000000000E+00 0.10000000000000E+01
 
    4 0
 s    6 1.00
 0.13575349682000E+05 0.60645503603591E-03
 0.20352333680000E+04 0.46979088884982E-02
 0.46322562359000E+03 0.24332477647552E-01
 0.13120019598000E+03 0.97399968307759E-01
 0.42853015891000E+02 0.30195584253780E+00
 0.15584185766000E+02 0.66233609137875E+00
 s    2 1.00
 0.62067138508000E+01 0.65595308539952E+00
 0.25764896527000E+01 0.37585633285142E+00
 s    1 1.00
 0.57696339419000E+00 0.10000000000000E+01
 s    1 1.00
 0.22972831358000E+00 0.10000000000000E+01
 s    1 1.00
 0.95164440028000E-01 0.10000000000000E+01
 s    1 1.00
 0.48475401370000E-01 0.10000000000000E+01
 p    4 1.00
 0.34697232244000E+02 0.11327220003114E-01
 0.79582622826000E+01 0.76169659202087E-01
 0.23780826883000E+01 0.30192252202676E+00
 0.81433208183000E+00 0.72785027349547E+00
 p    1 1.00
 0.28887547253000E+00 0.10000000000000E+01
 p    1 1.00
 0.10056823671000E+00 0.10000000000000E+01
 d    1 1.00
 0.10970000000000E+01 0.10000000000000E+01
 d    1 1.00
 0.31800000000000E+00 0.10000000000000E+01
 d    1 1.00
 0.90985336424000E-01 0.10000000000000E+01
 f    1 1.00
 0.76100000000000E+00 0.10000000000000E+01
 
    5 0
 s    6 1.00
 0.13575349682000E+05 0.60645503603591E-03
 0.20352333680000E+04 0.46979088884982E-02
 0.46322562359000E+03 0.24332477647552E-01
 0.13120019598000E+03 0.97399968307759E-01
 0.42853015891000E+02 0.30195584253780E+00
 0.15584185766000E+02 0.66233609137875E+00
 s    2 1.00
 0.62067138508000E+01 0.65595308539952E+00
 0.25764896527000E+01 0.37585633285142E+00
 s    1 1.00
 0.57696339419000E+00 0.10000000000000E+01
 s    1 1.00
 0.22972831358000E+00 0.10000000000000E+01
 s    1 1.00
 0.95164440028000E-01 0.10000000000000E+01
 s    1 1.00
 0.48475401370000E-01 0.10000000000000E+01
 p    4 1.00
 0.34697232244000E+02 0.11327220003114E-01
 0.79582622826000E+01 0.76169659202087E-01
 0.23780826883000E+01 0.30192252202676E+00
 0.81433208183000E+00 0.72785027349547E+00
 p    1 1.00
 0.28887547253000E+00 0.10000000000000E+01
 p    1 1.00
 0.10056823671000E+00 0.10000000000000E+01
 d    1 1.00
 0.10970000000000E+01 0.10000000000000E+01
 d    1 1.00
 0.31800000000000E+00 0.10000000000000E+01
 d    1 1.00
 0.90985336424000E-01 0.10000000000000E+01
 f    1 1.00
 0.76100000000000E+00 0.10000000000000E+01
 
    6 0
 s    6 1.00
 0.13575349682000E+05 0.60645503603591E-03
 0.20352333680000E+04 0.46979088884982E-02
 0.46322562359000E+03 0.24332477647552E-01
 0.13120019598000E+03 0.97399968307759E-01
 0.42853015891000E+02 0.30195584253780E+00
 0.15584185766000E+02 0.66233609137875E+00
 s    2 1.00
 0.62067138508000E+01 0.65595308539952E+00
 0.25764896527000E+01 0.37585633285142E+00
 s    1 1.00
 0.57696339419000E+00 0.10000000000000E+01
 s    1 1.00
 0.22972831358000E+00 0.10000000000000E+01
 s    1 1.00
 0.95164440028000E-01 0.10000000000000E+01
 s    1 1.00
 0.48475401370000E-01 0.10000000000000E+01
 p    4 1.00
 0.34697232244000E+02 0.11327220003114E-01
 0.79582622826000E+01 0.76169659202087E-01
 0.23780826883000E+01 0.30192252202676E+00
 0.81433208183000E+00 0.72785027349547E+00
 p    1 1.00
 0.28887547253000E+00 0.10000000000000E+01
 p    1 1.00
 0.10056823671000E+00 0.10000000000000E+01
 d    1 1.00
 0.10970000000000E+01 0.10000000000000E+01
 d    1 1.00
 0.31800000000000E+00 0.10000000000000E+01
 d    1 1.00
 0.90985336424000E-01 0.10000000000000E+01
 f    1 1.00
 0.76100000000000E+00 0.10000000000000E+01
 
    7 0
 s    3 1.00
 0.34061341000000E+02 0.25439307208879E-01
 0.51235746000000E+01 0.19008594890375E+00
 0.11646626000000E+01 0.85244113011042E+00
 s    1 1.00
 0.32723041000000E+00 0.10000000000000E+01
 s    1 1.00
 0.10307241000000E+00 0.10000000000000E+01
 p    1 1.00
 0.80000000000000E+00 0.10000000000000E+01
 p    1 1.00
 0.95774129632000E-01 0.10000000000000E+01
 
    8 0
 s    3 1.00
 0.34061341000000E+02 0.25439307208879E-01
 0.51235746000000E+01 0.19008594890375E+00
 0.11646626000000E+01 0.85244113011042E+00
 s    1 1.00
 0.32723041000000E+00 0.10000000000000E+01
 s    1 1.00
 0.10307241000000E+00 0.10000000000000E+01
 p    1 1.00
 0.80000000000000E+00 0.10000000000000E+01
 p    1 1.00
 0.95774129632000E-01 0.10000000000000E+01
 
    9 0
 s    3 1.00
 0.34061341000000E+02 0.25439307208879E-01
 0.51235746000000E+01 0.19008594890375E+00
 0.11646626000000E+01 0.85244113011042E+00
 s    1 1.00
 0.32723041000000E+00 0.10000000000000E+01
 s    1 1.00
 0.10307241000000E+00 0.10000000000000E+01
 p    1 1.00
 0.80000000000000E+00 0.10000000000000E+01
 p    1 1.00
 0.95774129632000E-01 0.10000000000000E+01
 
   10 0
 s    3 1.00
 0.34061341000000E+02 0.25439307208879E-01
 0.51235746000000E+01 0.19008594890375E+00
 0.11646626000000E+01 0.85244113011042E+00
 s    1 1.00
 0.32723041000000E+00 0.10000000000000E+01
 s    1 1.00
 0.10307241000000E+00 0.10000000000000E+01
 p    1 1.00
 0.80000000000000E+00 0.10000000000000E+01
 p    1 1.00
 0.95774129632000E-01 0.10000000000000E+01
 
   11 0
 s    6 1.00
 0.19730800647000E+05 0.58626402628763E-03
 0.29578958745000E+04 0.45428820586397E-02
 0.67322133595000E+03 0.23558413450084E-01
 0.19068249494000E+03 0.94709193292923E-01
 0.62295441898000E+02 0.29719784913376E+00
 0.22654161182000E+02 0.66916246895232E+00
 s    2 1.00
 0.89791477428000E+01 0.64596683630063E+00
 0.36863002370000E+01 0.38700574393705E+00
 s    1 1.00
 0.84660076805000E+00 0.10000000000000E+01
 s    1 1.00
 0.33647133771000E+00 0.10000000000000E+01
 s    1 1.00
 0.13647653675000E+00 0.10000000000000E+01
 s    1 1.00
 0.68441605847000E-01 0.10000000000000E+01
 p    4 1.00
 0.49200380510000E+02 0.11448825101764E-01
 0.11346790537000E+02 0.78422337970864E-01
 0.34273972411000E+01 0.30818094738830E+00
 0.11785525134000E+01 0.72027196368413E+00
 p    1 1.00
 0.41642204972000E+00 0.10000000000000E+01
 p    1 1.00
 0.14260826011000E+00 0.10000000000000E+01
 d    1 1.00
 0.16540000000000E+01 0.10000000000000E+01
 d    1 1.00
 0.46900000000000E+00 0.10000000000000E+01
 d    1 1.00
 0.12829642058000E+00 0.10000000000000E+01
 f    1 1.00
 0.10930000000000E+01 0.10000000000000E+01
 
   12 0
 s    6 1.00
 0.27032382631000E+05 0.57227335211155E-03
 0.40523871392000E+04 0.44353233492995E-02
 0.92232722710000E+03 0.23020107706038E-01
 0.26124070989000E+03 0.92822490667928E-01
 0.85354641351000E+02 0.29378500009671E+00
 0.31035035245000E+02 0.67401604501641E+00
 s    2 1.00
 0.12260860728000E+02 0.63839937025506E+00
 0.49987076005000E+01 0.39534587125718E+00
 s    1 1.00
 0.11703108158000E+01 0.10000000000000E+01
 s    1 1.00
 0.46474740994000E+00 0.10000000000000E+01
 s    1 1.00
 0.18504536357000E+00 0.10000000000000E+01
 s    1 1.00
 0.70288026270000E-01 0.10000000000000E+01
 p    4 1.00
 0.63274954801000E+02 0.12018332222616E-01
 0.14627049379000E+02 0.83005421790056E-01
 0.44501223456000E+01 0.31991743925964E+00
 0.15275799647000E+01 0.70715542916104E+00
 p    1 1.00
 0.52935117943000E+00 0.10000000000000E+01
 p    1 1.00
 0.17478421270000E+00 0.10000000000000E+01
 p    1 1.00
 0.51112745706000E-01 0.10000000000000E+01
 d    1 1.00
 0.23140000000000E+01 0.10000000000000E+01
 d    1 1.00
 0.64500000000000E+00 0.10000000000000E+01
 d    1 1.00
 0.14696477366000E+00 0.10000000000000E+01
 f    1 1.00
 0.14280000000000E+01 0.10000000000000E+01
 
   13 0
 s    6 1.00
 0.27032382631000E+05 0.57227335211155E-03
 0.40523871392000E+04 0.44353233492995E-02
 0.92232722710000E+03 0.23020107706038E-01
 0.26124070989000E+03 0.92822490667928E-01
 0.85354641351000E+02 0.29378500009671E+00
 0.31035035245000E+02 0.67401604501641E+00
 s    2 1.00
 0.12260860728000E+02 0.63839937025506E+00
 0.49987076005000E+01 0.39534587125718E+00
 s    1 1.00
 0.11703108158000E+01 0.10000000000000E+01
 s    1 1.00
 0.46474740994000E+00 0.10000000000000E+01
 s    1 1.00
 0.18504536357000E+00 0.10000000000000E+01
 s    1 1.00
 0.70288026270000E-01 0.10000000000000E+01
 p    4 1.00
 0.63274954801000E+02 0.12018332222616E-01
 0.14627049379000E+02 0.83005421790056E-01
 0.44501223456000E+01 0.31991743925964E+00
 0.15275799647000E+01 0.70715542916104E+00
 p    1 1.00
 0.52935117943000E+00 0.10000000000000E+01
 p    1 1.00
 0.17478421270000E+00 0.10000000000000E+01
 p    1 1.00
 0.51112745706000E-01 0.10000000000000E+01
 d    1 1.00
 0.23140000000000E+01 0.10000000000000E+01
 d    1 1.00
 0.64500000000000E+00 0.10000000000000E+01
 d    1 1.00
 0.14696477366000E+00 0.10000000000000E+01
 f    1 1.00
 0.14280000000000E+01 0.10000000000000E+01
 
   14 0
 s    6 1.00
 0.19730800647000E+05 0.58626402628763E-03
 0.29578958745000E+04 0.45428820586397E-02
 0.67322133595000E+03 0.23558413450084E-01
 0.19068249494000E+03 0.94709193292923E-01
 0.62295441898000E+02 0.29719784913376E+00
 0.22654161182000E+02 0.66916246895232E+00
 s    2 1.00
 0.89791477428000E+01 0.64596683630063E+00
 0.36863002370000E+01 0.38700574393705E+00
 s    1 1.00
 0.84660076805000E+00 0.10000000000000E+01
 s    1 1.00
 0.33647133771000E+00 0.10000000000000E+01
 s    1 1.00
 0.13647653675000E+00 0.10000000000000E+01
 s    1 1.00
 0.68441605847000E-01 0.10000000000000E+01
 p    4 1.00
 0.49200380510000E+02 0.11448825101764E-01
 0.11346790537000E+02 0.78422337970864E-01
 0.34273972411000E+01 0.30818094738830E+00
 0.11785525134000E+01 0.72027196368413E+00
 p    1 1.00
 0.41642204972000E+00 0.10000000000000E+01
 p    1 1.00
 0.14260826011000E+00 0.10000000000000E+01
 d    1 1.00
 0.16540000000000E+01 0.10000000000000E+01
 d    1 1.00
 0.46900000000000E+00 0.10000000000000E+01
 d    1 1.00
 0.12829642058000E+00 0.10000000000000E+01
 f    1 1.00
 0.10930000000000E+01 0.10000000000000E+01
 
   15 0
 s    3 1.00
 0.34061341000000E+02 0.25439307208879E-01
 0.51235746000000E+01 0.19008594890375E+00
 0.11646626000000E+01 0.85244113011042E+00
 s    1 1.00
 0.32723041000000E+00 0.10000000000000E+01
 s    1 1.00
 0.10307241000000E+00 0.10000000000000E+01
 p    1 1.00
 0.80000000000000E+00 0.10000000000000E+01
 p    1 1.00
 0.95774129632000E-01 0.10000000000000E+01
 
   16 0
 s    3 1.00
 0.34061341000000E+02 0.25439307208879E-01
 0.51235746000000E+01 0.19008594890375E+00
 0.11646626000000E+01 0.85244113011042E+00
 s    1 1.00
 0.32723041000000E+00 0.10000000000000E+01
 s    1 1.00
 0.10307241000000E+00 0.10000000000000E+01
 p    1 1.00
 0.80000000000000E+00 0.10000000000000E+01
 p    1 1.00
 0.95774129632000E-01 0.10000000000000E+01
 
[MO]
 Sym= X
 Ene= -0.080507
 Spin= Alpha
 Occup= -0.080507
         1    8.447279E-05
         2    2.009358E-04
         3   -9.887745E-04
         4    4.375696E-03
         5   -2.621545E-02
         6    1.475790E-02
         7    6.507402E-04
         8    3.889626E-04
         9   -3.707128E-02
        10   -4.309391E-03
        11    7.292467E-04
        12   -3.509695E-02
        13   -3.580871E-02
        14    1.791590E-02
        15   -1.776025E-02
        16    5.213518E-05
        17   -2.775855E-05
        18   -2.437662E-05
        19   -1.404956E-05
        20   -6.383969E-03
        21    4.104383E-03
        22    8.551860E-04
        23   -5.095225E-04
        24   -3.456635E-04
        25    8.346910E-04
        26   -1.445742E-02
        27    7.695909E-03
        28    4.153376E-03
        29   -4.039208E-03
        30   -1.141678E-04
        31   -1.781348E-03
        32    3.029698E-03
        33   -8.250397E-03
        34   -3.227022E-05
        35    5.519533E-06
        36    1.723254E-04
        37    1.576024E-05
        38   -2.597445E-06
        39    6.847790E-04
        40    2.753481E-05
        41   -4.807785E-06
        42   -9.159778E-04
        43    7.307506E-04
        44   -1.229566E-04
        45   -2.740442E-04
        46    1.209020E-04
        47    4.266045E-03
        48    7.184683E-02
        49   -7.028814E-03
        50    1.488905E-03
        51    4.383043E-06
        52   -2.149679E-01
        53    3.149565E-04
        54    1.613715E-05
        55   -2.220663E-01
        56   -1.948917E-02
        57   -4.481950E-04
        58   -1.913582E-01
        59    1.243160E-05
        60   -1.425751E-05
        61    1.825909E-06
        62   -3.010763E-07
        63   -5.591956E-04
        64    1.640870E-06
        65   -4.120430E-04
        66    7.259678E-04
        67   -3.139248E-04
        68   -1.877565E-06
        69   -2.848183E-03
        70    3.237013E-06
        71   -1.440601E-02
        72    1.633704E-02
        73   -1.931021E-03
        74    8.323344E-05
        75    4.422009E-03
        76   -1.237765E-05
        77    1.818783E-05
        78    1.058222E-07
        79    1.279947E-03
        80   -1.546330E-05
        81   -6.105392E-08
        82   -7.793314E-04
        83   -8.938238E-06
        84   -8.092145E-08
        85   -9.378971E-04
        86   -2.195380E-07
        87    8.610831E-05
        88    2.046731E-04
        89   -9.964804E-04
        90    4.379526E-03
        91   -2.728413E-02
        92    1.473782E-02
        93    6.391626E-04
        94   -3.867239E-04
        95   -3.715739E-02
        96   -4.298269E-03
        97   -7.212248E-04
        98   -3.518415E-02
        99   -3.601806E-02
       100   -1.832147E-02
       101   -1.783253E-02
       102    5.248063E-05
       103   -2.822973E-05
       104   -2.425090E-05
       105    1.403387E-05
       106   -6.381857E-03
       107   -4.104689E-03
       108    8.527653E-04
       109   -5.064524E-04
       110   -3.463130E-04
       111   -8.322906E-04
       112   -1.445248E-02
       113   -7.695602E-03
       114    4.238715E-03
       115   -4.135802E-03
       116   -1.029136E-04
       117    1.696002E-03
       118    3.019485E-03
       119    8.246573E-03
       120   -3.229308E-05
       121   -5.515609E-06
       122    1.728573E-04
       123    1.582637E-05
       124    2.613923E-06
       125    6.841506E-04
       126    2.749935E-05
       127    4.786044E-06
       128   -9.160629E-04
       129   -7.307262E-04
       130    9.315642E-05
       131    2.224694E-04
       132   -1.438797E-03
       133    1.140442E-02
       134   -1.055520E-02
       135   -1.789582E-02
       136    2.482140E-04
       137   -1.763466E-04
       138    1.573673E-01
       139   -9.951124E-03
       140    6.941753E-03
       141    1.596563E-01
       142   -1.241987E-02
       143   -9.343720E-03
       144    1.004190E-01
       145   -7.768523E-05
       146    8.884823E-05
       147   -1.116300E-05
       148    4.741510E-06
       149   -1.512228E-03
       150    3.459135E-03
       151   -7.577639E-04
       152    8.250605E-04
       153   -6.729659E-05
       154   -2.015209E-03
       155   -5.586772E-03
       156    5.767535E-03
       157   -9.316655E-03
       158    7.030436E-03
       159    2.286219E-03
       160    1.424426E-02
       161    3.871822E-03
       162   -9.453354E-03
       163   -2.344720E-05
       164    1.487809E-06
       165   -9.192243E-04
       166   -1.040556E-05
       167    3.032597E-05
       168    1.935122E-04
       169    4.186328E-05
       170   -3.232208E-05
       171    1.039757E-03
       172   -4.248614E-04
       173    1.338288E-03
       174    3.047703E-03
       175   -2.936100E-03
       176   -2.853018E-02
       177    5.435443E-02
       178   -7.776513E-03
       179    6.066020E-03
       180    2.552483E-06
       181    1.437834E-01
       182   -2.796230E-03
       183   -2.421719E-06
       184    1.461862E-01
       185   -4.898626E-02
       186    6.001536E-04
       187    1.338806E-01
       188   -3.818007E-04
       189    1.384676E-04
       190    2.433330E-04
       191   -9.157618E-08
       192    8.965856E-03
       193    1.745353E-06
       194    2.373277E-03
       195   -5.162837E-03
       196    2.789559E-03
       197   -8.141570E-07
       198    2.263167E-02
       199    2.561766E-06
       200    8.233952E-03
       201   -9.355215E-03
       202    1.121263E-03
       203    1.331937E-04
       204    1.488749E-02
       205    6.050353E-06
       206    1.170250E-04
       207    4.129391E-08
       208   -5.861378E-04
       209   -9.820513E-05
       210   -5.480361E-08
       211   -7.681908E-04
       212   -5.880043E-05
       213   -5.979855E-10
       214    1.554577E-03
       215    2.181719E-07
       216    9.411017E-05
       217    2.246595E-04
       218   -1.441924E-03
       219    1.140471E-02
       220   -1.197010E-02
       221   -1.788417E-02
       222    2.406049E-04
       223    1.756641E-04
       224    1.574563E-01
       225   -9.962749E-03
       226   -6.944423E-03
       227    1.597491E-01
       228   -1.219546E-02
       229    9.931759E-03
       230    1.004556E-01
       231   -7.777787E-05
       232    8.913710E-05
       233   -1.135923E-05
       234   -4.700378E-06
       235   -1.510196E-03
       236   -3.459379E-03
       237   -7.610668E-04
       238    8.280312E-04
       239   -6.696442E-05
       240    2.016640E-03
       241   -5.582611E-03
       242   -5.767747E-03
       243   -9.236103E-03
       244    6.947298E-03
       245    2.288805E-03
       246   -1.433092E-02
       247    3.881653E-03
       248    9.462917E-03
       249   -2.355462E-05
       250   -1.534448E-06
       251   -9.198818E-04
       252   -1.042650E-05
       253   -3.026853E-05
       254    1.942244E-04
       255    4.202834E-05
       256    3.232721E-05
       257    1.039927E-03
       258    4.248722E-04
       259    1.701591E-04
       260   -3.109932E-04
       261    1.936937E-02
       262   -3.754080E-05
       263    5.988805E-05
       264   -1.502956E-03
       265   -6.485487E-03
       266   -5.764627E-04
       267    4.188961E-03
       268    1.654997E-04
       269   -3.221383E-04
       270    1.935072E-02
       271   -3.648633E-05
       272   -6.125910E-05
       273   -1.506461E-03
       274   -6.563102E-03
       275    5.446600E-04
       276    4.190665E-03
       277    2.632134E-07
       278    2.212938E-03
       279   -4.511804E-02
       280   -4.113426E-06
       281    3.729537E-05
       282    6.435023E-03
       283   -8.569616E-04
       284   -3.916362E-03
       285    1.586073E-03
       286    1.173865E-06
       287    2.210329E-03
       288   -4.525182E-02
       289   -4.342745E-06
       290   -3.706634E-05
       291    6.439076E-03
       292   -8.197270E-04
       293    3.950769E-03
       294    1.587382E-03
       295   -5.027302E-05
       296   -1.265134E-04
       297    2.636544E-04
       298    4.717219E-04
       299    1.068754E-02
       300   -1.024403E-03
       301   -3.353774E-05
       302    3.836001E-06
       303   -3.913742E-02
       304   -4.440185E-04
       305    2.816118E-06
       306   -3.991850E-02
       307   -4.729078E-03
       308   -1.269485E-06
       309   -1.020698E-02
       310    8.918758E-05
       311   -1.113504E-04
       312    2.216287E-05
       313    1.155733E-06
       314    3.951267E-03
       315   -5.457705E-07
       316    3.012858E-04
       317   -3.956051E-04
       318    9.431933E-05
       319    3.233717E-06
       320    1.230171E-02
       321   -1.495493E-06
       322    5.333443E-04
       323   -3.349126E-03
       324    2.815782E-03
       325   -1.297378E-05
       326    4.155183E-03
       327    3.168863E-06
       328    7.999762E-06
       329   -2.672536E-07
       330    1.849320E-04
       331   -4.258904E-06
       332    3.848454E-07
       333   -7.485415E-04
       334   -6.473904E-06
       335   -2.628704E-08
       336    5.004292E-04
       337   -1.248097E-07
       338    4.160023E-05
       339    9.864563E-05
       340   -9.056203E-05
       341   -6.918867E-04
       342    7.587137E-03
       343    1.957270E-03
       344    2.793200E-03
       345    1.058827E-03
       346    5.545350E-02
       347    2.298864E-03
       348    1.140409E-03
       349    5.183733E-02
       350    5.502191E-04
       351    1.354629E-03
       352    4.513193E-02
       353   -1.673242E-04
       354    3.926345E-04
       355    5.636961E-03
       356   -1.910074E-05
       357    1.630984E-05
       358    2.790894E-06
       359    2.011880E-05
       360    1.776932E-04
       361    1.459163E-04
       362   -4.413691E-05
       363    5.314956E-05
       364   -9.012646E-06
       365    3.496217E-05
       366    4.559413E-05
       367    6.090977E-04
       368    1.113086E-05
       369    3.689734E-05
       370   -4.802820E-05
       371    5.794196E-05
       372   -4.251763E-04
       373   -1.058380E-04
       374   -7.189181E-07
       375    9.126681E-06
       376    5.465577E-06
       377    2.826619E-06
       378   -1.153193E-05
       379   -8.094947E-05
       380   -1.862090E-06
       381   -7.127946E-07
       382    7.361663E-05
       383   -4.368926E-05
       384    4.162808E-05
       385    9.868682E-05
       386   -9.072608E-05
       387   -6.936042E-04
       388    7.601497E-03
       389    1.937817E-03
       390    2.858720E-03
       391   -1.113568E-03
       392    5.542126E-02
       393    2.358023E-03
       394   -1.188376E-03
       395    5.180799E-02
       396    6.040742E-04
       397   -1.393746E-03
       398    4.510377E-02
       399   -1.516298E-04
       400   -4.001658E-04
       401    5.635392E-03
       402   -1.961236E-05
       403    1.696772E-05
       404    2.644641E-06
       405   -2.010940E-05
       406    1.778138E-04
       407   -1.456639E-04
       408   -4.589999E-05
       409    5.495906E-05
       410   -9.059068E-06
       411   -3.538830E-05
       412    4.616676E-05
       413   -6.080724E-04
       414    9.557564E-06
       415    3.795493E-05
       416   -4.751249E-05
       417   -5.793368E-05
       418   -4.248027E-04
       419    1.072239E-04
       420   -6.673863E-07
       421   -9.316216E-06
       422    5.505369E-06
       423    2.726989E-06
       424    1.175395E-05
       425   -8.092487E-05
       426   -1.831597E-06
       427    7.450611E-07
       428    7.353864E-05
       429    4.360191E-05
       430   -6.362762E-03
       431   -1.509645E-02
       432    2.333505E-02
       433    3.791643E-02
       434    1.675796E-02
       435    8.374165E-02
       436   -1.775570E-02
       437    4.647817E-06
       438   -2.181865E-01
       439   -2.111527E-02
       440    8.543334E-08
       441   -2.155898E-01
       442   -2.453737E-02
       443   -5.689637E-05
       444   -1.816842E-01
       445    2.269863E-04
       446   -4.415196E-05
       447   -1.828343E-04
       448   -6.327569E-08
       449    1.348213E-03
       450    1.935522E-07
       451    5.079603E-04
       452    1.761963E-03
       453   -2.269923E-03
       454    2.056608E-06
       455    4.797328E-03
       456    4.251754E-07
       457    3.061031E-03
       458    4.368594E-03
       459   -7.429624E-03
       460    5.456776E-06
       461    2.852278E-03
       462    2.339068E-07
       463   -1.704808E-04
       464    1.336375E-08
       465    7.563794E-04
       466   -1.073012E-04
       467    2.428498E-08
       468   -3.015080E-04
       469    3.360252E-04
       470   -4.221432E-08
       471   -7.132814E-04
       472    5.980586E-08
       473   -1.258277E-02
       474   -2.387909E-02
       475   -4.293294E-02
       476   -2.597484E-03
       477   -2.389443E-03
       478   -1.109403E-02
       479    1.003887E-03
       480   -4.735759E-03
       481   -1.436022E-02
       482   -1.258034E-02
       483   -2.383965E-02
       484   -4.273494E-02
       485   -2.595114E-03
       486    2.386175E-03
       487   -1.109611E-02
       488    1.038924E-03
       489    4.713789E-03
       490   -1.437021E-02
 Sym= X
 Ene= -0.763318
 Spin= Alpha
 Occup= -0.763318
         1   -5.115494E-04
         2   -1.169258E-03
         3    2.411711E-03
         4   -1.557242E-03
         5    2.177935E-02
         6   -1.532962E-02
         7   -9.023569E-03
         8   -1.328194E-03
         9   -1.417411E-01
        10   -2.134648E-03
        11   -1.728496E-03
        12   -1.398800E-01
        13    2.917717E-02
        14   -3.745723E-03
        15   -4.998205E-02
        16    2.370938E-04
        17   -2.196875E-04
        18   -1.740633E-05
        19   -1.113836E-04
        20   -3.218117E-04
        21    4.392194E-03
        22   -4.526032E-04
        23    2.714208E-04
        24    1.811824E-04
        25   -1.137460E-03
        26   -1.211370E-03
        27    7.224194E-03
        28   -1.793573E-03
        29    1.351321E-03
        30    4.422520E-04
        31    2.657379E-03
        32   -6.695652E-03
        33    3.771755E-03
        34    1.476372E-06
        35   -2.034943E-05
        36    1.187418E-03
        37   -7.585823E-07
        38    1.790415E-05
        39   -6.551684E-04
        40   -1.222179E-06
        41    9.397475E-06
        42   -9.379206E-04
        43    4.748007E-04
        44    3.062409E-04
        45    6.818205E-04
        46   -4.715935E-04
        47   -7.229374E-03
        48   -2.198312E-02
        49    1.299654E-02
        50    1.618602E-03
        51   -4.399677E-06
        52   -2.047287E-01
        53    2.611446E-03
        54    7.835769E-06
        55   -2.067271E-01
        56    8.332679E-03
        57    4.492922E-04
        58   -7.090352E-02
        59    2.921837E-04
        60   -2.968612E-04
        61    4.677445E-06
        62    2.136096E-07