[Molden Format]
[Title]
ADC(2) - opt by CAM-B3LYP gaussian                                              
[Atoms] AU
 c     1    6 0.12592752280008E+01 0.22800132789445E+01 -.35345910021030E-01
 c     2    6 0.25511638220345E+01 0.20078340100000E-05 -.33671612667290E-01
 c     3    6 0.12592790074531E+01 -.22800111530026E+01 -.35357248377820E-01
 c     4    6 -.13364450292264E+01 -.22798221803893E+01 -.38530098554940E-01
 c     5    6 -.26857699593430E+01 -.17716182500000E-05 -.39025206801750E-01
 c     6    6 -.13364469189525E+01 0.22798205268790E+01 -.38516870472010E-01
 h     7    1 0.23055183220207E+01 0.40307538342087E+01 -.32265656424420E-01
 h     8    1 0.23055239911991E+01 -.40307498185407E+01 -.32284553685750E-01
 h     9    1 -.23548467881305E+01 -.40530977197882E+01 -.43619131030800E-01
 h    10    1 -.23548543470350E+01 0.40530922868255E+01 -.43594564591070E-01
 n    11    7 0.52860567397703E+01 0.11810788000000E-06 -.26776002008390E-01
 o    12    8 0.63771222479361E+01 -.20280728649663E+01 -.23850705954680E-01
 o    13    8 0.63771260273883E+01 0.20280712114559E+01 -.23882831298940E-01
 n    14    7 -.52615573853205E+01 0.11810788000000E-06 -.10505223788478E+00
 h    15    1 -.61955753134867E+01 -.16086254730588E+01 0.27588253543458E+00
 h    16    1 -.61955696443083E+01 0.16086275990006E+01 0.27589009433911E+00
[GTO]
    1 0
 s    6 1.00
 0.13575349682000E+05 0.60645503603591E-03
 0.20352333680000E+04 0.46979088884982E-02
 0.46322562359000E+03 0.24332477647552E-01
 0.13120019598000E+03 0.97399968307759E-01
 0.42853015891000E+02 0.30195584253780E+00
 0.15584185766000E+02 0.66233609137875E+00
 s    2 1.00
 0.62067138508000E+01 0.65595308539952E+00
 0.25764896527000E+01 0.37585633285142E+00
 s    1 1.00
 0.57696339419000E+00 0.10000000000000E+01
 s    1 1.00
 0.22972831358000E+00 0.10000000000000E+01
 s    1 1.00
 0.95164440028000E-01 0.10000000000000E+01
 s    1 1.00
 0.48475401370000E-01 0.10000000000000E+01
 p    4 1.00
 0.34697232244000E+02 0.11327220003114E-01
 0.79582622826000E+01 0.76169659202087E-01
 0.23780826883000E+01 0.30192252202676E+00
 0.81433208183000E+00 0.72785027349547E+00
 p    1 1.00
 0.28887547253000E+00 0.10000000000000E+01
 p    1 1.00
 0.10056823671000E+00 0.10000000000000E+01
 d    1 1.00
 0.10970000000000E+01 0.10000000000000E+01
 d    1 1.00
 0.31800000000000E+00 0.10000000000000E+01
 d    1 1.00
 0.90985336424000E-01 0.10000000000000E+01
 f    1 1.00
 0.76100000000000E+00 0.10000000000000E+01
 
    2 0
 s    6 1.00
 0.13575349682000E+05 0.60645503603591E-03
 0.20352333680000E+04 0.46979088884982E-02
 0.46322562359000E+03 0.24332477647552E-01
 0.13120019598000E+03 0.97399968307759E-01
 0.42853015891000E+02 0.30195584253780E+00
 0.15584185766000E+02 0.66233609137875E+00
 s    2 1.00
 0.62067138508000E+01 0.65595308539952E+00
 0.25764896527000E+01 0.37585633285142E+00
 s    1 1.00
 0.57696339419000E+00 0.10000000000000E+01
 s    1 1.00
 0.22972831358000E+00 0.10000000000000E+01
 s    1 1.00
 0.95164440028000E-01 0.10000000000000E+01
 s    1 1.00
 0.48475401370000E-01 0.10000000000000E+01
 p    4 1.00
 0.34697232244000E+02 0.11327220003114E-01
 0.79582622826000E+01 0.76169659202087E-01
 0.23780826883000E+01 0.30192252202676E+00
 0.81433208183000E+00 0.72785027349547E+00
 p    1 1.00
 0.28887547253000E+00 0.10000000000000E+01
 p    1 1.00
 0.10056823671000E+00 0.10000000000000E+01
 d    1 1.00
 0.10970000000000E+01 0.10000000000000E+01
 d    1 1.00
 0.31800000000000E+00 0.10000000000000E+01
 d    1 1.00
 0.90985336424000E-01 0.10000000000000E+01
 f    1 1.00
 0.76100000000000E+00 0.10000000000000E+01
 
    3 0
 s    6 1.00
 0.13575349682000E+05 0.60645503603591E-03
 0.20352333680000E+04 0.46979088884982E-02
 0.46322562359000E+03 0.24332477647552E-01
 0.13120019598000E+03 0.97399968307759E-01
 0.42853015891000E+02 0.30195584253780E+00
 0.15584185766000E+02 0.66233609137875E+00
 s    2 1.00
 0.62067138508000E+01 0.65595308539952E+00
 0.25764896527000E+01 0.37585633285142E+00
 s    1 1.00
 0.57696339419000E+00 0.10000000000000E+01
 s    1 1.00
 0.22972831358000E+00 0.10000000000000E+01
 s    1 1.00
 0.95164440028000E-01 0.10000000000000E+01
 s    1 1.00
 0.48475401370000E-01 0.10000000000000E+01
 p    4 1.00
 0.34697232244000E+02 0.11327220003114E-01
 0.79582622826000E+01 0.76169659202087E-01
 0.23780826883000E+01 0.30192252202676E+00
 0.81433208183000E+00 0.72785027349547E+00
 p    1 1.00
 0.28887547253000E+00 0.10000000000000E+01
 p    1 1.00
 0.10056823671000E+00 0.10000000000000E+01
 d    1 1.00
 0.10970000000000E+01 0.10000000000000E+01
 d    1 1.00
 0.31800000000000E+00 0.10000000000000E+01
 d    1 1.00
 0.90985336424000E-01 0.10000000000000E+01
 f    1 1.00
 0.76100000000000E+00 0.10000000000000E+01
 
    4 0
 s    6 1.00
 0.13575349682000E+05 0.60645503603591E-03
 0.20352333680000E+04 0.46979088884982E-02
 0.46322562359000E+03 0.24332477647552E-01
 0.13120019598000E+03 0.97399968307759E-01
 0.42853015891000E+02 0.30195584253780E+00
 0.15584185766000E+02 0.66233609137875E+00
 s    2 1.00
 0.62067138508000E+01 0.65595308539952E+00
 0.25764896527000E+01 0.37585633285142E+00
 s    1 1.00
 0.57696339419000E+00 0.10000000000000E+01
 s    1 1.00
 0.22972831358000E+00 0.10000000000000E+01
 s    1 1.00
 0.95164440028000E-01 0.10000000000000E+01
 s    1 1.00
 0.48475401370000E-01 0.10000000000000E+01
 p    4 1.00
 0.34697232244000E+02 0.11327220003114E-01
 0.79582622826000E+01 0.76169659202087E-01
 0.23780826883000E+01 0.30192252202676E+00
 0.81433208183000E+00 0.72785027349547E+00
 p    1 1.00
 0.28887547253000E+00 0.10000000000000E+01
 p    1 1.00
 0.10056823671000E+00 0.10000000000000E+01
 d    1 1.00
 0.10970000000000E+01 0.10000000000000E+01
 d    1 1.00
 0.31800000000000E+00 0.10000000000000E+01
 d    1 1.00
 0.90985336424000E-01 0.10000000000000E+01
 f    1 1.00
 0.76100000000000E+00 0.10000000000000E+01
 
    5 0
 s    6 1.00
 0.13575349682000E+05 0.60645503603591E-03
 0.20352333680000E+04 0.46979088884982E-02
 0.46322562359000E+03 0.24332477647552E-01
 0.13120019598000E+03 0.97399968307759E-01
 0.42853015891000E+02 0.30195584253780E+00
 0.15584185766000E+02 0.66233609137875E+00
 s    2 1.00
 0.62067138508000E+01 0.65595308539952E+00
 0.25764896527000E+01 0.37585633285142E+00
 s    1 1.00
 0.57696339419000E+00 0.10000000000000E+01
 s    1 1.00
 0.22972831358000E+00 0.10000000000000E+01
 s    1 1.00
 0.95164440028000E-01 0.10000000000000E+01
 s    1 1.00
 0.48475401370000E-01 0.10000000000000E+01
 p    4 1.00
 0.34697232244000E+02 0.11327220003114E-01
 0.79582622826000E+01 0.76169659202087E-01
 0.23780826883000E+01 0.30192252202676E+00
 0.81433208183000E+00 0.72785027349547E+00
 p    1 1.00
 0.28887547253000E+00 0.10000000000000E+01
 p    1 1.00
 0.10056823671000E+00 0.10000000000000E+01
 d    1 1.00
 0.10970000000000E+01 0.10000000000000E+01
 d    1 1.00
 0.31800000000000E+00 0.10000000000000E+01
 d    1 1.00
 0.90985336424000E-01 0.10000000000000E+01
 f    1 1.00
 0.76100000000000E+00 0.10000000000000E+01
 
    6 0
 s    6 1.00
 0.13575349682000E+05 0.60645503603591E-03
 0.20352333680000E+04 0.46979088884982E-02
 0.46322562359000E+03 0.24332477647552E-01
 0.13120019598000E+03 0.97399968307759E-01
 0.42853015891000E+02 0.30195584253780E+00
 0.15584185766000E+02 0.66233609137875E+00
 s    2 1.00
 0.62067138508000E+01 0.65595308539952E+00
 0.25764896527000E+01 0.37585633285142E+00
 s    1 1.00
 0.57696339419000E+00 0.10000000000000E+01
 s    1 1.00
 0.22972831358000E+00 0.10000000000000E+01
 s    1 1.00
 0.95164440028000E-01 0.10000000000000E+01
 s    1 1.00
 0.48475401370000E-01 0.10000000000000E+01
 p    4 1.00
 0.34697232244000E+02 0.11327220003114E-01
 0.79582622826000E+01 0.76169659202087E-01
 0.23780826883000E+01 0.30192252202676E+00
 0.81433208183000E+00 0.72785027349547E+00
 p    1 1.00
 0.28887547253000E+00 0.10000000000000E+01
 p    1 1.00
 0.10056823671000E+00 0.10000000000000E+01
 d    1 1.00
 0.10970000000000E+01 0.10000000000000E+01
 d    1 1.00
 0.31800000000000E+00 0.10000000000000E+01
 d    1 1.00
 0.90985336424000E-01 0.10000000000000E+01
 f    1 1.00
 0.76100000000000E+00 0.10000000000000E+01
 
    7 0
 s    3 1.00
 0.34061341000000E+02 0.25439307208879E-01
 0.51235746000000E+01 0.19008594890375E+00
 0.11646626000000E+01 0.85244113011042E+00
 s    1 1.00
 0.32723041000000E+00 0.10000000000000E+01
 s    1 1.00
 0.10307241000000E+00 0.10000000000000E+01
 p    1 1.00
 0.80000000000000E+00 0.10000000000000E+01
 p    1 1.00
 0.95774129632000E-01 0.10000000000000E+01
 
    8 0
 s    3 1.00
 0.34061341000000E+02 0.25439307208879E-01
 0.51235746000000E+01 0.19008594890375E+00
 0.11646626000000E+01 0.85244113011042E+00
 s    1 1.00
 0.32723041000000E+00 0.10000000000000E+01
 s    1 1.00
 0.10307241000000E+00 0.10000000000000E+01
 p    1 1.00
 0.80000000000000E+00 0.10000000000000E+01
 p    1 1.00
 0.95774129632000E-01 0.10000000000000E+01
 
    9 0
 s    3 1.00
 0.34061341000000E+02 0.25439307208879E-01
 0.51235746000000E+01 0.19008594890375E+00
 0.11646626000000E+01 0.85244113011042E+00
 s    1 1.00
 0.32723041000000E+00 0.10000000000000E+01
 s    1 1.00
 0.10307241000000E+00 0.10000000000000E+01
 p    1 1.00
 0.80000000000000E+00 0.10000000000000E+01
 p    1 1.00
 0.95774129632000E-01 0.10000000000000E+01
 
   10 0
 s    3 1.00
 0.34061341000000E+02 0.25439307208879E-01
 0.51235746000000E+01 0.19008594890375E+00
 0.11646626000000E+01 0.85244113011042E+00
 s    1 1.00
 0.32723041000000E+00 0.10000000000000E+01
 s    1 1.00
 0.10307241000000E+00 0.10000000000000E+01
 p    1 1.00
 0.80000000000000E+00 0.10000000000000E+01
 p    1 1.00
 0.95774129632000E-01 0.10000000000000E+01
 
   11 0
 s    6 1.00
 0.19730800647000E+05 0.58626402628763E-03
 0.29578958745000E+04 0.45428820586397E-02
 0.67322133595000E+03 0.23558413450084E-01
 0.19068249494000E+03 0.94709193292923E-01
 0.62295441898000E+02 0.29719784913376E+00
 0.22654161182000E+02 0.66916246895232E+00
 s    2 1.00
 0.89791477428000E+01 0.64596683630063E+00
 0.36863002370000E+01 0.38700574393705E+00
 s    1 1.00
 0.84660076805000E+00 0.10000000000000E+01
 s    1 1.00
 0.33647133771000E+00 0.10000000000000E+01
 s    1 1.00
 0.13647653675000E+00 0.10000000000000E+01
 s    1 1.00
 0.68441605847000E-01 0.10000000000000E+01
 p    4 1.00
 0.49200380510000E+02 0.11448825101764E-01
 0.11346790537000E+02 0.78422337970864E-01
 0.34273972411000E+01 0.30818094738830E+00
 0.11785525134000E+01 0.72027196368413E+00
 p    1 1.00
 0.41642204972000E+00 0.10000000000000E+01
 p    1 1.00
 0.14260826011000E+00 0.10000000000000E+01
 d    1 1.00
 0.16540000000000E+01 0.10000000000000E+01
 d    1 1.00
 0.46900000000000E+00 0.10000000000000E+01
 d    1 1.00
 0.12829642058000E+00 0.10000000000000E+01
 f    1 1.00
 0.10930000000000E+01 0.10000000000000E+01
 
   12 0
 s    6 1.00
 0.27032382631000E+05 0.57227335211155E-03
 0.40523871392000E+04 0.44353233492995E-02
 0.92232722710000E+03 0.23020107706038E-01
 0.26124070989000E+03 0.92822490667928E-01
 0.85354641351000E+02 0.29378500009671E+00
 0.31035035245000E+02 0.67401604501641E+00
 s    2 1.00
 0.12260860728000E+02 0.63839937025506E+00
 0.49987076005000E+01 0.39534587125718E+00
 s    1 1.00
 0.11703108158000E+01 0.10000000000000E+01
 s    1 1.00
 0.46474740994000E+00 0.10000000000000E+01
 s    1 1.00
 0.18504536357000E+00 0.10000000000000E+01
 s    1 1.00
 0.70288026270000E-01 0.10000000000000E+01
 p    4 1.00
 0.63274954801000E+02 0.12018332222616E-01
 0.14627049379000E+02 0.83005421790056E-01
 0.44501223456000E+01 0.31991743925964E+00
 0.15275799647000E+01 0.70715542916104E+00
 p    1 1.00
 0.52935117943000E+00 0.10000000000000E+01
 p    1 1.00
 0.17478421270000E+00 0.10000000000000E+01
 p    1 1.00
 0.51112745706000E-01 0.10000000000000E+01
 d    1 1.00
 0.23140000000000E+01 0.10000000000000E+01
 d    1 1.00
 0.64500000000000E+00 0.10000000000000E+01
 d    1 1.00
 0.14696477366000E+00 0.10000000000000E+01
 f    1 1.00
 0.14280000000000E+01 0.10000000000000E+01
 
   13 0
 s    6 1.00
 0.27032382631000E+05 0.57227335211155E-03
 0.40523871392000E+04 0.44353233492995E-02
 0.92232722710000E+03 0.23020107706038E-01
 0.26124070989000E+03 0.92822490667928E-01
 0.85354641351000E+02 0.29378500009671E+00
 0.31035035245000E+02 0.67401604501641E+00
 s    2 1.00
 0.12260860728000E+02 0.63839937025506E+00
 0.49987076005000E+01 0.39534587125718E+00
 s    1 1.00
 0.11703108158000E+01 0.10000000000000E+01
 s    1 1.00
 0.46474740994000E+00 0.10000000000000E+01
 s    1 1.00
 0.18504536357000E+00 0.10000000000000E+01
 s    1 1.00
 0.70288026270000E-01 0.10000000000000E+01
 p    4 1.00
 0.63274954801000E+02 0.12018332222616E-01
 0.14627049379000E+02 0.83005421790056E-01
 0.44501223456000E+01 0.31991743925964E+00
 0.15275799647000E+01 0.70715542916104E+00
 p    1 1.00
 0.52935117943000E+00 0.10000000000000E+01
 p    1 1.00
 0.17478421270000E+00 0.10000000000000E+01
 p    1 1.00
 0.51112745706000E-01 0.10000000000000E+01
 d    1 1.00
 0.23140000000000E+01 0.10000000000000E+01
 d    1 1.00
 0.64500000000000E+00 0.10000000000000E+01
 d    1 1.00
 0.14696477366000E+00 0.10000000000000E+01
 f    1 1.00
 0.14280000000000E+01 0.10000000000000E+01
 
   14 0
 s    6 1.00
 0.19730800647000E+05 0.58626402628763E-03
 0.29578958745000E+04 0.45428820586397E-02
 0.67322133595000E+03 0.23558413450084E-01
 0.19068249494000E+03 0.94709193292923E-01
 0.62295441898000E+02 0.29719784913376E+00
 0.22654161182000E+02 0.66916246895232E+00
 s    2 1.00
 0.89791477428000E+01 0.64596683630063E+00
 0.36863002370000E+01 0.38700574393705E+00
 s    1 1.00
 0.84660076805000E+00 0.10000000000000E+01
 s    1 1.00
 0.33647133771000E+00 0.10000000000000E+01
 s    1 1.00
 0.13647653675000E+00 0.10000000000000E+01
 s    1 1.00
 0.68441605847000E-01 0.10000000000000E+01
 p    4 1.00
 0.49200380510000E+02 0.11448825101764E-01
 0.11346790537000E+02 0.78422337970864E-01
 0.34273972411000E+01 0.30818094738830E+00
 0.11785525134000E+01 0.72027196368413E+00
 p    1 1.00
 0.41642204972000E+00 0.10000000000000E+01
 p    1 1.00
 0.14260826011000E+00 0.10000000000000E+01
 d    1 1.00
 0.16540000000000E+01 0.10000000000000E+01
 d    1 1.00
 0.46900000000000E+00 0.10000000000000E+01
 d    1 1.00
 0.12829642058000E+00 0.10000000000000E+01
 f    1 1.00
 0.10930000000000E+01 0.10000000000000E+01
 
   15 0
 s    3 1.00
 0.34061341000000E+02 0.25439307208879E-01
 0.51235746000000E+01 0.19008594890375E+00
 0.11646626000000E+01 0.85244113011042E+00
 s    1 1.00
 0.32723041000000E+00 0.10000000000000E+01
 s    1 1.00
 0.10307241000000E+00 0.10000000000000E+01
 p    1 1.00
 0.80000000000000E+00 0.10000000000000E+01
 p    1 1.00
 0.95774129632000E-01 0.10000000000000E+01
 
   16 0
 s    3 1.00
 0.34061341000000E+02 0.25439307208879E-01
 0.51235746000000E+01 0.19008594890375E+00
 0.11646626000000E+01 0.85244113011042E+00
 s    1 1.00
 0.32723041000000E+00 0.10000000000000E+01
 s    1 1.00
 0.10307241000000E+00 0.10000000000000E+01
 p    1 1.00
 0.80000000000000E+00 0.10000000000000E+01
 p    1 1.00
 0.95774129632000E-01 0.10000000000000E+01
 
[MO]
 Sym= X
 Ene= -0.073965
 Spin= Alpha
 Occup= -0.073965
         1   -4.646891E-04
         2   -1.065994E-03
         3    2.262902E-03
         4   -1.586328E-03
         5    2.758003E-02
         6   -1.582296E-02
         7   -6.725382E-03
         8   -9.307963E-04
         9   -1.309335E-01
        10   -2.090074E-04
        11   -1.440576E-03
        12   -1.293219E-01
        13    3.113111E-02
        14   -3.513417E-03
        15   -4.798442E-02
        16    1.599987E-04
        17   -1.463594E-04
        18   -1.363931E-05
        19   -8.488072E-05
        20   -1.005845E-03
        21    4.347144E-03
        22   -5.396965E-04
        23    3.522143E-04
        24    1.874821E-04
        25   -1.172740E-03
        26   -2.637057E-03
        27    7.226011E-03
        28   -1.744074E-03
        29    1.258326E-03
        30    4.857481E-04
        31    3.049600E-03
        32   -6.576249E-03
        33    4.666290E-03
        34    7.656469E-06
        35   -1.823969E-05
        36    1.072847E-03
        37    1.904375E-07
        38    1.643366E-05
        39   -5.055207E-04
        40   -1.046267E-05
        41    8.037443E-06
        42   -9.338543E-04
        43    5.115285E-04
        44    3.036476E-04
        45    6.732151E-04
        46   -4.345263E-04
        47   -7.454128E-03
        48   -2.331160E-02
        49    1.338983E-02
        50    6.590976E-04
        51   -4.363739E-06
        52   -2.050053E-01
        53    2.037359E-03
        54    6.853871E-06
        55   -2.078841E-01
        56    9.525436E-03
        57    3.925430E-04
        58   -7.516100E-02
        59    1.826674E-04
        60   -1.967120E-04
        61    1.404465E-05
        62    2.143922E-07
        63    2.985462E-03
        64   -7.369510E-07
        65    8.309115E-04
        66   -1.226616E-03
        67    3.957041E-04
        68   -2.078325E-06
        69    4.766611E-03
        70   -1.785794E-06
        71    2.004338E-02
        72   -2.081629E-02
        73    7.729120E-04
        74   -4.420444E-05
        75    7.749879E-03
        76    1.111386E-05
        77   -5.499529E-06
        78    6.593497E-08
        79    1.545012E-03
        80    2.009980E-05
        81   -2.491173E-08
        82   -7.324633E-04
        83   -1.272141E-05
        84   -6.354932E-08
        85   -1.340387E-03
        86    1.066820E-07
        87   -4.649562E-04
        88   -1.066604E-03
        89    2.263126E-03
        90   -1.588759E-03
        91    2.885762E-02
        92   -1.586268E-02
        93   -6.725195E-03
        94    9.392834E-04
        95   -1.308938E-01
        96   -2.048403E-04
        97    1.459529E-03
        98   -1.292834E-01
        99    3.106892E-02
       100    3.966309E-03
       101   -4.793418E-02
       102    1.598229E-04
       103   -1.462340E-04
       104   -1.358891E-05
       105    8.546400E-05
       106   -1.006826E-03
       107   -4.347134E-03
       108   -5.389172E-04
       109    3.523330E-04
       110    1.865843E-04
       111    1.176270E-03
       112   -2.638827E-03
       113   -7.225219E-03
       114   -1.753370E-03
       115    1.279796E-03
       116    4.735740E-04
       117   -3.006958E-03
       118   -6.564143E-03
       119   -4.638659E-03
       120    7.611763E-06
       121    1.829152E-05
       122    1.072624E-03
       123    2.711282E-07
       124   -1.637744E-05
       125   -5.052627E-04
       126   -1.048338E-05
       127   -8.163214E-06
       128   -9.338133E-04
       129   -5.114975E-04
       130    3.833771E-04
       131    8.508142E-04
       132    6.851202E-05
       133   -1.569099E-02
       134   -1.813226E-02
       135    1.853817E-02
       136    6.718069E-03
       137   -2.650599E-03
       138   -3.174464E-02
       139    1.611428E-02
       140   -9.777556E-03
       141   -3.152910E-02
       142    1.328695E-02
       143    1.410182E-02
       144   -6.162392E-03
       145    4.364293E-04
       146   -5.072606E-04
       147    7.083129E-05
       148    2.949235E-05
       149   -3.966477E-03
       150    8.203733E-04
       151    8.904184E-04
       152   -1.200924E-03
       153    3.105059E-04
       154    2.417179E-03
       155   -7.011483E-03
       156    2.097398E-03
       157    9.431962E-03
       158   -7.373670E-03
       159   -2.058293E-03
       160   -1.322894E-02
       161   -3.918902E-03
       162    1.117505E-02
       163    2.466706E-05
       164   -3.327452E-05
       165    2.734033E-04
       166    4.094771E-05
       167   -3.101470E-06
       168   -5.109628E-04
       169   -7.404204E-05
       170    4.774392E-05
       171    1.441538E-04
       172   -3.764305E-04
       173   -1.554054E-03
       174   -3.508675E-03
       175    3.750016E-03
       176    2.322563E-02
       177   -8.294918E-02
       178    1.620076E-03
       179   -2.074958E-02
       180    7.615271E-06
       181    8.905607E-02
       182   -4.764934E-03
       183    1.834112E-05
       184    8.594351E-02
       185    6.343217E-02
       186   -8.403336E-05
       187   -1.645116E-02
       188    1.015443E-03
       189   -7.347039E-04
       190   -2.807387E-04
       191    3.550882E-07
       192   -6.411753E-03
       193   -6.996388E-07
       194   -2.548820E-03
       195    5.281070E-03
       196   -2.732251E-03
       197    4.502405E-06
       198   -1.334944E-02
       199   -3.208410E-06
       200   -1.537892E-02
       201    1.545986E-02
       202   -8.093409E-05
       203   -8.505359E-05
       204   -2.599760E-03
       205   -2.614363E-05
       206   -1.917508E-04
       207    3.792493E-08
       208   -8.959513E-04
       209    1.144107E-04
       210    6.464530E-08
       211    1.367219E-03
       212    1.428500E-04
       213   -1.155269E-07
       214   -1.651739E-04
       215   -1.729535E-07
       216    3.825183E-04
       217    8.488917E-04
       218    7.425968E-05
       219   -1.571643E-02
       220   -1.719904E-02
       221    1.846939E-02
       222    6.716174E-03
       223    2.637864E-03
       224   -3.178544E-02
       225    1.612244E-02
       226    9.782268E-03
       227   -3.156981E-02
       228    1.357451E-02
       229   -1.437096E-02
       230   -6.120940E-03
       231    4.365904E-04
       232   -5.073459E-04
       233    7.075555E-05
       234   -2.874043E-05
       235   -3.967457E-03
       236   -8.201742E-04
       237    8.919796E-04
       238   -1.204776E-03
       239    3.127966E-04
       240   -2.419017E-03
       241   -7.013668E-03
       242   -2.098815E-03
       243    9.381114E-03
       244   -7.323940E-03
       245   -2.057175E-03
       246    1.321370E-02
       247   -3.941416E-03
       248   -1.120024E-02
       249    2.454988E-05
       250    3.330609E-05
       251    2.735967E-04
       252    4.114977E-05
       253    3.013368E-06
       254   -5.112255E-04
       255   -7.408689E-05
       256   -4.769817E-05
       257    1.441570E-04
       258    3.764934E-04
       259   -1.893416E-03
       260   -2.488187E-03
       261   -2.640833E-02
       262    4.954473E-05
       263    2.190210E-04
       264   -4.717514E-03
       265    6.125881E-03
       266    2.511193E-03
       267   -2.400371E-03
       268   -1.897513E-03
       269   -2.489633E-03
       270   -2.627882E-02
       271    4.949723E-05
       272   -2.187709E-04
       273   -4.715726E-03
       274    6.137292E-03
       275   -2.489615E-03
       276   -2.384056E-03
       277   -1.632884E-03
       278   -4.849837E-03
       279    4.936619E-02
       280    6.141719E-05
       281   -3.132654E-04
       282   -6.956908E-04
       283    6.407296E-03
       284    3.546395E-03
       285    8.820016E-03
       286   -1.638728E-03
       287   -4.846226E-03
       288    4.938705E-02
       289    6.072977E-05
       290    3.126176E-04
       291   -6.974633E-04
       292    6.380863E-03
       293   -3.567348E-03
       294    8.826437E-03
       295   -1.128264E-04
       296   -2.652512E-04
       297    3.066538E-04
       298    9.472497E-04
       299   -1.613910E-02
       300   -8.138743E-03
       301   -1.997389E-03
       302   -2.748573E-07
       303    4.042676E-02
       304   -1.398354E-03
       305    6.826538E-07
       306    3.848865E-02
       307    5.494007E-03
       308   -1.213285E-05
       309    5.558064E-04
       310   -4.959843E-05
       311    2.182220E-05
       312    2.777623E-05
       313   -4.736912E-08
       314    4.171002E-03
       315    8.325495E-08
       316   -2.115526E-04
       317    1.666282E-04
       318    4.492439E-05
       319   -4.718124E-08
       320    1.156558E-02
       321    3.186147E-07
       322    1.910022E-05
       323    3.156883E-03
       324   -3.175983E-03
       325    1.190462E-05
       326    5.074161E-03
       327    2.162755E-06
       328   -4.033428E-06
       329    2.998453E-08
       330   -2.426868E-04
       331    8.148351E-08
       332   -1.954773E-08
       333   -5.450323E-04
       334    5.329928E-06
       335   -2.068073E-08
       336    8.706307E-04
       337    3.846331E-08
       338   -1.709891E-04
       339   -4.137405E-04
       340    5.614122E-04
       341    1.548324E-03
       342   -7.633177E-03
       343   -1.159114E-03
       344   -1.141103E-03
       345   -1.262650E-03
       346    8.516323E-02
       347   -8.224979E-04
       348   -1.264488E-03
       349    7.817372E-02
       350    1.856013E-04
       351   -1.625564E-03
       352    5.231835E-02
       353    4.030749E-04
       354   -8.129226E-05
       355    4.278284E-03
       356    2.090757E-05
       357   -2.707710E-05
       358    6.169535E-06
       359   -9.966081E-06
       360   -3.854774E-04
       361    1.088995E-03
       362    3.705965E-05
       363   -7.417268E-05
       364    3.711302E-05
       365   -2.699300E-05
       366   -1.580996E-03
       367    3.266098E-03
       368    6.580277E-06
       369   -1.030402E-04
       370    9.645987E-05
       371   -1.428472E-04
       372   -2.100550E-03
       373    6.778896E-04
       374   -3.397493E-07
       375   -1.041610E-05
       376   -1.752803E-04
       377    7.719269E-07
       378    1.152462E-05
       379   -8.067254E-05
       380   -3.161053E-07
       381    2.450047E-06
       382    3.158358E-04
       383   -2.768426E-04
       384   -1.709823E-04
       385   -4.137008E-04
       386    5.611308E-04
       387    1.549493E-03
       388   -7.645184E-03
       389   -1.161450E-03
       390   -1.145266E-03
       391    1.267901E-03
       392    8.516951E-02
       393   -8.263536E-04
       394    1.269773E-03
       395    7.818009E-02
       396    1.774237E-04
       397    1.629691E-03
       398    5.231627E-02
       399    4.061614E-04
       400    7.846654E-05
       401    4.277115E-03
       402    2.092693E-05
       403   -2.714490E-05
       404    6.217971E-06
       405    9.948257E-06
       406   -3.855183E-04
       407   -1.089054E-03
       408    3.727378E-05
       409   -7.458313E-05
       410    3.730935E-05
       411    2.690174E-05
       412   -1.580957E-03
       413   -3.266233E-03
       414    4.489830E-06
       415   -1.010488E-04
       416    9.655892E-05
       417    1.443200E-04
       418   -2.100535E-03
       419   -6.764459E-04
       420   -3.409648E-07
       421    1.044332E-05
       422   -1.752873E-04
       423    7.972244E-07
       424   -1.153831E-05
       425   -8.066695E-05
       426   -3.397721E-07
       427   -2.472879E-06
       428    3.158395E-04
       429    2.768565E-04
       430    6.701748E-03
       431    1.584774E-02
       432   -2.437150E-02
       433   -4.040198E-02
       434    6.352320E-04
       435   -4.464943E-02
       436    2.963069E-02
       437   -6.382335E-06
       438    2.471186E-01
       439    3.306675E-02
       440   -1.529448E-06
       441    2.392354E-01
       442    4.580816E-02
       443    4.019827E-05
       444    1.630358E-01
       445   -1.643847E-04
       446   -2.634301E-04
       447    4.278148E-04
       448    2.297744E-07
       449    1.820021E-03
       450   -2.447526E-07
       451    4.605615E-05
       452   -3.089814E-03
       453    3.043757E-03
       454   -1.788797E-06
       455    3.969308E-03
       456   -1.688576E-07
       457    1.284842E-03
       458   -9.165020E-03
       459    7.880178E-03
       460   -8.225632E-06
       461    5.206316E-04
       462    3.339416E-07
       463    1.311634E-04
       464   -4.890852E-08
       465   -1.260252E-03
       466    1.660300E-04
       467   -1.082285E-09
       468    1.071189E-03
       469   -3.420042E-04
       470    6.669995E-08
       471    6.196156E-04
       472   -3.322044E-08
       473    8.541804E-03
       474    2.046933E-02
       475    4.079024E-02
       476    3.441630E-03
       477    2.503775E-03
       478    1.118435E-02
       479    4.955995E-03
       480    3.888085E-03
       481    4.471495E-03
       482    8.536957E-03
       483    2.042584E-02
       484    4.060629E-02
       485    3.438790E-03
       486   -2.500294E-03
       487    1.118623E-02
       488    4.925905E-03
       489   -3.866328E-03
       490    4.487330E-03
 Sym= X
 Ene= -0.769565
 Spin= Alpha
 Occup= -0.769565
         1   -2.833528E-04
         2   -6.566371E-04
         3    1.855344E-03
         4   -4.455596E-03
         5    2.439179E-02
         6   -1.665870E-02
         7   -2.670972E-03
         8   -2.330221E-04
         9    3.580950E-02
        10    3.745917E-03
        11   -6.840876E-04
        12    3.384228E-02
        13    4.358261E-02
        14   -1.784600E-02
        15    1.472891E-02
        16    1.357173E-05
        17   -2.893901E-05
        18    1.536728E-05
        19   -2.276688E-05
        20    6.020363E-03
        21   -3.913000E-03
        22   -9.877769E-04
        23    5.864877E-04
        24    4.012892E-04
        25   -1.066198E-03
        26    1.371378E-02
        27   -7.333566E-03
        28   -4.602975E-03
        29    4.224714E-03
        30    3.782613E-04
        31    2.161850E-03
        32   -3.292317E-03
        33    1.039160E-02
        34    3.017834E-05
        35   -9.158646E-06
        36   -1.652485E-04
        37   -1.342507E-05
        38    7.829222E-06
        39   -6.580680E-04
        40   -2.706342E-05
        41    4.458391E-06
        42    8.797722E-04
        43   -6.801521E-04
        44    1.484357E-07
        45   -3.142646E-06
        46    3.800063E-04
        47   -4.611732E-03
        48   -7.452003E-02
        49    8.482923E-03
        50   -1.957875E-04
        51   -2.000684E-06
        52    2.023630E-01
        53    9.961463E-04
        54   -1.229064E-05
        55    2.094791E-01
        56    1.931620E-02
        57    4.410299E-04
        58    1.951501E-01
        59    7.610999E-05
        60   -6.862313E-05
        61   -7.486858E-06
        62    1.183026E-07