[Molden Format]
[Title]
ADC(2) - opt by CAM-B3LYP gaussian                                              
[Atoms] AU
 c     1    6 0.12592752280008E+01 0.22800132789445E+01 -.35345910021030E-01
 c     2    6 0.25511638220345E+01 0.20078340100000E-05 -.33671612667290E-01
 c     3    6 0.12592790074531E+01 -.22800111530026E+01 -.35357248377820E-01
 c     4    6 -.13364450292264E+01 -.22798221803893E+01 -.38530098554940E-01
 c     5    6 -.26857699593430E+01 -.17716182500000E-05 -.39025206801750E-01
 c     6    6 -.13364469189525E+01 0.22798205268790E+01 -.38516870472010E-01
 h     7    1 0.23055183220207E+01 0.40307538342087E+01 -.32265656424420E-01
 h     8    1 0.23055239911991E+01 -.40307498185407E+01 -.32284553685750E-01
 h     9    1 -.23548467881305E+01 -.40530977197882E+01 -.43619131030800E-01
 h    10    1 -.23548543470350E+01 0.40530922868255E+01 -.43594564591070E-01
 n    11    7 0.52860567397703E+01 0.11810788000000E-06 -.26776002008390E-01
 o    12    8 0.63771222479361E+01 -.20280728649663E+01 -.23850705954680E-01
 o    13    8 0.63771260273883E+01 0.20280712114559E+01 -.23882831298940E-01
 n    14    7 -.52615573853205E+01 0.11810788000000E-06 -.10505223788478E+00
 h    15    1 -.61955753134867E+01 -.16086254730588E+01 0.27588253543458E+00
 h    16    1 -.61955696443083E+01 0.16086275990006E+01 0.27589009433911E+00
[GTO]
    1 0
 s    6 1.00
 0.13575349682000E+05 0.60645503603591E-03
 0.20352333680000E+04 0.46979088884982E-02
 0.46322562359000E+03 0.24332477647552E-01
 0.13120019598000E+03 0.97399968307759E-01
 0.42853015891000E+02 0.30195584253780E+00
 0.15584185766000E+02 0.66233609137875E+00
 s    2 1.00
 0.62067138508000E+01 0.65595308539952E+00
 0.25764896527000E+01 0.37585633285142E+00
 s    1 1.00
 0.57696339419000E+00 0.10000000000000E+01
 s    1 1.00
 0.22972831358000E+00 0.10000000000000E+01
 s    1 1.00
 0.95164440028000E-01 0.10000000000000E+01
 s    1 1.00
 0.48475401370000E-01 0.10000000000000E+01
 p    4 1.00
 0.34697232244000E+02 0.11327220003114E-01
 0.79582622826000E+01 0.76169659202087E-01
 0.23780826883000E+01 0.30192252202676E+00
 0.81433208183000E+00 0.72785027349547E+00
 p    1 1.00
 0.28887547253000E+00 0.10000000000000E+01
 p    1 1.00
 0.10056823671000E+00 0.10000000000000E+01
 d    1 1.00
 0.10970000000000E+01 0.10000000000000E+01
 d    1 1.00
 0.31800000000000E+00 0.10000000000000E+01
 d    1 1.00
 0.90985336424000E-01 0.10000000000000E+01
 f    1 1.00
 0.76100000000000E+00 0.10000000000000E+01
 
    2 0
 s    6 1.00
 0.13575349682000E+05 0.60645503603591E-03
 0.20352333680000E+04 0.46979088884982E-02
 0.46322562359000E+03 0.24332477647552E-01
 0.13120019598000E+03 0.97399968307759E-01
 0.42853015891000E+02 0.30195584253780E+00
 0.15584185766000E+02 0.66233609137875E+00
 s    2 1.00
 0.62067138508000E+01 0.65595308539952E+00
 0.25764896527000E+01 0.37585633285142E+00
 s    1 1.00
 0.57696339419000E+00 0.10000000000000E+01
 s    1 1.00
 0.22972831358000E+00 0.10000000000000E+01
 s    1 1.00
 0.95164440028000E-01 0.10000000000000E+01
 s    1 1.00
 0.48475401370000E-01 0.10000000000000E+01
 p    4 1.00
 0.34697232244000E+02 0.11327220003114E-01
 0.79582622826000E+01 0.76169659202087E-01
 0.23780826883000E+01 0.30192252202676E+00
 0.81433208183000E+00 0.72785027349547E+00
 p    1 1.00
 0.28887547253000E+00 0.10000000000000E+01
 p    1 1.00
 0.10056823671000E+00 0.10000000000000E+01
 d    1 1.00
 0.10970000000000E+01 0.10000000000000E+01
 d    1 1.00
 0.31800000000000E+00 0.10000000000000E+01
 d    1 1.00
 0.90985336424000E-01 0.10000000000000E+01
 f    1 1.00
 0.76100000000000E+00 0.10000000000000E+01
 
    3 0
 s    6 1.00
 0.13575349682000E+05 0.60645503603591E-03
 0.20352333680000E+04 0.46979088884982E-02
 0.46322562359000E+03 0.24332477647552E-01
 0.13120019598000E+03 0.97399968307759E-01
 0.42853015891000E+02 0.30195584253780E+00
 0.15584185766000E+02 0.66233609137875E+00
 s    2 1.00
 0.62067138508000E+01 0.65595308539952E+00
 0.25764896527000E+01 0.37585633285142E+00
 s    1 1.00
 0.57696339419000E+00 0.10000000000000E+01
 s    1 1.00
 0.22972831358000E+00 0.10000000000000E+01
 s    1 1.00
 0.95164440028000E-01 0.10000000000000E+01
 s    1 1.00
 0.48475401370000E-01 0.10000000000000E+01
 p    4 1.00
 0.34697232244000E+02 0.11327220003114E-01
 0.79582622826000E+01 0.76169659202087E-01
 0.23780826883000E+01 0.30192252202676E+00
 0.81433208183000E+00 0.72785027349547E+00
 p    1 1.00
 0.28887547253000E+00 0.10000000000000E+01
 p    1 1.00
 0.10056823671000E+00 0.10000000000000E+01
 d    1 1.00
 0.10970000000000E+01 0.10000000000000E+01
 d    1 1.00
 0.31800000000000E+00 0.10000000000000E+01
 d    1 1.00
 0.90985336424000E-01 0.10000000000000E+01
 f    1 1.00
 0.76100000000000E+00 0.10000000000000E+01
 
    4 0
 s    6 1.00
 0.13575349682000E+05 0.60645503603591E-03
 0.20352333680000E+04 0.46979088884982E-02
 0.46322562359000E+03 0.24332477647552E-01
 0.13120019598000E+03 0.97399968307759E-01
 0.42853015891000E+02 0.30195584253780E+00
 0.15584185766000E+02 0.66233609137875E+00
 s    2 1.00
 0.62067138508000E+01 0.65595308539952E+00
 0.25764896527000E+01 0.37585633285142E+00
 s    1 1.00
 0.57696339419000E+00 0.10000000000000E+01
 s    1 1.00
 0.22972831358000E+00 0.10000000000000E+01
 s    1 1.00
 0.95164440028000E-01 0.10000000000000E+01
 s    1 1.00
 0.48475401370000E-01 0.10000000000000E+01
 p    4 1.00
 0.34697232244000E+02 0.11327220003114E-01
 0.79582622826000E+01 0.76169659202087E-01
 0.23780826883000E+01 0.30192252202676E+00
 0.81433208183000E+00 0.72785027349547E+00
 p    1 1.00
 0.28887547253000E+00 0.10000000000000E+01
 p    1 1.00
 0.10056823671000E+00 0.10000000000000E+01
 d    1 1.00
 0.10970000000000E+01 0.10000000000000E+01
 d    1 1.00
 0.31800000000000E+00 0.10000000000000E+01
 d    1 1.00
 0.90985336424000E-01 0.10000000000000E+01
 f    1 1.00
 0.76100000000000E+00 0.10000000000000E+01
 
    5 0
 s    6 1.00
 0.13575349682000E+05 0.60645503603591E-03
 0.20352333680000E+04 0.46979088884982E-02
 0.46322562359000E+03 0.24332477647552E-01
 0.13120019598000E+03 0.97399968307759E-01
 0.42853015891000E+02 0.30195584253780E+00
 0.15584185766000E+02 0.66233609137875E+00
 s    2 1.00
 0.62067138508000E+01 0.65595308539952E+00
 0.25764896527000E+01 0.37585633285142E+00
 s    1 1.00
 0.57696339419000E+00 0.10000000000000E+01
 s    1 1.00
 0.22972831358000E+00 0.10000000000000E+01
 s    1 1.00
 0.95164440028000E-01 0.10000000000000E+01
 s    1 1.00
 0.48475401370000E-01 0.10000000000000E+01
 p    4 1.00
 0.34697232244000E+02 0.11327220003114E-01
 0.79582622826000E+01 0.76169659202087E-01
 0.23780826883000E+01 0.30192252202676E+00
 0.81433208183000E+00 0.72785027349547E+00
 p    1 1.00
 0.28887547253000E+00 0.10000000000000E+01
 p    1 1.00
 0.10056823671000E+00 0.10000000000000E+01
 d    1 1.00
 0.10970000000000E+01 0.10000000000000E+01
 d    1 1.00
 0.31800000000000E+00 0.10000000000000E+01
 d    1 1.00
 0.90985336424000E-01 0.10000000000000E+01
 f    1 1.00
 0.76100000000000E+00 0.10000000000000E+01
 
    6 0
 s    6 1.00
 0.13575349682000E+05 0.60645503603591E-03
 0.20352333680000E+04 0.46979088884982E-02
 0.46322562359000E+03 0.24332477647552E-01
 0.13120019598000E+03 0.97399968307759E-01
 0.42853015891000E+02 0.30195584253780E+00
 0.15584185766000E+02 0.66233609137875E+00
 s    2 1.00
 0.62067138508000E+01 0.65595308539952E+00
 0.25764896527000E+01 0.37585633285142E+00
 s    1 1.00
 0.57696339419000E+00 0.10000000000000E+01
 s    1 1.00
 0.22972831358000E+00 0.10000000000000E+01
 s    1 1.00
 0.95164440028000E-01 0.10000000000000E+01
 s    1 1.00
 0.48475401370000E-01 0.10000000000000E+01
 p    4 1.00
 0.34697232244000E+02 0.11327220003114E-01
 0.79582622826000E+01 0.76169659202087E-01
 0.23780826883000E+01 0.30192252202676E+00
 0.81433208183000E+00 0.72785027349547E+00
 p    1 1.00
 0.28887547253000E+00 0.10000000000000E+01
 p    1 1.00
 0.10056823671000E+00 0.10000000000000E+01
 d    1 1.00
 0.10970000000000E+01 0.10000000000000E+01
 d    1 1.00
 0.31800000000000E+00 0.10000000000000E+01
 d    1 1.00
 0.90985336424000E-01 0.10000000000000E+01
 f    1 1.00
 0.76100000000000E+00 0.10000000000000E+01
 
    7 0
 s    3 1.00
 0.34061341000000E+02 0.25439307208879E-01
 0.51235746000000E+01 0.19008594890375E+00
 0.11646626000000E+01 0.85244113011042E+00
 s    1 1.00
 0.32723041000000E+00 0.10000000000000E+01
 s    1 1.00
 0.10307241000000E+00 0.10000000000000E+01
 p    1 1.00
 0.80000000000000E+00 0.10000000000000E+01
 p    1 1.00
 0.95774129632000E-01 0.10000000000000E+01
 
    8 0
 s    3 1.00
 0.34061341000000E+02 0.25439307208879E-01
 0.51235746000000E+01 0.19008594890375E+00
 0.11646626000000E+01 0.85244113011042E+00
 s    1 1.00
 0.32723041000000E+00 0.10000000000000E+01
 s    1 1.00
 0.10307241000000E+00 0.10000000000000E+01
 p    1 1.00
 0.80000000000000E+00 0.10000000000000E+01
 p    1 1.00
 0.95774129632000E-01 0.10000000000000E+01
 
    9 0
 s    3 1.00
 0.34061341000000E+02 0.25439307208879E-01
 0.51235746000000E+01 0.19008594890375E+00
 0.11646626000000E+01 0.85244113011042E+00
 s    1 1.00
 0.32723041000000E+00 0.10000000000000E+01
 s    1 1.00
 0.10307241000000E+00 0.10000000000000E+01
 p    1 1.00
 0.80000000000000E+00 0.10000000000000E+01
 p    1 1.00
 0.95774129632000E-01 0.10000000000000E+01
 
   10 0
 s    3 1.00
 0.34061341000000E+02 0.25439307208879E-01
 0.51235746000000E+01 0.19008594890375E+00
 0.11646626000000E+01 0.85244113011042E+00
 s    1 1.00
 0.32723041000000E+00 0.10000000000000E+01
 s    1 1.00
 0.10307241000000E+00 0.10000000000000E+01
 p    1 1.00
 0.80000000000000E+00 0.10000000000000E+01
 p    1 1.00
 0.95774129632000E-01 0.10000000000000E+01
 
   11 0
 s    6 1.00
 0.19730800647000E+05 0.58626402628763E-03
 0.29578958745000E+04 0.45428820586397E-02
 0.67322133595000E+03 0.23558413450084E-01
 0.19068249494000E+03 0.94709193292923E-01
 0.62295441898000E+02 0.29719784913376E+00
 0.22654161182000E+02 0.66916246895232E+00
 s    2 1.00
 0.89791477428000E+01 0.64596683630063E+00
 0.36863002370000E+01 0.38700574393705E+00
 s    1 1.00
 0.84660076805000E+00 0.10000000000000E+01
 s    1 1.00
 0.33647133771000E+00 0.10000000000000E+01
 s    1 1.00
 0.13647653675000E+00 0.10000000000000E+01
 s    1 1.00
 0.68441605847000E-01 0.10000000000000E+01
 p    4 1.00
 0.49200380510000E+02 0.11448825101764E-01
 0.11346790537000E+02 0.78422337970864E-01
 0.34273972411000E+01 0.30818094738830E+00
 0.11785525134000E+01 0.72027196368413E+00
 p    1 1.00
 0.41642204972000E+00 0.10000000000000E+01
 p    1 1.00
 0.14260826011000E+00 0.10000000000000E+01
 d    1 1.00
 0.16540000000000E+01 0.10000000000000E+01
 d    1 1.00
 0.46900000000000E+00 0.10000000000000E+01
 d    1 1.00
 0.12829642058000E+00 0.10000000000000E+01
 f    1 1.00
 0.10930000000000E+01 0.10000000000000E+01
 
   12 0
 s    6 1.00
 0.27032382631000E+05 0.57227335211155E-03
 0.40523871392000E+04 0.44353233492995E-02
 0.92232722710000E+03 0.23020107706038E-01
 0.26124070989000E+03 0.92822490667928E-01
 0.85354641351000E+02 0.29378500009671E+00
 0.31035035245000E+02 0.67401604501641E+00
 s    2 1.00
 0.12260860728000E+02 0.63839937025506E+00
 0.49987076005000E+01 0.39534587125718E+00
 s    1 1.00
 0.11703108158000E+01 0.10000000000000E+01
 s    1 1.00
 0.46474740994000E+00 0.10000000000000E+01
 s    1 1.00
 0.18504536357000E+00 0.10000000000000E+01
 s    1 1.00
 0.70288026270000E-01 0.10000000000000E+01
 p    4 1.00
 0.63274954801000E+02 0.12018332222616E-01
 0.14627049379000E+02 0.83005421790056E-01
 0.44501223456000E+01 0.31991743925964E+00
 0.15275799647000E+01 0.70715542916104E+00
 p    1 1.00
 0.52935117943000E+00 0.10000000000000E+01
 p    1 1.00
 0.17478421270000E+00 0.10000000000000E+01
 p    1 1.00
 0.51112745706000E-01 0.10000000000000E+01
 d    1 1.00
 0.23140000000000E+01 0.10000000000000E+01
 d    1 1.00
 0.64500000000000E+00 0.10000000000000E+01
 d    1 1.00
 0.14696477366000E+00 0.10000000000000E+01
 f    1 1.00
 0.14280000000000E+01 0.10000000000000E+01
 
   13 0
 s    6 1.00
 0.27032382631000E+05 0.57227335211155E-03
 0.40523871392000E+04 0.44353233492995E-02
 0.92232722710000E+03 0.23020107706038E-01
 0.26124070989000E+03 0.92822490667928E-01
 0.85354641351000E+02 0.29378500009671E+00
 0.31035035245000E+02 0.67401604501641E+00
 s    2 1.00
 0.12260860728000E+02 0.63839937025506E+00
 0.49987076005000E+01 0.39534587125718E+00
 s    1 1.00
 0.11703108158000E+01 0.10000000000000E+01
 s    1 1.00
 0.46474740994000E+00 0.10000000000000E+01
 s    1 1.00
 0.18504536357000E+00 0.10000000000000E+01
 s    1 1.00
 0.70288026270000E-01 0.10000000000000E+01
 p    4 1.00
 0.63274954801000E+02 0.12018332222616E-01
 0.14627049379000E+02 0.83005421790056E-01
 0.44501223456000E+01 0.31991743925964E+00
 0.15275799647000E+01 0.70715542916104E+00
 p    1 1.00
 0.52935117943000E+00 0.10000000000000E+01
 p    1 1.00
 0.17478421270000E+00 0.10000000000000E+01
 p    1 1.00
 0.51112745706000E-01 0.10000000000000E+01
 d    1 1.00
 0.23140000000000E+01 0.10000000000000E+01
 d    1 1.00
 0.64500000000000E+00 0.10000000000000E+01
 d    1 1.00
 0.14696477366000E+00 0.10000000000000E+01
 f    1 1.00
 0.14280000000000E+01 0.10000000000000E+01
 
   14 0
 s    6 1.00
 0.19730800647000E+05 0.58626402628763E-03
 0.29578958745000E+04 0.45428820586397E-02
 0.67322133595000E+03 0.23558413450084E-01
 0.19068249494000E+03 0.94709193292923E-01
 0.62295441898000E+02 0.29719784913376E+00
 0.22654161182000E+02 0.66916246895232E+00
 s    2 1.00
 0.89791477428000E+01 0.64596683630063E+00
 0.36863002370000E+01 0.38700574393705E+00
 s    1 1.00
 0.84660076805000E+00 0.10000000000000E+01
 s    1 1.00
 0.33647133771000E+00 0.10000000000000E+01
 s    1 1.00
 0.13647653675000E+00 0.10000000000000E+01
 s    1 1.00
 0.68441605847000E-01 0.10000000000000E+01
 p    4 1.00
 0.49200380510000E+02 0.11448825101764E-01
 0.11346790537000E+02 0.78422337970864E-01
 0.34273972411000E+01 0.30818094738830E+00
 0.11785525134000E+01 0.72027196368413E+00
 p    1 1.00
 0.41642204972000E+00 0.10000000000000E+01
 p    1 1.00
 0.14260826011000E+00 0.10000000000000E+01
 d    1 1.00
 0.16540000000000E+01 0.10000000000000E+01
 d    1 1.00
 0.46900000000000E+00 0.10000000000000E+01
 d    1 1.00
 0.12829642058000E+00 0.10000000000000E+01
 f    1 1.00
 0.10930000000000E+01 0.10000000000000E+01
 
   15 0
 s    3 1.00
 0.34061341000000E+02 0.25439307208879E-01
 0.51235746000000E+01 0.19008594890375E+00
 0.11646626000000E+01 0.85244113011042E+00
 s    1 1.00
 0.32723041000000E+00 0.10000000000000E+01
 s    1 1.00
 0.10307241000000E+00 0.10000000000000E+01
 p    1 1.00
 0.80000000000000E+00 0.10000000000000E+01
 p    1 1.00
 0.95774129632000E-01 0.10000000000000E+01
 
   16 0
 s    3 1.00
 0.34061341000000E+02 0.25439307208879E-01
 0.51235746000000E+01 0.19008594890375E+00
 0.11646626000000E+01 0.85244113011042E+00
 s    1 1.00
 0.32723041000000E+00 0.10000000000000E+01
 s    1 1.00
 0.10307241000000E+00 0.10000000000000E+01
 p    1 1.00
 0.80000000000000E+00 0.10000000000000E+01
 p    1 1.00
 0.95774129632000E-01 0.10000000000000E+01
 
[MO]
 Sym= X
 Ene= -0.888823
 Spin= Alpha
 Occup= -0.888823
         1   -2.517302E-04
         2   -5.856095E-04
         3    1.724898E-03
         4   -4.397629E-03
         5    2.533150E-02
         6   -1.664038E-02
         7   -2.280445E-03
         8   -3.760714E-04
         9    3.555126E-02
        10    3.934515E-03
        11   -7.926911E-04
        12    3.358333E-02
        13    4.322870E-02
        14   -1.820567E-02
        15    1.486687E-02
        16   -5.003693E-06
        17   -1.254990E-05
        18    1.755359E-05
        19   -1.899005E-05
        20    6.053514E-03
        21   -3.919882E-03
        22   -9.800956E-04
        23    5.887496E-04
        24    3.913460E-04
        25   -1.054527E-03
        26    1.378129E-02
        27   -7.349964E-03
        28   -4.545967E-03
        29    4.186513E-03
        30    3.594539E-04
        31    2.191496E-03
        32   -3.306810E-03
        33    1.024717E-02
        34    3.066395E-05
        35   -1.011344E-05
        36   -1.629133E-04
        37   -1.330158E-05
        38    8.871255E-06
        39   -6.621973E-04
        40   -2.783842E-05
        41    4.697343E-06
        42    8.807684E-04
        43   -6.835652E-04
        44    4.722496E-05
        45    1.025200E-04
        46    2.218787E-04
        47   -4.827978E-03
        48   -7.517814E-02
        49    8.389436E-03
        50   -7.812465E-04
        51   -1.657492E-06
        52    2.030386E-01
        53    5.362147E-04
        54   -1.206645E-05
        55    2.101405E-01
        56    1.946316E-02
        57    4.413042E-04
        58    1.947965E-01
        59    4.517173E-05
        60   -4.180167E-05
        61   -3.370058E-06
        62    1.160373E-07
        63    1.701866E-04
        64   -1.351096E-07
        65    5.544332E-04
        66   -9.315784E-04
        67    3.771452E-04
        68    2.129672E-06
        69    2.113708E-03
        70    2.536834E-07
        71    1.763198E-02
        72   -1.966839E-02
        73    2.036407E-03
        74   -8.237788E-05
        75   -4.218936E-03
        76    1.596467E-05
        77   -1.282427E-05
        78   -3.046276E-08
        79   -1.152013E-03
        80    1.233909E-05
        81   -1.543743E-08
        82    6.398393E-04
        83    4.866472E-06
        84    5.630751E-08
        85    9.057478E-04
        86   -6.926063E-09
        87   -2.521967E-04
        88   -5.866567E-04
        89    1.727615E-03
        90   -4.404839E-03
        91    2.637447E-02
        92   -1.663278E-02
        93   -2.280344E-03
        94    3.767826E-04
        95    3.555623E-02
        96    3.914700E-03
        97    7.879649E-04
        98    3.358902E-02
        99    4.342927E-02
       100    1.860593E-02
       101    1.489197E-02
       102   -4.999274E-06
       103   -1.249189E-05
       104    1.749117E-05
       105    1.911723E-05
       106    6.053551E-03
       107    3.919943E-03
       108   -9.761324E-04
       109    5.844617E-04
       110    3.916706E-04
       111    1.052618E-03
       112    1.378070E-02
       113    7.349935E-03
       114   -4.635006E-03
       115    4.286355E-03
       116    3.486512E-04
       117   -2.101823E-03
       118   -3.290432E-03
       119   -1.024083E-02
       120    3.069927E-05
       121    1.008337E-05
       122   -1.629399E-04
       123   -1.339482E-05
       124   -8.840229E-06
       125   -6.621819E-04
       126   -2.779257E-05
       127   -4.688028E-06
       128    8.807888E-04
       129    6.835480E-04
       130    1.793870E-04
       131    3.902360E-04
       132    7.190407E-04
       133   -1.456447E-02
       134    1.011434E-02
       135    1.965419E-02
       136    1.804767E-03
       137   -1.014254E-03
       138   -1.477507E-01
       139    1.336411E-02
       140   -9.034531E-03
       141   -1.504147E-01
       142    1.927042E-02
       143    1.079446E-02
       144   -9.343762E-02
       145    1.993402E-04
       146   -2.425517E-04
       147    4.321151E-05
       148    6.760739E-06
       149    1.261692E-03
       150   -3.064133E-03
       151    1.000446E-03
       152   -1.132410E-03
       153    1.319637E-04
       154    2.401461E-03
       155    5.138405E-03
       156   -5.032718E-03
       157    1.058750E-02
       158   -7.847103E-03
       159   -2.740398E-03
       160   -1.588381E-02
       161   -4.450072E-03
       162    1.185156E-02
       163    2.395283E-05
       164   -1.442842E-05
       165    8.258010E-04
       166    2.486393E-05
       167   -2.405563E-05
       168   -1.494232E-04
       169   -5.700002E-05
       170    4.341338E-05
       171   -9.585051E-04
       172    3.606707E-04
       173   -1.603275E-03
       174   -3.650274E-03
       175    3.581238E-03
       176    3.256880E-02
       177   -5.886578E-02
       178    1.062822E-02
       179   -1.262258E-02
       180    1.064758E-06
       181   -1.193344E-01
       182   -6.213418E-04
       183    9.539848E-06
       184   -1.226333E-01
       185    5.620842E-02
       186   -5.460216E-04
       187   -1.382529E-01
       188    6.928271E-04
       189   -3.860278E-04
       190   -3.067993E-04
       191    1.858787E-07
       192   -9.585026E-03
       193   -9.482411E-08
       194   -2.571200E-03
       195    5.803865E-03
       196   -3.232665E-03
       197    2.287516E-06
       198   -2.366773E-02
       199    6.250503E-07
       200   -1.173825E-02
       201    1.304881E-02
       202   -1.310558E-03
       203   -1.399025E-04
       204   -1.488889E-02
       205   -1.238365E-05
       206   -1.688978E-04
       207   -5.557826E-09
       208    3.329020E-04
       209    1.242385E-04
       210    4.525396E-08
       211    1.035711E-03
       212    1.023616E-04
       213   -3.779735E-08
       214   -1.482346E-03
       215    2.892338E-08
       216    1.795471E-04
       217    3.905506E-04
       218    7.190873E-04
       219   -1.457313E-02
       220    1.145146E-02
       221    1.962979E-02
       222    1.804605E-03
       223    1.010309E-03
       224   -1.477529E-01
       225    1.337336E-02
       226    9.038764E-03
       227   -1.504192E-01
       228    1.908940E-02
       229   -1.135158E-02
       230   -9.341181E-02
       231    1.992397E-04
       232   -2.427099E-04
       233    4.347023E-05
       234   -6.544119E-06
       235    1.261659E-03
       236    3.064178E-03
       237    1.003945E-03
       238   -1.136336E-03
       239    1.323908E-04
       240   -2.403460E-03
       241    5.137516E-03
       242    5.032550E-03
       243    1.049782E-02
       244   -7.757243E-03
       245   -2.740579E-03
       246    1.596639E-02
       247   -4.466912E-03
       248   -1.186453E-02
       249    2.398876E-05
       250    1.448703E-05
       251    8.258740E-04
       252    2.495561E-05
       253    2.397943E-05
       254   -1.494990E-04
       255   -5.713991E-05
       256   -4.341582E-05
       257   -9.585273E-04
       258   -3.606501E-04
       259   -5.230221E-04
       260   -2.203856E-04
       261   -2.332904E-02
       262    2.042320E-05
       263   -1.481317E-05
       264    1.401699E-03
       265    7.173966E-03
       266    1.053954E-03
       267   -5.564271E-03
       268   -5.233029E-04
       269   -2.163357E-04
       270   -2.330957E-02
       271    1.986675E-05
       272    1.543423E-05
       273    1.401904E-03
       274    7.258836E-03
       275   -1.018694E-03
       276   -5.569668E-03
       277   -5.008250E-04
       278   -3.283466E-03
       279    5.129874E-02
       280    2.914751E-05
       281   -1.300069E-04
       282   -6.045995E-03
       283    1.512291E-03
       284    4.460146E-03
       285    2.772179E-04
       286   -5.034206E-04
       287   -3.281717E-03
       288    5.142255E-02
       289    2.899135E-05
       290    1.297950E-04
       291   -6.046291E-03
       292    1.467078E-03
       293   -4.497612E-03
       294    2.790590E-04
       295   -2.558499E-05
       296   -5.774341E-05
       297    1.241122E-05
       298    9.581090E-05
       299   -1.210117E-02
       300   -8.734744E-04
       301   -3.371695E-04
       302    8.378034E-08
       303    8.856049E-03
       304    1.188773E-04
       305    2.799343E-07
       306    1.138450E-02
       307    4.427623E-03
       308    2.336273E-06
       309    1.930221E-03
       310    1.130402E-06
       311    1.623911E-05
       312   -1.736951E-05
       313   -6.246803E-08
       314   -4.221635E-03
       315   -4.906021E-08
       316   -7.088510E-05
       317    1.497046E-04
       318   -7.881946E-05
       319   -2.375189E-07
       320   -1.257250E-02
       321   -1.885722E-07
       322   -6.953983E-04
       323    3.878122E-03
       324   -3.182724E-03
       325    1.196172E-05
       326   -3.029747E-03
       327   -4.325337E-06
       328   -8.603042E-06
       329    1.274486E-08
       330    2.182280E-05
       331    6.483769E-06
       332   -3.054435E-08
       333    6.739561E-04
       334    5.058423E-06
       335    1.344533E-08
       336   -7.032345E-04
       337   -1.256024E-08
       338   -5.035601E-05
       339   -1.177957E-04
       340    1.060009E-04
       341    8.982108E-04
       342   -8.725261E-03
       343   -1.763763E-03
       344   -2.730157E-04
       345   -3.278929E-04
       346   -7.454804E-02
       347   -4.946897E-05
       348   -4.918246E-04
       349   -6.906920E-02
       350    1.283866E-03
       351   -9.936985E-04
       352   -5.372238E-02
       353    3.399711E-04
       354   -3.154763E-04
       355   -6.058215E-03
       356    6.119635E-06
       357   -7.214547E-06
       358    1.094912E-06
       359   -2.483398E-06
       360    4.665365E-05
       361   -5.526117E-04
       362   -7.433564E-06
       363   -1.886167E-05
       364    2.629523E-05
       365    6.270435E-06
       366    6.599276E-04
       367   -1.761908E-03
       368   -7.630588E-05
       369    4.985776E-06
       370    7.132011E-05
       371   -1.096190E-05
       372    6.559843E-04
       373   -3.603455E-04
       374   -5.617984E-07
       375   -3.328517E-06
       376    7.458372E-05
       377    7.947824E-07
       378    2.281409E-06
       379    8.576692E-05
       380   -4.105081E-08
       381    2.184265E-06
       382   -1.858315E-04
       383    1.480284E-04
       384   -5.033519E-05
       385   -1.177492E-04
       386    1.059843E-04
       387    8.982329E-04
       388   -8.739931E-03
       389   -1.747602E-03
       390   -2.791809E-04
       391    3.304279E-04
       392   -7.455060E-02
       393   -5.483537E-05
       394    4.941268E-04
       395   -6.907213E-02
       396    1.271745E-03
       397    1.000733E-03
       398   -5.371617E-02
       399    3.314412E-04
       400    3.191516E-04
       401   -6.058830E-03
       402    6.141700E-06
       403   -7.221329E-06
       404    1.079629E-06
       405    2.489076E-06
       406    4.668983E-05
       407    5.526511E-04
       408   -7.167916E-06
       409   -1.899880E-05
       410    2.616672E-05
       411   -6.127740E-06
       412    6.598836E-04
       413    1.761877E-03
       414   -7.683463E-05
       415    5.773862E-06
       416    7.106077E-05
       417    1.030494E-05
       418    6.558179E-04
       419    3.592958E-04
       420   -5.617251E-07
       421    3.333799E-06
       422    7.458952E-05
       423    7.916483E-07
       424   -2.299926E-06
       425    8.575841E-05
       426   -3.801494E-08
       427   -2.172834E-06
       428   -1.858307E-04
       429   -1.480340E-04
       430    7.386145E-03
       431    1.750586E-02
       432   -2.704337E-02
       433   -4.391964E-02
       434   -1.779922E-02
       435   -9.219369E-02
       436    2.588684E-02
       437   -7.735763E-06
       438    2.560974E-01
       439    2.925444E-02
       440   -1.990886E-06
       441    2.521278E-01
       442    3.191284E-02
       443    5.846628E-05
       444    2.064736E-01
       445   -1.797207E-04
       446   -7.084410E-05
       447    2.505647E-04
       448    1.642644E-07
       449   -9.390625E-04
       450   -1.852829E-07
       451   -4.092717E-04
       452   -2.338451E-03
       453    2.747723E-03
       454   -2.157100E-06
       455   -3.829495E-03
       456   -3.321655E-07
       457   -3.166426E-03
       458   -5.623502E-03
       459    8.789928E-03
       460   -7.885495E-06
       461   -2.432598E-03
       462   -2.843834E-07
       463    1.974479E-04
       464   -3.345111E-08
       465   -9.614346E-04
       466    1.367377E-04
       467   -1.953635E-08
       468    4.880658E-04
       469   -4.016419E-04
       470    6.441573E-08
       471    8.018341E-04
       472   -2.929078E-08
       473    1.292356E-02
       474    2.566209E-02
       475    4.910634E-02
       476    3.145774E-03
       477    2.619852E-03
       478    1.280778E-02
       479   -4.975550E-04
       480    5.611972E-03
       481    1.490669E-02
       482    1.291864E-02
       483    2.561380E-02
       484    4.887792E-02
       485    3.142864E-03
       486   -2.615882E-03
       487    1.281035E-02
       488   -5.364939E-04
       489   -5.585604E-03
       490    1.491998E-02
 Sym= X
 Ene= 0.888823
 Spin= Alpha
 Occup= 0.888823
         1    1.518887E-02
         2    3.388895E-02
         3   -2.321786E-02
         4   -4.692640E-01
         5   -4.121204E+00
         6    3.693282E+00
         7   -7.933458E-03
         8   -2.197971E-02
         9    8.994628E-03
        10    2.576751E-03
        11   -1.208664E-03
        12    1.113443E-02
        13   -5.617504E-01
        14   -1.766309E-01
        15    5.655467E-02
        16   -2.206889E-03
        17    1.831043E-04
        18    2.023785E-03
        19    1.050164E-03
        20   -5.456112E-04
        21    6.469916E-04
        22   -1.952216E-02
        23    2.162782E-03
        24    1.735938E-02
        25    9.905403E-03
        26   -2.138853E-03
        27    1.610359E-03
        28    2.781556E-01
        29   -2.505895E-02
        30   -2.530967E-01
        31   -7.436585E-01
        32    5.287646E-03
        33   -2.600650E-02
        34    6.906347E-04
        35    1.325153E-07
        36    1.925618E-05
        37   -9.596051E-04
        38    7.400903E-05
        39    6.558461E-05
        40    3.302149E-05
        41   -7.418682E-05
        42   -9.141948E-05
        43    3.539220E-05
        44    5.320884E-03
        45    1.108808E-02
        46   -9.109396E-04
        47   -2.795207E-01
        48   -3.873380E+00
        49   -1.045196E+00
        50   -1.645006E-02
        51    2.200963E-06
        52   -2.138886E-02
        53   -8.923845E-02
        54   -6.638976E-05
        55   -2.043506E-02
        56   -2.085460E+00
        57   -9.462252E-04
        58   -1.334577E-01
        59    2.922189E-04
        60   -3.639456E-03
        61    3.347237E-03
        62    1.146605E-07