[Molden Format]
[Title]
ADC(2) - opt by CAM-B3LYP gaussian                                              
[Atoms] AU
 c     1    6 0.12592752280008E+01 0.22800132789445E+01 -.35345910021030E-01
 c     2    6 0.25511638220345E+01 0.20078340100000E-05 -.33671612667290E-01
 c     3    6 0.12592790074531E+01 -.22800111530026E+01 -.35357248377820E-01
 c     4    6 -.13364450292264E+01 -.22798221803893E+01 -.38530098554940E-01
 c     5    6 -.26857699593430E+01 -.17716182500000E-05 -.39025206801750E-01
 c     6    6 -.13364469189525E+01 0.22798205268790E+01 -.38516870472010E-01
 h     7    1 0.23055183220207E+01 0.40307538342087E+01 -.32265656424420E-01
 h     8    1 0.23055239911991E+01 -.40307498185407E+01 -.32284553685750E-01
 h     9    1 -.23548467881305E+01 -.40530977197882E+01 -.43619131030800E-01
 h    10    1 -.23548543470350E+01 0.40530922868255E+01 -.43594564591070E-01
 n    11    7 0.52860567397703E+01 0.11810788000000E-06 -.26776002008390E-01
 o    12    8 0.63771222479361E+01 -.20280728649663E+01 -.23850705954680E-01
 o    13    8 0.63771260273883E+01 0.20280712114559E+01 -.23882831298940E-01
 n    14    7 -.52615573853205E+01 0.11810788000000E-06 -.10505223788478E+00
 h    15    1 -.61955753134867E+01 -.16086254730588E+01 0.27588253543458E+00
 h    16    1 -.61955696443083E+01 0.16086275990006E+01 0.27589009433911E+00
[GTO]
    1 0
 s    6 1.00
 0.13575349682000E+05 0.60645503603591E-03
 0.20352333680000E+04 0.46979088884982E-02
 0.46322562359000E+03 0.24332477647552E-01
 0.13120019598000E+03 0.97399968307759E-01
 0.42853015891000E+02 0.30195584253780E+00
 0.15584185766000E+02 0.66233609137875E+00
 s    2 1.00
 0.62067138508000E+01 0.65595308539952E+00
 0.25764896527000E+01 0.37585633285142E+00
 s    1 1.00
 0.57696339419000E+00 0.10000000000000E+01
 s    1 1.00
 0.22972831358000E+00 0.10000000000000E+01
 s    1 1.00
 0.95164440028000E-01 0.10000000000000E+01
 s    1 1.00
 0.48475401370000E-01 0.10000000000000E+01
 p    4 1.00
 0.34697232244000E+02 0.11327220003114E-01
 0.79582622826000E+01 0.76169659202087E-01
 0.23780826883000E+01 0.30192252202676E+00
 0.81433208183000E+00 0.72785027349547E+00
 p    1 1.00
 0.28887547253000E+00 0.10000000000000E+01
 p    1 1.00
 0.10056823671000E+00 0.10000000000000E+01
 d    1 1.00
 0.10970000000000E+01 0.10000000000000E+01
 d    1 1.00
 0.31800000000000E+00 0.10000000000000E+01
 d    1 1.00
 0.90985336424000E-01 0.10000000000000E+01
 f    1 1.00
 0.76100000000000E+00 0.10000000000000E+01
 
    2 0
 s    6 1.00
 0.13575349682000E+05 0.60645503603591E-03
 0.20352333680000E+04 0.46979088884982E-02
 0.46322562359000E+03 0.24332477647552E-01
 0.13120019598000E+03 0.97399968307759E-01
 0.42853015891000E+02 0.30195584253780E+00
 0.15584185766000E+02 0.66233609137875E+00
 s    2 1.00
 0.62067138508000E+01 0.65595308539952E+00
 0.25764896527000E+01 0.37585633285142E+00
 s    1 1.00
 0.57696339419000E+00 0.10000000000000E+01
 s    1 1.00
 0.22972831358000E+00 0.10000000000000E+01
 s    1 1.00
 0.95164440028000E-01 0.10000000000000E+01
 s    1 1.00
 0.48475401370000E-01 0.10000000000000E+01
 p    4 1.00
 0.34697232244000E+02 0.11327220003114E-01
 0.79582622826000E+01 0.76169659202087E-01
 0.23780826883000E+01 0.30192252202676E+00
 0.81433208183000E+00 0.72785027349547E+00
 p    1 1.00
 0.28887547253000E+00 0.10000000000000E+01
 p    1 1.00
 0.10056823671000E+00 0.10000000000000E+01
 d    1 1.00
 0.10970000000000E+01 0.10000000000000E+01
 d    1 1.00
 0.31800000000000E+00 0.10000000000000E+01
 d    1 1.00
 0.90985336424000E-01 0.10000000000000E+01
 f    1 1.00
 0.76100000000000E+00 0.10000000000000E+01
 
    3 0
 s    6 1.00
 0.13575349682000E+05 0.60645503603591E-03
 0.20352333680000E+04 0.46979088884982E-02
 0.46322562359000E+03 0.24332477647552E-01
 0.13120019598000E+03 0.97399968307759E-01
 0.42853015891000E+02 0.30195584253780E+00
 0.15584185766000E+02 0.66233609137875E+00
 s    2 1.00
 0.62067138508000E+01 0.65595308539952E+00
 0.25764896527000E+01 0.37585633285142E+00
 s    1 1.00
 0.57696339419000E+00 0.10000000000000E+01
 s    1 1.00
 0.22972831358000E+00 0.10000000000000E+01
 s    1 1.00
 0.95164440028000E-01 0.10000000000000E+01
 s    1 1.00
 0.48475401370000E-01 0.10000000000000E+01
 p    4 1.00
 0.34697232244000E+02 0.11327220003114E-01
 0.79582622826000E+01 0.76169659202087E-01
 0.23780826883000E+01 0.30192252202676E+00
 0.81433208183000E+00 0.72785027349547E+00
 p    1 1.00
 0.28887547253000E+00 0.10000000000000E+01
 p    1 1.00
 0.10056823671000E+00 0.10000000000000E+01
 d    1 1.00
 0.10970000000000E+01 0.10000000000000E+01
 d    1 1.00
 0.31800000000000E+00 0.10000000000000E+01
 d    1 1.00
 0.90985336424000E-01 0.10000000000000E+01
 f    1 1.00
 0.76100000000000E+00 0.10000000000000E+01
 
    4 0
 s    6 1.00
 0.13575349682000E+05 0.60645503603591E-03
 0.20352333680000E+04 0.46979088884982E-02
 0.46322562359000E+03 0.24332477647552E-01
 0.13120019598000E+03 0.97399968307759E-01
 0.42853015891000E+02 0.30195584253780E+00
 0.15584185766000E+02 0.66233609137875E+00
 s    2 1.00
 0.62067138508000E+01 0.65595308539952E+00
 0.25764896527000E+01 0.37585633285142E+00
 s    1 1.00
 0.57696339419000E+00 0.10000000000000E+01
 s    1 1.00
 0.22972831358000E+00 0.10000000000000E+01
 s    1 1.00
 0.95164440028000E-01 0.10000000000000E+01
 s    1 1.00
 0.48475401370000E-01 0.10000000000000E+01
 p    4 1.00
 0.34697232244000E+02 0.11327220003114E-01
 0.79582622826000E+01 0.76169659202087E-01
 0.23780826883000E+01 0.30192252202676E+00
 0.81433208183000E+00 0.72785027349547E+00
 p    1 1.00
 0.28887547253000E+00 0.10000000000000E+01
 p    1 1.00
 0.10056823671000E+00 0.10000000000000E+01
 d    1 1.00
 0.10970000000000E+01 0.10000000000000E+01
 d    1 1.00
 0.31800000000000E+00 0.10000000000000E+01
 d    1 1.00
 0.90985336424000E-01 0.10000000000000E+01
 f    1 1.00
 0.76100000000000E+00 0.10000000000000E+01
 
    5 0
 s    6 1.00
 0.13575349682000E+05 0.60645503603591E-03
 0.20352333680000E+04 0.46979088884982E-02
 0.46322562359000E+03 0.24332477647552E-01
 0.13120019598000E+03 0.97399968307759E-01
 0.42853015891000E+02 0.30195584253780E+00
 0.15584185766000E+02 0.66233609137875E+00
 s    2 1.00
 0.62067138508000E+01 0.65595308539952E+00
 0.25764896527000E+01 0.37585633285142E+00
 s    1 1.00
 0.57696339419000E+00 0.10000000000000E+01
 s    1 1.00
 0.22972831358000E+00 0.10000000000000E+01
 s    1 1.00
 0.95164440028000E-01 0.10000000000000E+01
 s    1 1.00
 0.48475401370000E-01 0.10000000000000E+01
 p    4 1.00
 0.34697232244000E+02 0.11327220003114E-01
 0.79582622826000E+01 0.76169659202087E-01
 0.23780826883000E+01 0.30192252202676E+00
 0.81433208183000E+00 0.72785027349547E+00
 p    1 1.00
 0.28887547253000E+00 0.10000000000000E+01
 p    1 1.00
 0.10056823671000E+00 0.10000000000000E+01
 d    1 1.00
 0.10970000000000E+01 0.10000000000000E+01
 d    1 1.00
 0.31800000000000E+00 0.10000000000000E+01
 d    1 1.00
 0.90985336424000E-01 0.10000000000000E+01
 f    1 1.00
 0.76100000000000E+00 0.10000000000000E+01
 
    6 0
 s    6 1.00
 0.13575349682000E+05 0.60645503603591E-03
 0.20352333680000E+04 0.46979088884982E-02
 0.46322562359000E+03 0.24332477647552E-01
 0.13120019598000E+03 0.97399968307759E-01
 0.42853015891000E+02 0.30195584253780E+00
 0.15584185766000E+02 0.66233609137875E+00
 s    2 1.00
 0.62067138508000E+01 0.65595308539952E+00
 0.25764896527000E+01 0.37585633285142E+00
 s    1 1.00
 0.57696339419000E+00 0.10000000000000E+01
 s    1 1.00
 0.22972831358000E+00 0.10000000000000E+01
 s    1 1.00
 0.95164440028000E-01 0.10000000000000E+01
 s    1 1.00
 0.48475401370000E-01 0.10000000000000E+01
 p    4 1.00
 0.34697232244000E+02 0.11327220003114E-01
 0.79582622826000E+01 0.76169659202087E-01
 0.23780826883000E+01 0.30192252202676E+00
 0.81433208183000E+00 0.72785027349547E+00
 p    1 1.00
 0.28887547253000E+00 0.10000000000000E+01
 p    1 1.00
 0.10056823671000E+00 0.10000000000000E+01
 d    1 1.00
 0.10970000000000E+01 0.10000000000000E+01
 d    1 1.00
 0.31800000000000E+00 0.10000000000000E+01
 d    1 1.00
 0.90985336424000E-01 0.10000000000000E+01
 f    1 1.00
 0.76100000000000E+00 0.10000000000000E+01
 
    7 0
 s    3 1.00
 0.34061341000000E+02 0.25439307208879E-01
 0.51235746000000E+01 0.19008594890375E+00
 0.11646626000000E+01 0.85244113011042E+00
 s    1 1.00
 0.32723041000000E+00 0.10000000000000E+01
 s    1 1.00
 0.10307241000000E+00 0.10000000000000E+01
 p    1 1.00
 0.80000000000000E+00 0.10000000000000E+01
 p    1 1.00
 0.95774129632000E-01 0.10000000000000E+01
 
    8 0
 s    3 1.00
 0.34061341000000E+02 0.25439307208879E-01
 0.51235746000000E+01 0.19008594890375E+00
 0.11646626000000E+01 0.85244113011042E+00
 s    1 1.00
 0.32723041000000E+00 0.10000000000000E+01
 s    1 1.00
 0.10307241000000E+00 0.10000000000000E+01
 p    1 1.00
 0.80000000000000E+00 0.10000000000000E+01
 p    1 1.00
 0.95774129632000E-01 0.10000000000000E+01
 
    9 0
 s    3 1.00
 0.34061341000000E+02 0.25439307208879E-01
 0.51235746000000E+01 0.19008594890375E+00
 0.11646626000000E+01 0.85244113011042E+00
 s    1 1.00
 0.32723041000000E+00 0.10000000000000E+01
 s    1 1.00
 0.10307241000000E+00 0.10000000000000E+01
 p    1 1.00
 0.80000000000000E+00 0.10000000000000E+01
 p    1 1.00
 0.95774129632000E-01 0.10000000000000E+01
 
   10 0
 s    3 1.00
 0.34061341000000E+02 0.25439307208879E-01
 0.51235746000000E+01 0.19008594890375E+00
 0.11646626000000E+01 0.85244113011042E+00
 s    1 1.00
 0.32723041000000E+00 0.10000000000000E+01
 s    1 1.00
 0.10307241000000E+00 0.10000000000000E+01
 p    1 1.00
 0.80000000000000E+00 0.10000000000000E+01
 p    1 1.00
 0.95774129632000E-01 0.10000000000000E+01
 
   11 0
 s    6 1.00
 0.19730800647000E+05 0.58626402628763E-03
 0.29578958745000E+04 0.45428820586397E-02
 0.67322133595000E+03 0.23558413450084E-01
 0.19068249494000E+03 0.94709193292923E-01
 0.62295441898000E+02 0.29719784913376E+00
 0.22654161182000E+02 0.66916246895232E+00
 s    2 1.00
 0.89791477428000E+01 0.64596683630063E+00
 0.36863002370000E+01 0.38700574393705E+00
 s    1 1.00
 0.84660076805000E+00 0.10000000000000E+01
 s    1 1.00
 0.33647133771000E+00 0.10000000000000E+01
 s    1 1.00
 0.13647653675000E+00 0.10000000000000E+01
 s    1 1.00
 0.68441605847000E-01 0.10000000000000E+01
 p    4 1.00
 0.49200380510000E+02 0.11448825101764E-01
 0.11346790537000E+02 0.78422337970864E-01
 0.34273972411000E+01 0.30818094738830E+00
 0.11785525134000E+01 0.72027196368413E+00
 p    1 1.00
 0.41642204972000E+00 0.10000000000000E+01
 p    1 1.00
 0.14260826011000E+00 0.10000000000000E+01
 d    1 1.00
 0.16540000000000E+01 0.10000000000000E+01
 d    1 1.00
 0.46900000000000E+00 0.10000000000000E+01
 d    1 1.00
 0.12829642058000E+00 0.10000000000000E+01
 f    1 1.00
 0.10930000000000E+01 0.10000000000000E+01
 
   12 0
 s    6 1.00
 0.27032382631000E+05 0.57227335211155E-03
 0.40523871392000E+04 0.44353233492995E-02
 0.92232722710000E+03 0.23020107706038E-01
 0.26124070989000E+03 0.92822490667928E-01
 0.85354641351000E+02 0.29378500009671E+00
 0.31035035245000E+02 0.67401604501641E+00
 s    2 1.00
 0.12260860728000E+02 0.63839937025506E+00
 0.49987076005000E+01 0.39534587125718E+00
 s    1 1.00
 0.11703108158000E+01 0.10000000000000E+01
 s    1 1.00
 0.46474740994000E+00 0.10000000000000E+01
 s    1 1.00
 0.18504536357000E+00 0.10000000000000E+01
 s    1 1.00
 0.70288026270000E-01 0.10000000000000E+01
 p    4 1.00
 0.63274954801000E+02 0.12018332222616E-01
 0.14627049379000E+02 0.83005421790056E-01
 0.44501223456000E+01 0.31991743925964E+00
 0.15275799647000E+01 0.70715542916104E+00
 p    1 1.00
 0.52935117943000E+00 0.10000000000000E+01
 p    1 1.00
 0.17478421270000E+00 0.10000000000000E+01
 p    1 1.00
 0.51112745706000E-01 0.10000000000000E+01
 d    1 1.00
 0.23140000000000E+01 0.10000000000000E+01
 d    1 1.00
 0.64500000000000E+00 0.10000000000000E+01
 d    1 1.00
 0.14696477366000E+00 0.10000000000000E+01
 f    1 1.00
 0.14280000000000E+01 0.10000000000000E+01
 
   13 0
 s    6 1.00
 0.27032382631000E+05 0.57227335211155E-03
 0.40523871392000E+04 0.44353233492995E-02
 0.92232722710000E+03 0.23020107706038E-01
 0.26124070989000E+03 0.92822490667928E-01
 0.85354641351000E+02 0.29378500009671E+00
 0.31035035245000E+02 0.67401604501641E+00
 s    2 1.00
 0.12260860728000E+02 0.63839937025506E+00
 0.49987076005000E+01 0.39534587125718E+00
 s    1 1.00
 0.11703108158000E+01 0.10000000000000E+01
 s    1 1.00
 0.46474740994000E+00 0.10000000000000E+01
 s    1 1.00
 0.18504536357000E+00 0.10000000000000E+01
 s    1 1.00
 0.70288026270000E-01 0.10000000000000E+01
 p    4 1.00
 0.63274954801000E+02 0.12018332222616E-01
 0.14627049379000E+02 0.83005421790056E-01
 0.44501223456000E+01 0.31991743925964E+00
 0.15275799647000E+01 0.70715542916104E+00
 p    1 1.00
 0.52935117943000E+00 0.10000000000000E+01
 p    1 1.00
 0.17478421270000E+00 0.10000000000000E+01
 p    1 1.00
 0.51112745706000E-01 0.10000000000000E+01
 d    1 1.00
 0.23140000000000E+01 0.10000000000000E+01
 d    1 1.00
 0.64500000000000E+00 0.10000000000000E+01
 d    1 1.00
 0.14696477366000E+00 0.10000000000000E+01
 f    1 1.00
 0.14280000000000E+01 0.10000000000000E+01
 
   14 0
 s    6 1.00
 0.19730800647000E+05 0.58626402628763E-03
 0.29578958745000E+04 0.45428820586397E-02
 0.67322133595000E+03 0.23558413450084E-01
 0.19068249494000E+03 0.94709193292923E-01
 0.62295441898000E+02 0.29719784913376E+00
 0.22654161182000E+02 0.66916246895232E+00
 s    2 1.00
 0.89791477428000E+01 0.64596683630063E+00
 0.36863002370000E+01 0.38700574393705E+00
 s    1 1.00
 0.84660076805000E+00 0.10000000000000E+01
 s    1 1.00
 0.33647133771000E+00 0.10000000000000E+01
 s    1 1.00
 0.13647653675000E+00 0.10000000000000E+01
 s    1 1.00
 0.68441605847000E-01 0.10000000000000E+01
 p    4 1.00
 0.49200380510000E+02 0.11448825101764E-01
 0.11346790537000E+02 0.78422337970864E-01
 0.34273972411000E+01 0.30818094738830E+00
 0.11785525134000E+01 0.72027196368413E+00
 p    1 1.00
 0.41642204972000E+00 0.10000000000000E+01
 p    1 1.00
 0.14260826011000E+00 0.10000000000000E+01
 d    1 1.00
 0.16540000000000E+01 0.10000000000000E+01
 d    1 1.00
 0.46900000000000E+00 0.10000000000000E+01
 d    1 1.00
 0.12829642058000E+00 0.10000000000000E+01
 f    1 1.00
 0.10930000000000E+01 0.10000000000000E+01
 
   15 0
 s    3 1.00
 0.34061341000000E+02 0.25439307208879E-01
 0.51235746000000E+01 0.19008594890375E+00
 0.11646626000000E+01 0.85244113011042E+00
 s    1 1.00
 0.32723041000000E+00 0.10000000000000E+01
 s    1 1.00
 0.10307241000000E+00 0.10000000000000E+01
 p    1 1.00
 0.80000000000000E+00 0.10000000000000E+01
 p    1 1.00
 0.95774129632000E-01 0.10000000000000E+01
 
   16 0
 s    3 1.00
 0.34061341000000E+02 0.25439307208879E-01
 0.51235746000000E+01 0.19008594890375E+00
 0.11646626000000E+01 0.85244113011042E+00
 s    1 1.00
 0.32723041000000E+00 0.10000000000000E+01
 s    1 1.00
 0.10307241000000E+00 0.10000000000000E+01
 p    1 1.00
 0.80000000000000E+00 0.10000000000000E+01
 p    1 1.00
 0.95774129632000E-01 0.10000000000000E+01
 
[MO]
 Sym= X
 Ene= -0.899772
 Spin= Alpha
 Occup= -0.899772
         1    1.002651E-03
         2    2.314728E-03
         3    4.546478E-04
         4   -3.456025E-02
         5   -2.642818E-01
         6    3.649824E-02
         7   -1.848160E-02
         8    3.712482E-02
         9   -7.532061E-05
        10   -6.070394E-04
        11    3.294431E-02
        12   -7.297556E-05
        13   -1.731624E-02
        14    8.304652E-02
        15   -1.927466E-04
        16    1.883951E-03
        17   -2.099290E-03
        18    2.153390E-04
        19    2.220083E-05
        20   -2.543311E-06
        21    3.070083E-06
        22   -3.105181E-03
        23    1.234259E-04
        24    2.981755E-03
        25    2.930879E-04
        26   -1.131967E-05
        27    1.231414E-05
        28   -1.134789E-03
        29    3.132939E-04
        30    8.214947E-04
        31   -1.257299E-02
        32    3.927978E-05
        33   -8.102666E-05
        34    1.575100E-04
        35    4.249258E-04
        36    6.708928E-07
        37   -1.602761E-04
        38   -4.775955E-04
        39    1.168436E-08
        40   -5.104571E-05
        41   -9.250222E-05
        42   -9.117815E-07
        43   -7.214159E-07
        44   -1.426269E-02
        45   -3.224179E-02
        46    4.773210E-02
        47    8.512731E-02
        48    2.076685E-01
        49   -2.944862E-02
        50    1.350141E-01
        51    1.130758E-06
        52    7.056336E-05
        53    1.038148E-01
        54    2.913605E-06
        55    1.220737E-05
        56   -7.735301E-02
        57    9.011910E-07
        58   -5.331304E-04
        59    4.800697E-03
        60   -4.120771E-03
        61   -6.799264E-04
        62   -1.327780E-08
        63    1.830010E-05
        64   -6.721030E-08
        65    1.094229E-03
        66   -9.934305E-04
        67   -1.007985E-04
        68   -9.933758E-07
        69    1.994421E-06
        70   -2.270131E-07
        71   -4.487791E-02
        72    4.560468E-02
        73   -7.267665E-04
        74    1.656593E-06
        75   -1.249682E-04
        76    4.262569E-06
        77    1.022721E-03
        78    3.454039E-08
        79   -1.374418E-06
        80   -8.166314E-04
        81   -2.569026E-08
        82    4.952090E-06
        83   -5.554930E-04
        84   -2.065053E-08
        85   -3.108116E-06
        86    2.286007E-08
        87    1.003032E-03
        88    2.315596E-03
        89    4.523254E-04
        90   -3.455732E-02
        91   -2.643921E-01
        92    3.651747E-02
        93   -1.848426E-02
        94   -3.712455E-02
        95   -7.122611E-05
        96   -6.096578E-04
        97   -3.294150E-02
        98   -6.927183E-05
        99   -1.725799E-02
       100   -8.302395E-02
       101   -1.973539E-04
       102    1.884023E-03
       103   -2.099395E-03
       104    2.153728E-04
       105   -2.219465E-05
       106   -2.665558E-06
       107   -3.059247E-06
       108   -3.104560E-03
       109    1.236621E-04
       110    2.980898E-03
       111   -2.927332E-04
       112   -1.151652E-05
       113   -1.227962E-05
       114   -1.138540E-03
       115    3.191300E-04
       116    8.194099E-04
       117    1.259389E-02
       118    4.926356E-05
       119    8.629631E-05
       120    1.574787E-04
       121   -4.249329E-04
       122    6.699486E-07
       123   -1.602434E-04
       124    4.776028E-04
       125    2.511312E-08
       126   -5.103647E-05
       127    9.250450E-05
       128   -9.239435E-07
       129    7.085960E-07
       130   -1.798579E-03
       131   -4.090138E-03
       132    3.359289E-03
       133    3.388498E-02
       134    1.251338E-01
       135   -3.190467E-02
       136    1.967877E-02
       137    7.384487E-03
       138    1.381734E-04
       139    3.267497E-02
       140    6.489931E-03
       141    1.717825E-04
       142    3.612627E-02
       143    5.055589E-02
       144    2.882205E-04
       145    5.487708E-04
       146   -4.421638E-04
       147   -1.066070E-04
       148   -1.350310E-03
       149   -1.820581E-06
       150   -7.625916E-07
       151    3.847444E-03
       152   -1.672332E-03
       153   -2.175111E-03
       154   -2.120587E-03
       155    1.605228E-05
       156    1.121386E-05
       157    4.444300E-03
       158   -4.622439E-03
       159    1.781392E-04
       160    2.000705E-02
       161    1.357664E-04
       162    1.193047E-06
       163    2.489564E-04
       164    2.301565E-04
       165   -1.293081E-06
       166   -1.693918E-04
       167   -3.125279E-04
       168    9.345967E-07
       169   -1.646182E-04
       170    3.740556E-06
       171    8.002542E-07
       172   -4.829137E-07
       173   -1.856681E-03
       174   -4.267044E-03
       175    8.830715E-03
       176   -3.072379E-05
       177    2.593630E-02
       178    3.349352E-02
       179    6.098179E-03
       180    4.264643E-07
       181    8.373154E-05
       182    3.198817E-03
       183    1.982420E-07
       184    1.509409E-04
       185   -3.143322E-02
       186    3.762597E-05
       187    5.365727E-04
       188    2.480999E-04
       189   -2.461552E-04
       190   -1.944713E-06
       191   -1.227570E-08
       192    8.302135E-06
       193   -9.169700E-08
       194   -5.583198E-04
       195   -3.502605E-04
       196    9.085804E-04
       197   -2.404324E-08
       198   -1.454730E-05
       199   -2.270089E-07
       200    1.531444E-02
       201   -1.597714E-02
       202    6.626965E-04
       203    1.346016E-07
       204   -2.794610E-04
       205   -5.967572E-06
       206   -2.682005E-05
       207    1.452303E-08
       208   -8.429028E-07
       209    3.779089E-05
       210   -1.576070E-08
       211    6.047554E-07
       212   -1.808018E-06
       213   -3.723989E-09
       214    5.261174E-07
       215   -1.333391E-08
       216   -1.798407E-03
       217   -4.089743E-03
       218    3.358160E-03
       219    3.388898E-02
       220    1.249880E-01
       221   -3.189858E-02
       222    1.967703E-02
       223   -7.384298E-03
       224    1.333154E-04
       225    3.267521E-02
       226   -6.489561E-03
       227    1.667086E-04
       228    3.610157E-02
       229   -5.050927E-02
       230    2.829233E-04
       231    5.487626E-04
       232   -4.421515E-04
       233   -1.066111E-04
       234    1.350342E-03
       235   -1.897653E-06
       236    7.717606E-07
       237    3.847546E-03
       238   -1.672184E-03
       239   -2.175362E-03
       240    2.120435E-03
       241    1.557376E-05
       242   -1.117533E-05
       243    4.432028E-03
       244   -4.611555E-03
       245    1.795270E-04
       246   -2.001644E-02
       247    1.249559E-04
       248   -5.252285E-06
       249    2.489690E-04
       250   -2.301567E-04
       251   -1.257649E-06
       252   -1.693988E-04
       253    3.125316E-04
       254    8.889195E-07
       255   -1.646282E-04
       256   -3.744024E-06
       257    7.983931E-07
       258    4.770190E-07
       259    3.312585E-03
       260    4.137475E-03
       261    1.443990E-02
       262   -1.982547E-03
       263   -5.389686E-04
       264   -7.406047E-06
       265   -6.707733E-03
       266   -4.193893E-04
       267    3.002345E-05
       268    3.311636E-03
       269    4.134233E-03
       270    1.448068E-02
       271   -1.982352E-03
       272    5.387402E-04
       273   -7.274962E-06
       274   -6.690270E-03
       275    4.312821E-04
       276    3.102365E-05
       277   -9.331567E-03
       278   -1.552952E-02
       279   -1.849146E-02
       280    1.268222E-04
       281   -1.387609E-03
       282   -3.116565E-06
       283    7.335194E-03
       284   -2.650419E-03
       285    2.211941E-05
       286   -9.331368E-03
       287   -1.553011E-02
       288   -1.852806E-02
       289    1.267670E-04
       290    1.387606E-03
       291   -3.139467E-06
       292    7.333446E-03
       293    2.649588E-03
       294    2.021138E-05
       295   -1.514693E-03
       296   -3.422765E-03
       297    8.186905E-04
       298    2.862398E-02
       299    1.545487E-01
       300   -1.830480E-02
       301   -1.051172E-01
       302    2.920884E-06
       303   -2.626337E-04
       304   -9.842879E-02
       305    2.291764E-06
       306   -2.505155E-04
       307   -9.855911E-02
       308    1.002063E-05
       309   -2.015996E-04
       310    1.180929E-02
       311   -1.308067E-02
       312    1.271380E-03
       313    4.108742E-07
       314    3.660313E-05
       315    2.175844E-07
       316    3.355589E-02
       317   -3.481648E-02
       318    1.260587E-03
       319    5.709404E-07
       320    1.107565E-04
       321    5.982582E-07
       322   -1.324517E-02
       323    2.946524E-03
       324    1.029865E-02
       325   -1.029671E-05
       326   -7.805686E-05
       327   -7.917919E-07
       328    3.924882E-05
       329   -8.671690E-08
       330    1.190354E-06
       331   -2.832692E-04
       332    1.129161E-07
       333   -1.545464E-06
       334    2.306114E-04
       335    3.426793E-09
       336   -5.156381E-08
       337    2.576154E-08
       338    5.549507E-04
       339    1.458797E-03
       340   -1.405757E-03
       341    1.012579E-02
       342    6.514985E-03
       343    1.852081E-02
       344    3.110567E-01
       345    5.997618E-02
       346    9.024870E-04
       347    2.737628E-01
       348    5.795208E-02
       349    7.989681E-04
       350    2.032481E-01
       351    4.917127E-02
       352    5.787708E-04
       353    1.598055E-02
       354    8.731460E-03
       355    4.400114E-05
       356   -1.004944E-03
       357    2.267653E-04
       358    7.781785E-04
       359    2.648763E-03
       360   -5.457541E-06
       361    7.980532E-06
       362   -4.098122E-03
       363    1.841924E-03
       364    2.256199E-03
       365    6.013948E-03
       366   -1.861936E-05
       367    1.869732E-05
       368   -5.192005E-03
       369    3.933435E-03
       370    1.258570E-03
       371    5.753485E-03
       372   -7.374401E-06
       373    1.708915E-05
       374   -2.977697E-04
       375    5.305045E-04
       376   -1.439622E-06
       377    6.227096E-04
       378   -9.712969E-04
       379    2.118110E-08
       380   -2.232096E-04
       381    2.595503E-04
       382    1.910274E-06
       383   -4.015265E-06
       384    5.554315E-04
       385    1.459958E-03
       386   -1.407629E-03
       387    1.012318E-02
       388    6.519647E-03
       389    1.854016E-02
       390    3.110766E-01
       391   -5.999732E-02
       392    9.082275E-04
       393    2.737795E-01
       394   -5.797093E-02
       395    8.044472E-04
       396    2.032800E-01
       397   -4.918551E-02
       398    5.821358E-04
       399    1.598081E-02
       400   -8.733745E-03
       401    4.585283E-05
       402   -1.005070E-03
       403    2.270131E-04
       404    7.780567E-04
       405   -2.648705E-03
       406   -5.463600E-06
       407   -7.997637E-06
       408   -4.098724E-03
       409    1.842776E-03
       410    2.255947E-03
       411   -6.014124E-03
       412   -1.863160E-05
       413   -1.880772E-05
       414   -5.193166E-03
       415    3.935647E-03
       416    1.257518E-03
       417   -5.759515E-03
       418   -9.886550E-06
       419   -1.553833E-05
       420   -2.977123E-04
       421   -5.305779E-04
       422   -1.417795E-06
       423    6.226435E-04
       424    9.713588E-04
       425   -3.063780E-08
       426   -2.232205E-04
       427   -2.595138E-04
       428    1.932809E-06
       429    4.021021E-06
       430   -3.595382E-04
       431   -8.479040E-04
       432    1.003127E-03
       433    5.346780E-03
       434   -2.175486E-02
       435   -2.115981E-02
       436   -3.119535E-04
       437   -1.232449E-07
       438   -9.805971E-05
       439    8.033292E-04
       440   -6.700123E-08
       441   -8.993382E-05
       442   -1.252971E-03
       443   -2.359261E-06
       444   -4.027267E-04
       445    3.006663E-05
       446   -2.326309E-05
       447   -6.803540E-06
       448    1.286360E-08
       449   -4.595651E-06
       450   -6.088879E-09
       451    1.571287E-04
       452   -2.780401E-04
       453    1.209114E-04
       454    1.224473E-08
       455    1.353693E-05
       456   -2.384722E-09
       457    8.056232E-04
       458   -1.974065E-04
       459   -6.082167E-04
       460   -3.188215E-07
       461   -1.416268E-04
       462    1.899950E-07
       463    2.481925E-06
       464   -2.205142E-09
       465    3.350036E-06
       466   -1.305419E-05
       467    3.316767E-09
       468    1.680806E-08
       469    9.724339E-06
       470   -3.582582E-10
       471   -4.511353E-06
       472   -1.530559E-09
       473    7.584426E-05
       474    5.388584E-04
       475   -2.765565E-03
       476    1.958191E-05
       477    1.706952E-04
       478   -3.868934E-05
       479   -1.817252E-03
       480   -1.045921E-03
       481   -3.676020E-04
       482    7.567063E-05
       483    5.386456E-04
       484   -2.763078E-03
       485    1.957449E-05
       486   -1.706709E-04
       487   -3.872387E-05
       488   -1.815871E-03
       489    1.046080E-03
       490   -3.682262E-04
 Sym= X
 Ene= 0.899772
 Spin= Alpha
 Occup= 0.899772
         1   -1.905978E-05
         2   -4.633002E-05
         3    2.260912E-04
         4   -8.055338E-04
         5   -2.368079E-02
         6   -1.319127E-03
         7   -2.793908E-04
         8   -7.293380E-05
         9    9.985389E-02
        10    3.290136E-05
        11   -5.379562E-05
        12    9.984736E-02
        13    2.589407E-02
        14   -2.256447E-02
        15    5.800881E-02
        16    5.287929E-06
        17   -2.020789E-06
        18   -3.267140E-06
        19    6.978997E-06
        20   -9.405235E-05
        21   -2.147090E-04
        22   -1.910002E-04
        23    7.199159E-05
        24    1.190086E-04
        25   -7.239356E-05
        26    4.063422E-03
        27    1.197899E-03
        28   -7.878076E-03
        29    8.515274E-03
        30   -6.371978E-04
        31    3.794732E-04
        32    2.966589E-03
        33    1.691374E-02
        34    6.965184E-06
        35   -1.351149E-06
        36   -1.616876E-04
        37   -6.874026E-06
        38   -1.121454E-06
        39   -9.768465E-05
        40   -2.470749E-06
        41    2.934210E-06
        42    3.146114E-04
        43    9.201998E-05
        44   -7.532586E-07
        45    1.946261E-06
        46   -1.050134E-04
        47    1.760386E-03
        48   -8.440056E-02
        49   -5.650313E-03
        50    3.358234E-05
        51   -1.401429E-08
        52   -2.047971E-02
        53   -2.209266E-04
        54   -7.304976E-06
        55   -1.750415E-02
        56    2.746245E-02
        57   -9.329339E-05
        58    5.408299E-02
        59    4.232722E-05
        60    3.349052E-06
        61   -4.567627E-05
        62   -1.212555E-07