[Molden Format]
[Title]
ADC(2) - opt by CAM-B3LYP gaussian                                              
[Atoms] AU
 c     1    6 0.12592752280008E+01 0.22800132789445E+01 -.35345910021030E-01
 c     2    6 0.25511638220345E+01 0.20078340100000E-05 -.33671612667290E-01
 c     3    6 0.12592790074531E+01 -.22800111530026E+01 -.35357248377820E-01
 c     4    6 -.13364450292264E+01 -.22798221803893E+01 -.38530098554940E-01
 c     5    6 -.26857699593430E+01 -.17716182500000E-05 -.39025206801750E-01
 c     6    6 -.13364469189525E+01 0.22798205268790E+01 -.38516870472010E-01
 h     7    1 0.23055183220207E+01 0.40307538342087E+01 -.32265656424420E-01
 h     8    1 0.23055239911991E+01 -.40307498185407E+01 -.32284553685750E-01
 h     9    1 -.23548467881305E+01 -.40530977197882E+01 -.43619131030800E-01
 h    10    1 -.23548543470350E+01 0.40530922868255E+01 -.43594564591070E-01
 n    11    7 0.52860567397703E+01 0.11810788000000E-06 -.26776002008390E-01
 o    12    8 0.63771222479361E+01 -.20280728649663E+01 -.23850705954680E-01
 o    13    8 0.63771260273883E+01 0.20280712114559E+01 -.23882831298940E-01
 n    14    7 -.52615573853205E+01 0.11810788000000E-06 -.10505223788478E+00
 h    15    1 -.61955753134867E+01 -.16086254730588E+01 0.27588253543458E+00
 h    16    1 -.61955696443083E+01 0.16086275990006E+01 0.27589009433911E+00
[GTO]
    1 0
 s    6 1.00
 0.13575349682000E+05 0.60645503603591E-03
 0.20352333680000E+04 0.46979088884982E-02
 0.46322562359000E+03 0.24332477647552E-01
 0.13120019598000E+03 0.97399968307759E-01
 0.42853015891000E+02 0.30195584253780E+00
 0.15584185766000E+02 0.66233609137875E+00
 s    2 1.00
 0.62067138508000E+01 0.65595308539952E+00
 0.25764896527000E+01 0.37585633285142E+00
 s    1 1.00
 0.57696339419000E+00 0.10000000000000E+01
 s    1 1.00
 0.22972831358000E+00 0.10000000000000E+01
 s    1 1.00
 0.95164440028000E-01 0.10000000000000E+01
 s    1 1.00
 0.48475401370000E-01 0.10000000000000E+01
 p    4 1.00
 0.34697232244000E+02 0.11327220003114E-01
 0.79582622826000E+01 0.76169659202087E-01
 0.23780826883000E+01 0.30192252202676E+00
 0.81433208183000E+00 0.72785027349547E+00
 p    1 1.00
 0.28887547253000E+00 0.10000000000000E+01
 p    1 1.00
 0.10056823671000E+00 0.10000000000000E+01
 d    1 1.00
 0.10970000000000E+01 0.10000000000000E+01
 d    1 1.00
 0.31800000000000E+00 0.10000000000000E+01
 d    1 1.00
 0.90985336424000E-01 0.10000000000000E+01
 f    1 1.00
 0.76100000000000E+00 0.10000000000000E+01
 
    2 0
 s    6 1.00
 0.13575349682000E+05 0.60645503603591E-03
 0.20352333680000E+04 0.46979088884982E-02
 0.46322562359000E+03 0.24332477647552E-01
 0.13120019598000E+03 0.97399968307759E-01
 0.42853015891000E+02 0.30195584253780E+00
 0.15584185766000E+02 0.66233609137875E+00
 s    2 1.00
 0.62067138508000E+01 0.65595308539952E+00
 0.25764896527000E+01 0.37585633285142E+00
 s    1 1.00
 0.57696339419000E+00 0.10000000000000E+01
 s    1 1.00
 0.22972831358000E+00 0.10000000000000E+01
 s    1 1.00
 0.95164440028000E-01 0.10000000000000E+01
 s    1 1.00
 0.48475401370000E-01 0.10000000000000E+01
 p    4 1.00
 0.34697232244000E+02 0.11327220003114E-01
 0.79582622826000E+01 0.76169659202087E-01
 0.23780826883000E+01 0.30192252202676E+00
 0.81433208183000E+00 0.72785027349547E+00
 p    1 1.00
 0.28887547253000E+00 0.10000000000000E+01
 p    1 1.00
 0.10056823671000E+00 0.10000000000000E+01
 d    1 1.00
 0.10970000000000E+01 0.10000000000000E+01
 d    1 1.00
 0.31800000000000E+00 0.10000000000000E+01
 d    1 1.00
 0.90985336424000E-01 0.10000000000000E+01
 f    1 1.00
 0.76100000000000E+00 0.10000000000000E+01
 
    3 0
 s    6 1.00
 0.13575349682000E+05 0.60645503603591E-03
 0.20352333680000E+04 0.46979088884982E-02
 0.46322562359000E+03 0.24332477647552E-01
 0.13120019598000E+03 0.97399968307759E-01
 0.42853015891000E+02 0.30195584253780E+00
 0.15584185766000E+02 0.66233609137875E+00
 s    2 1.00
 0.62067138508000E+01 0.65595308539952E+00
 0.25764896527000E+01 0.37585633285142E+00
 s    1 1.00
 0.57696339419000E+00 0.10000000000000E+01
 s    1 1.00
 0.22972831358000E+00 0.10000000000000E+01
 s    1 1.00
 0.95164440028000E-01 0.10000000000000E+01
 s    1 1.00
 0.48475401370000E-01 0.10000000000000E+01
 p    4 1.00
 0.34697232244000E+02 0.11327220003114E-01
 0.79582622826000E+01 0.76169659202087E-01
 0.23780826883000E+01 0.30192252202676E+00
 0.81433208183000E+00 0.72785027349547E+00
 p    1 1.00
 0.28887547253000E+00 0.10000000000000E+01
 p    1 1.00
 0.10056823671000E+00 0.10000000000000E+01
 d    1 1.00
 0.10970000000000E+01 0.10000000000000E+01
 d    1 1.00
 0.31800000000000E+00 0.10000000000000E+01
 d    1 1.00
 0.90985336424000E-01 0.10000000000000E+01
 f    1 1.00
 0.76100000000000E+00 0.10000000000000E+01
 
    4 0
 s    6 1.00
 0.13575349682000E+05 0.60645503603591E-03
 0.20352333680000E+04 0.46979088884982E-02
 0.46322562359000E+03 0.24332477647552E-01
 0.13120019598000E+03 0.97399968307759E-01
 0.42853015891000E+02 0.30195584253780E+00
 0.15584185766000E+02 0.66233609137875E+00
 s    2 1.00
 0.62067138508000E+01 0.65595308539952E+00
 0.25764896527000E+01 0.37585633285142E+00
 s    1 1.00
 0.57696339419000E+00 0.10000000000000E+01
 s    1 1.00
 0.22972831358000E+00 0.10000000000000E+01
 s    1 1.00
 0.95164440028000E-01 0.10000000000000E+01
 s    1 1.00
 0.48475401370000E-01 0.10000000000000E+01
 p    4 1.00
 0.34697232244000E+02 0.11327220003114E-01
 0.79582622826000E+01 0.76169659202087E-01
 0.23780826883000E+01 0.30192252202676E+00
 0.81433208183000E+00 0.72785027349547E+00
 p    1 1.00
 0.28887547253000E+00 0.10000000000000E+01
 p    1 1.00
 0.10056823671000E+00 0.10000000000000E+01
 d    1 1.00
 0.10970000000000E+01 0.10000000000000E+01
 d    1 1.00
 0.31800000000000E+00 0.10000000000000E+01
 d    1 1.00
 0.90985336424000E-01 0.10000000000000E+01
 f    1 1.00
 0.76100000000000E+00 0.10000000000000E+01
 
    5 0
 s    6 1.00
 0.13575349682000E+05 0.60645503603591E-03
 0.20352333680000E+04 0.46979088884982E-02
 0.46322562359000E+03 0.24332477647552E-01
 0.13120019598000E+03 0.97399968307759E-01
 0.42853015891000E+02 0.30195584253780E+00
 0.15584185766000E+02 0.66233609137875E+00
 s    2 1.00
 0.62067138508000E+01 0.65595308539952E+00
 0.25764896527000E+01 0.37585633285142E+00
 s    1 1.00
 0.57696339419000E+00 0.10000000000000E+01
 s    1 1.00
 0.22972831358000E+00 0.10000000000000E+01
 s    1 1.00
 0.95164440028000E-01 0.10000000000000E+01
 s    1 1.00
 0.48475401370000E-01 0.10000000000000E+01
 p    4 1.00
 0.34697232244000E+02 0.11327220003114E-01
 0.79582622826000E+01 0.76169659202087E-01
 0.23780826883000E+01 0.30192252202676E+00
 0.81433208183000E+00 0.72785027349547E+00
 p    1 1.00
 0.28887547253000E+00 0.10000000000000E+01
 p    1 1.00
 0.10056823671000E+00 0.10000000000000E+01
 d    1 1.00
 0.10970000000000E+01 0.10000000000000E+01
 d    1 1.00
 0.31800000000000E+00 0.10000000000000E+01
 d    1 1.00
 0.90985336424000E-01 0.10000000000000E+01
 f    1 1.00
 0.76100000000000E+00 0.10000000000000E+01
 
    6 0
 s    6 1.00
 0.13575349682000E+05 0.60645503603591E-03
 0.20352333680000E+04 0.46979088884982E-02
 0.46322562359000E+03 0.24332477647552E-01
 0.13120019598000E+03 0.97399968307759E-01
 0.42853015891000E+02 0.30195584253780E+00
 0.15584185766000E+02 0.66233609137875E+00
 s    2 1.00
 0.62067138508000E+01 0.65595308539952E+00
 0.25764896527000E+01 0.37585633285142E+00
 s    1 1.00
 0.57696339419000E+00 0.10000000000000E+01
 s    1 1.00
 0.22972831358000E+00 0.10000000000000E+01
 s    1 1.00
 0.95164440028000E-01 0.10000000000000E+01
 s    1 1.00
 0.48475401370000E-01 0.10000000000000E+01
 p    4 1.00
 0.34697232244000E+02 0.11327220003114E-01
 0.79582622826000E+01 0.76169659202087E-01
 0.23780826883000E+01 0.30192252202676E+00
 0.81433208183000E+00 0.72785027349547E+00
 p    1 1.00
 0.28887547253000E+00 0.10000000000000E+01
 p    1 1.00
 0.10056823671000E+00 0.10000000000000E+01
 d    1 1.00
 0.10970000000000E+01 0.10000000000000E+01
 d    1 1.00
 0.31800000000000E+00 0.10000000000000E+01
 d    1 1.00
 0.90985336424000E-01 0.10000000000000E+01
 f    1 1.00
 0.76100000000000E+00 0.10000000000000E+01
 
    7 0
 s    3 1.00
 0.34061341000000E+02 0.25439307208879E-01
 0.51235746000000E+01 0.19008594890375E+00
 0.11646626000000E+01 0.85244113011042E+00
 s    1 1.00
 0.32723041000000E+00 0.10000000000000E+01
 s    1 1.00
 0.10307241000000E+00 0.10000000000000E+01
 p    1 1.00
 0.80000000000000E+00 0.10000000000000E+01
 p    1 1.00
 0.95774129632000E-01 0.10000000000000E+01
 
    8 0
 s    3 1.00
 0.34061341000000E+02 0.25439307208879E-01
 0.51235746000000E+01 0.19008594890375E+00
 0.11646626000000E+01 0.85244113011042E+00
 s    1 1.00
 0.32723041000000E+00 0.10000000000000E+01
 s    1 1.00
 0.10307241000000E+00 0.10000000000000E+01
 p    1 1.00
 0.80000000000000E+00 0.10000000000000E+01
 p    1 1.00
 0.95774129632000E-01 0.10000000000000E+01
 
    9 0
 s    3 1.00
 0.34061341000000E+02 0.25439307208879E-01
 0.51235746000000E+01 0.19008594890375E+00
 0.11646626000000E+01 0.85244113011042E+00
 s    1 1.00
 0.32723041000000E+00 0.10000000000000E+01
 s    1 1.00
 0.10307241000000E+00 0.10000000000000E+01
 p    1 1.00
 0.80000000000000E+00 0.10000000000000E+01
 p    1 1.00
 0.95774129632000E-01 0.10000000000000E+01
 
   10 0
 s    3 1.00
 0.34061341000000E+02 0.25439307208879E-01
 0.51235746000000E+01 0.19008594890375E+00
 0.11646626000000E+01 0.85244113011042E+00
 s    1 1.00
 0.32723041000000E+00 0.10000000000000E+01
 s    1 1.00
 0.10307241000000E+00 0.10000000000000E+01
 p    1 1.00
 0.80000000000000E+00 0.10000000000000E+01
 p    1 1.00
 0.95774129632000E-01 0.10000000000000E+01
 
   11 0
 s    6 1.00
 0.19730800647000E+05 0.58626402628763E-03
 0.29578958745000E+04 0.45428820586397E-02
 0.67322133595000E+03 0.23558413450084E-01
 0.19068249494000E+03 0.94709193292923E-01
 0.62295441898000E+02 0.29719784913376E+00
 0.22654161182000E+02 0.66916246895232E+00
 s    2 1.00
 0.89791477428000E+01 0.64596683630063E+00
 0.36863002370000E+01 0.38700574393705E+00
 s    1 1.00
 0.84660076805000E+00 0.10000000000000E+01
 s    1 1.00
 0.33647133771000E+00 0.10000000000000E+01
 s    1 1.00
 0.13647653675000E+00 0.10000000000000E+01
 s    1 1.00
 0.68441605847000E-01 0.10000000000000E+01
 p    4 1.00
 0.49200380510000E+02 0.11448825101764E-01
 0.11346790537000E+02 0.78422337970864E-01
 0.34273972411000E+01 0.30818094738830E+00
 0.11785525134000E+01 0.72027196368413E+00
 p    1 1.00
 0.41642204972000E+00 0.10000000000000E+01
 p    1 1.00
 0.14260826011000E+00 0.10000000000000E+01
 d    1 1.00
 0.16540000000000E+01 0.10000000000000E+01
 d    1 1.00
 0.46900000000000E+00 0.10000000000000E+01
 d    1 1.00
 0.12829642058000E+00 0.10000000000000E+01
 f    1 1.00
 0.10930000000000E+01 0.10000000000000E+01
 
   12 0
 s    6 1.00
 0.27032382631000E+05 0.57227335211155E-03
 0.40523871392000E+04 0.44353233492995E-02
 0.92232722710000E+03 0.23020107706038E-01
 0.26124070989000E+03 0.92822490667928E-01
 0.85354641351000E+02 0.29378500009671E+00
 0.31035035245000E+02 0.67401604501641E+00
 s    2 1.00
 0.12260860728000E+02 0.63839937025506E+00
 0.49987076005000E+01 0.39534587125718E+00
 s    1 1.00
 0.11703108158000E+01 0.10000000000000E+01
 s    1 1.00
 0.46474740994000E+00 0.10000000000000E+01
 s    1 1.00
 0.18504536357000E+00 0.10000000000000E+01
 s    1 1.00
 0.70288026270000E-01 0.10000000000000E+01
 p    4 1.00
 0.63274954801000E+02 0.12018332222616E-01
 0.14627049379000E+02 0.83005421790056E-01
 0.44501223456000E+01 0.31991743925964E+00
 0.15275799647000E+01 0.70715542916104E+00
 p    1 1.00
 0.52935117943000E+00 0.10000000000000E+01
 p    1 1.00
 0.17478421270000E+00 0.10000000000000E+01
 p    1 1.00
 0.51112745706000E-01 0.10000000000000E+01
 d    1 1.00
 0.23140000000000E+01 0.10000000000000E+01
 d    1 1.00
 0.64500000000000E+00 0.10000000000000E+01
 d    1 1.00
 0.14696477366000E+00 0.10000000000000E+01
 f    1 1.00
 0.14280000000000E+01 0.10000000000000E+01
 
   13 0
 s    6 1.00
 0.27032382631000E+05 0.57227335211155E-03
 0.40523871392000E+04 0.44353233492995E-02
 0.92232722710000E+03 0.23020107706038E-01
 0.26124070989000E+03 0.92822490667928E-01
 0.85354641351000E+02 0.29378500009671E+00
 0.31035035245000E+02 0.67401604501641E+00
 s    2 1.00
 0.12260860728000E+02 0.63839937025506E+00
 0.49987076005000E+01 0.39534587125718E+00
 s    1 1.00
 0.11703108158000E+01 0.10000000000000E+01
 s    1 1.00
 0.46474740994000E+00 0.10000000000000E+01
 s    1 1.00
 0.18504536357000E+00 0.10000000000000E+01
 s    1 1.00
 0.70288026270000E-01 0.10000000000000E+01
 p    4 1.00
 0.63274954801000E+02 0.12018332222616E-01
 0.14627049379000E+02 0.83005421790056E-01
 0.44501223456000E+01 0.31991743925964E+00
 0.15275799647000E+01 0.70715542916104E+00
 p    1 1.00
 0.52935117943000E+00 0.10000000000000E+01
 p    1 1.00
 0.17478421270000E+00 0.10000000000000E+01
 p    1 1.00
 0.51112745706000E-01 0.10000000000000E+01
 d    1 1.00
 0.23140000000000E+01 0.10000000000000E+01
 d    1 1.00
 0.64500000000000E+00 0.10000000000000E+01
 d    1 1.00
 0.14696477366000E+00 0.10000000000000E+01
 f    1 1.00
 0.14280000000000E+01 0.10000000000000E+01
 
   14 0
 s    6 1.00
 0.19730800647000E+05 0.58626402628763E-03
 0.29578958745000E+04 0.45428820586397E-02
 0.67322133595000E+03 0.23558413450084E-01
 0.19068249494000E+03 0.94709193292923E-01
 0.62295441898000E+02 0.29719784913376E+00
 0.22654161182000E+02 0.66916246895232E+00
 s    2 1.00
 0.89791477428000E+01 0.64596683630063E+00
 0.36863002370000E+01 0.38700574393705E+00
 s    1 1.00
 0.84660076805000E+00 0.10000000000000E+01
 s    1 1.00
 0.33647133771000E+00 0.10000000000000E+01
 s    1 1.00
 0.13647653675000E+00 0.10000000000000E+01
 s    1 1.00
 0.68441605847000E-01 0.10000000000000E+01
 p    4 1.00
 0.49200380510000E+02 0.11448825101764E-01
 0.11346790537000E+02 0.78422337970864E-01
 0.34273972411000E+01 0.30818094738830E+00
 0.11785525134000E+01 0.72027196368413E+00
 p    1 1.00
 0.41642204972000E+00 0.10000000000000E+01
 p    1 1.00
 0.14260826011000E+00 0.10000000000000E+01
 d    1 1.00
 0.16540000000000E+01 0.10000000000000E+01
 d    1 1.00
 0.46900000000000E+00 0.10000000000000E+01
 d    1 1.00
 0.12829642058000E+00 0.10000000000000E+01
 f    1 1.00
 0.10930000000000E+01 0.10000000000000E+01
 
   15 0
 s    3 1.00
 0.34061341000000E+02 0.25439307208879E-01
 0.51235746000000E+01 0.19008594890375E+00
 0.11646626000000E+01 0.85244113011042E+00
 s    1 1.00
 0.32723041000000E+00 0.10000000000000E+01
 s    1 1.00
 0.10307241000000E+00 0.10000000000000E+01
 p    1 1.00
 0.80000000000000E+00 0.10000000000000E+01
 p    1 1.00
 0.95774129632000E-01 0.10000000000000E+01
 
   16 0
 s    3 1.00
 0.34061341000000E+02 0.25439307208879E-01
 0.51235746000000E+01 0.19008594890375E+00
 0.11646626000000E+01 0.85244113011042E+00
 s    1 1.00
 0.32723041000000E+00 0.10000000000000E+01
 s    1 1.00
 0.10307241000000E+00 0.10000000000000E+01
 p    1 1.00
 0.80000000000000E+00 0.10000000000000E+01
 p    1 1.00
 0.95774129632000E-01 0.10000000000000E+01
 
[MO]
 Sym= X
 Ene= -0.894768
 Spin= Alpha
 Occup= -0.894768
         1   -2.768614E-04
         2   -6.431350E-04
         3    1.850043E-03
         4   -4.515028E-03
         5    2.612662E-02
         6   -1.729322E-02
         7   -2.477430E-03
         8   -2.370965E-04
         9    2.697670E-02
        10    4.020454E-03
        11   -7.001659E-04
        12    2.513826E-02
        13    4.404840E-02
        14   -1.803334E-02
        15    1.196653E-02
        16    3.512489E-06
        17   -2.025119E-05
        18    1.673870E-05
        19   -1.884265E-05
        20    6.038145E-03
        21   -3.653327E-03
        22   -1.008464E-03
        23    6.029924E-04
        24    4.054714E-04
        25   -1.095327E-03
        26    1.371133E-02
        27   -6.910176E-03
        28   -4.607327E-03
        29    4.248333E-03
        30    3.589945E-04
        31    2.290863E-03
        32   -3.646806E-03
        33    1.028790E-02
        34    3.156181E-05
        35   -9.406788E-06
        36   -9.060045E-05
        37   -1.348350E-05
        38    8.172241E-06
        39   -7.022489E-04
        40   -2.886112E-05
        41    4.448289E-06
        42    8.238022E-04
        43   -6.557435E-04
        44    3.601323E-05
        45    7.699461E-05
        46    2.740585E-04
        47   -4.956704E-03
        48   -7.512452E-02
        49    9.023027E-03
        50   -4.319991E-04
        51   -1.250552E-06
        52    1.906621E-01
        53    8.647268E-04
        54   -1.090475E-05
        55    1.976568E-01
        56    1.971277E-02
        57    4.645532E-04
        58    1.897180E-01
        59    6.038777E-05
        60   -5.610402E-05
        61   -4.283754E-06
        62    9.855771E-08
        63    3.689319E-04
        64   -4.162914E-07
        65    5.900946E-04
        66   -9.785918E-04
        67    3.884972E-04
        68    1.975922E-06
        69    2.436552E-03
        70   -3.895685E-07
        71    1.823336E-02
        72   -2.029023E-02
        73    2.056868E-03
        74   -8.474614E-05
        75   -3.736525E-03
        76    1.607831E-05
        77   -1.059510E-05
        78   -2.290714E-08
        79   -1.055327E-03
        80    1.159344E-05
        81   -1.786398E-08
        82    5.942437E-04
        83    2.621379E-06
        84    4.859713E-08
        85    8.216267E-04
        86    3.372222E-08
        87   -2.772538E-04
        88   -6.440146E-04
        89    1.852228E-03
        90   -4.521181E-03
        91    2.725189E-02
        92   -1.728766E-02
        93   -2.477632E-03
        94    2.374650E-04
        95    2.699659E-02
        96    3.999729E-03
        97    6.960428E-04
        98    2.515887E-02
        99    4.424324E-02
       100    1.846163E-02
       101    1.200220E-02
       102    3.516224E-06
       103   -2.019792E-05
       104    1.668170E-05
       105    1.893750E-05
       106    6.037795E-03
       107    3.653425E-03
       108   -1.004208E-03
       109    5.985885E-04
       110    4.056192E-04
       111    1.093601E-03
       112    1.370998E-02
       113    6.910165E-03
       114   -4.696459E-03
       115    4.349027E-03
       116    3.474326E-04
       117   -2.199872E-03
       118   -3.630724E-03
       119   -1.028017E-02
       120    3.158893E-05
       121    9.376012E-06
       122   -9.071920E-05
       123   -1.357002E-05
       124   -8.133991E-06
       125   -7.021227E-04
       126   -2.881098E-05
       127   -4.445250E-06
       128    8.238352E-04
       129    6.557281E-04
       130    1.845205E-04
       131    4.011159E-04
       132    7.397037E-04
       133   -1.500234E-02
       134    9.499950E-03
       135    2.049214E-02
       136    2.038371E-03
       137   -1.100158E-03
       138   -1.516650E-01
       139    1.399777E-02
       140   -9.379311E-03
       141   -1.542534E-01
       142    1.929479E-02
       143    1.164629E-02
       144   -9.490791E-02
       145    2.133344E-04
       146   -2.581138E-04
       147    4.477938E-05
       148    4.893183E-06
       149    1.043629E-03
       150   -3.083725E-03
       151    1.041191E-03
       152   -1.173857E-03
       153    1.326664E-04
       154    2.487514E-03
       155    4.754382E-03
       156   -5.029966E-03
       157    1.099479E-02
       158   -8.191737E-03
       159   -2.803054E-03
       160   -1.640516E-02
       161   -4.567098E-03
       162    1.223137E-02
       163    2.573343E-05
       164   -1.446536E-05
       165    8.617266E-04
       166    2.552179E-05
       167   -2.585667E-05
       168   -1.919231E-04
       169   -6.004682E-05
       170    4.526399E-05
       171   -9.642044E-04
       172    3.471844E-04
       173   -1.631419E-03
       174   -3.714209E-03
       175    3.641176E-03
       176    3.317175E-02
       177   -6.335255E-02
       178    1.037924E-02
       179   -1.316824E-02
       180    7.592772E-07
       181   -1.179947E-01
       182   -5.714605E-04
       183    9.510305E-06
       184   -1.213304E-01
       185    5.893382E-02
       186   -5.601365E-04
       187   -1.388110E-01
       188    7.212712E-04
       189   -4.073365E-04
       190   -3.139347E-04
       191    1.794993E-07
       192   -9.894446E-03
       193   -3.904695E-07
       194   -2.691319E-03
       195    6.013068E-03
       196   -3.321749E-03
       197    2.366230E-06
       198   -2.435924E-02
       199   -6.317242E-08
       200   -1.214133E-02
       201    1.342781E-02
       202   -1.286481E-03
       203   -1.440584E-04
       204   -1.509641E-02
       205   -1.299784E-05
       206   -1.733130E-04
       207   -3.475970E-09
       208    3.208222E-04
       209    1.264378E-04
       210    4.256501E-08
       211    1.076561E-03
       212    1.060860E-04
       213   -3.790150E-08
       214   -1.506989E-03
       215   -1.967395E-08
       216    1.845637E-04
       217    4.011733E-04
       218    7.400294E-04
       219   -1.501031E-02
       220    1.091008E-02
       221    2.046506E-02
       222    2.037915E-03
       223    1.097148E-03
       224   -1.516830E-01
       225    1.400802E-02
       226    9.384584E-03
       227   -1.542739E-01
       228    1.912639E-02
       229   -1.222605E-02
       230   -9.488890E-02
       231    2.132299E-04
       232   -2.582579E-04
       233    4.502801E-05
       234   -4.712414E-06
       235    1.043228E-03
       236    3.083813E-03
       237    1.044998E-03
       238   -1.178012E-03
       239    1.330137E-04
       240   -2.489578E-03
       241    4.752857E-03
       242    5.029764E-03
       243    1.090388E-02
       244   -8.100277E-03
       245   -2.803600E-03
       246    1.648725E-02
       247   -4.584159E-03
       248   -1.224541E-02
       249    2.577456E-05
       250    1.452605E-05
       251    8.619011E-04
       252    2.561323E-05
       253    2.577950E-05
       254   -1.921127E-04
       255   -6.019343E-05
       256   -4.526824E-05
       257   -9.642491E-04
       258   -3.471647E-04
       259   -5.121495E-04
       260   -1.946826E-04
       261   -2.439207E-02
       262    1.319330E-05
       263   -1.785972E-05
       264    1.098674E-03
       265    7.432913E-03
       266    1.150939E-03
       267   -5.559615E-03
       268   -5.123273E-04
       269   -1.900842E-04
       270   -2.436551E-02
       271    1.261210E-05
       272    1.852495E-05
       273    1.099502E-03
       274    7.517532E-03
       275   -1.114788E-03
       276   -5.563349E-03
       277   -5.524620E-04
       278   -3.466051E-03
       279    5.346337E-02
       280    3.207576E-05
       281   -1.412925E-04
       282   -6.164665E-03
       283    1.831984E-03
       284    4.611689E-03
       285    5.840884E-04
       286   -5.544170E-04
       287   -3.462752E-03
       288    5.359170E-02
       289    3.197253E-05
       290    1.409493E-04
       291   -6.165643E-03
       292    1.786643E-03
       293   -4.650063E-03
       294    5.859224E-04
       295   -6.261950E-05
       296   -1.457375E-04
       297    1.419969E-04
       298    3.504112E-04
       299   -1.232449E-02
       300   -1.221243E-03
       301   -6.045047E-04
       302    2.507119E-07
       303    1.147127E-02
       304   -1.077659E-04
       305    4.579810E-07
       306    1.387305E-02
       307    4.550663E-03
       308    1.075517E-06
       309    2.131019E-03
       310    2.186182E-05
       311   -7.338349E-06
       312   -1.452347E-05
       313   -1.411654E-08
       314   -3.971541E-03
       315   -8.489590E-09
       316   -1.581575E-05
       317    9.096372E-05
       318   -7.514797E-05
       319   -1.026636E-07
       320   -1.188222E-02
       321   -7.757275E-08
       322   -7.228739E-04
       323    4.006407E-03
       324   -3.283533E-03
       325    1.257972E-05
       326   -2.750143E-03
       327   -4.056832E-06
       328   -9.099112E-06
       329    7.551110E-10
       330    6.395514E-06
       331    6.565573E-06
       332   -1.274406E-08
       333    6.417910E-04
       334    5.642167E-06
       335    1.173098E-08
       336   -6.503715E-04
       337    1.258763E-09
       338   -1.862300E-05
       339   -3.983496E-05
       340   -1.124977E-05
       341    7.796418E-04
       342   -9.166021E-03
       343   -1.803307E-03
       344    2.091078E-04
       345   -1.703153E-04
       346   -6.939894E-02
       347    3.863545E-04
       348   -3.580879E-04
       349   -6.434206E-02
       350    1.650879E-03
       351   -9.515567E-04
       352   -5.061136E-02
       353    3.868897E-04
       354   -3.029507E-04
       355   -5.811595E-03
       356    4.597257E-06
       357   -6.284179E-06
       358    1.686922E-06
       359    4.420185E-07
       360    2.231319E-05
       361   -4.850930E-04
       362   -1.438567E-05
       363   -1.548415E-05
       364    2.986982E-05
       365    1.352621E-05
       366    5.610849E-04
       367   -1.561037E-03
       368   -8.287011E-05
       369    4.855176E-06
       370    7.801493E-05
       371   -7.690408E-06
       372    5.362627E-04
       373   -3.182515E-04
       374   -9.219031E-07
       375   -2.563789E-06
       376    6.368141E-05
       377    1.597987E-06
       378    8.871893E-07
       379    8.093669E-05
       380   -3.611243E-07
       381    2.552494E-06
       382   -1.663743E-04
       383    1.309067E-04
       384   -1.862435E-05
       385   -3.984323E-05
       386   -1.119124E-05
       387    7.797231E-04
       388   -9.180659E-03
       389   -1.787328E-03
       390    2.058359E-04
       391    1.706023E-04
       392   -6.939880E-02
       393    3.836088E-04
       394    3.584437E-04
       395   -6.434242E-02
       396    1.640298E-03
       397    9.570564E-04
       398   -5.060385E-02
       399    3.788293E-04
       400    3.062931E-04
       401   -5.812222E-03
       402    4.596006E-06
       403   -6.264290E-06
       404    1.668284E-06
       405   -4.387132E-07
       406    2.233957E-05
       407    4.851102E-04
       408   -1.418762E-05
       409   -1.555960E-05
       410    2.974723E-05
       411   -1.340144E-05
       412    5.610166E-04
       413    1.560928E-03
       414   -8.360485E-05
       415    5.822356E-06
       416    7.778250E-05
       417    7.121852E-06
       418    5.361108E-04
       419    3.172957E-04
       420   -9.194295E-07
       421    2.561746E-06
       422    6.368445E-05
       423    1.591723E-06
       424   -8.963042E-07
       425    8.092636E-05
       426   -3.581788E-07
       427   -2.540639E-06
       428   -1.663680E-04
       429   -1.309054E-04
       430    7.498953E-03
       431    1.777320E-02
       432   -2.748141E-02
       433   -4.477304E-02
       434   -1.744032E-02
       435   -9.377388E-02
       436    2.646670E-02
       437   -8.250398E-06
       438    2.654495E-01
       439    3.007145E-02
       440   -2.297234E-06
       441    2.612140E-01
       442    3.362342E-02
       443    6.057195E-05
       444    2.126779E-01
       445   -1.937698E-04
       446   -6.645718E-05
       447    2.602270E-04
       448    1.746654E-07
       449   -8.953453E-04
       450   -2.083370E-07
       451   -4.092505E-04
       452   -2.438758E-03
       453    2.848008E-03
       454   -2.230611E-06
       455   -3.746712E-03
       456   -3.650150E-07
       457   -3.078637E-03
       458   -6.000178E-03
       459    9.078815E-03
       460   -8.005052E-06
       461   -2.470083E-03
       462   -2.474601E-07
       463    2.038443E-04
       464   -3.508512E-08
       465   -1.007499E-03
       466    1.394109E-04
       467   -2.027263E-08
       468    5.244832E-04
       469   -4.128967E-04
       470    6.734426E-08
       471    8.272189E-04
       472   -3.515703E-08
       473    1.352553E-02
       474    2.678022E-02
       475    5.071675E-02
       476    3.286387E-03
       477    2.760060E-03
       478    1.322726E-02
       479   -2.773490E-04
       480    5.726020E-03
       481    1.509709E-02
       482    1.352019E-02
       483    2.672993E-02
       484    5.048144E-02
       485    3.283333E-03
       486   -2.755926E-03
       487    1.322990E-02
       488   -3.175842E-04
       489   -5.698996E-03
       490    1.511085E-02
 Sym= X
 Ene= 0.894768
 Spin= Alpha
 Occup= 0.894768
         1    3.918207E-03
         2    8.543259E-03
         3   -4.195855E-03
         4   -1.727818E-01
         5   -8.599694E+00
         6   -1.039534E+00
         7   -1.557961E-02
         8   -3.988743E-02
         9    4.575785E-03
        10   -7.666923E-02
        11   -7.084972E-03
        12    3.308195E-03
        13   -4.446610E+00
        14    4.165232E+00
        15    1.932950E-02
        16   -8.127175E-04
        17    1.943590E-04
        18    6.183584E-04
        19    2.187407E-03
        20    2.259844E-04
        21   -3.861305E-05
        22    1.575668E-02
        23   -2.054463E-02
        24    4.787953E-03
        25    1.845234E-02
        26    7.566898E-04
        27    3.999708E-04
        28    1.467525E+00
        29   -1.491245E+00
        30    2.371974E-02
        31    1.320180E+00
        32   -6.418744E-03
        33   -1.106767E-02
        34   -1.799954E-04
        35    3.152289E-04
        36    2.965794E-05
        37   -5.597447E-04
        38   -5.990032E-04
        39   -6.554782E-05
        40    8.012338E-04
        41    1.760793E-04
        42    2.575752E-05
        43   -5.935179E-06
        44    9.745995E-07
        45    2.161315E-06
        46   -1.862498E-06
        47   -2.908223E-05
        48    2.224419E-05
        49   -3.632272E-04
        50   -1.084725E-05
        51   -1.830444E-02
        52    6.273635E-06
        53   -1.108015E-05
        54    7.509569E-02
        55    6.113986E-06
        56   -4.416952E-04
        57    9.847506E+00
        58    1.126110E-04
        59    1.063194E-06
        60   -7.920721E-07
        61   -2.711217E-07
        62   -1.774806E-03