[Molden Format]
[Title]
ADC(2) - opt by CAM-B3LYP gaussian                                              
[Atoms] AU
 c     1    6 0.12592752280008E+01 0.22800132789445E+01 -.35345910021030E-01
 c     2    6 0.25511638220345E+01 0.20078340100000E-05 -.33671612667290E-01
 c     3    6 0.12592790074531E+01 -.22800111530026E+01 -.35357248377820E-01
 c     4    6 -.13364450292264E+01 -.22798221803893E+01 -.38530098554940E-01
 c     5    6 -.26857699593430E+01 -.17716182500000E-05 -.39025206801750E-01
 c     6    6 -.13364469189525E+01 0.22798205268790E+01 -.38516870472010E-01
 h     7    1 0.23055183220207E+01 0.40307538342087E+01 -.32265656424420E-01
 h     8    1 0.23055239911991E+01 -.40307498185407E+01 -.32284553685750E-01
 h     9    1 -.23548467881305E+01 -.40530977197882E+01 -.43619131030800E-01
 h    10    1 -.23548543470350E+01 0.40530922868255E+01 -.43594564591070E-01
 n    11    7 0.52860567397703E+01 0.11810788000000E-06 -.26776002008390E-01
 o    12    8 0.63771222479361E+01 -.20280728649663E+01 -.23850705954680E-01
 o    13    8 0.63771260273883E+01 0.20280712114559E+01 -.23882831298940E-01
 n    14    7 -.52615573853205E+01 0.11810788000000E-06 -.10505223788478E+00
 h    15    1 -.61955753134867E+01 -.16086254730588E+01 0.27588253543458E+00
 h    16    1 -.61955696443083E+01 0.16086275990006E+01 0.27589009433911E+00
[GTO]
    1 0
 s    6 1.00
 0.13575349682000E+05 0.60645503603591E-03
 0.20352333680000E+04 0.46979088884982E-02
 0.46322562359000E+03 0.24332477647552E-01
 0.13120019598000E+03 0.97399968307759E-01
 0.42853015891000E+02 0.30195584253780E+00
 0.15584185766000E+02 0.66233609137875E+00
 s    2 1.00
 0.62067138508000E+01 0.65595308539952E+00
 0.25764896527000E+01 0.37585633285142E+00
 s    1 1.00
 0.57696339419000E+00 0.10000000000000E+01
 s    1 1.00
 0.22972831358000E+00 0.10000000000000E+01
 s    1 1.00
 0.95164440028000E-01 0.10000000000000E+01
 s    1 1.00
 0.48475401370000E-01 0.10000000000000E+01
 p    4 1.00
 0.34697232244000E+02 0.11327220003114E-01
 0.79582622826000E+01 0.76169659202087E-01
 0.23780826883000E+01 0.30192252202676E+00
 0.81433208183000E+00 0.72785027349547E+00
 p    1 1.00
 0.28887547253000E+00 0.10000000000000E+01
 p    1 1.00
 0.10056823671000E+00 0.10000000000000E+01
 d    1 1.00
 0.10970000000000E+01 0.10000000000000E+01
 d    1 1.00
 0.31800000000000E+00 0.10000000000000E+01
 d    1 1.00
 0.90985336424000E-01 0.10000000000000E+01
 f    1 1.00
 0.76100000000000E+00 0.10000000000000E+01
 
    2 0
 s    6 1.00
 0.13575349682000E+05 0.60645503603591E-03
 0.20352333680000E+04 0.46979088884982E-02
 0.46322562359000E+03 0.24332477647552E-01
 0.13120019598000E+03 0.97399968307759E-01
 0.42853015891000E+02 0.30195584253780E+00
 0.15584185766000E+02 0.66233609137875E+00
 s    2 1.00
 0.62067138508000E+01 0.65595308539952E+00
 0.25764896527000E+01 0.37585633285142E+00
 s    1 1.00
 0.57696339419000E+00 0.10000000000000E+01
 s    1 1.00
 0.22972831358000E+00 0.10000000000000E+01
 s    1 1.00
 0.95164440028000E-01 0.10000000000000E+01
 s    1 1.00
 0.48475401370000E-01 0.10000000000000E+01
 p    4 1.00
 0.34697232244000E+02 0.11327220003114E-01
 0.79582622826000E+01 0.76169659202087E-01
 0.23780826883000E+01 0.30192252202676E+00
 0.81433208183000E+00 0.72785027349547E+00
 p    1 1.00
 0.28887547253000E+00 0.10000000000000E+01
 p    1 1.00
 0.10056823671000E+00 0.10000000000000E+01
 d    1 1.00
 0.10970000000000E+01 0.10000000000000E+01
 d    1 1.00
 0.31800000000000E+00 0.10000000000000E+01
 d    1 1.00
 0.90985336424000E-01 0.10000000000000E+01
 f    1 1.00
 0.76100000000000E+00 0.10000000000000E+01
 
    3 0
 s    6 1.00
 0.13575349682000E+05 0.60645503603591E-03
 0.20352333680000E+04 0.46979088884982E-02
 0.46322562359000E+03 0.24332477647552E-01
 0.13120019598000E+03 0.97399968307759E-01
 0.42853015891000E+02 0.30195584253780E+00
 0.15584185766000E+02 0.66233609137875E+00
 s    2 1.00
 0.62067138508000E+01 0.65595308539952E+00
 0.25764896527000E+01 0.37585633285142E+00
 s    1 1.00
 0.57696339419000E+00 0.10000000000000E+01
 s    1 1.00
 0.22972831358000E+00 0.10000000000000E+01
 s    1 1.00
 0.95164440028000E-01 0.10000000000000E+01
 s    1 1.00
 0.48475401370000E-01 0.10000000000000E+01
 p    4 1.00
 0.34697232244000E+02 0.11327220003114E-01
 0.79582622826000E+01 0.76169659202087E-01
 0.23780826883000E+01 0.30192252202676E+00
 0.81433208183000E+00 0.72785027349547E+00
 p    1 1.00
 0.28887547253000E+00 0.10000000000000E+01
 p    1 1.00
 0.10056823671000E+00 0.10000000000000E+01
 d    1 1.00
 0.10970000000000E+01 0.10000000000000E+01
 d    1 1.00
 0.31800000000000E+00 0.10000000000000E+01
 d    1 1.00
 0.90985336424000E-01 0.10000000000000E+01
 f    1 1.00
 0.76100000000000E+00 0.10000000000000E+01
 
    4 0
 s    6 1.00
 0.13575349682000E+05 0.60645503603591E-03
 0.20352333680000E+04 0.46979088884982E-02
 0.46322562359000E+03 0.24332477647552E-01
 0.13120019598000E+03 0.97399968307759E-01
 0.42853015891000E+02 0.30195584253780E+00
 0.15584185766000E+02 0.66233609137875E+00
 s    2 1.00
 0.62067138508000E+01 0.65595308539952E+00
 0.25764896527000E+01 0.37585633285142E+00
 s    1 1.00
 0.57696339419000E+00 0.10000000000000E+01
 s    1 1.00
 0.22972831358000E+00 0.10000000000000E+01
 s    1 1.00
 0.95164440028000E-01 0.10000000000000E+01
 s    1 1.00
 0.48475401370000E-01 0.10000000000000E+01
 p    4 1.00
 0.34697232244000E+02 0.11327220003114E-01
 0.79582622826000E+01 0.76169659202087E-01
 0.23780826883000E+01 0.30192252202676E+00
 0.81433208183000E+00 0.72785027349547E+00
 p    1 1.00
 0.28887547253000E+00 0.10000000000000E+01
 p    1 1.00
 0.10056823671000E+00 0.10000000000000E+01
 d    1 1.00
 0.10970000000000E+01 0.10000000000000E+01
 d    1 1.00
 0.31800000000000E+00 0.10000000000000E+01
 d    1 1.00
 0.90985336424000E-01 0.10000000000000E+01
 f    1 1.00
 0.76100000000000E+00 0.10000000000000E+01
 
    5 0
 s    6 1.00
 0.13575349682000E+05 0.60645503603591E-03
 0.20352333680000E+04 0.46979088884982E-02
 0.46322562359000E+03 0.24332477647552E-01
 0.13120019598000E+03 0.97399968307759E-01
 0.42853015891000E+02 0.30195584253780E+00
 0.15584185766000E+02 0.66233609137875E+00
 s    2 1.00
 0.62067138508000E+01 0.65595308539952E+00
 0.25764896527000E+01 0.37585633285142E+00
 s    1 1.00
 0.57696339419000E+00 0.10000000000000E+01
 s    1 1.00
 0.22972831358000E+00 0.10000000000000E+01
 s    1 1.00
 0.95164440028000E-01 0.10000000000000E+01
 s    1 1.00
 0.48475401370000E-01 0.10000000000000E+01
 p    4 1.00
 0.34697232244000E+02 0.11327220003114E-01
 0.79582622826000E+01 0.76169659202087E-01
 0.23780826883000E+01 0.30192252202676E+00
 0.81433208183000E+00 0.72785027349547E+00
 p    1 1.00
 0.28887547253000E+00 0.10000000000000E+01
 p    1 1.00
 0.10056823671000E+00 0.10000000000000E+01
 d    1 1.00
 0.10970000000000E+01 0.10000000000000E+01
 d    1 1.00
 0.31800000000000E+00 0.10000000000000E+01
 d    1 1.00
 0.90985336424000E-01 0.10000000000000E+01
 f    1 1.00
 0.76100000000000E+00 0.10000000000000E+01
 
    6 0
 s    6 1.00
 0.13575349682000E+05 0.60645503603591E-03
 0.20352333680000E+04 0.46979088884982E-02
 0.46322562359000E+03 0.24332477647552E-01
 0.13120019598000E+03 0.97399968307759E-01
 0.42853015891000E+02 0.30195584253780E+00
 0.15584185766000E+02 0.66233609137875E+00
 s    2 1.00
 0.62067138508000E+01 0.65595308539952E+00
 0.25764896527000E+01 0.37585633285142E+00
 s    1 1.00
 0.57696339419000E+00 0.10000000000000E+01
 s    1 1.00
 0.22972831358000E+00 0.10000000000000E+01
 s    1 1.00
 0.95164440028000E-01 0.10000000000000E+01
 s    1 1.00
 0.48475401370000E-01 0.10000000000000E+01
 p    4 1.00
 0.34697232244000E+02 0.11327220003114E-01
 0.79582622826000E+01 0.76169659202087E-01
 0.23780826883000E+01 0.30192252202676E+00
 0.81433208183000E+00 0.72785027349547E+00
 p    1 1.00
 0.28887547253000E+00 0.10000000000000E+01
 p    1 1.00
 0.10056823671000E+00 0.10000000000000E+01
 d    1 1.00
 0.10970000000000E+01 0.10000000000000E+01
 d    1 1.00
 0.31800000000000E+00 0.10000000000000E+01
 d    1 1.00
 0.90985336424000E-01 0.10000000000000E+01
 f    1 1.00
 0.76100000000000E+00 0.10000000000000E+01
 
    7 0
 s    3 1.00
 0.34061341000000E+02 0.25439307208879E-01
 0.51235746000000E+01 0.19008594890375E+00
 0.11646626000000E+01 0.85244113011042E+00
 s    1 1.00
 0.32723041000000E+00 0.10000000000000E+01
 s    1 1.00
 0.10307241000000E+00 0.10000000000000E+01
 p    1 1.00
 0.80000000000000E+00 0.10000000000000E+01
 p    1 1.00
 0.95774129632000E-01 0.10000000000000E+01
 
    8 0
 s    3 1.00
 0.34061341000000E+02 0.25439307208879E-01
 0.51235746000000E+01 0.19008594890375E+00
 0.11646626000000E+01 0.85244113011042E+00
 s    1 1.00
 0.32723041000000E+00 0.10000000000000E+01
 s    1 1.00
 0.10307241000000E+00 0.10000000000000E+01
 p    1 1.00
 0.80000000000000E+00 0.10000000000000E+01
 p    1 1.00
 0.95774129632000E-01 0.10000000000000E+01
 
    9 0
 s    3 1.00
 0.34061341000000E+02 0.25439307208879E-01
 0.51235746000000E+01 0.19008594890375E+00
 0.11646626000000E+01 0.85244113011042E+00
 s    1 1.00
 0.32723041000000E+00 0.10000000000000E+01
 s    1 1.00
 0.10307241000000E+00 0.10000000000000E+01
 p    1 1.00
 0.80000000000000E+00 0.10000000000000E+01
 p    1 1.00
 0.95774129632000E-01 0.10000000000000E+01
 
   10 0
 s    3 1.00
 0.34061341000000E+02 0.25439307208879E-01
 0.51235746000000E+01 0.19008594890375E+00
 0.11646626000000E+01 0.85244113011042E+00
 s    1 1.00
 0.32723041000000E+00 0.10000000000000E+01
 s    1 1.00
 0.10307241000000E+00 0.10000000000000E+01
 p    1 1.00
 0.80000000000000E+00 0.10000000000000E+01
 p    1 1.00
 0.95774129632000E-01 0.10000000000000E+01
 
   11 0
 s    6 1.00
 0.19730800647000E+05 0.58626402628763E-03
 0.29578958745000E+04 0.45428820586397E-02
 0.67322133595000E+03 0.23558413450084E-01
 0.19068249494000E+03 0.94709193292923E-01
 0.62295441898000E+02 0.29719784913376E+00
 0.22654161182000E+02 0.66916246895232E+00
 s    2 1.00
 0.89791477428000E+01 0.64596683630063E+00
 0.36863002370000E+01 0.38700574393705E+00
 s    1 1.00
 0.84660076805000E+00 0.10000000000000E+01
 s    1 1.00
 0.33647133771000E+00 0.10000000000000E+01
 s    1 1.00
 0.13647653675000E+00 0.10000000000000E+01
 s    1 1.00
 0.68441605847000E-01 0.10000000000000E+01
 p    4 1.00
 0.49200380510000E+02 0.11448825101764E-01
 0.11346790537000E+02 0.78422337970864E-01
 0.34273972411000E+01 0.30818094738830E+00
 0.11785525134000E+01 0.72027196368413E+00
 p    1 1.00
 0.41642204972000E+00 0.10000000000000E+01
 p    1 1.00
 0.14260826011000E+00 0.10000000000000E+01
 d    1 1.00
 0.16540000000000E+01 0.10000000000000E+01
 d    1 1.00
 0.46900000000000E+00 0.10000000000000E+01
 d    1 1.00
 0.12829642058000E+00 0.10000000000000E+01
 f    1 1.00
 0.10930000000000E+01 0.10000000000000E+01
 
   12 0
 s    6 1.00
 0.27032382631000E+05 0.57227335211155E-03
 0.40523871392000E+04 0.44353233492995E-02
 0.92232722710000E+03 0.23020107706038E-01
 0.26124070989000E+03 0.92822490667928E-01
 0.85354641351000E+02 0.29378500009671E+00
 0.31035035245000E+02 0.67401604501641E+00
 s    2 1.00
 0.12260860728000E+02 0.63839937025506E+00
 0.49987076005000E+01 0.39534587125718E+00
 s    1 1.00
 0.11703108158000E+01 0.10000000000000E+01
 s    1 1.00
 0.46474740994000E+00 0.10000000000000E+01
 s    1 1.00
 0.18504536357000E+00 0.10000000000000E+01
 s    1 1.00
 0.70288026270000E-01 0.10000000000000E+01
 p    4 1.00
 0.63274954801000E+02 0.12018332222616E-01
 0.14627049379000E+02 0.83005421790056E-01
 0.44501223456000E+01 0.31991743925964E+00
 0.15275799647000E+01 0.70715542916104E+00
 p    1 1.00
 0.52935117943000E+00 0.10000000000000E+01
 p    1 1.00
 0.17478421270000E+00 0.10000000000000E+01
 p    1 1.00
 0.51112745706000E-01 0.10000000000000E+01
 d    1 1.00
 0.23140000000000E+01 0.10000000000000E+01
 d    1 1.00
 0.64500000000000E+00 0.10000000000000E+01
 d    1 1.00
 0.14696477366000E+00 0.10000000000000E+01
 f    1 1.00
 0.14280000000000E+01 0.10000000000000E+01
 
   13 0
 s    6 1.00
 0.27032382631000E+05 0.57227335211155E-03
 0.40523871392000E+04 0.44353233492995E-02
 0.92232722710000E+03 0.23020107706038E-01
 0.26124070989000E+03 0.92822490667928E-01
 0.85354641351000E+02 0.29378500009671E+00
 0.31035035245000E+02 0.67401604501641E+00
 s    2 1.00
 0.12260860728000E+02 0.63839937025506E+00
 0.49987076005000E+01 0.39534587125718E+00
 s    1 1.00
 0.11703108158000E+01 0.10000000000000E+01
 s    1 1.00
 0.46474740994000E+00 0.10000000000000E+01
 s    1 1.00
 0.18504536357000E+00 0.10000000000000E+01
 s    1 1.00
 0.70288026270000E-01 0.10000000000000E+01
 p    4 1.00
 0.63274954801000E+02 0.12018332222616E-01
 0.14627049379000E+02 0.83005421790056E-01
 0.44501223456000E+01 0.31991743925964E+00
 0.15275799647000E+01 0.70715542916104E+00
 p    1 1.00
 0.52935117943000E+00 0.10000000000000E+01
 p    1 1.00
 0.17478421270000E+00 0.10000000000000E+01
 p    1 1.00
 0.51112745706000E-01 0.10000000000000E+01
 d    1 1.00
 0.23140000000000E+01 0.10000000000000E+01
 d    1 1.00
 0.64500000000000E+00 0.10000000000000E+01
 d    1 1.00
 0.14696477366000E+00 0.10000000000000E+01
 f    1 1.00
 0.14280000000000E+01 0.10000000000000E+01
 
   14 0
 s    6 1.00
 0.19730800647000E+05 0.58626402628763E-03
 0.29578958745000E+04 0.45428820586397E-02
 0.67322133595000E+03 0.23558413450084E-01
 0.19068249494000E+03 0.94709193292923E-01
 0.62295441898000E+02 0.29719784913376E+00
 0.22654161182000E+02 0.66916246895232E+00
 s    2 1.00
 0.89791477428000E+01 0.64596683630063E+00
 0.36863002370000E+01 0.38700574393705E+00
 s    1 1.00
 0.84660076805000E+00 0.10000000000000E+01
 s    1 1.00
 0.33647133771000E+00 0.10000000000000E+01
 s    1 1.00
 0.13647653675000E+00 0.10000000000000E+01
 s    1 1.00
 0.68441605847000E-01 0.10000000000000E+01
 p    4 1.00
 0.49200380510000E+02 0.11448825101764E-01
 0.11346790537000E+02 0.78422337970864E-01
 0.34273972411000E+01 0.30818094738830E+00
 0.11785525134000E+01 0.72027196368413E+00
 p    1 1.00
 0.41642204972000E+00 0.10000000000000E+01
 p    1 1.00
 0.14260826011000E+00 0.10000000000000E+01
 d    1 1.00
 0.16540000000000E+01 0.10000000000000E+01
 d    1 1.00
 0.46900000000000E+00 0.10000000000000E+01
 d    1 1.00
 0.12829642058000E+00 0.10000000000000E+01
 f    1 1.00
 0.10930000000000E+01 0.10000000000000E+01
 
   15 0
 s    3 1.00
 0.34061341000000E+02 0.25439307208879E-01
 0.51235746000000E+01 0.19008594890375E+00
 0.11646626000000E+01 0.85244113011042E+00
 s    1 1.00
 0.32723041000000E+00 0.10000000000000E+01
 s    1 1.00
 0.10307241000000E+00 0.10000000000000E+01
 p    1 1.00
 0.80000000000000E+00 0.10000000000000E+01
 p    1 1.00
 0.95774129632000E-01 0.10000000000000E+01
 
   16 0
 s    3 1.00
 0.34061341000000E+02 0.25439307208879E-01
 0.51235746000000E+01 0.19008594890375E+00
 0.11646626000000E+01 0.85244113011042E+00
 s    1 1.00
 0.32723041000000E+00 0.10000000000000E+01
 s    1 1.00
 0.10307241000000E+00 0.10000000000000E+01
 p    1 1.00
 0.80000000000000E+00 0.10000000000000E+01
 p    1 1.00
 0.95774129632000E-01 0.10000000000000E+01
 
[MO]
 Sym= X
 Ene= -0.084775
 Spin= Alpha
 Occup= -0.084775
         1   -3.979083E-04
         2   -9.185063E-04
         3    2.395765E-03
         4   -4.676911E-03
         5    3.184509E-02
         6   -2.058999E-02
         7   -4.176774E-03
         8   -4.395224E-04
         9   -1.480018E-02
        10    3.719700E-03
        11   -1.010487E-03
        12   -1.598876E-02
        13    4.940088E-02
        14   -1.775685E-02
        15   -3.162562E-03
        16    4.961756E-05
        17   -6.073768E-05
        18    1.112012E-05
        19   -3.442765E-05
        20    5.469883E-03
        21   -2.137317E-03
        22   -1.097714E-03
        23    6.615355E-04
        24    4.361785E-04
        25   -1.336822E-03
        26    1.229501E-02
        27   -4.346489E-03
        28   -4.798689E-03
        29    4.362033E-03
        30    4.366561E-04
        31    2.966714E-03
        32   -5.303064E-03
        33    1.080376E-02
        34    3.189960E-05
        35   -1.249478E-05
        36    2.489223E-04
        37   -1.270309E-05
        38    1.018437E-05
        39   -8.311088E-04
        40   -3.009471E-05
        41    6.579136E-06
        42    4.971445E-04
        43   -4.698826E-04
        44    9.789285E-05
        45    2.153258E-04
        46    1.905660E-04
        47   -6.564263E-03
        48   -7.642236E-02
        49    1.217582E-02
        50   -5.698580E-05
        51    4.400669E-08
        52    1.182126E-01
        53    1.494338E-03
        54   -5.298211E-06
        55    1.241187E-01
        56    2.104119E-02
        57    5.491135E-04
        58    1.562911E-01
        59    1.138361E-04
        60   -1.118536E-04
        61   -1.982422E-06
        62    2.008231E-08
        63    1.228997E-03
        64    2.192196E-06
        65    7.848518E-04
        66   -1.253880E-03
        67    4.690279E-04
        68    1.095361E-06
        69    3.708121E-03
        70    5.768524E-06
        71    2.233962E-02
        72   -2.449423E-02
        73    2.154605E-03
        74   -9.137400E-05
        75   -1.183079E-03
        76    2.035182E-05
        77   -1.013507E-05
        78    2.808729E-08
        79   -5.184605E-04
        80    1.518637E-05
        81   -4.387340E-08
        82    3.262434E-04
        83   -1.588751E-06
        84    6.190346E-09
        85    3.693444E-04
        86   -3.877121E-07
        87   -3.960833E-04
        88   -9.144186E-04
        89    2.389510E-03
        90   -4.688887E-03
        91    3.328083E-02
        92   -2.059685E-02
        93   -4.179428E-03
        94    4.439022E-04
        95   -1.492493E-02
        96    3.698062E-03
        97    1.014322E-03
        98   -1.611388E-02
        99    4.955752E-02
       100    1.829339E-02
       101   -3.201225E-03
       102    4.956024E-05
       103   -6.081400E-05
       104    1.125376E-05
       105    3.468435E-05
       106    5.473441E-03
       107    2.136969E-03
       108   -1.092921E-03
       109    6.569853E-04
       110    4.359362E-04
       111    1.336372E-03
       112    1.230176E-02
       113    4.347203E-03
       114   -4.884197E-03
       115    4.462052E-03
       116    4.221450E-04
       117   -2.869909E-03
       118   -5.280871E-03
       119   -1.078637E-02
       120    3.194070E-05
       121    1.247216E-05
       122    2.496929E-04
       123   -1.280628E-05
       124   -1.011158E-05
       125   -8.320643E-04
       126   -3.004667E-05
       127   -6.621581E-06
       128    4.970661E-04
       129    4.699006E-04
       130    2.808177E-04
       131    6.164063E-04
       132    6.852539E-04
       133   -1.831665E-02
       134    3.943425E-03
       135    2.445740E-02
       136    3.826200E-03
       137   -1.390721E-03
       138   -1.561566E-01
       139    1.761725E-02
       140   -1.117265E-02
       141   -1.584453E-01
       142    2.116254E-02
       143    1.490544E-02
       144   -9.323419E-02
       145    3.178118E-04
       146   -3.774029E-04
       147    5.959111E-05
       148   -1.675096E-07
       149   -1.699966E-04
       150   -2.780297E-03
       151    1.219441E-03
       152   -1.420495E-03
       153    2.010534E-04
       154    2.978428E-03
       155    2.452097E-03
       156   -4.325218E-03
       157    1.297527E-02
       158   -9.816149E-03
       159   -3.159118E-03
       160   -1.903684E-02
       161   -5.283255E-03
       162    1.448394E-02
       163    3.171588E-05
       164   -2.058322E-05
       165    9.283624E-04
       166    3.452754E-05
       167   -2.593364E-05
       168   -3.540458E-04
       169   -7.707886E-05
       170    5.354893E-05
       171   -8.914830E-04
       172    2.300132E-04
       173   -2.031146E-03
       174   -4.614916E-03
       175    4.729221E-03
       176    3.773862E-02
       177   -8.275656E-02
       178    9.697267E-03
       179   -1.769326E-02
       180    1.163035E-06
       181   -9.135039E-02
       182   -1.570357E-03
       183    1.261088E-05
       184   -9.519281E-02
       185    7.312472E-02
       186   -5.562577E-04
       187   -1.356151E-01
       188    9.535570E-04
       189   -5.769662E-04
       190   -3.765908E-04
       191    2.095450E-07
       192   -1.114445E-02
       193    2.602800E-06
       194   -3.231394E-03
       195    7.092656E-03
       196   -3.861262E-03
       197    3.349385E-06
       198   -2.683054E-02
       199    5.695823E-06
       200   -1.527509E-02
       201    1.647001E-02
       202   -1.194920E-03
       203   -1.592971E-04
       204   -1.513106E-02
       205   -2.225572E-05
       206   -2.143317E-04
       207    7.482631E-10
       208    1.028177E-04
       209    1.514125E-04
       210    5.724500E-08
       211    1.359322E-03
       212    1.361437E-04
       213   -5.824890E-08
       214   -1.497266E-03
       215    4.259960E-07
       216    2.808030E-04
       217    6.163622E-04
       218    6.861197E-04
       219   -1.833080E-02
       220    5.561831E-03
       221    2.441331E-02
       222    3.827212E-03
       223    1.385951E-03
       224   -1.560180E-01
       225    1.763240E-02
       226    1.118009E-02
       227   -1.583069E-01
       228    2.109075E-02
       229   -1.553507E-02
       230   -9.309449E-02
       231    3.178208E-04
       232   -3.776537E-04
       233    5.983287E-05
       234    5.110245E-07
       235   -1.668639E-04
       236    2.780039E-03
       237    1.223922E-03
       238   -1.425788E-03
       239    2.018663E-04
       240   -2.980955E-03
       241    2.456585E-03
       242    4.324232E-03
       243    1.287665E-02
       244   -9.717165E-03
       245   -3.159486E-03
       246    1.910920E-02
       247   -5.307576E-03
       248   -1.450782E-02
       249    3.173882E-05
       250    2.064845E-05
       251    9.274881E-04
       252    3.466819E-05
       253    2.584781E-05
       254   -3.530926E-04
       255   -7.725029E-05
       256   -5.355062E-05
       257   -8.912633E-04
       258   -2.299368E-04
       259   -9.727575E-04
       260   -8.187974E-04
       261   -3.010047E-02
       262    2.263373E-05
       263    3.956210E-05
       264   -4.052503E-04
       265    8.661824E-03
       266    1.752133E-03
       267   -5.791063E-03
       268   -9.774754E-04
       269   -8.191564E-04
       270   -3.003685E-02
       271    2.244689E-05
       272   -3.935000E-05
       273   -4.101937E-04
       274    8.744138E-03
       275   -1.711693E-03
       276   -5.794816E-03
       277   -1.144699E-03
       278   -4.849885E-03
       279    6.379539E-02
       280    3.295466E-05
       281   -2.403364E-04
       282   -6.162162E-03
       283    3.529262E-03
       284    5.276901E-03
       285    2.863959E-03
       286   -1.148362E-03
       287   -4.846103E-03
       288    6.392554E-02
       289    3.270330E-05
       290    2.399231E-04
       291   -6.156295E-03
       292    3.480179E-03
       293   -5.319112E-03
       294    2.876916E-03
       295   -1.289945E-04
       296   -3.034487E-04
       297    3.669033E-04
       298    8.262516E-04
       299   -1.545917E-02
       300   -3.294327E-03
       301   -1.127642E-03
       302    9.464018E-07
       303    1.979116E-02
       304   -5.049902E-04
       305    1.209822E-06
       306    2.166300E-02
       307    5.676883E-03
       308   -3.847567E-06
       309    1.614602E-03
       310    2.424924E-05
       311   -1.865026E-05
       312   -5.598975E-06
       313    2.946187E-07
       314   -2.553921E-03
       315   -2.370280E-06
       316   -2.591608E-05
       317    8.340699E-05
       318   -5.749092E-05
       319    7.654206E-07
       320   -7.856917E-03
       321   -6.808226E-06
       322   -7.008351E-04
       323    4.623414E-03
       324   -3.922579E-03
       325    1.505321E-05
       326   -1.029114E-03
       327   -4.518448E-06
       328   -1.003178E-05
       329   -7.051916E-08
       330   -4.427416E-05
       331    7.094428E-06
       332    9.507569E-08
       333    4.385994E-04
       334    6.364618E-06
       335   -4.643066E-10
       336   -3.791994E-04
       337   -4.628016E-07
       338   -2.019246E-05
       339   -4.255567E-05
       340   -1.795454E-05
       341    9.301297E-04
       342   -1.085721E-02
       343   -2.018983E-03
       344    2.973066E-04
       345   -2.457273E-04
       346   -4.245655E-02
       347    5.085539E-04
       348   -4.587097E-04
       349   -3.954093E-02
       350    1.890226E-03
       351   -1.228642E-03
       352   -3.338144E-02
       353    4.959323E-04
       354   -2.971273E-04
       355   -4.294681E-03
       356    6.816694E-06
       357   -9.427122E-06
       358    2.610427E-06
       359   -7.228730E-07
       360   -7.045800E-05
       361   -1.774782E-04
       362   -1.390480E-05
       363   -2.415090E-05
       364    3.805569E-05
       365    1.037677E-05
       366    1.331853E-04
       367   -6.283989E-04
       368   -8.236569E-05
       369   -2.036033E-05
       370    1.027260E-04
       371   -3.804821E-05
       372   -7.426282E-05
       373   -1.489922E-04
       374   -9.510612E-07
       375   -3.774436E-06
       376    1.651742E-05
       377    1.916283E-06
       378    2.058086E-06
       379    5.322971E-05
       380   -6.403002E-07
       381    3.005851E-06
       382   -7.539016E-05
       383    5.245806E-05
       384   -2.065741E-05
       385   -4.369154E-05
       386   -1.632228E-05
       387    9.323868E-04
       388   -1.087174E-02
       389   -2.005489E-03
       390    3.120380E-04
       391    2.330410E-04
       392   -4.258833E-02
       393    5.220298E-04
       394    4.478231E-04
       395   -3.966262E-02
       396    1.890504E-03
       397    1.225364E-03
       398   -3.346444E-02
       399    4.912449E-04
       400    2.984610E-04
       401   -4.306583E-03
       402    6.675024E-06
       403   -9.250087E-06
       404    2.575063E-06
       405    6.989171E-07
       406   -6.978271E-05
       407    1.785862E-04
       408   -1.411190E-05
       409   -2.386305E-05
       410    3.797495E-05
       411   -1.042533E-05
       412    1.353427E-04
       413    6.321103E-04
       414   -8.425930E-05
       415   -1.837349E-05
       416    1.026328E-04
       417    3.783975E-05
       418   -7.245956E-05
       419    1.508850E-04
       420   -9.369281E-07
       421    3.726247E-06
       422    1.670387E-05
       423    1.893530E-06
       424   -2.005946E-06
       425    5.327638E-05
       426   -6.365093E-07
       427   -2.993339E-06
       428   -7.568697E-05
       429   -5.281352E-05
       430    8.854905E-03
       431    2.098291E-02
       432   -3.242506E-02
       433   -5.297158E-02
       434   -1.609591E-02
       435   -1.002291E-01
       436    3.286183E-02
       437   -9.257498E-06
       438    3.158217E-01
       439    3.719754E-02
       440   -2.542369E-06
       441    3.098115E-01
       442    4.404037E-02
       443    6.837066E-05
       444    2.440073E-01
       445   -2.237830E-04
       446   -1.327904E-04
       447    3.565734E-04
       448    1.856680E-07
       449   -3.997830E-04
       450   -1.262141E-07
       451   -3.613277E-04
       452   -3.123183E-03
       453    3.484511E-03
       454   -2.635351E-06
       455   -2.589087E-03
       456   -1.007755E-07
       457   -2.525294E-03
       458   -8.113153E-03
       459    1.063845E-02
       460   -9.514735E-06
       461   -2.278326E-03
       462   -2.777966E-07
       463    2.285115E-04
       464   -4.416427E-08
       465   -1.278906E-03
       466    1.749739E-04
       467   -2.968390E-08
       468    7.698357E-04
       469   -4.815542E-04
       470    8.893648E-08
       471    9.459965E-04
       472    1.105618E-08
       473    1.502958E-02
       474    3.071897E-02
       475    5.870966E-02
       476    4.007680E-03
       477    3.262455E-03
       478    1.545555E-02
       479    1.088557E-03
       480    6.387530E-03
       481    1.548730E-02
       482    1.502409E-02
       483    3.066117E-02
       484    5.843949E-02
       485    4.004182E-03
       486   -3.257738E-03
       487    1.545881E-02
       488    1.042298E-03
       489   -6.356639E-03
       490    1.550601E-02
 Sym= X
 Ene= -0.766148
 Spin= Alpha
 Occup= -0.766148
         1   -2.837184E-05
         2   -6.496386E-05
         3    1.581484E-04
         4   -2.016760E-04
         5   -1.518252E-03
         6   -5.262093E-04
         7    7.122494E-05
         8    1.849355E-04
         9   -1.035937E-01
        10    5.107382E-04
        11    9.318035E-06
        12   -1.038602E-01
        13   -1.267503E-03
        14    1.603566E-03
        15   -7.078825E-02
        16   -5.005696E-06
        17    3.067618E-06
        18    1.938079E-06
        19    4.417984E-06
        20    2.493701E-03
        21    3.480623E-04
        22   -9.335102E-05
        23    7.169602E-05
        24    2.165499E-05
        25    7.535911E-06
        26    3.811019E-03
        27    5.781279E-05
        28   -3.692254E-05
        29    8.163842E-05
        30   -4.471589E-05
        31    6.934900E-05
        32   -2.946682E-04
        33    2.188216E-03
        34    3.956359E-06
        35    2.347825E-07
        36    7.085650E-04
        37   -8.222831E-07
        38    1.391054E-07
        39   -8.381795E-04
        40   -4.485730E-06
        41   -4.540991E-07
        42   -1.124603E-04
        43    4.835847E-05
        44   -4.933102E-09
        45    3.646183E-08
        46   -3.132392E-06
        47    1.261347E-05
        48    7.314302E-04
        49    7.179711E-05
        50    6.990288E-07
        51   -1.306351E-04
        52   -1.162574E-06
        53   -8.097301E-06
        54   -2.974922E-04
        55    8.530227E-07
        56   -3.099457E-04
        57    2.542722E-03
        58    2.129909E-05
        59   -2.169834E-08
        60    4.502464E-08
        61   -2.332630E-08
        62    9.342604E-06