[Molden Format]
[Title]
ADC(2) - opt by CAM-B3LYP gaussian                                              
[Atoms] AU
 c     1    6 0.12592752280008E+01 0.22800132789445E+01 -.35345910021030E-01
 c     2    6 0.25511638220345E+01 0.20078340100000E-05 -.33671612667290E-01
 c     3    6 0.12592790074531E+01 -.22800111530026E+01 -.35357248377820E-01
 c     4    6 -.13364450292264E+01 -.22798221803893E+01 -.38530098554940E-01
 c     5    6 -.26857699593430E+01 -.17716182500000E-05 -.39025206801750E-01
 c     6    6 -.13364469189525E+01 0.22798205268790E+01 -.38516870472010E-01
 h     7    1 0.23055183220207E+01 0.40307538342087E+01 -.32265656424420E-01
 h     8    1 0.23055239911991E+01 -.40307498185407E+01 -.32284553685750E-01
 h     9    1 -.23548467881305E+01 -.40530977197882E+01 -.43619131030800E-01
 h    10    1 -.23548543470350E+01 0.40530922868255E+01 -.43594564591070E-01
 n    11    7 0.52860567397703E+01 0.11810788000000E-06 -.26776002008390E-01
 o    12    8 0.63771222479361E+01 -.20280728649663E+01 -.23850705954680E-01
 o    13    8 0.63771260273883E+01 0.20280712114559E+01 -.23882831298940E-01
 n    14    7 -.52615573853205E+01 0.11810788000000E-06 -.10505223788478E+00
 h    15    1 -.61955753134867E+01 -.16086254730588E+01 0.27588253543458E+00
 h    16    1 -.61955696443083E+01 0.16086275990006E+01 0.27589009433911E+00
[GTO]
    1 0
 s    6 1.00
 0.13575349682000E+05 0.60645503603591E-03
 0.20352333680000E+04 0.46979088884982E-02
 0.46322562359000E+03 0.24332477647552E-01
 0.13120019598000E+03 0.97399968307759E-01
 0.42853015891000E+02 0.30195584253780E+00
 0.15584185766000E+02 0.66233609137875E+00
 s    2 1.00
 0.62067138508000E+01 0.65595308539952E+00
 0.25764896527000E+01 0.37585633285142E+00
 s    1 1.00
 0.57696339419000E+00 0.10000000000000E+01
 s    1 1.00
 0.22972831358000E+00 0.10000000000000E+01
 s    1 1.00
 0.95164440028000E-01 0.10000000000000E+01
 s    1 1.00
 0.48475401370000E-01 0.10000000000000E+01
 p    4 1.00
 0.34697232244000E+02 0.11327220003114E-01
 0.79582622826000E+01 0.76169659202087E-01
 0.23780826883000E+01 0.30192252202676E+00
 0.81433208183000E+00 0.72785027349547E+00
 p    1 1.00
 0.28887547253000E+00 0.10000000000000E+01
 p    1 1.00
 0.10056823671000E+00 0.10000000000000E+01
 d    1 1.00
 0.10970000000000E+01 0.10000000000000E+01
 d    1 1.00
 0.31800000000000E+00 0.10000000000000E+01
 d    1 1.00
 0.90985336424000E-01 0.10000000000000E+01
 f    1 1.00
 0.76100000000000E+00 0.10000000000000E+01
 
    2 0
 s    6 1.00
 0.13575349682000E+05 0.60645503603591E-03
 0.20352333680000E+04 0.46979088884982E-02
 0.46322562359000E+03 0.24332477647552E-01
 0.13120019598000E+03 0.97399968307759E-01
 0.42853015891000E+02 0.30195584253780E+00
 0.15584185766000E+02 0.66233609137875E+00
 s    2 1.00
 0.62067138508000E+01 0.65595308539952E+00
 0.25764896527000E+01 0.37585633285142E+00
 s    1 1.00
 0.57696339419000E+00 0.10000000000000E+01
 s    1 1.00
 0.22972831358000E+00 0.10000000000000E+01
 s    1 1.00
 0.95164440028000E-01 0.10000000000000E+01
 s    1 1.00
 0.48475401370000E-01 0.10000000000000E+01
 p    4 1.00
 0.34697232244000E+02 0.11327220003114E-01
 0.79582622826000E+01 0.76169659202087E-01
 0.23780826883000E+01 0.30192252202676E+00
 0.81433208183000E+00 0.72785027349547E+00
 p    1 1.00
 0.28887547253000E+00 0.10000000000000E+01
 p    1 1.00
 0.10056823671000E+00 0.10000000000000E+01
 d    1 1.00
 0.10970000000000E+01 0.10000000000000E+01
 d    1 1.00
 0.31800000000000E+00 0.10000000000000E+01
 d    1 1.00
 0.90985336424000E-01 0.10000000000000E+01
 f    1 1.00
 0.76100000000000E+00 0.10000000000000E+01
 
    3 0
 s    6 1.00
 0.13575349682000E+05 0.60645503603591E-03
 0.20352333680000E+04 0.46979088884982E-02
 0.46322562359000E+03 0.24332477647552E-01
 0.13120019598000E+03 0.97399968307759E-01
 0.42853015891000E+02 0.30195584253780E+00
 0.15584185766000E+02 0.66233609137875E+00
 s    2 1.00
 0.62067138508000E+01 0.65595308539952E+00
 0.25764896527000E+01 0.37585633285142E+00
 s    1 1.00
 0.57696339419000E+00 0.10000000000000E+01
 s    1 1.00
 0.22972831358000E+00 0.10000000000000E+01
 s    1 1.00
 0.95164440028000E-01 0.10000000000000E+01
 s    1 1.00
 0.48475401370000E-01 0.10000000000000E+01
 p    4 1.00
 0.34697232244000E+02 0.11327220003114E-01
 0.79582622826000E+01 0.76169659202087E-01
 0.23780826883000E+01 0.30192252202676E+00
 0.81433208183000E+00 0.72785027349547E+00
 p    1 1.00
 0.28887547253000E+00 0.10000000000000E+01
 p    1 1.00
 0.10056823671000E+00 0.10000000000000E+01
 d    1 1.00
 0.10970000000000E+01 0.10000000000000E+01
 d    1 1.00
 0.31800000000000E+00 0.10000000000000E+01
 d    1 1.00
 0.90985336424000E-01 0.10000000000000E+01
 f    1 1.00
 0.76100000000000E+00 0.10000000000000E+01
 
    4 0
 s    6 1.00
 0.13575349682000E+05 0.60645503603591E-03
 0.20352333680000E+04 0.46979088884982E-02
 0.46322562359000E+03 0.24332477647552E-01
 0.13120019598000E+03 0.97399968307759E-01
 0.42853015891000E+02 0.30195584253780E+00
 0.15584185766000E+02 0.66233609137875E+00
 s    2 1.00
 0.62067138508000E+01 0.65595308539952E+00
 0.25764896527000E+01 0.37585633285142E+00
 s    1 1.00
 0.57696339419000E+00 0.10000000000000E+01
 s    1 1.00
 0.22972831358000E+00 0.10000000000000E+01
 s    1 1.00
 0.95164440028000E-01 0.10000000000000E+01
 s    1 1.00
 0.48475401370000E-01 0.10000000000000E+01
 p    4 1.00
 0.34697232244000E+02 0.11327220003114E-01
 0.79582622826000E+01 0.76169659202087E-01
 0.23780826883000E+01 0.30192252202676E+00
 0.81433208183000E+00 0.72785027349547E+00
 p    1 1.00
 0.28887547253000E+00 0.10000000000000E+01
 p    1 1.00
 0.10056823671000E+00 0.10000000000000E+01
 d    1 1.00
 0.10970000000000E+01 0.10000000000000E+01
 d    1 1.00
 0.31800000000000E+00 0.10000000000000E+01
 d    1 1.00
 0.90985336424000E-01 0.10000000000000E+01
 f    1 1.00
 0.76100000000000E+00 0.10000000000000E+01
 
    5 0
 s    6 1.00
 0.13575349682000E+05 0.60645503603591E-03
 0.20352333680000E+04 0.46979088884982E-02
 0.46322562359000E+03 0.24332477647552E-01
 0.13120019598000E+03 0.97399968307759E-01
 0.42853015891000E+02 0.30195584253780E+00
 0.15584185766000E+02 0.66233609137875E+00
 s    2 1.00
 0.62067138508000E+01 0.65595308539952E+00
 0.25764896527000E+01 0.37585633285142E+00
 s    1 1.00
 0.57696339419000E+00 0.10000000000000E+01
 s    1 1.00
 0.22972831358000E+00 0.10000000000000E+01
 s    1 1.00
 0.95164440028000E-01 0.10000000000000E+01
 s    1 1.00
 0.48475401370000E-01 0.10000000000000E+01
 p    4 1.00
 0.34697232244000E+02 0.11327220003114E-01
 0.79582622826000E+01 0.76169659202087E-01
 0.23780826883000E+01 0.30192252202676E+00
 0.81433208183000E+00 0.72785027349547E+00
 p    1 1.00
 0.28887547253000E+00 0.10000000000000E+01
 p    1 1.00
 0.10056823671000E+00 0.10000000000000E+01
 d    1 1.00
 0.10970000000000E+01 0.10000000000000E+01
 d    1 1.00
 0.31800000000000E+00 0.10000000000000E+01
 d    1 1.00
 0.90985336424000E-01 0.10000000000000E+01
 f    1 1.00
 0.76100000000000E+00 0.10000000000000E+01
 
    6 0
 s    6 1.00
 0.13575349682000E+05 0.60645503603591E-03
 0.20352333680000E+04 0.46979088884982E-02
 0.46322562359000E+03 0.24332477647552E-01
 0.13120019598000E+03 0.97399968307759E-01
 0.42853015891000E+02 0.30195584253780E+00
 0.15584185766000E+02 0.66233609137875E+00
 s    2 1.00
 0.62067138508000E+01 0.65595308539952E+00
 0.25764896527000E+01 0.37585633285142E+00
 s    1 1.00
 0.57696339419000E+00 0.10000000000000E+01
 s    1 1.00
 0.22972831358000E+00 0.10000000000000E+01
 s    1 1.00
 0.95164440028000E-01 0.10000000000000E+01
 s    1 1.00
 0.48475401370000E-01 0.10000000000000E+01
 p    4 1.00
 0.34697232244000E+02 0.11327220003114E-01
 0.79582622826000E+01 0.76169659202087E-01
 0.23780826883000E+01 0.30192252202676E+00
 0.81433208183000E+00 0.72785027349547E+00
 p    1 1.00
 0.28887547253000E+00 0.10000000000000E+01
 p    1 1.00
 0.10056823671000E+00 0.10000000000000E+01
 d    1 1.00
 0.10970000000000E+01 0.10000000000000E+01
 d    1 1.00
 0.31800000000000E+00 0.10000000000000E+01
 d    1 1.00
 0.90985336424000E-01 0.10000000000000E+01
 f    1 1.00
 0.76100000000000E+00 0.10000000000000E+01
 
    7 0
 s    3 1.00
 0.34061341000000E+02 0.25439307208879E-01
 0.51235746000000E+01 0.19008594890375E+00
 0.11646626000000E+01 0.85244113011042E+00
 s    1 1.00
 0.32723041000000E+00 0.10000000000000E+01
 s    1 1.00
 0.10307241000000E+00 0.10000000000000E+01
 p    1 1.00
 0.80000000000000E+00 0.10000000000000E+01
 p    1 1.00
 0.95774129632000E-01 0.10000000000000E+01
 
    8 0
 s    3 1.00
 0.34061341000000E+02 0.25439307208879E-01
 0.51235746000000E+01 0.19008594890375E+00
 0.11646626000000E+01 0.85244113011042E+00
 s    1 1.00
 0.32723041000000E+00 0.10000000000000E+01
 s    1 1.00
 0.10307241000000E+00 0.10000000000000E+01
 p    1 1.00
 0.80000000000000E+00 0.10000000000000E+01
 p    1 1.00
 0.95774129632000E-01 0.10000000000000E+01
 
    9 0
 s    3 1.00
 0.34061341000000E+02 0.25439307208879E-01
 0.51235746000000E+01 0.19008594890375E+00
 0.11646626000000E+01 0.85244113011042E+00
 s    1 1.00
 0.32723041000000E+00 0.10000000000000E+01
 s    1 1.00
 0.10307241000000E+00 0.10000000000000E+01
 p    1 1.00
 0.80000000000000E+00 0.10000000000000E+01
 p    1 1.00
 0.95774129632000E-01 0.10000000000000E+01
 
   10 0
 s    3 1.00
 0.34061341000000E+02 0.25439307208879E-01
 0.51235746000000E+01 0.19008594890375E+00
 0.11646626000000E+01 0.85244113011042E+00
 s    1 1.00
 0.32723041000000E+00 0.10000000000000E+01
 s    1 1.00
 0.10307241000000E+00 0.10000000000000E+01
 p    1 1.00
 0.80000000000000E+00 0.10000000000000E+01
 p    1 1.00
 0.95774129632000E-01 0.10000000000000E+01
 
   11 0
 s    6 1.00
 0.19730800647000E+05 0.58626402628763E-03
 0.29578958745000E+04 0.45428820586397E-02
 0.67322133595000E+03 0.23558413450084E-01
 0.19068249494000E+03 0.94709193292923E-01
 0.62295441898000E+02 0.29719784913376E+00
 0.22654161182000E+02 0.66916246895232E+00
 s    2 1.00
 0.89791477428000E+01 0.64596683630063E+00
 0.36863002370000E+01 0.38700574393705E+00
 s    1 1.00
 0.84660076805000E+00 0.10000000000000E+01
 s    1 1.00
 0.33647133771000E+00 0.10000000000000E+01
 s    1 1.00
 0.13647653675000E+00 0.10000000000000E+01
 s    1 1.00
 0.68441605847000E-01 0.10000000000000E+01
 p    4 1.00
 0.49200380510000E+02 0.11448825101764E-01
 0.11346790537000E+02 0.78422337970864E-01
 0.34273972411000E+01 0.30818094738830E+00
 0.11785525134000E+01 0.72027196368413E+00
 p    1 1.00
 0.41642204972000E+00 0.10000000000000E+01
 p    1 1.00
 0.14260826011000E+00 0.10000000000000E+01
 d    1 1.00
 0.16540000000000E+01 0.10000000000000E+01
 d    1 1.00
 0.46900000000000E+00 0.10000000000000E+01
 d    1 1.00
 0.12829642058000E+00 0.10000000000000E+01
 f    1 1.00
 0.10930000000000E+01 0.10000000000000E+01
 
   12 0
 s    6 1.00
 0.27032382631000E+05 0.57227335211155E-03
 0.40523871392000E+04 0.44353233492995E-02
 0.92232722710000E+03 0.23020107706038E-01
 0.26124070989000E+03 0.92822490667928E-01
 0.85354641351000E+02 0.29378500009671E+00
 0.31035035245000E+02 0.67401604501641E+00
 s    2 1.00
 0.12260860728000E+02 0.63839937025506E+00
 0.49987076005000E+01 0.39534587125718E+00
 s    1 1.00
 0.11703108158000E+01 0.10000000000000E+01
 s    1 1.00
 0.46474740994000E+00 0.10000000000000E+01
 s    1 1.00
 0.18504536357000E+00 0.10000000000000E+01
 s    1 1.00
 0.70288026270000E-01 0.10000000000000E+01
 p    4 1.00
 0.63274954801000E+02 0.12018332222616E-01
 0.14627049379000E+02 0.83005421790056E-01
 0.44501223456000E+01 0.31991743925964E+00
 0.15275799647000E+01 0.70715542916104E+00
 p    1 1.00
 0.52935117943000E+00 0.10000000000000E+01
 p    1 1.00
 0.17478421270000E+00 0.10000000000000E+01
 p    1 1.00
 0.51112745706000E-01 0.10000000000000E+01
 d    1 1.00
 0.23140000000000E+01 0.10000000000000E+01
 d    1 1.00
 0.64500000000000E+00 0.10000000000000E+01
 d    1 1.00
 0.14696477366000E+00 0.10000000000000E+01
 f    1 1.00
 0.14280000000000E+01 0.10000000000000E+01
 
   13 0
 s    6 1.00
 0.27032382631000E+05 0.57227335211155E-03
 0.40523871392000E+04 0.44353233492995E-02
 0.92232722710000E+03 0.23020107706038E-01
 0.26124070989000E+03 0.92822490667928E-01
 0.85354641351000E+02 0.29378500009671E+00
 0.31035035245000E+02 0.67401604501641E+00
 s    2 1.00
 0.12260860728000E+02 0.63839937025506E+00
 0.49987076005000E+01 0.39534587125718E+00
 s    1 1.00
 0.11703108158000E+01 0.10000000000000E+01
 s    1 1.00
 0.46474740994000E+00 0.10000000000000E+01
 s    1 1.00
 0.18504536357000E+00 0.10000000000000E+01
 s    1 1.00
 0.70288026270000E-01 0.10000000000000E+01
 p    4 1.00
 0.63274954801000E+02 0.12018332222616E-01
 0.14627049379000E+02 0.83005421790056E-01
 0.44501223456000E+01 0.31991743925964E+00
 0.15275799647000E+01 0.70715542916104E+00
 p    1 1.00
 0.52935117943000E+00 0.10000000000000E+01
 p    1 1.00
 0.17478421270000E+00 0.10000000000000E+01
 p    1 1.00
 0.51112745706000E-01 0.10000000000000E+01
 d    1 1.00
 0.23140000000000E+01 0.10000000000000E+01
 d    1 1.00
 0.64500000000000E+00 0.10000000000000E+01
 d    1 1.00
 0.14696477366000E+00 0.10000000000000E+01
 f    1 1.00
 0.14280000000000E+01 0.10000000000000E+01
 
   14 0
 s    6 1.00
 0.19730800647000E+05 0.58626402628763E-03
 0.29578958745000E+04 0.45428820586397E-02
 0.67322133595000E+03 0.23558413450084E-01
 0.19068249494000E+03 0.94709193292923E-01
 0.62295441898000E+02 0.29719784913376E+00
 0.22654161182000E+02 0.66916246895232E+00
 s    2 1.00
 0.89791477428000E+01 0.64596683630063E+00
 0.36863002370000E+01 0.38700574393705E+00
 s    1 1.00
 0.84660076805000E+00 0.10000000000000E+01
 s    1 1.00
 0.33647133771000E+00 0.10000000000000E+01
 s    1 1.00
 0.13647653675000E+00 0.10000000000000E+01
 s    1 1.00
 0.68441605847000E-01 0.10000000000000E+01
 p    4 1.00
 0.49200380510000E+02 0.11448825101764E-01
 0.11346790537000E+02 0.78422337970864E-01
 0.34273972411000E+01 0.30818094738830E+00
 0.11785525134000E+01 0.72027196368413E+00
 p    1 1.00
 0.41642204972000E+00 0.10000000000000E+01
 p    1 1.00
 0.14260826011000E+00 0.10000000000000E+01
 d    1 1.00
 0.16540000000000E+01 0.10000000000000E+01
 d    1 1.00
 0.46900000000000E+00 0.10000000000000E+01
 d    1 1.00
 0.12829642058000E+00 0.10000000000000E+01
 f    1 1.00
 0.10930000000000E+01 0.10000000000000E+01
 
   15 0
 s    3 1.00
 0.34061341000000E+02 0.25439307208879E-01
 0.51235746000000E+01 0.19008594890375E+00
 0.11646626000000E+01 0.85244113011042E+00
 s    1 1.00
 0.32723041000000E+00 0.10000000000000E+01
 s    1 1.00
 0.10307241000000E+00 0.10000000000000E+01
 p    1 1.00
 0.80000000000000E+00 0.10000000000000E+01
 p    1 1.00
 0.95774129632000E-01 0.10000000000000E+01
 
   16 0
 s    3 1.00
 0.34061341000000E+02 0.25439307208879E-01
 0.51235746000000E+01 0.19008594890375E+00
 0.11646626000000E+01 0.85244113011042E+00
 s    1 1.00
 0.32723041000000E+00 0.10000000000000E+01
 s    1 1.00
 0.10307241000000E+00 0.10000000000000E+01
 p    1 1.00
 0.80000000000000E+00 0.10000000000000E+01
 p    1 1.00
 0.95774129632000E-01 0.10000000000000E+01
 
[MO]
 Sym= X
 Ene= -0.871400
 Spin= Alpha
 Occup= -0.871400
         1    2.687096E-05
         2    6.088090E-05
         3   -5.454082E-05
         4   -4.036613E-04
         5   -9.460621E-03
         6   -1.112129E-03
         7   -3.737997E-04
         8    1.883894E-04
         9   -1.874066E-01
        10    4.856127E-04
        11   -1.496597E-04
        12   -1.881865E-01
        13   -5.900607E-03
        14    6.649920E-03
        15   -1.097852E-01
        16    5.649527E-06
        17   -1.418639E-05
        18    8.536863E-06
        19    8.761773E-06
        20    4.944684E-03
        21    5.529775E-04
        22   -9.945486E-05
        23    7.387921E-05
        24    2.557565E-05
        25   -1.654403E-06
        26    9.698316E-03
        27   -4.591962E-04
        28    9.145806E-04
        29   -9.972874E-04
        30    8.270675E-05
        31    6.665553E-04
        32    4.507148E-03
        33   -1.433926E-03
        34    6.861654E-06
        35    2.285476E-06
        36    1.170494E-03
        37   -2.716696E-06
        38   -2.835167E-06
        39   -1.413491E-03
        40   -6.489179E-06
        41   -2.311206E-07
        42   -1.568921E-04
        43   -6.215193E-06
        44    4.291522E-07
        45    1.062914E-06
        46   -6.738866E-06
        47    1.923672E-05
        48    1.462777E-03
        49    1.030439E-04
        50   -6.646945E-06
        51   -5.451641E-04
        52    2.157587E-06
        53   -1.766451E-05
        54   -1.022697E-03
        55    5.136466E-06
        56   -6.113910E-04
        57    1.227382E-02
        58   -4.093407E-06
        59   -4.027794E-07
        60    4.656024E-07
        61   -6.282293E-08
        62    3.487578E-05
        63    9.421405E-08
        64   -7.045930E-03
        65   -1.271415E-06
        66    4.981992E-06
        67   -3.710577E-06
        68    1.436254E-04
        69   -6.610422E-07
        70   -1.610772E-02
        71    3.914480E-05
        72   -7.242748E-06
        73   -3.190205E-05
        74   -1.664189E-03
        75    3.466861E-08
        76   -3.595517E-03
        77   -4.013886E-09
        78   -7.651164E-06
        79   -4.129538E-08
        80   -9.618465E-08
        81    4.181266E-06
        82    2.448702E-08
        83    1.015698E-07
        84    6.083848E-06
        85    3.091655E-08
        86    1.030576E-03
        87   -2.794600E-05
        88   -6.336880E-05
        89    6.909871E-05
        90    3.591548E-04
        91    6.699238E-03
        92    9.567572E-04
        93    3.814077E-04
        94    1.884607E-04
        95    1.874058E-01
        96   -4.424563E-04
        97   -1.736828E-04
        98    1.881844E-01
        99    6.670215E-03
       100    5.432613E-03
       101    1.097534E-01
       102   -6.001977E-06
       103    1.469144E-05
       104   -8.689465E-06
       105    8.494929E-06
       106   -4.944681E-03
       107    5.531046E-04
       108    8.810834E-05
       109   -7.052278E-05
       110   -1.758556E-05
       111   -8.120152E-06
       112   -9.698102E-03
       113   -4.601209E-04
       114   -9.024807E-04
       115    9.317673E-04
       116   -2.928662E-05
       117    7.350513E-04
       118   -4.499811E-03
       119   -1.434944E-03
       120   -6.487955E-06
       121    2.198466E-06
       122   -1.170509E-03
       123    2.467184E-06
       124   -2.964356E-06
       125    1.413526E-03
       126    6.237322E-06
       127    1.480397E-08
       128    1.568768E-04
       129   -6.247100E-06
       130   -1.684591E-05
       131   -3.941069E-05
       132    1.915727E-04
       133   -1.280730E-03
       134   -1.333765E-02
       135   -5.171607E-04
       136   -7.068822E-04
       137   -2.669624E-04
       138    2.007949E-01
       139   -9.025669E-04
       140   -5.114308E-04
       141    2.036228E-01
       142    9.498156E-03
       143   -9.015553E-03
       144    1.316311E-01
       145   -3.211332E-05
       146    4.801816E-06
       147    2.731151E-05
       148    1.277301E-05
       149    4.572757E-03
       150    4.805178E-04
       151   -2.346052E-04
       152    5.975292E-05
       153    1.748523E-04
       154    1.279882E-04
       155    8.013714E-03
       156    4.604638E-04
       157    4.035941E-05
       158   -4.311045E-04
       159    3.907451E-04
       160    1.744110E-03
       161   -3.641262E-03
       162    3.374621E-03
       163   -9.032893E-06
       164   -2.015944E-06
       165   -1.319378E-03
       166    5.156299E-06
       167   -2.104197E-06
       168    1.459324E-03
       169    6.962599E-06
       170    4.808870E-06
       171    3.108079E-04
       172   -4.645193E-05
       173   -3.008461E-08
       174   -1.624861E-07
       175    5.625483E-06
       176   -1.226780E-05
       177   -1.829621E-03
       178   -1.368481E-04
       179    3.487877E-07
       180    1.459773E-04
       181   -1.171139E-06
       182   -1.459166E-05
       183   -4.992574E-05
       184   -3.454766E-06
       185   -6.793432E-04
       186   -2.439372E-02
       187    2.980463E-06
       188    1.953943E-07
       189   -3.063488E-08
       190   -1.647594E-07
       191   -2.592671E-05
       192    1.932570E-07
       193   -7.603575E-03
       194    2.624654E-07
       195   -5.666773E-06
       196    5.404307E-06
       197   -1.271399E-04
       198   -5.504846E-07
       199   -1.598879E-02
       200   -3.257634E-05
       201   -1.047024E-05
       202    4.304658E-05
       203   -1.515782E-03
       204   -1.235894E-06
       205    7.808051E-03
       206    4.674176E-08
       207   -9.561548E-06
       208    2.919048E-08
       209   -1.904095E-07
       210    1.138165E-05
       211   -4.196804E-08
       212    1.276988E-07
       213    1.446517E-06
       214    2.804910E-09
       215   -1.185156E-03
       216    1.834534E-05
       217    4.285549E-05
       218   -2.090992E-04
       219    1.331921E-03
       220    1.644857E-02
       221    6.879789E-04
       222    7.046995E-04
       223   -2.690793E-04
       224   -2.007944E-01
       225    9.348743E-04
       226   -5.404742E-04
       227   -2.036219E-01
       228   -8.857319E-03
       229   -1.033688E-02
       230   -1.315921E-01
       231    3.201922E-05
       232   -4.980028E-06
       233   -2.703919E-05
       234    1.302009E-05
       235   -4.572889E-03
       236    4.806134E-04
       237    2.455238E-04
       238   -6.120666E-05
       239   -1.843171E-04
       240    1.344112E-04
       241   -8.013553E-03
       242    4.594030E-04
       243   -5.154558E-05
       244    4.983972E-04
       245   -4.468516E-04
       246    1.681115E-03
       247    3.648334E-03
       248    3.374283E-03
       249    9.381053E-06
       250   -2.163929E-06
       251    1.319391E-03
       252   -5.461185E-06
       253   -2.187642E-06
       254   -1.459363E-03
       255   -7.124818E-06
       256    5.090858E-06
       257   -3.107861E-04
       258   -4.641924E-05
       259   -1.061621E-04
       260   -1.460187E-04
       261   -1.145089E-03
       262    3.090317E-05
       263    2.475398E-05
       264   -7.679042E-03
       265    1.131121E-04
       266    2.617175E-04
       267   -6.839649E-03
       268    1.103693E-04
       269    1.405673E-04
       270    7.717317E-04
       271   -3.045854E-05
       272    2.408482E-05
       273    7.678961E-03
       274   -7.147851E-05
       275    1.610558E-04
       276    6.839950E-03
       277    1.278185E-04
       278    9.487091E-05
       279   -2.755009E-03
       280   -3.144494E-05
       281   -2.020999E-06
       282    8.734132E-03
       283   -3.665111E-04
       284   -9.711861E-05
       285    9.925667E-03
       286   -1.306413E-04
       287   -9.140629E-05
       288    3.134598E-03
       289    3.167515E-05
       290   -2.725058E-06
       291   -8.734015E-03
       292    4.148615E-04
       293   -2.028562E-04
       294   -9.926968E-03
       295    3.245323E-07
       296    7.831708E-07
       297   -1.137433E-06
       298    3.926146E-07
       299    1.206608E-06
       300   -5.711229E-05
       301    6.959718E-06
       302   -2.916300E-04
       303    9.355462E-07
       304    4.561967E-06
       305   -2.524384E-04
       306    6.687956E-07
       307    2.033702E-06
       308   -5.539186E-04
       309    1.341906E-06
       310   -5.278976E-07
       311    6.223579E-07
       312   -9.446027E-08
       313   -1.035718E-04
       314   -6.076178E-08
       315    1.332880E-03
       316   -1.381905E-06
       317    1.195523E-06
       318    1.863826E-07
       319   -2.686588E-04
       320   -1.939936E-07
       321    3.542209E-03
       322    1.860151E-07
       323   -5.434171E-06
       324    5.248156E-06
       325    2.661212E-04
       326   -2.295772E-06
       327    2.151338E-03
       328    9.190769E-09
       329    2.540742E-05
       330   -4.573172E-09
       331    8.502380E-09
       332   -3.713797E-05
       333    1.449762E-08
       334   -2.083309E-08
       335    3.050345E-06
       336   -8.362071E-09
       337    3.884968E-04
       338   -1.123388E-05
       339   -2.900634E-05
       340    4.161768E-05
       341    6.692574E-06
       342   -3.968166E-05
       343   -1.903645E-04
       344    3.017655E-03
       345    2.392456E-03
       346   -4.221002E-02
       347    2.734932E-03
       348    2.095957E-03
       349   -3.925202E-02
       350    2.189475E-03
       351    1.510487E-03
       352   -2.801897E-02
       353    3.640114E-04
       354    1.871872E-04
       355   -1.952242E-03
       356   -2.356495E-05
       357    2.894235E-05
       358   -5.377401E-06
       359    2.111050E-06
       360    1.501933E-04
       361   -3.365644E-04
       362   -7.628510E-05
       363    7.737188E-05
       364   -1.086779E-06
       365    2.237941E-05
       366    5.342987E-04
       367   -1.290844E-03
       368   -1.116072E-04
       369    1.022936E-04
       370    9.313665E-06
       371    3.399085E-05
       372    1.506739E-04
       373   -1.655513E-04
       374    1.999033E-06
       375    8.550401E-06
       376    4.693788E-05
       377   -3.846292E-06
       378   -1.047887E-05
       379    3.292154E-05
       380    1.164307E-06
       381   -9.926965E-07
       382   -9.589531E-05
       383    1.115434E-04
       384    1.130342E-05
       385    2.915596E-05
       386   -4.185915E-05
       387   -9.465883E-06
       388    6.822254E-05
       389    2.117763E-04
       390   -3.044451E-03
       391    2.396813E-03
       392    4.220776E-02
       393   -2.759359E-03
       394    2.099493E-03
       395    3.924968E-02
       396   -2.214072E-03
       397    1.507832E-03
       398    2.801865E-02
       399   -3.675052E-04
       400    1.850260E-04
       401    1.951906E-03
       402    2.363662E-05
       403   -2.893415E-05
       404    5.297530E-06
       405    2.306911E-06
       406   -1.501987E-04
       407   -3.365635E-04
       408    7.651843E-05
       409   -7.737454E-05
       410    8.561040E-07
       411    2.309819E-05
       412   -5.343156E-04
       413   -1.290820E-03
       414    1.122124E-04
       415   -1.022962E-04
       416   -9.916215E-06
       417    3.553868E-05
       418   -1.499434E-04
       419   -1.663824E-04
       420   -1.962839E-06
       421    8.581666E-06
       422   -4.694153E-05
       423    3.787085E-06
       424   -1.055173E-05
       425   -3.291532E-05
       426   -1.153660E-06
       427   -9.617804E-07
       428    9.589399E-05
       429    1.115424E-04
       430   -2.086749E-07
       431   -5.359200E-07
       432    1.395096E-06
       433   -5.036570E-06
       434   -4.417150E-06
       435    4.521471E-05
       436    6.001464E-07
       437    1.674820E-03
       438   -5.077234E-06
       439   -1.595543E-06
       440    1.811200E-03
       441   -5.049721E-06
       442    2.438856E-05
       443    1.936666E-03
       444   -5.963805E-06
       445    3.552207E-08
       446   -3.729244E-08
       447    1.770367E-09
       448    1.556689E-05
       449   -3.404099E-09
       450   -2.995127E-04
       451   -5.242606E-08
       452    4.321842E-07
       453   -3.797581E-07
       454   -5.876713E-06
       455   -2.392756E-07
       456   -6.323568E-04
       457    7.880141E-06
       458   -2.551702E-06
       459   -5.328438E-06
       460    8.113005E-05
       461   -2.127886E-07
       462    3.132742E-04
       463   -8.862165E-09
       464    6.350280E-06
       465    2.020066E-08
       466    1.571375E-08
       467    1.850769E-05
       468   -2.972634E-08
       469   -3.823910E-09
       470   -2.702749E-05
       471    2.624311E-09
       472   -1.318640E-04
       473   -5.049208E-05
       474    1.145600E-04
       475    3.095116E-04
       476    6.719970E-05
       477    2.811815E-05
       478    3.746930E-04
       479   -1.370271E-04
       480    1.745266E-04
       481    1.755146E-03
       482    4.951359E-05
       483   -1.177213E-04
       484   -3.013090E-04
       485   -6.769116E-05
       486    2.845844E-05
       487   -3.750238E-04
       488    1.460038E-04
       489    1.786034E-04
       490   -1.754184E-03
 Sym= X
 Ene= 0.871400
 Spin= Alpha
 Occup= 0.871400
         1    1.046716E-02
         2    2.338940E-02
         3   -2.847417E-02
         4   -2.165740E-01
         5    9.968143E-01
         6    5.908302E-01
         7   -2.375971E-02
         8   -1.609617E-02
         9    2.608632E-04
        10   -1.092820E-01
        11   -2.059480E-02
        12   -2.123622E-03
        13   -8.426726E-01
        14   -5.416198E-01
        15   -2.122559E-02
        16   -2.322188E-03
        17    2.327856E-04
        18    2.089402E-03
        19    2.088609E-03
        20   -2.350723E-04
        21    1.660815E-04
        22    7.441569E-03
        23   -1.452843E-02
        24    7.086862E-03
        25    4.190235E-03
        26    5.191693E-04
        27    2.303482E-04
        28    5.934062E-01
        29   -3.549053E-01
        30   -2.385009E-01
        31    2.864271E-01
        32   -1.346873E-02
        33    1.486111E-02
        34    5.097874E-05
        35   -1.397406E-04
        36   -1.300029E-05
        37   -7.355701E-04
        38   -6.494233E-05
        39    5.081704E-06
        40    6.671749E-04
        41    2.524240E-04
        42    1.236002E-05
        43   -2.048910E-05
        44    7.592994E-03
        45    1.660831E-02
        46   -1.067535E-02
        47   -2.431754E-01
        48   -1.761701E-01
        49    6.248787E-01
        50   -1.226282E-02
        51   -2.916767E-06
        52   -4.681856E-03
        53   -8.806581E-02
        54   -3.492326E-05
        55   -8.273008E-03
        56   -1.600810E+00
        57   -1.166375E-03
        58    6.012583E-02
        59    2.133548E-03
        60   -4.669451E-03
        61    2.535903E-03
        62   -2.231506E-09