[Molden Format]
[Title]
ADC(2) - opt by CAM-B3LYP gaussian                                              
[Atoms] AU
 c     1    6 0.12592752280008E+01 0.22800132789445E+01 -.35345910021030E-01
 c     2    6 0.25511638220345E+01 0.20078340100000E-05 -.33671612667290E-01
 c     3    6 0.12592790074531E+01 -.22800111530026E+01 -.35357248377820E-01
 c     4    6 -.13364450292264E+01 -.22798221803893E+01 -.38530098554940E-01
 c     5    6 -.26857699593430E+01 -.17716182500000E-05 -.39025206801750E-01
 c     6    6 -.13364469189525E+01 0.22798205268790E+01 -.38516870472010E-01
 h     7    1 0.23055183220207E+01 0.40307538342087E+01 -.32265656424420E-01
 h     8    1 0.23055239911991E+01 -.40307498185407E+01 -.32284553685750E-01
 h     9    1 -.23548467881305E+01 -.40530977197882E+01 -.43619131030800E-01
 h    10    1 -.23548543470350E+01 0.40530922868255E+01 -.43594564591070E-01
 n    11    7 0.52860567397703E+01 0.11810788000000E-06 -.26776002008390E-01
 o    12    8 0.63771222479361E+01 -.20280728649663E+01 -.23850705954680E-01
 o    13    8 0.63771260273883E+01 0.20280712114559E+01 -.23882831298940E-01
 n    14    7 -.52615573853205E+01 0.11810788000000E-06 -.10505223788478E+00
 h    15    1 -.61955753134867E+01 -.16086254730588E+01 0.27588253543458E+00
 h    16    1 -.61955696443083E+01 0.16086275990006E+01 0.27589009433911E+00
[GTO]
    1 0
 s    6 1.00
 0.13575349682000E+05 0.60645503603591E-03
 0.20352333680000E+04 0.46979088884982E-02
 0.46322562359000E+03 0.24332477647552E-01
 0.13120019598000E+03 0.97399968307759E-01
 0.42853015891000E+02 0.30195584253780E+00
 0.15584185766000E+02 0.66233609137875E+00
 s    2 1.00
 0.62067138508000E+01 0.65595308539952E+00
 0.25764896527000E+01 0.37585633285142E+00
 s    1 1.00
 0.57696339419000E+00 0.10000000000000E+01
 s    1 1.00
 0.22972831358000E+00 0.10000000000000E+01
 s    1 1.00
 0.95164440028000E-01 0.10000000000000E+01
 s    1 1.00
 0.48475401370000E-01 0.10000000000000E+01
 p    4 1.00
 0.34697232244000E+02 0.11327220003114E-01
 0.79582622826000E+01 0.76169659202087E-01
 0.23780826883000E+01 0.30192252202676E+00
 0.81433208183000E+00 0.72785027349547E+00
 p    1 1.00
 0.28887547253000E+00 0.10000000000000E+01
 p    1 1.00
 0.10056823671000E+00 0.10000000000000E+01
 d    1 1.00
 0.10970000000000E+01 0.10000000000000E+01
 d    1 1.00
 0.31800000000000E+00 0.10000000000000E+01
 d    1 1.00
 0.90985336424000E-01 0.10000000000000E+01
 f    1 1.00
 0.76100000000000E+00 0.10000000000000E+01
 
    2 0
 s    6 1.00
 0.13575349682000E+05 0.60645503603591E-03
 0.20352333680000E+04 0.46979088884982E-02
 0.46322562359000E+03 0.24332477647552E-01
 0.13120019598000E+03 0.97399968307759E-01
 0.42853015891000E+02 0.30195584253780E+00
 0.15584185766000E+02 0.66233609137875E+00
 s    2 1.00
 0.62067138508000E+01 0.65595308539952E+00
 0.25764896527000E+01 0.37585633285142E+00
 s    1 1.00
 0.57696339419000E+00 0.10000000000000E+01
 s    1 1.00
 0.22972831358000E+00 0.10000000000000E+01
 s    1 1.00
 0.95164440028000E-01 0.10000000000000E+01
 s    1 1.00
 0.48475401370000E-01 0.10000000000000E+01
 p    4 1.00
 0.34697232244000E+02 0.11327220003114E-01
 0.79582622826000E+01 0.76169659202087E-01
 0.23780826883000E+01 0.30192252202676E+00
 0.81433208183000E+00 0.72785027349547E+00
 p    1 1.00
 0.28887547253000E+00 0.10000000000000E+01
 p    1 1.00
 0.10056823671000E+00 0.10000000000000E+01
 d    1 1.00
 0.10970000000000E+01 0.10000000000000E+01
 d    1 1.00
 0.31800000000000E+00 0.10000000000000E+01
 d    1 1.00
 0.90985336424000E-01 0.10000000000000E+01
 f    1 1.00
 0.76100000000000E+00 0.10000000000000E+01
 
    3 0
 s    6 1.00
 0.13575349682000E+05 0.60645503603591E-03
 0.20352333680000E+04 0.46979088884982E-02
 0.46322562359000E+03 0.24332477647552E-01
 0.13120019598000E+03 0.97399968307759E-01
 0.42853015891000E+02 0.30195584253780E+00
 0.15584185766000E+02 0.66233609137875E+00
 s    2 1.00
 0.62067138508000E+01 0.65595308539952E+00
 0.25764896527000E+01 0.37585633285142E+00
 s    1 1.00
 0.57696339419000E+00 0.10000000000000E+01
 s    1 1.00
 0.22972831358000E+00 0.10000000000000E+01
 s    1 1.00
 0.95164440028000E-01 0.10000000000000E+01
 s    1 1.00
 0.48475401370000E-01 0.10000000000000E+01
 p    4 1.00
 0.34697232244000E+02 0.11327220003114E-01
 0.79582622826000E+01 0.76169659202087E-01
 0.23780826883000E+01 0.30192252202676E+00
 0.81433208183000E+00 0.72785027349547E+00
 p    1 1.00
 0.28887547253000E+00 0.10000000000000E+01
 p    1 1.00
 0.10056823671000E+00 0.10000000000000E+01
 d    1 1.00
 0.10970000000000E+01 0.10000000000000E+01
 d    1 1.00
 0.31800000000000E+00 0.10000000000000E+01
 d    1 1.00
 0.90985336424000E-01 0.10000000000000E+01
 f    1 1.00
 0.76100000000000E+00 0.10000000000000E+01
 
    4 0
 s    6 1.00
 0.13575349682000E+05 0.60645503603591E-03
 0.20352333680000E+04 0.46979088884982E-02
 0.46322562359000E+03 0.24332477647552E-01
 0.13120019598000E+03 0.97399968307759E-01
 0.42853015891000E+02 0.30195584253780E+00
 0.15584185766000E+02 0.66233609137875E+00
 s    2 1.00
 0.62067138508000E+01 0.65595308539952E+00
 0.25764896527000E+01 0.37585633285142E+00
 s    1 1.00
 0.57696339419000E+00 0.10000000000000E+01
 s    1 1.00
 0.22972831358000E+00 0.10000000000000E+01
 s    1 1.00
 0.95164440028000E-01 0.10000000000000E+01
 s    1 1.00
 0.48475401370000E-01 0.10000000000000E+01
 p    4 1.00
 0.34697232244000E+02 0.11327220003114E-01
 0.79582622826000E+01 0.76169659202087E-01
 0.23780826883000E+01 0.30192252202676E+00
 0.81433208183000E+00 0.72785027349547E+00
 p    1 1.00
 0.28887547253000E+00 0.10000000000000E+01
 p    1 1.00
 0.10056823671000E+00 0.10000000000000E+01
 d    1 1.00
 0.10970000000000E+01 0.10000000000000E+01
 d    1 1.00
 0.31800000000000E+00 0.10000000000000E+01
 d    1 1.00
 0.90985336424000E-01 0.10000000000000E+01
 f    1 1.00
 0.76100000000000E+00 0.10000000000000E+01
 
    5 0
 s    6 1.00
 0.13575349682000E+05 0.60645503603591E-03
 0.20352333680000E+04 0.46979088884982E-02
 0.46322562359000E+03 0.24332477647552E-01
 0.13120019598000E+03 0.97399968307759E-01
 0.42853015891000E+02 0.30195584253780E+00
 0.15584185766000E+02 0.66233609137875E+00
 s    2 1.00
 0.62067138508000E+01 0.65595308539952E+00
 0.25764896527000E+01 0.37585633285142E+00
 s    1 1.00
 0.57696339419000E+00 0.10000000000000E+01
 s    1 1.00
 0.22972831358000E+00 0.10000000000000E+01
 s    1 1.00
 0.95164440028000E-01 0.10000000000000E+01
 s    1 1.00
 0.48475401370000E-01 0.10000000000000E+01
 p    4 1.00
 0.34697232244000E+02 0.11327220003114E-01
 0.79582622826000E+01 0.76169659202087E-01
 0.23780826883000E+01 0.30192252202676E+00
 0.81433208183000E+00 0.72785027349547E+00
 p    1 1.00
 0.28887547253000E+00 0.10000000000000E+01
 p    1 1.00
 0.10056823671000E+00 0.10000000000000E+01
 d    1 1.00
 0.10970000000000E+01 0.10000000000000E+01
 d    1 1.00
 0.31800000000000E+00 0.10000000000000E+01
 d    1 1.00
 0.90985336424000E-01 0.10000000000000E+01
 f    1 1.00
 0.76100000000000E+00 0.10000000000000E+01
 
    6 0
 s    6 1.00
 0.13575349682000E+05 0.60645503603591E-03
 0.20352333680000E+04 0.46979088884982E-02
 0.46322562359000E+03 0.24332477647552E-01
 0.13120019598000E+03 0.97399968307759E-01
 0.42853015891000E+02 0.30195584253780E+00
 0.15584185766000E+02 0.66233609137875E+00
 s    2 1.00
 0.62067138508000E+01 0.65595308539952E+00
 0.25764896527000E+01 0.37585633285142E+00
 s    1 1.00
 0.57696339419000E+00 0.10000000000000E+01
 s    1 1.00
 0.22972831358000E+00 0.10000000000000E+01
 s    1 1.00
 0.95164440028000E-01 0.10000000000000E+01
 s    1 1.00
 0.48475401370000E-01 0.10000000000000E+01
 p    4 1.00
 0.34697232244000E+02 0.11327220003114E-01
 0.79582622826000E+01 0.76169659202087E-01
 0.23780826883000E+01 0.30192252202676E+00
 0.81433208183000E+00 0.72785027349547E+00
 p    1 1.00
 0.28887547253000E+00 0.10000000000000E+01
 p    1 1.00
 0.10056823671000E+00 0.10000000000000E+01
 d    1 1.00
 0.10970000000000E+01 0.10000000000000E+01
 d    1 1.00
 0.31800000000000E+00 0.10000000000000E+01
 d    1 1.00
 0.90985336424000E-01 0.10000000000000E+01
 f    1 1.00
 0.76100000000000E+00 0.10000000000000E+01
 
    7 0
 s    3 1.00
 0.34061341000000E+02 0.25439307208879E-01
 0.51235746000000E+01 0.19008594890375E+00
 0.11646626000000E+01 0.85244113011042E+00
 s    1 1.00
 0.32723041000000E+00 0.10000000000000E+01
 s    1 1.00
 0.10307241000000E+00 0.10000000000000E+01
 p    1 1.00
 0.80000000000000E+00 0.10000000000000E+01
 p    1 1.00
 0.95774129632000E-01 0.10000000000000E+01
 
    8 0
 s    3 1.00
 0.34061341000000E+02 0.25439307208879E-01
 0.51235746000000E+01 0.19008594890375E+00
 0.11646626000000E+01 0.85244113011042E+00
 s    1 1.00
 0.32723041000000E+00 0.10000000000000E+01
 s    1 1.00
 0.10307241000000E+00 0.10000000000000E+01
 p    1 1.00
 0.80000000000000E+00 0.10000000000000E+01
 p    1 1.00
 0.95774129632000E-01 0.10000000000000E+01
 
    9 0
 s    3 1.00
 0.34061341000000E+02 0.25439307208879E-01
 0.51235746000000E+01 0.19008594890375E+00
 0.11646626000000E+01 0.85244113011042E+00
 s    1 1.00
 0.32723041000000E+00 0.10000000000000E+01
 s    1 1.00
 0.10307241000000E+00 0.10000000000000E+01
 p    1 1.00
 0.80000000000000E+00 0.10000000000000E+01
 p    1 1.00
 0.95774129632000E-01 0.10000000000000E+01
 
   10 0
 s    3 1.00
 0.34061341000000E+02 0.25439307208879E-01
 0.51235746000000E+01 0.19008594890375E+00
 0.11646626000000E+01 0.85244113011042E+00
 s    1 1.00
 0.32723041000000E+00 0.10000000000000E+01
 s    1 1.00
 0.10307241000000E+00 0.10000000000000E+01
 p    1 1.00
 0.80000000000000E+00 0.10000000000000E+01
 p    1 1.00
 0.95774129632000E-01 0.10000000000000E+01
 
   11 0
 s    6 1.00
 0.19730800647000E+05 0.58626402628763E-03
 0.29578958745000E+04 0.45428820586397E-02
 0.67322133595000E+03 0.23558413450084E-01
 0.19068249494000E+03 0.94709193292923E-01
 0.62295441898000E+02 0.29719784913376E+00
 0.22654161182000E+02 0.66916246895232E+00
 s    2 1.00
 0.89791477428000E+01 0.64596683630063E+00
 0.36863002370000E+01 0.38700574393705E+00
 s    1 1.00
 0.84660076805000E+00 0.10000000000000E+01
 s    1 1.00
 0.33647133771000E+00 0.10000000000000E+01
 s    1 1.00
 0.13647653675000E+00 0.10000000000000E+01
 s    1 1.00
 0.68441605847000E-01 0.10000000000000E+01
 p    4 1.00
 0.49200380510000E+02 0.11448825101764E-01
 0.11346790537000E+02 0.78422337970864E-01
 0.34273972411000E+01 0.30818094738830E+00
 0.11785525134000E+01 0.72027196368413E+00
 p    1 1.00
 0.41642204972000E+00 0.10000000000000E+01
 p    1 1.00
 0.14260826011000E+00 0.10000000000000E+01
 d    1 1.00
 0.16540000000000E+01 0.10000000000000E+01
 d    1 1.00
 0.46900000000000E+00 0.10000000000000E+01
 d    1 1.00
 0.12829642058000E+00 0.10000000000000E+01
 f    1 1.00
 0.10930000000000E+01 0.10000000000000E+01
 
   12 0
 s    6 1.00
 0.27032382631000E+05 0.57227335211155E-03
 0.40523871392000E+04 0.44353233492995E-02
 0.92232722710000E+03 0.23020107706038E-01
 0.26124070989000E+03 0.92822490667928E-01
 0.85354641351000E+02 0.29378500009671E+00
 0.31035035245000E+02 0.67401604501641E+00
 s    2 1.00
 0.12260860728000E+02 0.63839937025506E+00
 0.49987076005000E+01 0.39534587125718E+00
 s    1 1.00
 0.11703108158000E+01 0.10000000000000E+01
 s    1 1.00
 0.46474740994000E+00 0.10000000000000E+01
 s    1 1.00
 0.18504536357000E+00 0.10000000000000E+01
 s    1 1.00
 0.70288026270000E-01 0.10000000000000E+01
 p    4 1.00
 0.63274954801000E+02 0.12018332222616E-01
 0.14627049379000E+02 0.83005421790056E-01
 0.44501223456000E+01 0.31991743925964E+00
 0.15275799647000E+01 0.70715542916104E+00
 p    1 1.00
 0.52935117943000E+00 0.10000000000000E+01
 p    1 1.00
 0.17478421270000E+00 0.10000000000000E+01
 p    1 1.00
 0.51112745706000E-01 0.10000000000000E+01
 d    1 1.00
 0.23140000000000E+01 0.10000000000000E+01
 d    1 1.00
 0.64500000000000E+00 0.10000000000000E+01
 d    1 1.00
 0.14696477366000E+00 0.10000000000000E+01
 f    1 1.00
 0.14280000000000E+01 0.10000000000000E+01
 
   13 0
 s    6 1.00
 0.27032382631000E+05 0.57227335211155E-03
 0.40523871392000E+04 0.44353233492995E-02
 0.92232722710000E+03 0.23020107706038E-01
 0.26124070989000E+03 0.92822490667928E-01
 0.85354641351000E+02 0.29378500009671E+00
 0.31035035245000E+02 0.67401604501641E+00
 s    2 1.00
 0.12260860728000E+02 0.63839937025506E+00
 0.49987076005000E+01 0.39534587125718E+00
 s    1 1.00
 0.11703108158000E+01 0.10000000000000E+01
 s    1 1.00
 0.46474740994000E+00 0.10000000000000E+01
 s    1 1.00
 0.18504536357000E+00 0.10000000000000E+01
 s    1 1.00
 0.70288026270000E-01 0.10000000000000E+01
 p    4 1.00
 0.63274954801000E+02 0.12018332222616E-01
 0.14627049379000E+02 0.83005421790056E-01
 0.44501223456000E+01 0.31991743925964E+00
 0.15275799647000E+01 0.70715542916104E+00
 p    1 1.00
 0.52935117943000E+00 0.10000000000000E+01
 p    1 1.00
 0.17478421270000E+00 0.10000000000000E+01
 p    1 1.00
 0.51112745706000E-01 0.10000000000000E+01
 d    1 1.00
 0.23140000000000E+01 0.10000000000000E+01
 d    1 1.00
 0.64500000000000E+00 0.10000000000000E+01
 d    1 1.00
 0.14696477366000E+00 0.10000000000000E+01
 f    1 1.00
 0.14280000000000E+01 0.10000000000000E+01
 
   14 0
 s    6 1.00
 0.19730800647000E+05 0.58626402628763E-03
 0.29578958745000E+04 0.45428820586397E-02
 0.67322133595000E+03 0.23558413450084E-01
 0.19068249494000E+03 0.94709193292923E-01
 0.62295441898000E+02 0.29719784913376E+00
 0.22654161182000E+02 0.66916246895232E+00
 s    2 1.00
 0.89791477428000E+01 0.64596683630063E+00
 0.36863002370000E+01 0.38700574393705E+00
 s    1 1.00
 0.84660076805000E+00 0.10000000000000E+01
 s    1 1.00
 0.33647133771000E+00 0.10000000000000E+01
 s    1 1.00
 0.13647653675000E+00 0.10000000000000E+01
 s    1 1.00
 0.68441605847000E-01 0.10000000000000E+01
 p    4 1.00
 0.49200380510000E+02 0.11448825101764E-01
 0.11346790537000E+02 0.78422337970864E-01
 0.34273972411000E+01 0.30818094738830E+00
 0.11785525134000E+01 0.72027196368413E+00
 p    1 1.00
 0.41642204972000E+00 0.10000000000000E+01
 p    1 1.00
 0.14260826011000E+00 0.10000000000000E+01
 d    1 1.00
 0.16540000000000E+01 0.10000000000000E+01
 d    1 1.00
 0.46900000000000E+00 0.10000000000000E+01
 d    1 1.00
 0.12829642058000E+00 0.10000000000000E+01
 f    1 1.00
 0.10930000000000E+01 0.10000000000000E+01
 
   15 0
 s    3 1.00
 0.34061341000000E+02 0.25439307208879E-01
 0.51235746000000E+01 0.19008594890375E+00
 0.11646626000000E+01 0.85244113011042E+00
 s    1 1.00
 0.32723041000000E+00 0.10000000000000E+01
 s    1 1.00
 0.10307241000000E+00 0.10000000000000E+01
 p    1 1.00
 0.80000000000000E+00 0.10000000000000E+01
 p    1 1.00
 0.95774129632000E-01 0.10000000000000E+01
 
   16 0
 s    3 1.00
 0.34061341000000E+02 0.25439307208879E-01
 0.51235746000000E+01 0.19008594890375E+00
 0.11646626000000E+01 0.85244113011042E+00
 s    1 1.00
 0.32723041000000E+00 0.10000000000000E+01
 s    1 1.00
 0.10307241000000E+00 0.10000000000000E+01
 p    1 1.00
 0.80000000000000E+00 0.10000000000000E+01
 p    1 1.00
 0.95774129632000E-01 0.10000000000000E+01
 
[MO]
 Sym= X
 Ene= -0.854414
 Spin= Alpha
 Occup= -0.854414
         1   -2.138165E-04
         2   -4.977029E-04
         3    1.526292E-03
         4   -4.226907E-03
         5    2.139286E-02
         6   -1.487061E-02
         7   -2.208068E-03
         8   -2.525714E-04
         9    4.716530E-02
        10    3.471731E-03
        11   -6.301456E-04
        12    4.509840E-02
        13    3.969083E-02
        14   -1.748957E-02
        15    1.900149E-02
        16    2.045081E-06
        17   -2.004175E-05
        18    1.799667E-05
        19   -1.189618E-05
        20    6.121750E-03
        21   -4.290154E-03
        22   -9.012275E-04
        23    5.295966E-04
        24    3.716308E-04
        25   -9.249944E-04
        26    1.396569E-02
        27   -7.957568E-03
        28   -4.360170E-03
        29    4.050135E-03
        30    3.100356E-04
        31    1.823499E-03
        32   -2.591612E-03
        33    9.753436E-03
        34    2.849266E-05
        35   -7.576898E-06
        36   -2.562516E-04
        37   -1.376169E-05
        38    6.119302E-06
        39   -6.176644E-04
        40   -2.446523E-05
        41    4.046173E-06
        42    9.614620E-04
        43   -7.260637E-04
        44    3.548748E-05
        45    7.667370E-05
        46    2.029579E-04
        47   -4.097780E-03
        48   -7.171338E-02
        49    6.982709E-03
        50   -3.896416E-04
        51   -1.286471E-06
        52    2.200218E-01
        53    6.552544E-04
        54   -1.222314E-05
        55    2.274780E-01
        56    1.816227E-02
        57    4.012901E-04
        58    2.010957E-01
        59    6.016927E-05
        60   -5.443257E-05
        61   -5.736702E-06
        62    6.842722E-08
        63   -1.840734E-04
        64   -3.371938E-07
        65    4.961991E-04
        66   -8.351762E-04
        67    3.389771E-04
        68    2.445017E-06
        69    1.522215E-03
        70   -2.279499E-07
        71    1.534378E-02
        72   -1.727809E-02
        73    1.934312E-03
        74   -7.737748E-05
        75   -4.909538E-03
        76    1.427282E-05
        77   -9.519506E-06
        78   -2.091844E-08
        79   -1.268902E-03
        80    8.957780E-06
        81   -3.077043E-08
        82    6.785817E-04
        83    3.813977E-06
        84    5.883546E-08
        85    1.023829E-03
        86    2.834348E-08
        87   -2.138451E-04
        88   -4.977521E-04
        89    1.527064E-03
        90   -4.233287E-03
        91    2.230844E-02
        92   -1.486086E-02
        93   -2.210230E-03
        94    2.544037E-04
        95    4.718176E-02
        96    3.448342E-03
        97    6.253091E-04
        98    4.511578E-02
        99    3.989657E-02
       100    1.784655E-02
       101    1.903019E-02
       102    2.150637E-06
       103   -2.009570E-05
       104    1.794507E-05
       105    1.206074E-05
       106    6.121467E-03
       107    4.290256E-03
       108   -8.966731E-04
       109    5.248671E-04
       110    3.718061E-04
       111    9.230135E-04
       112    1.396441E-02
       113    7.957417E-03
       114   -4.448372E-03
       115    4.147834E-03
       116    3.005382E-04
       117   -1.738658E-03
       118   -2.577393E-03
       119   -9.750145E-03
       120    2.852648E-05
       121    7.539754E-06
       122   -2.563498E-04
       123   -1.386368E-05
       124   -6.082698E-06
       125   -6.175606E-04
       126   -2.440860E-05
       127   -4.032943E-06
       128    9.614899E-04
       129    7.260412E-04
       130    1.219301E-04
       131    2.609992E-04
       132    7.605177E-04
       133   -1.268298E-02
       134    1.218834E-02
       135    1.753527E-02
       136    1.727681E-03
       137   -8.201899E-04
       138   -1.448017E-01
       139    1.209526E-02
       140   -8.000869E-03
       141   -1.474522E-01
       142    1.803228E-02
       143    9.237978E-03
       144   -9.253189E-02
       145    1.741800E-04
       146   -2.084877E-04
       147    3.430762E-05
       148    8.111855E-06
       149    1.635382E-03
       150   -3.154598E-03
       151    9.329020E-04
       152   -1.022540E-03
       153    8.963810E-05
       154    2.140270E-03
       155    5.783189E-03
       156   -5.255060E-03
       157    9.618633E-03
       158   -7.115585E-03
       159   -2.503048E-03
       160   -1.437379E-02
       161   -3.959971E-03
       162    1.069131E-02
       163    2.359229E-05
       164   -1.071565E-05
       165    8.042668E-04
       166    2.019575E-05
       167   -2.428994E-05
       168   -1.060271E-04
       169   -5.184813E-05
       170    3.866649E-05
       171   -9.730101E-04
       172    3.975480E-04
       173   -1.310999E-03
       174   -2.984870E-03
       175    2.748957E-03
       176    2.924683E-02
       177   -4.956127E-02
       178    1.050850E-02
       179   -1.057184E-02
       180    2.332452E-06
       181   -1.288226E-01
       182   -2.176237E-04
       183    9.514575E-06
       184   -1.317404E-01
       185    4.970289E-02
       186   -5.406905E-04
       187   -1.359947E-01
       188    6.019555E-04
       189   -3.340912E-04
       190   -2.678643E-04
       191    1.905564E-07
       192   -8.891396E-03
       193   -3.423321E-07
       194   -2.270794E-03
       195    5.176876E-03
       196   -2.906082E-03
       197    1.986520E-06
       198   -2.222265E-02
       199    2.889643E-07
       200   -1.000779E-02
       201    1.130861E-02
       202   -1.300817E-03
       203   -1.311653E-04
       204   -1.461955E-02
       205   -9.156381E-06
       206   -1.449985E-04
       207   -6.591209E-09
       208    4.340136E-04
       209    1.073805E-04
       210    4.326047E-08
       211    8.826939E-04
       212    8.715545E-05
       213   -3.441743E-08
       214   -1.464984E-03
       215   -2.943451E-09
       216    1.222118E-04
       217    2.615954E-04
       218    7.595706E-04
       219   -1.268763E-02
       220    1.343813E-02
       221    1.751739E-02
       222    1.726024E-03
       223    8.150674E-04
       224   -1.448165E-01
       225    1.210422E-02
       226    8.003077E-03
       227   -1.474696E-01
       228    1.782093E-02
       229   -9.772752E-03
       230   -9.252120E-02
       231    1.740501E-04
       232   -2.086130E-04
       233    3.456292E-05
       234   -7.826029E-06
       235    1.635065E-03
       236    3.154663E-03
       237    9.366979E-04
       238   -1.026331E-03
       239    8.963290E-05
       240   -2.141886E-03
       241    5.781891E-03
       242    5.255078E-03
       243    9.534823E-03
       244   -7.031315E-03
       245   -2.503508E-03
       246    1.445794E-02
       247   -3.973862E-03
       248   -1.070128E-02
       249    2.364699E-05
       250    1.076923E-05
       251    8.044301E-04
       252    2.025565E-05
       253    2.421510E-05
       254   -1.061967E-04
       255   -5.198141E-05
       256   -3.866353E-05
       257   -9.730595E-04
       258   -3.975386E-04
       259   -4.850530E-04
       260   -2.050887E-04
       261   -2.060760E-02
       262    1.243486E-05
       263   -1.165289E-05
       264    1.819066E-03
       265    6.509953E-03
       266    8.069189E-04
       267   -5.341222E-03
       268   -4.867197E-04
       269   -2.034451E-04
       270   -2.060234E-02
       271    1.207381E-05
       272    1.201553E-05
       273    1.819716E-03
       274    6.593671E-03
       275   -7.738579E-04
       276   -5.347505E-03
       277   -4.368491E-04
       278   -2.937332E-03
       279    4.581892E-02
       280    2.915984E-05
       281   -1.181083E-04
       282   -5.979132E-03
       283    8.916863E-04
       284    4.024243E-03
       285   -5.803370E-04
       286   -4.397603E-04
       287   -2.937394E-03
       288    4.594149E-02
       289    2.896878E-05
       290    1.180364E-04
       291   -5.979975E-03
       292    8.496871E-04
       293   -4.059452E-03
       294   -5.799427E-04
       295   -5.424484E-05
       296   -1.258955E-04
       297    1.192115E-04
       298    3.024035E-04
       299   -9.856761E-03
       300   -1.603473E-04
       301   -6.116192E-04
       302    1.306318E-06
       303   -1.333711E-03
       304   -1.899073E-04
       305    1.115303E-06
       306    1.725710E-03
       307    3.600765E-03
       308    2.964808E-06
       309    3.953535E-04
       310    2.969406E-05
       311   -1.277243E-05
       312   -1.692163E-05
       313    2.333357E-07
       314   -4.676812E-03
       315    2.486911E-07
       316    2.330308E-05
       317    5.824350E-05
       318   -8.154657E-05
       319    5.612909E-07
       320   -1.373435E-02
       321    6.540453E-07
       322   -7.378163E-04
       323    3.543277E-03
       324   -2.805461E-03
       325    1.041970E-05
       326   -3.330331E-03
       327   -4.374315E-06
       328   -8.774058E-06
       329   -5.285289E-08
       330    8.821310E-05
       331    6.000417E-06
       332    5.906526E-08
       333    7.105093E-04
       334    5.771218E-06
       335    1.184434E-08
       336   -8.288596E-04
       337    4.264924E-08
       338   -2.129481E-05
       339   -4.712856E-05
       340    1.011445E-05
       341    7.119639E-04
       342   -7.910452E-03
       343   -1.558037E-03
       344    3.812899E-04
       345   -1.720592E-04
       346   -8.669387E-02
       347    5.070650E-04
       348   -3.270268E-04
       349   -8.015158E-02
       350    1.641327E-03
       351   -7.764499E-04
       352   -6.056331E-02
       353    3.238305E-04
       354   -2.846562E-04
       355   -6.561715E-03
       356    3.848367E-06
       357   -6.599468E-06
       358    2.751101E-06
       359    2.670389E-06
       360    1.305792E-04
       361   -7.415773E-04
       362   -1.533719E-05
       363   -1.443782E-05
       364    2.977500E-05
       365    1.680857E-05
       366    9.579772E-04
       367   -2.316634E-03
       368   -8.536737E-05
       369    2.184730E-05
       370    6.352007E-05
       371    1.867169E-05
       372    9.236526E-04
       373   -5.224929E-04
       374   -1.152478E-06
       375   -2.301446E-06
       376    1.080818E-04
       377    2.049096E-06
       378    2.596954E-07
       379    9.447130E-05
       380   -5.028850E-07
       381    2.828019E-06
       382   -2.394783E-04
       383    1.963041E-04
       384   -2.127148E-05
       385   -4.708594E-05
       386    1.011006E-05
       387    7.113664E-04
       388   -7.923048E-03
       389   -1.542439E-03
       390    3.904426E-04
       391    1.604647E-04
       392   -8.668008E-02
       393    5.155912E-04
       394    3.168942E-04
       395   -8.013951E-02
       396    1.640360E-03
       397    7.745135E-04
       398   -6.054549E-02
       399    3.167201E-04
       400    2.876757E-04
       401   -6.560769E-03
       402    3.742365E-06
       403   -6.428677E-06
       404    2.686313E-06
       405   -2.652987E-06
       406    1.305338E-04
       407    7.414824E-04
       408   -1.547740E-05
       409   -1.409345E-05
       410    2.957085E-05
       411   -1.670620E-05
       412    9.576447E-04
       413    2.316127E-03
       414   -8.618020E-05
       415    2.284646E-05
       416    6.333375E-05
       417   -1.959087E-05
       418    9.232238E-04
       419    5.209674E-04
       420   -1.137540E-06
       421    2.256435E-06
       422    1.080646E-04
       423    2.014482E-06
       424   -2.253763E-07
       425    9.445514E-05
       426   -4.883117E-07
       427   -2.801949E-06
       428   -2.394391E-04
       429   -1.962653E-04
       430    6.410088E-03
       431    1.520005E-02
       432   -2.354535E-02
       433   -3.830699E-02
       434   -1.727504E-02
       435   -8.714306E-02
       436    2.228432E-02
       437   -6.173561E-06
       438    2.289284E-01
       439    2.536823E-02
       440   -1.038927E-06
       441    2.258160E-01
       442    2.699096E-02
       443    5.448712E-05
       444    1.883234E-01
       445   -1.657824E-04
       446   -3.025740E-05
       447    1.960398E-04
       448    1.454569E-07
       449   -1.136964E-03
       450   -1.636798E-07
       451   -4.087057E-04
       452   -1.987415E-03
       453    2.396121E-03
       454   -1.892266E-06
       455   -4.254662E-03
       456   -3.246682E-07
       457   -3.272229E-03
       458   -4.661374E-03
       459    7.933603E-03
       460   -6.912521E-06
       461   -2.494569E-03
       462   -2.891190E-07
       463    1.855063E-04
       464   -2.942018E-08
       465   -8.250360E-04
       466    1.134667E-04
       467   -1.207953E-08
       468    3.722077E-04
       469   -3.623494E-04
       470    5.155084E-08
       471    7.346942E-04
       472   -3.150496E-08
       473    1.226727E-02
       474    2.372407E-02
       475    4.468549E-02
       476    2.788645E-03
       477    2.396926E-03
       478    1.156135E-02
       479   -9.964651E-04
       480    5.175632E-03
       481    1.435836E-02
       482    1.226339E-02
       483    2.368122E-02
       484    4.447659E-02
       485    2.786115E-03
       486   -2.393418E-03
       487    1.156366E-02
       488   -1.032328E-03
       489   -5.151656E-03
       490    1.436979E-02
 Sym= X
 Ene= 0.854414
 Spin= Alpha
 Occup= 0.854414
         1   -4.728886E-05
         2   -1.167263E-04
         3    6.193467E-04
         4   -2.070084E-03
         5   -9.974569E-02
         6    6.106953E-04
         7   -4.013752E-04
         8   -8.456385E-05
         9    1.403226E-01
        10    2.254518E-04
        11    1.149482E-04
        12    1.439189E-01
        13    6.062953E-02
        14   -5.608266E-02
        15    1.002062E-01
        16    2.202705E-05
        17   -2.853539E-06
        18   -1.917351E-05
        19    1.511615E-05
        20   -2.139952E-03
        21    1.864617E-03
        22   -4.496631E-04
        23    1.604593E-04
        24    2.892038E-04
        25   -4.975606E-05
        26   -2.204544E-04
        27    6.718140E-03
        28   -2.460606E-02
        29    2.663681E-02
        30   -2.030744E-03
        31   -1.782050E-03
        32   -3.307441E-03
        33    1.999355E-02
        34    1.684934E-05
        35   -2.386026E-08
        36   -1.223688E-04
        37   -1.738572E-05
        38   -4.940976E-06
        39    7.540303E-05
        40   -5.220045E-06
        41    4.972988E-06
        42    8.877195E-05
        43    2.416910E-04
        44    1.189374E-06
        45    1.374219E-05
        46   -4.491382E-04
        47    6.391631E-03
        48   -2.202384E-01
        49   -2.525988E-02
        50    1.604487E-04
        51    2.612647E-07
        52   -9.646619E-02
        53   -6.104765E-04
        54   -1.941062E-05
        55   -1.044536E-01
        56    8.537022E-02
        57    2.855239E-04
        58   -6.697877E-02
        59    5.905196E-05
        60    1.299262E-05
        61   -7.204457E-05
        62   -9.993859E-08