[Molden Format]
[Title]
ADC(2) - opt by CAM-B3LYP gaussian                                              
[Atoms] AU
 c     1    6 0.12589710753986E+01 0.22825551554713E+01 -.28105798744860E-01
 c     2    6 0.25558923691721E+01 0.80431469000000E-06 -.26811997747980E-01
 c     3    6 0.12589700738438E+01 -.22825573262942E+01 -.28139341383720E-01
 c     4    6 -.13331755585332E+01 -.22837561874501E+01 -.30470167390540E-01
 c     5    6 -.26866009864883E+01 0.27696298600000E-05 -.30311128039200E-01
 c     6    6 -.13331783742251E+01 0.22837572858534E+01 -.30432977580250E-01
 h     7    1 0.22993222678978E+01 0.40366379181686E+01 -.25216785432900E-01
 h     8    1 0.22993197734593E+01 -.40366408826765E+01 -.25273722881290E-01
 h     9    1 -.23520966897676E+01 -.40562070503646E+01 -.33235309154490E-01
 h    10    1 -.23520900190344E+01 0.40562136478709E+01 -.33159965773570E-01
 n    11    7 0.52762255328692E+01 0.25629411000000E-06 -.20783601308720E-01
 o    12    8 0.63803680214636E+01 -.20270720034092E+01 -.18188232540560E-01
 o    13    8 0.63803692875801E+01 0.20270718545932E+01 -.18282964511600E-01
 n    14    7 -.52484248103301E+01 -.66967170000000E-06 -.81289589624650E-01
 h    15    1 -.62019351690707E+01 -.16149791988436E+01 0.21484054874156E+00
 h    16    1 -.62019367942352E+01 0.16149736265137E+01 0.21486103337284E+00
[GTO]
    1 0
 s    6 1.00
 0.13575349682000E+05 0.60645503603591E-03
 0.20352333680000E+04 0.46979088884982E-02
 0.46322562359000E+03 0.24332477647552E-01
 0.13120019598000E+03 0.97399968307759E-01
 0.42853015891000E+02 0.30195584253780E+00
 0.15584185766000E+02 0.66233609137875E+00
 s    2 1.00
 0.62067138508000E+01 0.65595308539952E+00
 0.25764896527000E+01 0.37585633285142E+00
 s    1 1.00
 0.57696339419000E+00 0.10000000000000E+01
 s    1 1.00
 0.22972831358000E+00 0.10000000000000E+01
 s    1 1.00
 0.95164440028000E-01 0.10000000000000E+01
 s    1 1.00
 0.48475401370000E-01 0.10000000000000E+01
 p    4 1.00
 0.34697232244000E+02 0.11327220003114E-01
 0.79582622826000E+01 0.76169659202087E-01
 0.23780826883000E+01 0.30192252202676E+00
 0.81433208183000E+00 0.72785027349547E+00
 p    1 1.00
 0.28887547253000E+00 0.10000000000000E+01
 p    1 1.00
 0.10056823671000E+00 0.10000000000000E+01
 d    1 1.00
 0.10970000000000E+01 0.10000000000000E+01
 d    1 1.00
 0.31800000000000E+00 0.10000000000000E+01
 d    1 1.00
 0.90985336424000E-01 0.10000000000000E+01
 f    1 1.00
 0.76100000000000E+00 0.10000000000000E+01
 
    2 0
 s    6 1.00
 0.13575349682000E+05 0.60645503603591E-03
 0.20352333680000E+04 0.46979088884982E-02
 0.46322562359000E+03 0.24332477647552E-01
 0.13120019598000E+03 0.97399968307759E-01
 0.42853015891000E+02 0.30195584253780E+00
 0.15584185766000E+02 0.66233609137875E+00
 s    2 1.00
 0.62067138508000E+01 0.65595308539952E+00
 0.25764896527000E+01 0.37585633285142E+00
 s    1 1.00
 0.57696339419000E+00 0.10000000000000E+01
 s    1 1.00
 0.22972831358000E+00 0.10000000000000E+01
 s    1 1.00
 0.95164440028000E-01 0.10000000000000E+01
 s    1 1.00
 0.48475401370000E-01 0.10000000000000E+01
 p    4 1.00
 0.34697232244000E+02 0.11327220003114E-01
 0.79582622826000E+01 0.76169659202087E-01
 0.23780826883000E+01 0.30192252202676E+00
 0.81433208183000E+00 0.72785027349547E+00
 p    1 1.00
 0.28887547253000E+00 0.10000000000000E+01
 p    1 1.00
 0.10056823671000E+00 0.10000000000000E+01
 d    1 1.00
 0.10970000000000E+01 0.10000000000000E+01
 d    1 1.00
 0.31800000000000E+00 0.10000000000000E+01
 d    1 1.00
 0.90985336424000E-01 0.10000000000000E+01
 f    1 1.00
 0.76100000000000E+00 0.10000000000000E+01
 
    3 0
 s    6 1.00
 0.13575349682000E+05 0.60645503603591E-03
 0.20352333680000E+04 0.46979088884982E-02
 0.46322562359000E+03 0.24332477647552E-01
 0.13120019598000E+03 0.97399968307759E-01
 0.42853015891000E+02 0.30195584253780E+00
 0.15584185766000E+02 0.66233609137875E+00
 s    2 1.00
 0.62067138508000E+01 0.65595308539952E+00
 0.25764896527000E+01 0.37585633285142E+00
 s    1 1.00
 0.57696339419000E+00 0.10000000000000E+01
 s    1 1.00
 0.22972831358000E+00 0.10000000000000E+01
 s    1 1.00
 0.95164440028000E-01 0.10000000000000E+01
 s    1 1.00
 0.48475401370000E-01 0.10000000000000E+01
 p    4 1.00
 0.34697232244000E+02 0.11327220003114E-01
 0.79582622826000E+01 0.76169659202087E-01
 0.23780826883000E+01 0.30192252202676E+00
 0.81433208183000E+00 0.72785027349547E+00
 p    1 1.00
 0.28887547253000E+00 0.10000000000000E+01
 p    1 1.00
 0.10056823671000E+00 0.10000000000000E+01
 d    1 1.00
 0.10970000000000E+01 0.10000000000000E+01
 d    1 1.00
 0.31800000000000E+00 0.10000000000000E+01
 d    1 1.00
 0.90985336424000E-01 0.10000000000000E+01
 f    1 1.00
 0.76100000000000E+00 0.10000000000000E+01
 
    4 0
 s    6 1.00
 0.13575349682000E+05 0.60645503603591E-03
 0.20352333680000E+04 0.46979088884982E-02
 0.46322562359000E+03 0.24332477647552E-01
 0.13120019598000E+03 0.97399968307759E-01
 0.42853015891000E+02 0.30195584253780E+00
 0.15584185766000E+02 0.66233609137875E+00
 s    2 1.00
 0.62067138508000E+01 0.65595308539952E+00
 0.25764896527000E+01 0.37585633285142E+00
 s    1 1.00
 0.57696339419000E+00 0.10000000000000E+01
 s    1 1.00
 0.22972831358000E+00 0.10000000000000E+01
 s    1 1.00
 0.95164440028000E-01 0.10000000000000E+01
 s    1 1.00
 0.48475401370000E-01 0.10000000000000E+01
 p    4 1.00
 0.34697232244000E+02 0.11327220003114E-01
 0.79582622826000E+01 0.76169659202087E-01
 0.23780826883000E+01 0.30192252202676E+00
 0.81433208183000E+00 0.72785027349547E+00
 p    1 1.00
 0.28887547253000E+00 0.10000000000000E+01
 p    1 1.00
 0.10056823671000E+00 0.10000000000000E+01
 d    1 1.00
 0.10970000000000E+01 0.10000000000000E+01
 d    1 1.00
 0.31800000000000E+00 0.10000000000000E+01
 d    1 1.00
 0.90985336424000E-01 0.10000000000000E+01
 f    1 1.00
 0.76100000000000E+00 0.10000000000000E+01
 
    5 0
 s    6 1.00
 0.13575349682000E+05 0.60645503603591E-03
 0.20352333680000E+04 0.46979088884982E-02
 0.46322562359000E+03 0.24332477647552E-01
 0.13120019598000E+03 0.97399968307759E-01
 0.42853015891000E+02 0.30195584253780E+00
 0.15584185766000E+02 0.66233609137875E+00
 s    2 1.00
 0.62067138508000E+01 0.65595308539952E+00
 0.25764896527000E+01 0.37585633285142E+00
 s    1 1.00
 0.57696339419000E+00 0.10000000000000E+01
 s    1 1.00
 0.22972831358000E+00 0.10000000000000E+01
 s    1 1.00
 0.95164440028000E-01 0.10000000000000E+01
 s    1 1.00
 0.48475401370000E-01 0.10000000000000E+01
 p    4 1.00
 0.34697232244000E+02 0.11327220003114E-01
 0.79582622826000E+01 0.76169659202087E-01
 0.23780826883000E+01 0.30192252202676E+00
 0.81433208183000E+00 0.72785027349547E+00
 p    1 1.00
 0.28887547253000E+00 0.10000000000000E+01
 p    1 1.00
 0.10056823671000E+00 0.10000000000000E+01
 d    1 1.00
 0.10970000000000E+01 0.10000000000000E+01
 d    1 1.00
 0.31800000000000E+00 0.10000000000000E+01
 d    1 1.00
 0.90985336424000E-01 0.10000000000000E+01
 f    1 1.00
 0.76100000000000E+00 0.10000000000000E+01
 
    6 0
 s    6 1.00
 0.13575349682000E+05 0.60645503603591E-03
 0.20352333680000E+04 0.46979088884982E-02
 0.46322562359000E+03 0.24332477647552E-01
 0.13120019598000E+03 0.97399968307759E-01
 0.42853015891000E+02 0.30195584253780E+00
 0.15584185766000E+02 0.66233609137875E+00
 s    2 1.00
 0.62067138508000E+01 0.65595308539952E+00
 0.25764896527000E+01 0.37585633285142E+00
 s    1 1.00
 0.57696339419000E+00 0.10000000000000E+01
 s    1 1.00
 0.22972831358000E+00 0.10000000000000E+01
 s    1 1.00
 0.95164440028000E-01 0.10000000000000E+01
 s    1 1.00
 0.48475401370000E-01 0.10000000000000E+01
 p    4 1.00
 0.34697232244000E+02 0.11327220003114E-01
 0.79582622826000E+01 0.76169659202087E-01
 0.23780826883000E+01 0.30192252202676E+00
 0.81433208183000E+00 0.72785027349547E+00
 p    1 1.00
 0.28887547253000E+00 0.10000000000000E+01
 p    1 1.00
 0.10056823671000E+00 0.10000000000000E+01
 d    1 1.00
 0.10970000000000E+01 0.10000000000000E+01
 d    1 1.00
 0.31800000000000E+00 0.10000000000000E+01
 d    1 1.00
 0.90985336424000E-01 0.10000000000000E+01
 f    1 1.00
 0.76100000000000E+00 0.10000000000000E+01
 
    7 0
 s    3 1.00
 0.34061341000000E+02 0.25439307208879E-01
 0.51235746000000E+01 0.19008594890375E+00
 0.11646626000000E+01 0.85244113011042E+00
 s    1 1.00
 0.32723041000000E+00 0.10000000000000E+01
 s    1 1.00
 0.10307241000000E+00 0.10000000000000E+01
 p    1 1.00
 0.80000000000000E+00 0.10000000000000E+01
 p    1 1.00
 0.95774129632000E-01 0.10000000000000E+01
 
    8 0
 s    3 1.00
 0.34061341000000E+02 0.25439307208879E-01
 0.51235746000000E+01 0.19008594890375E+00
 0.11646626000000E+01 0.85244113011042E+00
 s    1 1.00
 0.32723041000000E+00 0.10000000000000E+01
 s    1 1.00
 0.10307241000000E+00 0.10000000000000E+01
 p    1 1.00
 0.80000000000000E+00 0.10000000000000E+01
 p    1 1.00
 0.95774129632000E-01 0.10000000000000E+01
 
    9 0
 s    3 1.00
 0.34061341000000E+02 0.25439307208879E-01
 0.51235746000000E+01 0.19008594890375E+00
 0.11646626000000E+01 0.85244113011042E+00
 s    1 1.00
 0.32723041000000E+00 0.10000000000000E+01
 s    1 1.00
 0.10307241000000E+00 0.10000000000000E+01
 p    1 1.00
 0.80000000000000E+00 0.10000000000000E+01
 p    1 1.00
 0.95774129632000E-01 0.10000000000000E+01
 
   10 0
 s    3 1.00
 0.34061341000000E+02 0.25439307208879E-01
 0.51235746000000E+01 0.19008594890375E+00
 0.11646626000000E+01 0.85244113011042E+00
 s    1 1.00
 0.32723041000000E+00 0.10000000000000E+01
 s    1 1.00
 0.10307241000000E+00 0.10000000000000E+01
 p    1 1.00
 0.80000000000000E+00 0.10000000000000E+01
 p    1 1.00
 0.95774129632000E-01 0.10000000000000E+01
 
   11 0
 s    6 1.00
 0.19730800647000E+05 0.58626402628763E-03
 0.29578958745000E+04 0.45428820586397E-02
 0.67322133595000E+03 0.23558413450084E-01
 0.19068249494000E+03 0.94709193292923E-01
 0.62295441898000E+02 0.29719784913376E+00
 0.22654161182000E+02 0.66916246895232E+00
 s    2 1.00
 0.89791477428000E+01 0.64596683630063E+00
 0.36863002370000E+01 0.38700574393705E+00
 s    1 1.00
 0.84660076805000E+00 0.10000000000000E+01
 s    1 1.00
 0.33647133771000E+00 0.10000000000000E+01
 s    1 1.00
 0.13647653675000E+00 0.10000000000000E+01
 s    1 1.00
 0.68441605847000E-01 0.10000000000000E+01
 p    4 1.00
 0.49200380510000E+02 0.11448825101764E-01
 0.11346790537000E+02 0.78422337970864E-01
 0.34273972411000E+01 0.30818094738830E+00
 0.11785525134000E+01 0.72027196368413E+00
 p    1 1.00
 0.41642204972000E+00 0.10000000000000E+01
 p    1 1.00
 0.14260826011000E+00 0.10000000000000E+01
 d    1 1.00
 0.16540000000000E+01 0.10000000000000E+01
 d    1 1.00
 0.46900000000000E+00 0.10000000000000E+01
 d    1 1.00
 0.12829642058000E+00 0.10000000000000E+01
 f    1 1.00
 0.10930000000000E+01 0.10000000000000E+01
 
   12 0
 s    6 1.00
 0.27032382631000E+05 0.57227335211155E-03
 0.40523871392000E+04 0.44353233492995E-02
 0.92232722710000E+03 0.23020107706038E-01
 0.26124070989000E+03 0.92822490667928E-01
 0.85354641351000E+02 0.29378500009671E+00
 0.31035035245000E+02 0.67401604501641E+00
 s    2 1.00
 0.12260860728000E+02 0.63839937025506E+00
 0.49987076005000E+01 0.39534587125718E+00
 s    1 1.00
 0.11703108158000E+01 0.10000000000000E+01
 s    1 1.00
 0.46474740994000E+00 0.10000000000000E+01
 s    1 1.00
 0.18504536357000E+00 0.10000000000000E+01
 s    1 1.00
 0.70288026270000E-01 0.10000000000000E+01
 p    4 1.00
 0.63274954801000E+02 0.12018332222616E-01
 0.14627049379000E+02 0.83005421790056E-01
 0.44501223456000E+01 0.31991743925964E+00
 0.15275799647000E+01 0.70715542916104E+00
 p    1 1.00
 0.52935117943000E+00 0.10000000000000E+01
 p    1 1.00
 0.17478421270000E+00 0.10000000000000E+01
 p    1 1.00
 0.51112745706000E-01 0.10000000000000E+01
 d    1 1.00
 0.23140000000000E+01 0.10000000000000E+01
 d    1 1.00
 0.64500000000000E+00 0.10000000000000E+01
 d    1 1.00
 0.14696477366000E+00 0.10000000000000E+01
 f    1 1.00
 0.14280000000000E+01 0.10000000000000E+01
 
   13 0
 s    6 1.00
 0.27032382631000E+05 0.57227335211155E-03
 0.40523871392000E+04 0.44353233492995E-02
 0.92232722710000E+03 0.23020107706038E-01
 0.26124070989000E+03 0.92822490667928E-01
 0.85354641351000E+02 0.29378500009671E+00
 0.31035035245000E+02 0.67401604501641E+00
 s    2 1.00
 0.12260860728000E+02 0.63839937025506E+00
 0.49987076005000E+01 0.39534587125718E+00
 s    1 1.00
 0.11703108158000E+01 0.10000000000000E+01
 s    1 1.00
 0.46474740994000E+00 0.10000000000000E+01
 s    1 1.00
 0.18504536357000E+00 0.10000000000000E+01
 s    1 1.00
 0.70288026270000E-01 0.10000000000000E+01
 p    4 1.00
 0.63274954801000E+02 0.12018332222616E-01
 0.14627049379000E+02 0.83005421790056E-01
 0.44501223456000E+01 0.31991743925964E+00
 0.15275799647000E+01 0.70715542916104E+00
 p    1 1.00
 0.52935117943000E+00 0.10000000000000E+01
 p    1 1.00
 0.17478421270000E+00 0.10000000000000E+01
 p    1 1.00
 0.51112745706000E-01 0.10000000000000E+01
 d    1 1.00
 0.23140000000000E+01 0.10000000000000E+01
 d    1 1.00
 0.64500000000000E+00 0.10000000000000E+01
 d    1 1.00
 0.14696477366000E+00 0.10000000000000E+01
 f    1 1.00
 0.14280000000000E+01 0.10000000000000E+01
 
   14 0
 s    6 1.00
 0.19730800647000E+05 0.58626402628763E-03
 0.29578958745000E+04 0.45428820586397E-02
 0.67322133595000E+03 0.23558413450084E-01
 0.19068249494000E+03 0.94709193292923E-01
 0.62295441898000E+02 0.29719784913376E+00
 0.22654161182000E+02 0.66916246895232E+00
 s    2 1.00
 0.89791477428000E+01 0.64596683630063E+00
 0.36863002370000E+01 0.38700574393705E+00
 s    1 1.00
 0.84660076805000E+00 0.10000000000000E+01
 s    1 1.00
 0.33647133771000E+00 0.10000000000000E+01
 s    1 1.00
 0.13647653675000E+00 0.10000000000000E+01
 s    1 1.00
 0.68441605847000E-01 0.10000000000000E+01
 p    4 1.00
 0.49200380510000E+02 0.11448825101764E-01
 0.11346790537000E+02 0.78422337970864E-01
 0.34273972411000E+01 0.30818094738830E+00
 0.11785525134000E+01 0.72027196368413E+00
 p    1 1.00
 0.41642204972000E+00 0.10000000000000E+01
 p    1 1.00
 0.14260826011000E+00 0.10000000000000E+01
 d    1 1.00
 0.16540000000000E+01 0.10000000000000E+01
 d    1 1.00
 0.46900000000000E+00 0.10000000000000E+01
 d    1 1.00
 0.12829642058000E+00 0.10000000000000E+01
 f    1 1.00
 0.10930000000000E+01 0.10000000000000E+01
 
   15 0
 s    3 1.00
 0.34061341000000E+02 0.25439307208879E-01
 0.51235746000000E+01 0.19008594890375E+00
 0.11646626000000E+01 0.85244113011042E+00
 s    1 1.00
 0.32723041000000E+00 0.10000000000000E+01
 s    1 1.00
 0.10307241000000E+00 0.10000000000000E+01
 p    1 1.00
 0.80000000000000E+00 0.10000000000000E+01
 p    1 1.00
 0.95774129632000E-01 0.10000000000000E+01
 
   16 0
 s    3 1.00
 0.34061341000000E+02 0.25439307208879E-01
 0.51235746000000E+01 0.19008594890375E+00
 0.11646626000000E+01 0.85244113011042E+00
 s    1 1.00
 0.32723041000000E+00 0.10000000000000E+01
 s    1 1.00
 0.10307241000000E+00 0.10000000000000E+01
 p    1 1.00
 0.80000000000000E+00 0.10000000000000E+01
 p    1 1.00
 0.95774129632000E-01 0.10000000000000E+01
 
[MO]
 Sym= X
 Ene= -0.960796
 Spin= Alpha
 Occup= -0.960796
         1   -5.317693E-03
         2   -1.219625E-02
         3    2.520497E-02
         4   -7.643787E-03
         5    2.159757E-01
         6    3.277254E-02
         7    5.219416E-02
         8    1.046387E-02
         9    7.939418E-05
        10    5.870416E-02
        11    1.027087E-02
        12    7.516229E-05
        13    7.904087E-02
        14   -9.265988E-02
        15    6.492441E-05
        16   -1.704368E-03
        17    1.929262E-03
        18   -2.248939E-04
        19   -6.213842E-05
        20   -5.078930E-07
        21    1.560752E-06
        22   -9.907097E-03
        23    6.944634E-03
        24    2.962463E-03
        25    1.233579E-03
        26   -1.419363E-05
        27    2.024838E-06
        28   -5.283518E-04
        29    4.460180E-03
        30   -3.931828E-03
        31   -1.603133E-02
        32   -1.041399E-04
        33    5.131693E-05
        34    7.620342E-05
        35   -1.233552E-04
        36   -3.781894E-07
        37    6.649024E-05
        38    2.176455E-04
        39    9.285246E-08
        40   -1.687279E-04
        41   -5.214713E-05
        42    4.145419E-07
        43    6.065173E-07
        44    1.009492E-07
        45    2.337607E-07
        46   -3.694220E-07
        47   -1.525460E-06
        48   -4.932751E-05
        49    1.815782E-06
        50   -1.423216E-06
        51    3.080092E-02
        52    1.838870E-05
        53    1.876550E-07
        54    3.948278E-02
        55    1.896247E-05
        56    1.401643E-05
        57   -2.227425E-01
        58    2.122696E-05
        59   -8.384210E-08
        60    6.939414E-08
        61    1.444796E-08
        62   -1.617066E-03
        63   -1.750894E-07
        64   -2.117783E-06
        65    1.194835E-07
        66   -1.047904E-07
        67   -1.469310E-08
        68    3.374217E-03
        69   -1.607573E-07
        70    5.705110E-06
        71   -4.713148E-06
        72    4.149532E-06
        73    5.636156E-07
        74    4.127544E-02
        75   -3.269820E-07
        76    2.102158E-04
        77   -9.446992E-09
        78    6.076009E-04
        79   -1.812335E-07
        80    1.113207E-08
        81   -5.864910E-04
        82    9.875822E-08
        83    1.542399E-09
        84   -2.286911E-04
        85    1.443920E-07
        86   -4.616572E-07
        87    5.317843E-03
        88    1.219659E-02
        89   -2.520551E-02
        90    7.641722E-03
        91   -2.159713E-01
        92   -3.277382E-02
        93   -5.219234E-02
        94    1.046459E-02
        95   -5.692357E-05
        96   -5.870168E-02
        97    1.027248E-02
        98   -5.372312E-05
        99   -7.904193E-02
       100   -9.262081E-02
       101   -5.068443E-05
       102    1.704309E-03
       103   -1.929211E-03
       104    2.249022E-04
       105   -6.215760E-05
       106    7.381278E-07
       107    2.303561E-06
       108    9.906703E-03
       109   -6.944367E-03
       110   -2.962336E-03
       111    1.233779E-03
       112    1.495051E-05
       113    2.534975E-06
       114    5.247080E-04
       115   -4.455096E-03
       116    3.930388E-03
       117   -1.602840E-02
       118    9.595112E-05
       119    4.742489E-05
       120   -7.620238E-05
       121   -1.233407E-04
       122    2.122788E-07
       123   -6.649600E-05
       124    2.176368E-04
       125   -2.586952E-08
       126    1.687322E-04
       127   -5.215792E-05
       128   -2.589324E-07
       129    6.975657E-07
       130   -3.238028E-03
       131   -7.352587E-03
       132    1.415040E-02
       133   -1.181254E-02
       134    6.931538E-02
       135    1.050157E-02
       136    3.729275E-02
       137    2.150270E-03
       138    4.699659E-05
       139    5.160616E-03
       140    8.067869E-03
       141    5.878074E-05
       142   -3.563590E-02
       143    2.504843E-02
       144   -1.344769E-04
       145    1.049242E-03
       146   -9.189809E-04
       147   -1.302615E-04
       148    2.626772E-04
       149    1.234415E-06
       150   -3.340546E-07
       151   -4.509383E-03
       152    2.837338E-03
       153    1.672045E-03
       154    1.349804E-04
       155   -1.818743E-05
       156    1.381638E-05
       157   -1.179989E-02
       158    1.264432E-02
       159   -8.444267E-04
       160   -2.655719E-03
       161    1.315266E-04
       162   -5.773474E-05
       163    3.443537E-05
       164    1.266121E-05
       165   -9.887650E-07
       166    1.626826E-05
       167    4.727882E-06
       168    6.754833E-07
       169   -6.246816E-05
       170   -2.171468E-05
       171    6.510842E-07
       172   -1.018135E-06
       173    1.270827E-07
       174    2.775608E-07
       175   -6.122325E-08
       176   -2.278588E-06
       177    5.467580E-05
       178   -5.031970E-06
       179    1.977985E-06
       180    1.756125E-02
       181   -9.675151E-06
       182   -9.098827E-07
       183    2.222613E-02
       184   -9.277859E-06
       185    1.951468E-05
       186    6.808611E-02
       187    4.458470E-06
       188   -1.059065E-07
       189    9.328091E-08
       190    1.262562E-08
       191   -2.484633E-05
       192    7.045289E-07
       193   -7.917974E-06
       194    5.538002E-07
       195   -9.225240E-07
       196    3.687237E-07
       197    3.167230E-03
       198    1.171313E-06
       199    3.050236E-05
       200    5.752825E-06
       201   -5.084846E-06
       202   -6.679791E-07
       203    1.198883E-02
       204    1.429962E-06
       205   -2.066788E-04
       206    1.460890E-08
       207    2.508217E-04
       208    1.080363E-07
       209   -1.449807E-08
       210   -2.484989E-04
       211   -1.579021E-07
       212   -5.101820E-09
       213   -8.801370E-05
       214    1.295614E-08
       215    1.285008E-07
       216    3.237978E-03
       217    7.352474E-03
       218   -1.415103E-02
       219    1.182093E-02
       220   -6.934267E-02
       221   -1.049971E-02
       222   -3.729496E-02
       223    2.149940E-03
       224   -4.223488E-05
       225   -5.163922E-03
       226    8.065118E-03
       227   -5.221788E-05
       228    3.563688E-02
       229    2.507742E-02
       230    1.146128E-04
       231   -1.049345E-03
       232    9.191204E-04
       233    1.302247E-04
       234    2.626576E-04
       235   -4.848983E-07
       236   -9.424761E-08
       237    4.509624E-03
       238   -2.837296E-03
       239   -1.672328E-03
       240    1.356082E-04
       241    1.946698E-05
       242    1.388008E-05
       243    1.180591E-02
       244   -1.265265E-02
       245    8.467414E-04
       246   -2.654219E-03
       247   -1.359064E-04
       248   -5.598900E-05
       249   -3.443219E-05
       250    1.266590E-05
       251    9.572310E-07
       252   -1.629567E-05
       253    4.707312E-06
       254   -6.070342E-07
       255    6.249131E-05
       256   -2.170040E-05
       257   -6.772260E-07
       258   -1.099433E-06
       259    1.997540E-02
       260    2.789038E-02
       261    3.599072E-02
       262   -2.017405E-03
       263   -3.232510E-03
       264   -4.614934E-06
       265   -4.299090E-03
       266   -9.718261E-04
       267   -1.682868E-05
       268   -1.997515E-02
       269   -2.788965E-02
       270   -3.596929E-02
       271    2.017395E-03
       272   -3.232425E-03
       273    5.820662E-06
       274    4.299843E-03
       275   -9.670854E-04
       276    1.637247E-05
       277   -6.545172E-03
       278   -1.052570E-02
       279   -2.215322E-02
       280    1.909199E-04
       281   -9.945588E-04
       282   -8.286162E-07
       283   -2.766130E-03
       284    3.061858E-05
       285    4.899967E-06
       286    6.545874E-03
       287    1.052731E-02
       288    2.215914E-02
       289   -1.909653E-04
       290   -9.946074E-04
       291    7.251285E-07
       292    2.767094E-03
       293    3.374820E-05
       294   -9.277697E-06
       295    9.998409E-09
       296    2.495298E-08
       297   -7.167225E-08
       298    6.894005E-07
       299    1.445546E-06
       300   -2.212795E-06
       301    1.525808E-06
       302    4.507544E-02
       303   -9.452560E-07
       304    1.696610E-06
       305    3.400764E-02
       306    2.064522E-07
       307    1.237767E-06
       308   -5.037151E-03
       309    4.585799E-06
       310   -9.113178E-08
       311    1.216526E-07
       312   -3.052080E-08
       313    9.607100E-03
       314   -6.529519E-07
       315    2.268369E-05
       316   -3.694881E-07
       317    3.189450E-07
       318    5.054312E-08
       319    2.594497E-02
       320   -1.245532E-06
       321    6.223445E-05
       322   -2.356637E-08
       323   -6.845884E-07
       324    7.081548E-07
       325   -7.775761E-03
       326    3.546053E-06
       327   -3.460116E-05
       328    4.118941E-09
       329   -2.168755E-03
       330    9.382397E-10
       331    1.036394E-09
       332    3.100627E-03
       333   -1.558535E-08
       334   -6.562533E-09
       335   -1.909367E-04
       336    1.432657E-08
       337    8.836164E-06
       338    3.727590E-04
       339    1.015947E-03
       340   -1.103599E-03
       341    7.085948E-03
       342   -5.926560E-03
       343    1.813559E-02
       344   -2.541479E-01
       345   -2.324326E-01
       346   -6.021475E-04
       347   -2.310675E-01
       348   -2.036399E-01
       349   -5.464597E-04
       350   -1.758319E-01
       351   -1.470129E-01
       352   -4.326093E-04
       353   -2.941392E-02
       354   -1.497138E-02
       355   -7.132028E-05
       356    2.087882E-03
       357   -2.806635E-03
       358    7.187527E-04
       359    2.023579E-04
       360    3.651910E-06
       361    3.576852E-07
       362    6.353926E-03
       363   -7.293266E-03
       364    9.393402E-04
       365   -7.636021E-04
       366    1.402827E-05
       367   -2.948089E-06
       368    7.179589E-03
       369   -6.496985E-03
       370   -6.826042E-04
       371   -1.234590E-03
       372    1.791685E-05
       373   -7.420694E-06
       374   -2.711014E-04
       375   -7.855357E-04
       376   -6.826743E-07
       377    5.030907E-04
       378    8.587452E-04
       379   -2.443176E-07
       380   -1.393700E-04
       381    1.951615E-04
       382    1.160221E-06
       383    1.792633E-06
       384   -3.727068E-04
       385   -1.015824E-03
       386    1.103446E-03
       387   -7.086795E-03
       388    5.929362E-03
       389   -1.813303E-02
       390    2.541424E-01
       391   -2.324323E-01
       392    5.998477E-04
       393    2.310626E-01
       394   -2.036396E-01
       395    5.442958E-04
       396    1.758276E-01
       397   -1.470112E-01
       398    4.199736E-04
       399    2.941318E-02
       400   -1.497126E-02
       401    7.080876E-05
       402   -2.087881E-03
       403    2.806661E-03
       404   -7.187801E-04
       405    2.024123E-04
       406   -3.715111E-06
       407    2.688029E-07
       408   -6.353879E-03
       409    7.293310E-03
       410   -9.394308E-04
       411   -7.635543E-04
       412   -1.435183E-05
       413   -2.495119E-06
       414   -7.179508E-03
       415    6.497019E-03
       416    6.824888E-04
       417   -1.234995E-03
       418   -2.270346E-05
       419   -3.537691E-06
       420    2.711091E-04
       421   -7.855291E-04
       422    7.465842E-07
       423   -5.031085E-04
       424    8.587319E-04
       425    1.566072E-07
       426    1.393775E-04
       427    1.951661E-04
       428   -1.158255E-06
       429    1.855742E-06
       430   -4.824572E-07
       431   -1.143940E-06
       432    1.803055E-06
       433    2.118032E-06
       434    2.912894E-06
       435    6.386659E-06
       436   -2.564137E-06
       437   -1.025976E-02
       438   -2.653522E-05
       439   -3.210688E-06
       440   -8.095881E-03
       441   -2.581507E-05
       442   -6.402439E-06
       443   -5.540881E-03
       444   -1.760923E-05
       445    1.090975E-08
       446    1.866242E-08
       447   -2.957218E-08
       448    4.795122E-04
       449   -1.929241E-07
       450   -1.034927E-04
       451   -1.941780E-07
       452    4.375735E-07
       453   -2.433954E-07
       454    1.472423E-03
       455   -4.671387E-07
       456   -1.596031E-04
       457   -9.837952E-07
       458    1.876487E-06
       459   -8.926923E-07
       460   -8.920454E-04
       461   -4.616606E-07
       462    1.168230E-05
       463   -1.276724E-08
       464   -8.138909E-05
       465    1.394638E-07
       466   -1.423619E-08
       467    8.335283E-05
       468   -1.193640E-07
       469    3.136524E-08
       470    2.584209E-05
       471   -6.774624E-08
       472    2.188370E-05
       473    5.207282E-03
       474    7.481662E-03
       475    5.817882E-03
       476    4.104675E-04
       477    5.017344E-04
       478   -1.356198E-04
       479    8.424648E-04
       480    3.660891E-04
       481   -1.778351E-04
       482   -5.208650E-03
       483   -7.486451E-03
       484   -5.835020E-03
       485   -4.111380E-04
       486    5.022017E-04
       487    1.329382E-04
       488   -8.459876E-04
       489    3.669979E-04
       490    1.761520E-04
 Sym= X
 Ene= 0.960796
 Spin= Alpha
 Occup= 0.960796
         1    1.382791E-04
         2    3.232580E-04
         3   -5.177575E-04
         4   -1.194814E-03
         5    4.978723E-01
         6    3.294348E-01
         7    3.725956E-04
         8    5.816472E-04
         9   -1.743104E-01
        10    1.378673E-02
        11    1.616804E-04
        12   -2.055842E-01
        13    3.607626E-01
        14   -4.844773E-01
        15    3.958459E-01
        16    8.726841E-07
        17    1.809859E-05
        18   -1.897127E-05
        19   -1.788525E-05
        20   -5.669863E-03
        21    4.796878E-04
        22   -3.032862E-03
        23    3.095651E-03
        24   -6.278981E-05
        25   -5.941608E-04
        26   -1.729767E-02
        27   -5.657285E-03
        28   -7.632534E-02
        29    8.679838E-02
        30   -1.047304E-02
        31   -1.716879E-01
        32    1.662222E-01
        33   -1.628038E-01
        34    3.049334E-05
        35   -1.390396E-05
        36    1.214166E-04
        37    6.812226E-05
        38    7.769841E-05
        39    3.498971E-04
        40   -1.090334E-04
        41   -5.904430E-05
        42   -5.127945E-04
        43   -8.132598E-05
        44   -4.980570E-06
        45   -1.037473E-05
        46   -1.951953E-05
        47    2.371919E-04
        48   -1.953317E-03
        49   -2.602507E-02
        50   -1.715217E-05
        51    1.579019E-04
        52   -3.789805E-06
        53   -1.360456E-05
        54   -5.528598E-03
        55    1.933927E-05
        56   -1.635560E-02
        57   -9.407154E-01
        58   -5.482416E-04
        59    2.907623E-06
        60   -2.815066E-06
        61   -9.255657E-08
        62    6.771700E-06