[Molden Format]
[Title]
ADC(2) - opt by CAM-B3LYP gaussian                                              
[Atoms] AU
 c     1    6 0.12589710753986E+01 0.22825551554713E+01 -.28105798744860E-01
 c     2    6 0.25558923691721E+01 0.80431469000000E-06 -.26811997747980E-01
 c     3    6 0.12589700738438E+01 -.22825573262942E+01 -.28139341383720E-01
 c     4    6 -.13331755585332E+01 -.22837561874501E+01 -.30470167390540E-01
 c     5    6 -.26866009864883E+01 0.27696298600000E-05 -.30311128039200E-01
 c     6    6 -.13331783742251E+01 0.22837572858534E+01 -.30432977580250E-01
 h     7    1 0.22993222678978E+01 0.40366379181686E+01 -.25216785432900E-01
 h     8    1 0.22993197734593E+01 -.40366408826765E+01 -.25273722881290E-01
 h     9    1 -.23520966897676E+01 -.40562070503646E+01 -.33235309154490E-01
 h    10    1 -.23520900190344E+01 0.40562136478709E+01 -.33159965773570E-01
 n    11    7 0.52762255328692E+01 0.25629411000000E-06 -.20783601308720E-01
 o    12    8 0.63803680214636E+01 -.20270720034092E+01 -.18188232540560E-01
 o    13    8 0.63803692875801E+01 0.20270718545932E+01 -.18282964511600E-01
 n    14    7 -.52484248103301E+01 -.66967170000000E-06 -.81289589624650E-01
 h    15    1 -.62019351690707E+01 -.16149791988436E+01 0.21484054874156E+00
 h    16    1 -.62019367942352E+01 0.16149736265137E+01 0.21486103337284E+00
[GTO]
    1 0
 s    6 1.00
 0.13575349682000E+05 0.60645503603591E-03
 0.20352333680000E+04 0.46979088884982E-02
 0.46322562359000E+03 0.24332477647552E-01
 0.13120019598000E+03 0.97399968307759E-01
 0.42853015891000E+02 0.30195584253780E+00
 0.15584185766000E+02 0.66233609137875E+00
 s    2 1.00
 0.62067138508000E+01 0.65595308539952E+00
 0.25764896527000E+01 0.37585633285142E+00
 s    1 1.00
 0.57696339419000E+00 0.10000000000000E+01
 s    1 1.00
 0.22972831358000E+00 0.10000000000000E+01
 s    1 1.00
 0.95164440028000E-01 0.10000000000000E+01
 s    1 1.00
 0.48475401370000E-01 0.10000000000000E+01
 p    4 1.00
 0.34697232244000E+02 0.11327220003114E-01
 0.79582622826000E+01 0.76169659202087E-01
 0.23780826883000E+01 0.30192252202676E+00
 0.81433208183000E+00 0.72785027349547E+00
 p    1 1.00
 0.28887547253000E+00 0.10000000000000E+01
 p    1 1.00
 0.10056823671000E+00 0.10000000000000E+01
 d    1 1.00
 0.10970000000000E+01 0.10000000000000E+01
 d    1 1.00
 0.31800000000000E+00 0.10000000000000E+01
 d    1 1.00
 0.90985336424000E-01 0.10000000000000E+01
 f    1 1.00
 0.76100000000000E+00 0.10000000000000E+01
 
    2 0
 s    6 1.00
 0.13575349682000E+05 0.60645503603591E-03
 0.20352333680000E+04 0.46979088884982E-02
 0.46322562359000E+03 0.24332477647552E-01
 0.13120019598000E+03 0.97399968307759E-01
 0.42853015891000E+02 0.30195584253780E+00
 0.15584185766000E+02 0.66233609137875E+00
 s    2 1.00
 0.62067138508000E+01 0.65595308539952E+00
 0.25764896527000E+01 0.37585633285142E+00
 s    1 1.00
 0.57696339419000E+00 0.10000000000000E+01
 s    1 1.00
 0.22972831358000E+00 0.10000000000000E+01
 s    1 1.00
 0.95164440028000E-01 0.10000000000000E+01
 s    1 1.00
 0.48475401370000E-01 0.10000000000000E+01
 p    4 1.00
 0.34697232244000E+02 0.11327220003114E-01
 0.79582622826000E+01 0.76169659202087E-01
 0.23780826883000E+01 0.30192252202676E+00
 0.81433208183000E+00 0.72785027349547E+00
 p    1 1.00
 0.28887547253000E+00 0.10000000000000E+01
 p    1 1.00
 0.10056823671000E+00 0.10000000000000E+01
 d    1 1.00
 0.10970000000000E+01 0.10000000000000E+01
 d    1 1.00
 0.31800000000000E+00 0.10000000000000E+01
 d    1 1.00
 0.90985336424000E-01 0.10000000000000E+01
 f    1 1.00
 0.76100000000000E+00 0.10000000000000E+01
 
    3 0
 s    6 1.00
 0.13575349682000E+05 0.60645503603591E-03
 0.20352333680000E+04 0.46979088884982E-02
 0.46322562359000E+03 0.24332477647552E-01
 0.13120019598000E+03 0.97399968307759E-01
 0.42853015891000E+02 0.30195584253780E+00
 0.15584185766000E+02 0.66233609137875E+00
 s    2 1.00
 0.62067138508000E+01 0.65595308539952E+00
 0.25764896527000E+01 0.37585633285142E+00
 s    1 1.00
 0.57696339419000E+00 0.10000000000000E+01
 s    1 1.00
 0.22972831358000E+00 0.10000000000000E+01
 s    1 1.00
 0.95164440028000E-01 0.10000000000000E+01
 s    1 1.00
 0.48475401370000E-01 0.10000000000000E+01
 p    4 1.00
 0.34697232244000E+02 0.11327220003114E-01
 0.79582622826000E+01 0.76169659202087E-01
 0.23780826883000E+01 0.30192252202676E+00
 0.81433208183000E+00 0.72785027349547E+00
 p    1 1.00
 0.28887547253000E+00 0.10000000000000E+01
 p    1 1.00
 0.10056823671000E+00 0.10000000000000E+01
 d    1 1.00
 0.10970000000000E+01 0.10000000000000E+01
 d    1 1.00
 0.31800000000000E+00 0.10000000000000E+01
 d    1 1.00
 0.90985336424000E-01 0.10000000000000E+01
 f    1 1.00
 0.76100000000000E+00 0.10000000000000E+01
 
    4 0
 s    6 1.00
 0.13575349682000E+05 0.60645503603591E-03
 0.20352333680000E+04 0.46979088884982E-02
 0.46322562359000E+03 0.24332477647552E-01
 0.13120019598000E+03 0.97399968307759E-01
 0.42853015891000E+02 0.30195584253780E+00
 0.15584185766000E+02 0.66233609137875E+00
 s    2 1.00
 0.62067138508000E+01 0.65595308539952E+00
 0.25764896527000E+01 0.37585633285142E+00
 s    1 1.00
 0.57696339419000E+00 0.10000000000000E+01
 s    1 1.00
 0.22972831358000E+00 0.10000000000000E+01
 s    1 1.00
 0.95164440028000E-01 0.10000000000000E+01
 s    1 1.00
 0.48475401370000E-01 0.10000000000000E+01
 p    4 1.00
 0.34697232244000E+02 0.11327220003114E-01
 0.79582622826000E+01 0.76169659202087E-01
 0.23780826883000E+01 0.30192252202676E+00
 0.81433208183000E+00 0.72785027349547E+00
 p    1 1.00
 0.28887547253000E+00 0.10000000000000E+01
 p    1 1.00
 0.10056823671000E+00 0.10000000000000E+01
 d    1 1.00
 0.10970000000000E+01 0.10000000000000E+01
 d    1 1.00
 0.31800000000000E+00 0.10000000000000E+01
 d    1 1.00
 0.90985336424000E-01 0.10000000000000E+01
 f    1 1.00
 0.76100000000000E+00 0.10000000000000E+01
 
    5 0
 s    6 1.00
 0.13575349682000E+05 0.60645503603591E-03
 0.20352333680000E+04 0.46979088884982E-02
 0.46322562359000E+03 0.24332477647552E-01
 0.13120019598000E+03 0.97399968307759E-01
 0.42853015891000E+02 0.30195584253780E+00
 0.15584185766000E+02 0.66233609137875E+00
 s    2 1.00
 0.62067138508000E+01 0.65595308539952E+00
 0.25764896527000E+01 0.37585633285142E+00
 s    1 1.00
 0.57696339419000E+00 0.10000000000000E+01
 s    1 1.00
 0.22972831358000E+00 0.10000000000000E+01
 s    1 1.00
 0.95164440028000E-01 0.10000000000000E+01
 s    1 1.00
 0.48475401370000E-01 0.10000000000000E+01
 p    4 1.00
 0.34697232244000E+02 0.11327220003114E-01
 0.79582622826000E+01 0.76169659202087E-01
 0.23780826883000E+01 0.30192252202676E+00
 0.81433208183000E+00 0.72785027349547E+00
 p    1 1.00
 0.28887547253000E+00 0.10000000000000E+01
 p    1 1.00
 0.10056823671000E+00 0.10000000000000E+01
 d    1 1.00
 0.10970000000000E+01 0.10000000000000E+01
 d    1 1.00
 0.31800000000000E+00 0.10000000000000E+01
 d    1 1.00
 0.90985336424000E-01 0.10000000000000E+01
 f    1 1.00
 0.76100000000000E+00 0.10000000000000E+01
 
    6 0
 s    6 1.00
 0.13575349682000E+05 0.60645503603591E-03
 0.20352333680000E+04 0.46979088884982E-02
 0.46322562359000E+03 0.24332477647552E-01
 0.13120019598000E+03 0.97399968307759E-01
 0.42853015891000E+02 0.30195584253780E+00
 0.15584185766000E+02 0.66233609137875E+00
 s    2 1.00
 0.62067138508000E+01 0.65595308539952E+00
 0.25764896527000E+01 0.37585633285142E+00
 s    1 1.00
 0.57696339419000E+00 0.10000000000000E+01
 s    1 1.00
 0.22972831358000E+00 0.10000000000000E+01
 s    1 1.00
 0.95164440028000E-01 0.10000000000000E+01
 s    1 1.00
 0.48475401370000E-01 0.10000000000000E+01
 p    4 1.00
 0.34697232244000E+02 0.11327220003114E-01
 0.79582622826000E+01 0.76169659202087E-01
 0.23780826883000E+01 0.30192252202676E+00
 0.81433208183000E+00 0.72785027349547E+00
 p    1 1.00
 0.28887547253000E+00 0.10000000000000E+01
 p    1 1.00
 0.10056823671000E+00 0.10000000000000E+01
 d    1 1.00
 0.10970000000000E+01 0.10000000000000E+01
 d    1 1.00
 0.31800000000000E+00 0.10000000000000E+01
 d    1 1.00
 0.90985336424000E-01 0.10000000000000E+01
 f    1 1.00
 0.76100000000000E+00 0.10000000000000E+01
 
    7 0
 s    3 1.00
 0.34061341000000E+02 0.25439307208879E-01
 0.51235746000000E+01 0.19008594890375E+00
 0.11646626000000E+01 0.85244113011042E+00
 s    1 1.00
 0.32723041000000E+00 0.10000000000000E+01
 s    1 1.00
 0.10307241000000E+00 0.10000000000000E+01
 p    1 1.00
 0.80000000000000E+00 0.10000000000000E+01
 p    1 1.00
 0.95774129632000E-01 0.10000000000000E+01
 
    8 0
 s    3 1.00
 0.34061341000000E+02 0.25439307208879E-01
 0.51235746000000E+01 0.19008594890375E+00
 0.11646626000000E+01 0.85244113011042E+00
 s    1 1.00
 0.32723041000000E+00 0.10000000000000E+01
 s    1 1.00
 0.10307241000000E+00 0.10000000000000E+01
 p    1 1.00
 0.80000000000000E+00 0.10000000000000E+01
 p    1 1.00
 0.95774129632000E-01 0.10000000000000E+01
 
    9 0
 s    3 1.00
 0.34061341000000E+02 0.25439307208879E-01
 0.51235746000000E+01 0.19008594890375E+00
 0.11646626000000E+01 0.85244113011042E+00
 s    1 1.00
 0.32723041000000E+00 0.10000000000000E+01
 s    1 1.00
 0.10307241000000E+00 0.10000000000000E+01
 p    1 1.00
 0.80000000000000E+00 0.10000000000000E+01
 p    1 1.00
 0.95774129632000E-01 0.10000000000000E+01
 
   10 0
 s    3 1.00
 0.34061341000000E+02 0.25439307208879E-01
 0.51235746000000E+01 0.19008594890375E+00
 0.11646626000000E+01 0.85244113011042E+00
 s    1 1.00
 0.32723041000000E+00 0.10000000000000E+01
 s    1 1.00
 0.10307241000000E+00 0.10000000000000E+01
 p    1 1.00
 0.80000000000000E+00 0.10000000000000E+01
 p    1 1.00
 0.95774129632000E-01 0.10000000000000E+01
 
   11 0
 s    6 1.00
 0.19730800647000E+05 0.58626402628763E-03
 0.29578958745000E+04 0.45428820586397E-02
 0.67322133595000E+03 0.23558413450084E-01
 0.19068249494000E+03 0.94709193292923E-01
 0.62295441898000E+02 0.29719784913376E+00
 0.22654161182000E+02 0.66916246895232E+00
 s    2 1.00
 0.89791477428000E+01 0.64596683630063E+00
 0.36863002370000E+01 0.38700574393705E+00
 s    1 1.00
 0.84660076805000E+00 0.10000000000000E+01
 s    1 1.00
 0.33647133771000E+00 0.10000000000000E+01
 s    1 1.00
 0.13647653675000E+00 0.10000000000000E+01
 s    1 1.00
 0.68441605847000E-01 0.10000000000000E+01
 p    4 1.00
 0.49200380510000E+02 0.11448825101764E-01
 0.11346790537000E+02 0.78422337970864E-01
 0.34273972411000E+01 0.30818094738830E+00
 0.11785525134000E+01 0.72027196368413E+00
 p    1 1.00
 0.41642204972000E+00 0.10000000000000E+01
 p    1 1.00
 0.14260826011000E+00 0.10000000000000E+01
 d    1 1.00
 0.16540000000000E+01 0.10000000000000E+01
 d    1 1.00
 0.46900000000000E+00 0.10000000000000E+01
 d    1 1.00
 0.12829642058000E+00 0.10000000000000E+01
 f    1 1.00
 0.10930000000000E+01 0.10000000000000E+01
 
   12 0
 s    6 1.00
 0.27032382631000E+05 0.57227335211155E-03
 0.40523871392000E+04 0.44353233492995E-02
 0.92232722710000E+03 0.23020107706038E-01
 0.26124070989000E+03 0.92822490667928E-01
 0.85354641351000E+02 0.29378500009671E+00
 0.31035035245000E+02 0.67401604501641E+00
 s    2 1.00
 0.12260860728000E+02 0.63839937025506E+00
 0.49987076005000E+01 0.39534587125718E+00
 s    1 1.00
 0.11703108158000E+01 0.10000000000000E+01
 s    1 1.00
 0.46474740994000E+00 0.10000000000000E+01
 s    1 1.00
 0.18504536357000E+00 0.10000000000000E+01
 s    1 1.00
 0.70288026270000E-01 0.10000000000000E+01
 p    4 1.00
 0.63274954801000E+02 0.12018332222616E-01
 0.14627049379000E+02 0.83005421790056E-01
 0.44501223456000E+01 0.31991743925964E+00
 0.15275799647000E+01 0.70715542916104E+00
 p    1 1.00
 0.52935117943000E+00 0.10000000000000E+01
 p    1 1.00
 0.17478421270000E+00 0.10000000000000E+01
 p    1 1.00
 0.51112745706000E-01 0.10000000000000E+01
 d    1 1.00
 0.23140000000000E+01 0.10000000000000E+01
 d    1 1.00
 0.64500000000000E+00 0.10000000000000E+01
 d    1 1.00
 0.14696477366000E+00 0.10000000000000E+01
 f    1 1.00
 0.14280000000000E+01 0.10000000000000E+01
 
   13 0
 s    6 1.00
 0.27032382631000E+05 0.57227335211155E-03
 0.40523871392000E+04 0.44353233492995E-02
 0.92232722710000E+03 0.23020107706038E-01
 0.26124070989000E+03 0.92822490667928E-01
 0.85354641351000E+02 0.29378500009671E+00
 0.31035035245000E+02 0.67401604501641E+00
 s    2 1.00
 0.12260860728000E+02 0.63839937025506E+00
 0.49987076005000E+01 0.39534587125718E+00
 s    1 1.00
 0.11703108158000E+01 0.10000000000000E+01
 s    1 1.00
 0.46474740994000E+00 0.10000000000000E+01
 s    1 1.00
 0.18504536357000E+00 0.10000000000000E+01
 s    1 1.00
 0.70288026270000E-01 0.10000000000000E+01
 p    4 1.00
 0.63274954801000E+02 0.12018332222616E-01
 0.14627049379000E+02 0.83005421790056E-01
 0.44501223456000E+01 0.31991743925964E+00
 0.15275799647000E+01 0.70715542916104E+00
 p    1 1.00
 0.52935117943000E+00 0.10000000000000E+01
 p    1 1.00
 0.17478421270000E+00 0.10000000000000E+01
 p    1 1.00
 0.51112745706000E-01 0.10000000000000E+01
 d    1 1.00
 0.23140000000000E+01 0.10000000000000E+01
 d    1 1.00
 0.64500000000000E+00 0.10000000000000E+01
 d    1 1.00
 0.14696477366000E+00 0.10000000000000E+01
 f    1 1.00
 0.14280000000000E+01 0.10000000000000E+01
 
   14 0
 s    6 1.00
 0.19730800647000E+05 0.58626402628763E-03
 0.29578958745000E+04 0.45428820586397E-02
 0.67322133595000E+03 0.23558413450084E-01
 0.19068249494000E+03 0.94709193292923E-01
 0.62295441898000E+02 0.29719784913376E+00
 0.22654161182000E+02 0.66916246895232E+00
 s    2 1.00
 0.89791477428000E+01 0.64596683630063E+00
 0.36863002370000E+01 0.38700574393705E+00
 s    1 1.00
 0.84660076805000E+00 0.10000000000000E+01
 s    1 1.00
 0.33647133771000E+00 0.10000000000000E+01
 s    1 1.00
 0.13647653675000E+00 0.10000000000000E+01
 s    1 1.00
 0.68441605847000E-01 0.10000000000000E+01
 p    4 1.00
 0.49200380510000E+02 0.11448825101764E-01
 0.11346790537000E+02 0.78422337970864E-01
 0.34273972411000E+01 0.30818094738830E+00
 0.11785525134000E+01 0.72027196368413E+00
 p    1 1.00
 0.41642204972000E+00 0.10000000000000E+01
 p    1 1.00
 0.14260826011000E+00 0.10000000000000E+01
 d    1 1.00
 0.16540000000000E+01 0.10000000000000E+01
 d    1 1.00
 0.46900000000000E+00 0.10000000000000E+01
 d    1 1.00
 0.12829642058000E+00 0.10000000000000E+01
 f    1 1.00
 0.10930000000000E+01 0.10000000000000E+01
 
   15 0
 s    3 1.00
 0.34061341000000E+02 0.25439307208879E-01
 0.51235746000000E+01 0.19008594890375E+00
 0.11646626000000E+01 0.85244113011042E+00
 s    1 1.00
 0.32723041000000E+00 0.10000000000000E+01
 s    1 1.00
 0.10307241000000E+00 0.10000000000000E+01
 p    1 1.00
 0.80000000000000E+00 0.10000000000000E+01
 p    1 1.00
 0.95774129632000E-01 0.10000000000000E+01
 
   16 0
 s    3 1.00
 0.34061341000000E+02 0.25439307208879E-01
 0.51235746000000E+01 0.19008594890375E+00
 0.11646626000000E+01 0.85244113011042E+00
 s    1 1.00
 0.32723041000000E+00 0.10000000000000E+01
 s    1 1.00
 0.10307241000000E+00 0.10000000000000E+01
 p    1 1.00
 0.80000000000000E+00 0.10000000000000E+01
 p    1 1.00
 0.95774129632000E-01 0.10000000000000E+01
 
[MO]
 Sym= X
 Ene= -0.058620
 Spin= Alpha
 Occup= -0.058620
         1    3.066384E-04
         2    7.096301E-04
         3   -1.807631E-03
         4    3.145782E-03
         5    3.427100E-03
         6    1.494557E-02
         7    3.813237E-03
         8    2.920891E-04
         9    2.439807E-02
        10   -2.006897E-03
        11    6.235315E-04
        12    2.539582E-02
        13   -4.190542E-02
        14    1.134530E-02
        15    1.227805E-02
        16   -6.588233E-05
        17    7.379345E-05
        18   -7.911127E-06
        19    3.454326E-05
        20   -5.682286E-03
        21    2.037779E-03
        22    7.877755E-04
        23   -4.652763E-04
        24   -3.224992E-04
        25    9.868402E-04
        26   -1.264147E-02
        27    4.184112E-03
        28    5.562002E-03
        29   -5.205173E-03
        30   -3.568287E-04
        31   -1.765524E-03
        32    4.157548E-03
        33   -1.098805E-02
        34   -2.106237E-05
        35    9.458916E-06
        36   -3.051612E-04
        37    8.713248E-06
        38   -8.841077E-06
        39    8.722241E-04
        40    1.954489E-05
        41   -3.849391E-06
        42   -4.628074E-04
        43    4.729908E-04
        44   -5.246940E-05
        45   -1.147537E-04
        46   -1.793846E-04
        47    4.277985E-03
        48    5.583703E-02
        49   -8.853652E-03
        50   -5.859405E-04
        51    3.414933E-06
        52   -1.157776E-01
        53   -1.521671E-03
        54    5.514170E-06
        55   -1.220850E-01
        56   -1.898910E-02
        57   -8.331432E-04
        58   -1.605382E-01
        59   -1.256630E-04
        60    1.220649E-04
        61    3.598088E-06
        62   -1.355831E-07
        63   -1.678173E-03
        64    7.250782E-07
        65   -6.095990E-04
        66    9.492072E-04
        67   -3.396082E-04
        68   -1.667265E-06
        69   -4.646568E-03
        70    1.017146E-06
        71   -1.328010E-02
        72    1.462865E-02
        73   -1.348549E-03
        74    1.134662E-04
        75    1.799297E-03
        76   -2.534348E-06
        77    2.664467E-06
        78   -3.582710E-08
        79    4.915050E-04
        80   -7.561149E-06
        81    6.110692E-08
        82   -3.520476E-04
        83    3.986391E-06
        84   -1.303982E-08
        85   -3.073755E-04
        86   -7.797796E-08
        87    3.065026E-04
        88    7.092695E-04
        89   -1.804455E-03
        90    3.145488E-03
        91    6.730631E-04
        92    1.494371E-02
        93    3.818612E-03
        94   -2.999122E-04
        95    2.436238E-02
        96   -1.965966E-03
        97   -6.341097E-04
        98    2.536100E-02
        99   -4.187386E-02
       100   -1.224558E-02
       101    1.221919E-02
       102   -6.603693E-05
       103    7.395186E-05
       104   -7.914924E-06
       105   -3.500218E-05
       106   -5.681624E-03
       107   -2.037897E-03
       108    7.779214E-04
       109   -4.578581E-04
       110   -3.200634E-04
       111   -9.879468E-04
       112   -1.263982E-02
       113   -4.184088E-03
       114    5.623161E-03
       115   -5.288622E-03
       116   -3.345392E-04
       117    1.690065E-03
       118    4.166662E-03
       119    1.098012E-02
       120   -2.095888E-05
       121   -9.465472E-06
       122   -3.049929E-04
       123    8.757201E-06
       124    8.732946E-06
       125    8.720463E-04
       126    1.936208E-05
       127    3.966317E-06
       128   -4.628554E-04
       129   -4.729819E-04
       130   -2.123529E-04
       131   -4.647599E-04
       132   -5.671980E-04
       133    1.396361E-02
       134   -2.426915E-02
       135   -1.715065E-02
       136   -3.529744E-03
       137    1.266155E-03
       138    1.620219E-01
       139   -1.345292E-02
       140    8.443822E-03
       141    1.644175E-01
       142   -2.612541E-02
       143   -1.052338E-02
       144    9.409525E-02
       145   -2.727323E-04
       146    3.179417E-04
       147   -4.520940E-05
       148    1.903321E-06
       149    4.945714E-04
       150    2.754537E-03
       151   -8.750305E-04
       152    1.063387E-03
       153   -1.883560E-04
       154   -2.261807E-03
       155   -1.647641E-03
       156    4.411685E-03
       157   -1.071109E-02
       158    8.534250E-03
       159    2.176844E-03
       160    1.196589E-02
       161    4.374831E-03
       162   -1.500056E-02
       163   -2.251122E-05
       164    1.722428E-05
       165   -9.687357E-04
       166   -2.902057E-05
       167    1.785624E-05
       168    4.128777E-04
       169    5.922255E-05
       170   -4.096503E-05
       171    8.868176E-04
       172   -2.171721E-04
       173    1.510868E-03
       174    3.442106E-03
       175   -3.674760E-03
       176   -2.725286E-02
       177    3.610854E-02
       178   -9.030978E-03
       179    1.451418E-02
       180   -4.609270E-06
       181    8.821863E-02
       182    1.952134E-03
       183   -1.080668E-05
       184    9.156363E-02
       185   -4.228775E-02
       186    9.664572E-04
       187    1.319993E-01
       188   -7.716962E-04
       189    4.778996E-04
       190    2.937966E-04
       191   -4.351169E-07
       192    1.137548E-02
       193    7.337979E-07
       194    2.416692E-03
       195   -5.302545E-03
       196    2.885853E-03
       197   -1.850144E-06
       198    2.736486E-02
       199    5.479336E-07
       200    8.425992E-03
       201   -9.727633E-03
       202    1.301641E-03
       203    1.389439E-04
       204    1.891116E-02
       205   -5.306136E-06
       206    1.646604E-04
       207    1.178716E-08
       208   -1.229234E-04
       209   -1.102310E-04
       210   -4.789085E-08
       211   -1.337452E-03
       212   -1.106841E-04
       213    3.207672E-08
       214    1.502371E-03
       215    7.766185E-08
       216   -2.131779E-04
       217   -4.664532E-04
       218   -5.639553E-04
       219    1.398224E-02
       220   -2.712315E-02
       221   -1.714076E-02
       222   -3.527023E-03
       223   -1.256641E-03
       224    1.620539E-01
       225   -1.347864E-02
       226   -8.445112E-03
       227    1.644523E-01
       228   -2.612068E-02
       229    1.161502E-02
       230    9.407653E-02
       231   -2.725727E-04
       232    3.183816E-04
       233   -4.580882E-05
       234   -2.572718E-06
       235    4.952844E-04
       236   -2.754697E-03
       237   -8.829169E-04
       238    1.068886E-03
       239   -1.859692E-04
       240    2.262897E-03
       241   -1.644322E-03
       242   -4.411477E-03
       243   -1.067803E-02
       244    8.490433E-03
       245    2.187595E-03
       246   -1.204718E-02
       247    4.367497E-03
       248    1.501079E-02
       249   -2.269640E-05
       250   -1.727663E-05
       251   -9.690388E-04
       252   -2.901405E-05
       253   -1.776774E-05
       254    4.132314E-04
       255    5.946447E-05
       256    4.094677E-05
       257    8.868706E-04
       258    2.171462E-04
       259    9.195341E-04
       260    9.733658E-04
       261    2.349206E-02
       262   -1.532678E-05
       263   -6.968777E-05
       264    7.758542E-04
       265   -6.761754E-03
       266   -8.074063E-04
       267    6.439831E-03
       268    9.251740E-04
       269    9.676303E-04
       270    2.336917E-02
       271   -1.478411E-05
       272    6.866606E-05
       273    7.742934E-04
       274   -6.815854E-03
       275    7.734228E-04
       276    6.430155E-03
       277    9.996490E-04
       278    3.818340E-03
       279   -4.615224E-02
       280   -2.515421E-05
       281    2.059383E-04
       282    6.354403E-03
       283   -3.289470E-03
       284   -3.498058E-03
       285   -4.272602E-03
       286    1.006334E-03
       287    3.822720E-03
       288   -4.652285E-02
       289   -2.437340E-05
       290   -2.058560E-04
       291    6.356096E-03
       292   -3.309990E-03
       293    3.544779E-03
       294   -4.279503E-03
       295    1.249096E-04
       296    2.934382E-04
       297   -3.432357E-04
       298   -1.039272E-03
       299    9.319212E-03
       300    9.299182E-04
       301    1.670322E-03
       302   -2.439058E-06
       303   -2.983832E-02
       304    1.168409E-03
       305   -2.610674E-06
       306   -3.148933E-02
       307   -3.905960E-03
       308    5.119454E-05
       309   -6.731533E-03
       310   -6.030634E-05
       311    6.070021E-05
       312   -3.938735E-07
       313   -4.034542E-07
       314    2.582076E-03
       315    1.597973E-07
       316   -1.031840E-04
       317    5.931798E-05
       318    4.386598E-05
       319   -7.285735E-07
       320    8.083593E-03
       321    4.425254E-07
       322    1.090627E-03
       323   -3.585749E-03
       324    2.495122E-03
       325   -2.781774E-05
       326    1.053144E-03
       327    5.664116E-07
       328    8.030182E-06
       329    8.733063E-08
       330    7.536359E-05
       331   -3.461546E-06
       332   -1.018195E-07
       333   -4.537396E-04
       334   -7.312074E-06
       335   -1.534680E-08
       336    3.526288E-04
       337    9.684852E-09
       338    3.003911E-05
       339    6.862020E-05
       340   -4.948852E-05
       341   -8.213796E-04
       342    7.702938E-03
       343    1.129692E-03
       344   -1.230644E-03
       345    1.931651E-04
       346    4.210249E-02
       347   -1.236298E-03
       348    3.286620E-04
       349    3.931413E-02
       350   -2.383073E-03
       351    7.144316E-04
       352    3.535773E-02
       353   -3.290059E-04
       354    1.993855E-04
       355    5.071855E-03
       356   -5.856398E-06
       357    1.163006E-05
       358   -5.773664E-06
       359   -8.206094E-06
       360    1.300176E-04
       361    7.881708E-05
       362    1.724015E-05
       363    2.510662E-05
       364   -4.234677E-05
       365   -2.666818E-05
       366    3.594042E-05
       367    3.683258E-04
       368    9.156489E-05
       369   -3.874748E-05
       370   -5.281741E-05
       371   -8.142628E-05
       372    3.812169E-04
       373    1.788787E-05
       374    2.102101E-06
       375    2.574651E-06
       376   -1.435078E-07
       377   -4.273824E-06
       378    2.083007E-07
       379   -5.169770E-05
       380    1.453560E-06
       381   -3.662558E-06
       382    5.189023E-05
       383   -3.098649E-05
       384    3.006629E-05
       385    6.872688E-05
       386   -5.006387E-05
       387   -8.174367E-04
       388    7.690133E-03
       389    1.106021E-03
       390   -1.246261E-03
       391   -1.741069E-04
       392    4.210986E-02
       393   -1.250333E-03
       394   -3.122134E-04
       395    3.932082E-02
       396   -2.364897E-03
       397   -6.945098E-04
       398    3.536254E-02
       399   -3.192055E-04
       400   -2.002981E-04
       401    5.075309E-03
       402   -5.673278E-06
       403    1.139110E-05
       404   -5.717824E-06
       405    8.227459E-06
       406    1.299540E-04
       407   -7.887700E-05
       408    1.746579E-05
       409    2.462739E-05
       410   -4.209318E-05
       411    2.638621E-05
       412    3.580461E-05
       413   -3.685564E-04
       414    9.312613E-05
       415   -4.152489E-05
       416   -5.160124E-05
       417    7.926742E-05
       418    3.803388E-04
       419   -1.786349E-05
       420    2.074975E-06
       421   -2.509450E-06
       422   -1.596462E-07
       423   -4.227020E-06
       424   -2.715629E-07
       425   -5.169359E-05
       426    1.443150E-06
       427    3.638344E-06
       428    5.190778E-05
       429    3.100947E-05
       430   -6.196986E-03
       431   -1.473184E-02
       432    2.300275E-02
       433    3.630103E-02
       434    2.190741E-02
       435    7.990994E-02
       436   -2.471194E-02
       437    1.244001E-05
       438   -3.080992E-01
       439   -2.799349E-02
       440    4.601639E-06
       441   -3.032173E-01
       442   -2.922472E-02
       443   -1.233134E-04
       444   -2.399672E-01
       445    1.184509E-04
       446    7.271731E-05
       447   -1.911683E-04
       448   -3.286520E-07
       449    2.998582E-04
       450    3.412324E-07
       451    1.715598E-04
       452    2.253062E-03
       453   -2.424622E-03
       454    4.017764E-06
       455    2.539923E-03
       456    1.488356E-06
       457    1.520438E-03
       458    5.110079E-03
       459   -6.630517E-03
       460   -6.839633E-07
       461    2.175595E-03
       462    8.163137E-06
       463   -1.808767E-04
       464    5.069021E-08
       465    1.292993E-03
       466   -1.191122E-04
       467    9.231650E-09
       468   -7.919236E-04
       469    3.617838E-04
       470   -7.723970E-08
       471   -9.428091E-04
       472    1.704618E-08
       473   -1.169182E-02
       474   -2.296679E-02
       475   -3.956305E-02
       476   -3.085436E-03
       477   -2.498283E-03
       478   -1.526928E-02
       479    2.778274E-04
       480   -4.359770E-03
       481   -1.545159E-02
       482   -1.168412E-02
       483   -2.288837E-02
       484   -3.936071E-02
       485   -3.080901E-03
       486    2.491325E-03
       487   -1.527260E-02
       488    3.006013E-04
       489    4.324037E-03
       490   -1.546543E-02
 Sym= X
 Ene= -0.884622
 Spin= Alpha
 Occup= -0.884622
         1   -1.311583E-05
         2   -3.001320E-05
         3    7.361388E-05
         4   -8.172173E-05
         5   -2.837080E-03
         6   -3.725761E-04
         7    8.159313E-05
         8    1.118683E-04
         9   -7.892927E-02
        10    2.284056E-04
        11    6.522380E-05
        12   -7.909768E-02
        13   -5.528487E-04
        14    1.752547E-03
        15   -5.535598E-02
        16   -3.898271E-06
        17    2.152895E-06
        18    1.745376E-06
        19    2.155736E-06
        20    1.843964E-03
        21    2.718837E-04
        22   -3.502847E-05
        23    2.264830E-05
        24    1.238017E-05
        25    1.187817E-05
        26    2.397662E-03
        27    1.624312E-04
        28   -4.700127E-05
        29    3.523367E-05
        30    1.176759E-05
        31    6.236492E-05
        32   -1.813738E-03
        33    2.983129E-03
        34    2.239094E-06
        35    3.328856E-07
        36    5.542160E-04
        37   -4.641918E-07
        38    1.244594E-07
        39   -6.507674E-04
        40   -2.539868E-06
        41   -5.710724E-07
        42   -9.279140E-05
        43    5.449432E-05
        44    4.100919E-07
        45    1.003157E-06
        46   -6.460974E-06
        47    1.584336E-05
        48    1.243075E-03
        49    1.214036E-04
        50   -4.288131E-06
        51   -6.318811E-05
        52    2.427218E-06
        53   -1.209249E-05
        54   -8.094567E-05
        55    5.270093E-06
        56   -5.074944E-04
        57    2.226048E-03
        58    1.984770E-05
        59   -2.873598E-07
        60    2.827586E-07
        61    4.601179E-09
        62    6.643450E-06