[Molden Format]
[Title]
ADC(2) - opt by CAM-B3LYP gaussian                                              
[Atoms] AU
 c     1    6 0.12589710753986E+01 0.22825551554713E+01 -.28105798744860E-01
 c     2    6 0.25558923691721E+01 0.80431469000000E-06 -.26811997747980E-01
 c     3    6 0.12589700738438E+01 -.22825573262942E+01 -.28139341383720E-01
 c     4    6 -.13331755585332E+01 -.22837561874501E+01 -.30470167390540E-01
 c     5    6 -.26866009864883E+01 0.27696298600000E-05 -.30311128039200E-01
 c     6    6 -.13331783742251E+01 0.22837572858534E+01 -.30432977580250E-01
 h     7    1 0.22993222678978E+01 0.40366379181686E+01 -.25216785432900E-01
 h     8    1 0.22993197734593E+01 -.40366408826765E+01 -.25273722881290E-01
 h     9    1 -.23520966897676E+01 -.40562070503646E+01 -.33235309154490E-01
 h    10    1 -.23520900190344E+01 0.40562136478709E+01 -.33159965773570E-01
 n    11    7 0.52762255328692E+01 0.25629411000000E-06 -.20783601308720E-01
 o    12    8 0.63803680214636E+01 -.20270720034092E+01 -.18188232540560E-01
 o    13    8 0.63803692875801E+01 0.20270718545932E+01 -.18282964511600E-01
 n    14    7 -.52484248103301E+01 -.66967170000000E-06 -.81289589624650E-01
 h    15    1 -.62019351690707E+01 -.16149791988436E+01 0.21484054874156E+00
 h    16    1 -.62019367942352E+01 0.16149736265137E+01 0.21486103337284E+00
[GTO]
    1 0
 s    6 1.00
 0.13575349682000E+05 0.60645503603591E-03
 0.20352333680000E+04 0.46979088884982E-02
 0.46322562359000E+03 0.24332477647552E-01
 0.13120019598000E+03 0.97399968307759E-01
 0.42853015891000E+02 0.30195584253780E+00
 0.15584185766000E+02 0.66233609137875E+00
 s    2 1.00
 0.62067138508000E+01 0.65595308539952E+00
 0.25764896527000E+01 0.37585633285142E+00
 s    1 1.00
 0.57696339419000E+00 0.10000000000000E+01
 s    1 1.00
 0.22972831358000E+00 0.10000000000000E+01
 s    1 1.00
 0.95164440028000E-01 0.10000000000000E+01
 s    1 1.00
 0.48475401370000E-01 0.10000000000000E+01
 p    4 1.00
 0.34697232244000E+02 0.11327220003114E-01
 0.79582622826000E+01 0.76169659202087E-01
 0.23780826883000E+01 0.30192252202676E+00
 0.81433208183000E+00 0.72785027349547E+00
 p    1 1.00
 0.28887547253000E+00 0.10000000000000E+01
 p    1 1.00
 0.10056823671000E+00 0.10000000000000E+01
 d    1 1.00
 0.10970000000000E+01 0.10000000000000E+01
 d    1 1.00
 0.31800000000000E+00 0.10000000000000E+01
 d    1 1.00
 0.90985336424000E-01 0.10000000000000E+01
 f    1 1.00
 0.76100000000000E+00 0.10000000000000E+01
 
    2 0
 s    6 1.00
 0.13575349682000E+05 0.60645503603591E-03
 0.20352333680000E+04 0.46979088884982E-02
 0.46322562359000E+03 0.24332477647552E-01
 0.13120019598000E+03 0.97399968307759E-01
 0.42853015891000E+02 0.30195584253780E+00
 0.15584185766000E+02 0.66233609137875E+00
 s    2 1.00
 0.62067138508000E+01 0.65595308539952E+00
 0.25764896527000E+01 0.37585633285142E+00
 s    1 1.00
 0.57696339419000E+00 0.10000000000000E+01
 s    1 1.00
 0.22972831358000E+00 0.10000000000000E+01
 s    1 1.00
 0.95164440028000E-01 0.10000000000000E+01
 s    1 1.00
 0.48475401370000E-01 0.10000000000000E+01
 p    4 1.00
 0.34697232244000E+02 0.11327220003114E-01
 0.79582622826000E+01 0.76169659202087E-01
 0.23780826883000E+01 0.30192252202676E+00
 0.81433208183000E+00 0.72785027349547E+00
 p    1 1.00
 0.28887547253000E+00 0.10000000000000E+01
 p    1 1.00
 0.10056823671000E+00 0.10000000000000E+01
 d    1 1.00
 0.10970000000000E+01 0.10000000000000E+01
 d    1 1.00
 0.31800000000000E+00 0.10000000000000E+01
 d    1 1.00
 0.90985336424000E-01 0.10000000000000E+01
 f    1 1.00
 0.76100000000000E+00 0.10000000000000E+01
 
    3 0
 s    6 1.00
 0.13575349682000E+05 0.60645503603591E-03
 0.20352333680000E+04 0.46979088884982E-02
 0.46322562359000E+03 0.24332477647552E-01
 0.13120019598000E+03 0.97399968307759E-01
 0.42853015891000E+02 0.30195584253780E+00
 0.15584185766000E+02 0.66233609137875E+00
 s    2 1.00
 0.62067138508000E+01 0.65595308539952E+00
 0.25764896527000E+01 0.37585633285142E+00
 s    1 1.00
 0.57696339419000E+00 0.10000000000000E+01
 s    1 1.00
 0.22972831358000E+00 0.10000000000000E+01
 s    1 1.00
 0.95164440028000E-01 0.10000000000000E+01
 s    1 1.00
 0.48475401370000E-01 0.10000000000000E+01
 p    4 1.00
 0.34697232244000E+02 0.11327220003114E-01
 0.79582622826000E+01 0.76169659202087E-01
 0.23780826883000E+01 0.30192252202676E+00
 0.81433208183000E+00 0.72785027349547E+00
 p    1 1.00
 0.28887547253000E+00 0.10000000000000E+01
 p    1 1.00
 0.10056823671000E+00 0.10000000000000E+01
 d    1 1.00
 0.10970000000000E+01 0.10000000000000E+01
 d    1 1.00
 0.31800000000000E+00 0.10000000000000E+01
 d    1 1.00
 0.90985336424000E-01 0.10000000000000E+01
 f    1 1.00
 0.76100000000000E+00 0.10000000000000E+01
 
    4 0
 s    6 1.00
 0.13575349682000E+05 0.60645503603591E-03
 0.20352333680000E+04 0.46979088884982E-02
 0.46322562359000E+03 0.24332477647552E-01
 0.13120019598000E+03 0.97399968307759E-01
 0.42853015891000E+02 0.30195584253780E+00
 0.15584185766000E+02 0.66233609137875E+00
 s    2 1.00
 0.62067138508000E+01 0.65595308539952E+00
 0.25764896527000E+01 0.37585633285142E+00
 s    1 1.00
 0.57696339419000E+00 0.10000000000000E+01
 s    1 1.00
 0.22972831358000E+00 0.10000000000000E+01
 s    1 1.00
 0.95164440028000E-01 0.10000000000000E+01
 s    1 1.00
 0.48475401370000E-01 0.10000000000000E+01
 p    4 1.00
 0.34697232244000E+02 0.11327220003114E-01
 0.79582622826000E+01 0.76169659202087E-01
 0.23780826883000E+01 0.30192252202676E+00
 0.81433208183000E+00 0.72785027349547E+00
 p    1 1.00
 0.28887547253000E+00 0.10000000000000E+01
 p    1 1.00
 0.10056823671000E+00 0.10000000000000E+01
 d    1 1.00
 0.10970000000000E+01 0.10000000000000E+01
 d    1 1.00
 0.31800000000000E+00 0.10000000000000E+01
 d    1 1.00
 0.90985336424000E-01 0.10000000000000E+01
 f    1 1.00
 0.76100000000000E+00 0.10000000000000E+01
 
    5 0
 s    6 1.00
 0.13575349682000E+05 0.60645503603591E-03
 0.20352333680000E+04 0.46979088884982E-02
 0.46322562359000E+03 0.24332477647552E-01
 0.13120019598000E+03 0.97399968307759E-01
 0.42853015891000E+02 0.30195584253780E+00
 0.15584185766000E+02 0.66233609137875E+00
 s    2 1.00
 0.62067138508000E+01 0.65595308539952E+00
 0.25764896527000E+01 0.37585633285142E+00
 s    1 1.00
 0.57696339419000E+00 0.10000000000000E+01
 s    1 1.00
 0.22972831358000E+00 0.10000000000000E+01
 s    1 1.00
 0.95164440028000E-01 0.10000000000000E+01
 s    1 1.00
 0.48475401370000E-01 0.10000000000000E+01
 p    4 1.00
 0.34697232244000E+02 0.11327220003114E-01
 0.79582622826000E+01 0.76169659202087E-01
 0.23780826883000E+01 0.30192252202676E+00
 0.81433208183000E+00 0.72785027349547E+00
 p    1 1.00
 0.28887547253000E+00 0.10000000000000E+01
 p    1 1.00
 0.10056823671000E+00 0.10000000000000E+01
 d    1 1.00
 0.10970000000000E+01 0.10000000000000E+01
 d    1 1.00
 0.31800000000000E+00 0.10000000000000E+01
 d    1 1.00
 0.90985336424000E-01 0.10000000000000E+01
 f    1 1.00
 0.76100000000000E+00 0.10000000000000E+01
 
    6 0
 s    6 1.00
 0.13575349682000E+05 0.60645503603591E-03
 0.20352333680000E+04 0.46979088884982E-02
 0.46322562359000E+03 0.24332477647552E-01
 0.13120019598000E+03 0.97399968307759E-01
 0.42853015891000E+02 0.30195584253780E+00
 0.15584185766000E+02 0.66233609137875E+00
 s    2 1.00
 0.62067138508000E+01 0.65595308539952E+00
 0.25764896527000E+01 0.37585633285142E+00
 s    1 1.00
 0.57696339419000E+00 0.10000000000000E+01
 s    1 1.00
 0.22972831358000E+00 0.10000000000000E+01
 s    1 1.00
 0.95164440028000E-01 0.10000000000000E+01
 s    1 1.00
 0.48475401370000E-01 0.10000000000000E+01
 p    4 1.00
 0.34697232244000E+02 0.11327220003114E-01
 0.79582622826000E+01 0.76169659202087E-01
 0.23780826883000E+01 0.30192252202676E+00
 0.81433208183000E+00 0.72785027349547E+00
 p    1 1.00
 0.28887547253000E+00 0.10000000000000E+01
 p    1 1.00
 0.10056823671000E+00 0.10000000000000E+01
 d    1 1.00
 0.10970000000000E+01 0.10000000000000E+01
 d    1 1.00
 0.31800000000000E+00 0.10000000000000E+01
 d    1 1.00
 0.90985336424000E-01 0.10000000000000E+01
 f    1 1.00
 0.76100000000000E+00 0.10000000000000E+01
 
    7 0
 s    3 1.00
 0.34061341000000E+02 0.25439307208879E-01
 0.51235746000000E+01 0.19008594890375E+00
 0.11646626000000E+01 0.85244113011042E+00
 s    1 1.00
 0.32723041000000E+00 0.10000000000000E+01
 s    1 1.00
 0.10307241000000E+00 0.10000000000000E+01
 p    1 1.00
 0.80000000000000E+00 0.10000000000000E+01
 p    1 1.00
 0.95774129632000E-01 0.10000000000000E+01
 
    8 0
 s    3 1.00
 0.34061341000000E+02 0.25439307208879E-01
 0.51235746000000E+01 0.19008594890375E+00
 0.11646626000000E+01 0.85244113011042E+00
 s    1 1.00
 0.32723041000000E+00 0.10000000000000E+01
 s    1 1.00
 0.10307241000000E+00 0.10000000000000E+01
 p    1 1.00
 0.80000000000000E+00 0.10000000000000E+01
 p    1 1.00
 0.95774129632000E-01 0.10000000000000E+01
 
    9 0
 s    3 1.00
 0.34061341000000E+02 0.25439307208879E-01
 0.51235746000000E+01 0.19008594890375E+00
 0.11646626000000E+01 0.85244113011042E+00
 s    1 1.00
 0.32723041000000E+00 0.10000000000000E+01
 s    1 1.00
 0.10307241000000E+00 0.10000000000000E+01
 p    1 1.00
 0.80000000000000E+00 0.10000000000000E+01
 p    1 1.00
 0.95774129632000E-01 0.10000000000000E+01
 
   10 0
 s    3 1.00
 0.34061341000000E+02 0.25439307208879E-01
 0.51235746000000E+01 0.19008594890375E+00
 0.11646626000000E+01 0.85244113011042E+00
 s    1 1.00
 0.32723041000000E+00 0.10000000000000E+01
 s    1 1.00
 0.10307241000000E+00 0.10000000000000E+01
 p    1 1.00
 0.80000000000000E+00 0.10000000000000E+01
 p    1 1.00
 0.95774129632000E-01 0.10000000000000E+01
 
   11 0
 s    6 1.00
 0.19730800647000E+05 0.58626402628763E-03
 0.29578958745000E+04 0.45428820586397E-02
 0.67322133595000E+03 0.23558413450084E-01
 0.19068249494000E+03 0.94709193292923E-01
 0.62295441898000E+02 0.29719784913376E+00
 0.22654161182000E+02 0.66916246895232E+00
 s    2 1.00
 0.89791477428000E+01 0.64596683630063E+00
 0.36863002370000E+01 0.38700574393705E+00
 s    1 1.00
 0.84660076805000E+00 0.10000000000000E+01
 s    1 1.00
 0.33647133771000E+00 0.10000000000000E+01
 s    1 1.00
 0.13647653675000E+00 0.10000000000000E+01
 s    1 1.00
 0.68441605847000E-01 0.10000000000000E+01
 p    4 1.00
 0.49200380510000E+02 0.11448825101764E-01
 0.11346790537000E+02 0.78422337970864E-01
 0.34273972411000E+01 0.30818094738830E+00
 0.11785525134000E+01 0.72027196368413E+00
 p    1 1.00
 0.41642204972000E+00 0.10000000000000E+01
 p    1 1.00
 0.14260826011000E+00 0.10000000000000E+01
 d    1 1.00
 0.16540000000000E+01 0.10000000000000E+01
 d    1 1.00
 0.46900000000000E+00 0.10000000000000E+01
 d    1 1.00
 0.12829642058000E+00 0.10000000000000E+01
 f    1 1.00
 0.10930000000000E+01 0.10000000000000E+01
 
   12 0
 s    6 1.00
 0.27032382631000E+05 0.57227335211155E-03
 0.40523871392000E+04 0.44353233492995E-02
 0.92232722710000E+03 0.23020107706038E-01
 0.26124070989000E+03 0.92822490667928E-01
 0.85354641351000E+02 0.29378500009671E+00
 0.31035035245000E+02 0.67401604501641E+00
 s    2 1.00
 0.12260860728000E+02 0.63839937025506E+00
 0.49987076005000E+01 0.39534587125718E+00
 s    1 1.00
 0.11703108158000E+01 0.10000000000000E+01
 s    1 1.00
 0.46474740994000E+00 0.10000000000000E+01
 s    1 1.00
 0.18504536357000E+00 0.10000000000000E+01
 s    1 1.00
 0.70288026270000E-01 0.10000000000000E+01
 p    4 1.00
 0.63274954801000E+02 0.12018332222616E-01
 0.14627049379000E+02 0.83005421790056E-01
 0.44501223456000E+01 0.31991743925964E+00
 0.15275799647000E+01 0.70715542916104E+00
 p    1 1.00
 0.52935117943000E+00 0.10000000000000E+01
 p    1 1.00
 0.17478421270000E+00 0.10000000000000E+01
 p    1 1.00
 0.51112745706000E-01 0.10000000000000E+01
 d    1 1.00
 0.23140000000000E+01 0.10000000000000E+01
 d    1 1.00
 0.64500000000000E+00 0.10000000000000E+01
 d    1 1.00
 0.14696477366000E+00 0.10000000000000E+01
 f    1 1.00
 0.14280000000000E+01 0.10000000000000E+01
 
   13 0
 s    6 1.00
 0.27032382631000E+05 0.57227335211155E-03
 0.40523871392000E+04 0.44353233492995E-02
 0.92232722710000E+03 0.23020107706038E-01
 0.26124070989000E+03 0.92822490667928E-01
 0.85354641351000E+02 0.29378500009671E+00
 0.31035035245000E+02 0.67401604501641E+00
 s    2 1.00
 0.12260860728000E+02 0.63839937025506E+00
 0.49987076005000E+01 0.39534587125718E+00
 s    1 1.00
 0.11703108158000E+01 0.10000000000000E+01
 s    1 1.00
 0.46474740994000E+00 0.10000000000000E+01
 s    1 1.00
 0.18504536357000E+00 0.10000000000000E+01
 s    1 1.00
 0.70288026270000E-01 0.10000000000000E+01
 p    4 1.00
 0.63274954801000E+02 0.12018332222616E-01
 0.14627049379000E+02 0.83005421790056E-01
 0.44501223456000E+01 0.31991743925964E+00
 0.15275799647000E+01 0.70715542916104E+00
 p    1 1.00
 0.52935117943000E+00 0.10000000000000E+01
 p    1 1.00
 0.17478421270000E+00 0.10000000000000E+01
 p    1 1.00
 0.51112745706000E-01 0.10000000000000E+01
 d    1 1.00
 0.23140000000000E+01 0.10000000000000E+01
 d    1 1.00
 0.64500000000000E+00 0.10000000000000E+01
 d    1 1.00
 0.14696477366000E+00 0.10000000000000E+01
 f    1 1.00
 0.14280000000000E+01 0.10000000000000E+01
 
   14 0
 s    6 1.00
 0.19730800647000E+05 0.58626402628763E-03
 0.29578958745000E+04 0.45428820586397E-02
 0.67322133595000E+03 0.23558413450084E-01
 0.19068249494000E+03 0.94709193292923E-01
 0.62295441898000E+02 0.29719784913376E+00
 0.22654161182000E+02 0.66916246895232E+00
 s    2 1.00
 0.89791477428000E+01 0.64596683630063E+00
 0.36863002370000E+01 0.38700574393705E+00
 s    1 1.00
 0.84660076805000E+00 0.10000000000000E+01
 s    1 1.00
 0.33647133771000E+00 0.10000000000000E+01
 s    1 1.00
 0.13647653675000E+00 0.10000000000000E+01
 s    1 1.00
 0.68441605847000E-01 0.10000000000000E+01
 p    4 1.00
 0.49200380510000E+02 0.11448825101764E-01
 0.11346790537000E+02 0.78422337970864E-01
 0.34273972411000E+01 0.30818094738830E+00
 0.11785525134000E+01 0.72027196368413E+00
 p    1 1.00
 0.41642204972000E+00 0.10000000000000E+01
 p    1 1.00
 0.14260826011000E+00 0.10000000000000E+01
 d    1 1.00
 0.16540000000000E+01 0.10000000000000E+01
 d    1 1.00
 0.46900000000000E+00 0.10000000000000E+01
 d    1 1.00
 0.12829642058000E+00 0.10000000000000E+01
 f    1 1.00
 0.10930000000000E+01 0.10000000000000E+01
 
   15 0
 s    3 1.00
 0.34061341000000E+02 0.25439307208879E-01
 0.51235746000000E+01 0.19008594890375E+00
 0.11646626000000E+01 0.85244113011042E+00
 s    1 1.00
 0.32723041000000E+00 0.10000000000000E+01
 s    1 1.00
 0.10307241000000E+00 0.10000000000000E+01
 p    1 1.00
 0.80000000000000E+00 0.10000000000000E+01
 p    1 1.00
 0.95774129632000E-01 0.10000000000000E+01
 
   16 0
 s    3 1.00
 0.34061341000000E+02 0.25439307208879E-01
 0.51235746000000E+01 0.19008594890375E+00
 0.11646626000000E+01 0.85244113011042E+00
 s    1 1.00
 0.32723041000000E+00 0.10000000000000E+01
 s    1 1.00
 0.10307241000000E+00 0.10000000000000E+01
 p    1 1.00
 0.80000000000000E+00 0.10000000000000E+01
 p    1 1.00
 0.95774129632000E-01 0.10000000000000E+01
 
[MO]
 Sym= X
 Ene= -0.061351
 Spin= Alpha
 Occup= -0.061351
         1    1.436619E-04
         2    3.362379E-04
         3   -1.039883E-03
         4    2.753675E-03
         5    7.233546E-03
         6    1.052961E-02
         7    1.244199E-03
         8    1.467995E-04
         9   -3.486644E-02
        10   -2.530972E-03
        11    3.310568E-04
        12   -3.294150E-02
        13   -3.359797E-02
        14    1.143411E-02
        15   -1.016483E-02
        16    7.922056E-06
        17    5.407088E-06
        18   -1.332914E-05
        19    4.883011E-06
        20   -6.471971E-03
        21    4.172235E-03
        22    6.448699E-04
        23   -3.818182E-04
        24   -2.630517E-04
        25    6.372088E-04
        26   -1.460413E-02
        27    7.809682E-03
        28    4.944538E-03
        29   -4.689632E-03
        30   -2.549061E-04
        31   -9.393558E-04
        32    1.319079E-03
        33   -9.183135E-03
        34   -2.009475E-05
        35    5.443524E-06
        36    1.792930E-04
        37    8.974777E-06
        38   -5.330220E-06
        39    6.792316E-04
        40    1.798516E-05
        41   -1.973034E-06
        42   -9.197784E-04
        43    7.442134E-04
        44   -2.304950E-05
        45   -5.054833E-05
        46   -1.095631E-04
        47    2.400823E-03
        48    5.266822E-02
        49   -4.640275E-03
        50    4.558350E-04
        51    3.057123E-06
        52   -2.193824E-01
        53   -2.745328E-04
        54    1.713545E-05
        55   -2.271939E-01
        56   -1.619929E-02
        57   -6.130167E-04
        58   -2.034053E-01
        59   -2.712081E-05
        60    2.463453E-05
        61    2.486276E-06
        62   -1.211995E-07
        63   -5.765514E-04
        64    6.336854E-07
        65   -3.301505E-04
        66    5.574824E-04
        67   -2.273319E-04
        68   -3.755604E-06
        69   -3.140164E-03
        70    1.230896E-06
        71   -8.216617E-03
        72    9.413575E-03
        73   -1.196957E-03
        74    9.934074E-05
        75    5.454087E-03
        76   -4.190244E-06
        77    8.029446E-06
        78    5.845513E-08
        79    1.269423E-03
        80   -6.037477E-06
        81    1.936770E-08
        82   -7.607121E-04
        83   -4.735155E-06
        84   -9.779349E-08
        85   -9.423973E-04
        86   -9.273477E-08
        87    1.442347E-04
        88    3.374906E-04
        89   -1.041236E-03
        90    2.754631E-03
        91    5.369764E-03
        92    1.050556E-02
        93    1.245345E-03
        94   -1.482745E-04
        95   -3.489982E-02
        96   -2.490121E-03
        97   -3.248332E-04
        98   -3.297449E-02
        99   -3.369859E-02
       100   -1.202678E-02
       101   -1.020402E-02
       102    7.768936E-06
       103    5.489981E-06
       104   -1.325892E-05
       105   -5.043689E-06
       106   -6.471325E-03
       107   -4.172410E-03
       108    6.364498E-04
       109   -3.742637E-04
       110   -2.621862E-04
       111   -6.346609E-04
       112   -1.460197E-02
       113   -7.808781E-03
       114    5.027167E-03
       115   -4.786341E-03
       116   -2.408260E-04
       117    8.608604E-04
       118    1.322509E-03
       119    9.189192E-03
       120   -2.005489E-05
       121   -5.403851E-06
       122    1.794553E-04
       123    9.091405E-06
       124    5.283743E-06
       125    6.790424E-04
       126    1.781505E-05
       127    1.966284E-06
       128   -9.198070E-04
       129   -7.441472E-04
       130   -8.400649E-05
       131   -1.783875E-04
       132   -5.952741E-04
       133    9.286528E-03
       134   -2.793065E-02
       135   -1.198900E-02
       136   -9.065897E-04
       137    4.368568E-04
       138    1.557944E-01
       139   -8.184926E-03
       140    5.546998E-03
       141    1.583934E-01
       142   -2.213269E-02
       143   -6.360840E-03
       144    9.670679E-02
       145   -1.141664E-04
       146    1.372608E-04
       147   -2.309440E-05
       148    3.303980E-06
       149   -1.308530E-03
       150    3.269452E-03
       151   -5.954068E-04
       152    6.827043E-04
       153   -8.729746E-05
       154   -1.543972E-03
       155   -4.957622E-03
       156    5.568812E-03
       157   -7.764916E-03
       158    6.061281E-03
       159    1.703635E-03
       160    8.483794E-03
       161    3.078183E-03
       162   -1.031475E-02
       163   -1.473757E-05
       164    6.494721E-06
       165   -8.930454E-04
       166   -1.527947E-05
       167    1.802287E-05
       168    1.981098E-04
       169    3.505200E-05
       170   -2.673645E-05
       171    1.000036E-03
       172   -4.028497E-04
       173    9.662769E-04
       174    2.206211E-03
       175   -2.169726E-03
       176   -2.065401E-02
       177    1.349648E-02
       178   -9.036636E-03
       179    7.277626E-03
       180   -1.914915E-06
       181    1.339649E-01
       182   -7.004043E-05
       183   -5.374927E-06
       184    1.360527E-01
       185   -2.480496E-02
       186    9.099516E-04
       187    1.314815E-01
       188   -4.096780E-04
       189    2.156548E-04
       190    1.940231E-04
       191   -2.879529E-07
       192    9.019456E-03
       193    7.497202E-07
       194    1.680036E-03
       195   -3.762488E-03
       196    2.082452E-03
       197   -1.778638E-07
       198    2.275172E-02
       199   -2.555140E-07
       200    4.950222E-03
       201   -6.190605E-03
       202    1.240383E-03
       203    1.212850E-04
       204    1.797183E-02
       205   -1.006541E-05
       206    1.012636E-04
       207    3.777732E-08
       208   -5.290586E-04
       209   -7.356823E-05
       210   -4.444892E-08
       211   -7.941319E-04
       212   -6.229111E-05
       213   -6.234676E-09
       214    1.503939E-03
       215    4.490644E-08
       216   -8.477723E-05
       217   -1.799628E-04
       218   -5.916482E-04
       219    9.293195E-03
       220   -3.013276E-02
       221   -1.200443E-02
       222   -9.064389E-04
       223   -4.319077E-04
       224    1.558259E-01
       225   -8.205028E-03
       226   -5.545889E-03
       227    1.584281E-01
       228   -2.190974E-02
       229    7.266261E-03
       230    9.671976E-02
       231   -1.139646E-04
       232    1.376878E-04
       233   -2.372328E-05
       234   -3.639780E-06
       235   -1.307912E-03
       236   -3.269573E-03
       237   -6.020359E-04
       238    6.867825E-04
       239   -8.474667E-05
       240    1.544966E-03
       241   -4.954371E-03
       242   -5.569287E-03
       243   -7.727205E-03
       244    6.017355E-03
       245    1.709850E-03
       246   -8.594055E-03
       247    3.071933E-03
       248    1.031492E-02
       249   -1.496014E-05
       250   -6.554316E-06
       251   -8.933809E-04
       252   -1.521986E-05
       253   -1.794796E-05
       254    1.984771E-04
       255    3.529100E-05
       256    2.674150E-05
       257    1.000119E-03
       258    4.028457E-04
       259    2.438838E-04
       260    3.910302E-05
       261    1.561393E-02
       262   -1.003277E-05
       263    1.670269E-05
       264   -1.358687E-03
       265   -5.020831E-03
       266   -9.419710E-05
       267    5.684667E-03
       268    2.451710E-04
       269    3.164549E-05
       270    1.559314E-02
       271   -9.286224E-06
       272   -1.773055E-05
       273   -1.360026E-03
       274   -5.098864E-03
       275    6.581187E-05
       276    5.688858E-03
       277    3.135424E-04
       278    2.087537E-03
       279   -3.185532E-02
       280   -6.354865E-06
       281    8.197235E-05
       282    6.369012E-03
       283   -1.043793E-03
       284   -2.630906E-03
       285   -7.304099E-06
       286    3.180891E-04
       287    2.093595E-03
       288   -3.218797E-02
       289   -5.988238E-06
       290   -8.221798E-05
       291    6.370785E-03
       292   -1.051413E-03
       293    2.671197E-03
       294   -6.712892E-06
       295    3.202648E-05
       296    7.379678E-05
       297   -5.260143E-05
       298   -2.748417E-04
       299    5.675165E-03
       300   -1.844353E-03
       301    3.238280E-04
       302   -7.759062E-07
       303   -2.263769E-02
       304    5.070585E-05
       305    2.763195E-07
       306   -2.475763E-02
       307   -2.667267E-03
       308    3.260369E-05
       309   -1.016585E-02
       310   -2.003441E-05
       311    3.506016E-06
       312    1.652840E-05
       313    1.625937E-08
       314    4.627222E-03
       315    4.178236E-09
       316   -7.787327E-06
       317   -6.215667E-05
       318    6.994400E-05
       319    5.737586E-07
       320    1.396236E-02
       321   -8.265168E-08
       322    9.918905E-04
       323   -2.684732E-03
       324    1.692841E-03
       325   -2.151358E-05
       326    3.746238E-03
       327    2.941802E-06
       328    6.736155E-06
       329    9.368503E-09
       330    2.300710E-05
       331   -4.676059E-06
       332    3.843583E-08
       333   -7.515055E-04
       334   -4.361441E-06
       335   -5.100500E-08
       336    7.206383E-04
       337   -1.494784E-08
       338    7.804947E-06
       339    1.572586E-05
       340    1.917227E-05
       341   -4.504279E-04
       342    5.505257E-03
       343    9.859867E-04
       344   -1.910707E-04
       345    7.722724E-05
       346    7.964880E-02
       347   -2.708724E-04
       348    2.034935E-04
       349    7.391243E-02
       350   -1.384472E-03
       351    4.321689E-04
       352    6.030426E-02
       353   -1.494955E-04
       354    2.329354E-04
       355    7.326381E-03
       356   -3.002497E-06
       357    3.268277E-06
       358   -2.657793E-07
       359   -4.283567E-07
       360    2.675063E-05
       361    4.668368E-04
       362    1.238280E-05
       363    7.042037E-06
       364   -1.942484E-05
       365   -1.131416E-05
       366   -4.832803E-04
       367    1.565809E-03
       368    7.728578E-05
       369   -5.689341E-05
       370   -2.039237E-05
       371   -8.777079E-05
       372   -3.691068E-04
       373    2.107034E-04
       374    7.275535E-07
       375    1.221365E-06
       376   -5.944350E-05
       377   -1.188578E-06
       378   -7.335797E-08
       379   -8.900103E-05
       380    2.124622E-07
       381   -1.565276E-06
       382    1.687528E-04
       383   -1.320792E-04
       384    7.828148E-06
       385    1.583054E-05
       386    1.844400E-05
       387   -4.462333E-04
       388    5.491487E-03
       389    9.575451E-04
       390   -1.844808E-04
       391   -7.551551E-05
       392    7.964725E-02
       393   -2.645253E-04
       394   -2.014931E-04
       395    7.391144E-02
       396   -1.354734E-03
       397   -4.234430E-04
       398    6.029793E-02
       399   -1.343249E-04
       400   -2.374083E-04
       401    7.328000E-03
       402   -3.003477E-06
       403    3.242934E-06
       404   -2.394567E-07
       405    4.522869E-07
       406    2.672180E-05
       407   -4.668229E-04
       408    1.218064E-05
       409    6.837959E-06
       410   -1.901860E-05
       411    1.076037E-05
       412   -4.832015E-04
       413   -1.565806E-03
       414    7.693634E-05
       415   -5.816185E-05
       416   -1.877449E-05
       417    8.685477E-05
       418   -3.696251E-04
       419   -2.096603E-04
       420    7.203247E-07
       421   -1.205220E-06
       422   -5.944605E-05
       423   -1.154683E-06
       424    8.161256E-08
       425   -8.899459E-05
       426    1.882659E-07
       427    1.535359E-06
       428    1.687498E-04
       429    1.320796E-04
       430   -4.340812E-03
       431   -1.032951E-02
       432    1.618116E-02
       433    2.531523E-02
       434    2.096474E-02
       435    6.879019E-02
       436   -1.502420E-02
       437    7.371377E-06
       438   -2.147643E-01
       439   -1.735513E-02
       440    1.719225E-06
       441   -2.127991E-01
       442   -1.546542E-02
       443   -9.595393E-05
       444   -1.798369E-01
       445    1.014950E-04
       446   -2.430585E-05
       447   -7.718913E-05
       448   -1.857436E-07
       449    1.178609E-03
       450    2.184646E-07
       451    2.654418E-04
       452    1.302058E-03
       453   -1.567500E-03
       454    3.068389E-06
       455    4.491035E-03
       456    1.096920E-06
       457    2.245513E-03
       458    2.465996E-03
       459   -4.711509E-03
       460   -1.306377E-06
       461    2.469756E-03
       462    6.087542E-06
       463   -1.408345E-04
       464    2.181794E-08
       465    7.808911E-04
       466   -6.995245E-05
       467    1.002749E-08
       468   -3.370141E-04
       469    2.589018E-04
       470   -3.929933E-08
       471   -7.106613E-04
       472    1.952222E-08
       473   -9.550814E-03
       474   -1.750936E-02
       475   -2.913926E-02
       476   -2.050634E-03
       477   -1.803986E-03
       478   -1.104891E-02
       479    1.802648E-03
       480   -3.447397E-03
       481   -1.415043E-02
       482   -9.546791E-03
       483   -1.745416E-02
       484   -2.898386E-02
       485   -2.047588E-03
       486    1.798970E-03
       487   -1.105139E-02
       488    1.820476E-03
       489    3.420203E-03
       490   -1.415783E-02
 Sym= X
 Ene= -0.906285
 Spin= Alpha
 Occup= -0.906285
         1    2.692181E-05
         2    6.157546E-05
         3   -1.642364E-04
         4    2.843390E-04
         5    1.066707E-02
         6    6.463984E-04
         7   -1.419475E-04
         8   -1.801597E-04
         9    1.892346E-01
        10   -7.059855E-04
        11   -2.884365E-05
        12    1.897809E-01
        13    3.982541E-03
        14   -6.792348E-03
        15    1.111014E-01
        16    8.743712E-06
        17   -3.129119E-06
        18   -5.614593E-06
        19   -8.326701E-07
        20   -4.974713E-03
        21   -5.521227E-04
        22    1.275962E-04
        23   -7.978368E-05
        24   -4.781256E-05
        25   -1.808289E-05
        26   -9.519014E-03
        27    4.001309E-04
        28   -8.894990E-04
        29    1.037871E-03
        30   -1.483721E-04
        31   -4.998809E-04
        32   -2.972472E-03
        33   -2.478852E-04
        34   -5.263044E-06
        35   -8.328817E-07
        36   -1.175426E-03
        37    1.275765E-06
        38    4.797786E-09
        39    1.419985E-03
        40    5.785349E-06
        41    1.112630E-06
        42    1.570146E-04
        43   -1.757310E-07
        44   -1.836077E-08
        45   -1.807337E-07
        46    8.637175E-06
        47   -3.188646E-05
        48   -2.963999E-03
        49   -2.122847E-04
        50   -2.203959E-06
        51    1.023532E-04
        52    9.203931E-06
        53    1.965624E-05
        54    2.710735E-04
        55    4.029050E-06
        56    1.315004E-03
        57   -1.025208E-02
        58   -1.159429E-05
        59    1.113135E-07
        60   -2.758376E-07
        61    1.645242E-07
        62   -1.049762E-05