[Molden Format]
[Title]
ADC(2) - opt by CAM-B3LYP gaussian                                              
[Atoms] AU
 c     1    6 0.12589710753986E+01 0.22825551554713E+01 -.28105798744860E-01
 c     2    6 0.25558923691721E+01 0.80431469000000E-06 -.26811997747980E-01
 c     3    6 0.12589700738438E+01 -.22825573262942E+01 -.28139341383720E-01
 c     4    6 -.13331755585332E+01 -.22837561874501E+01 -.30470167390540E-01
 c     5    6 -.26866009864883E+01 0.27696298600000E-05 -.30311128039200E-01
 c     6    6 -.13331783742251E+01 0.22837572858534E+01 -.30432977580250E-01
 h     7    1 0.22993222678978E+01 0.40366379181686E+01 -.25216785432900E-01
 h     8    1 0.22993197734593E+01 -.40366408826765E+01 -.25273722881290E-01
 h     9    1 -.23520966897676E+01 -.40562070503646E+01 -.33235309154490E-01
 h    10    1 -.23520900190344E+01 0.40562136478709E+01 -.33159965773570E-01
 n    11    7 0.52762255328692E+01 0.25629411000000E-06 -.20783601308720E-01
 o    12    8 0.63803680214636E+01 -.20270720034092E+01 -.18188232540560E-01
 o    13    8 0.63803692875801E+01 0.20270718545932E+01 -.18282964511600E-01
 n    14    7 -.52484248103301E+01 -.66967170000000E-06 -.81289589624650E-01
 h    15    1 -.62019351690707E+01 -.16149791988436E+01 0.21484054874156E+00
 h    16    1 -.62019367942352E+01 0.16149736265137E+01 0.21486103337284E+00
[GTO]
    1 0
 s    6 1.00
 0.13575349682000E+05 0.60645503603591E-03
 0.20352333680000E+04 0.46979088884982E-02
 0.46322562359000E+03 0.24332477647552E-01
 0.13120019598000E+03 0.97399968307759E-01
 0.42853015891000E+02 0.30195584253780E+00
 0.15584185766000E+02 0.66233609137875E+00
 s    2 1.00
 0.62067138508000E+01 0.65595308539952E+00
 0.25764896527000E+01 0.37585633285142E+00
 s    1 1.00
 0.57696339419000E+00 0.10000000000000E+01
 s    1 1.00
 0.22972831358000E+00 0.10000000000000E+01
 s    1 1.00
 0.95164440028000E-01 0.10000000000000E+01
 s    1 1.00
 0.48475401370000E-01 0.10000000000000E+01
 p    4 1.00
 0.34697232244000E+02 0.11327220003114E-01
 0.79582622826000E+01 0.76169659202087E-01
 0.23780826883000E+01 0.30192252202676E+00
 0.81433208183000E+00 0.72785027349547E+00
 p    1 1.00
 0.28887547253000E+00 0.10000000000000E+01
 p    1 1.00
 0.10056823671000E+00 0.10000000000000E+01
 d    1 1.00
 0.10970000000000E+01 0.10000000000000E+01
 d    1 1.00
 0.31800000000000E+00 0.10000000000000E+01
 d    1 1.00
 0.90985336424000E-01 0.10000000000000E+01
 f    1 1.00
 0.76100000000000E+00 0.10000000000000E+01
 
    2 0
 s    6 1.00
 0.13575349682000E+05 0.60645503603591E-03
 0.20352333680000E+04 0.46979088884982E-02
 0.46322562359000E+03 0.24332477647552E-01
 0.13120019598000E+03 0.97399968307759E-01
 0.42853015891000E+02 0.30195584253780E+00
 0.15584185766000E+02 0.66233609137875E+00
 s    2 1.00
 0.62067138508000E+01 0.65595308539952E+00
 0.25764896527000E+01 0.37585633285142E+00
 s    1 1.00
 0.57696339419000E+00 0.10000000000000E+01
 s    1 1.00
 0.22972831358000E+00 0.10000000000000E+01
 s    1 1.00
 0.95164440028000E-01 0.10000000000000E+01
 s    1 1.00
 0.48475401370000E-01 0.10000000000000E+01
 p    4 1.00
 0.34697232244000E+02 0.11327220003114E-01
 0.79582622826000E+01 0.76169659202087E-01
 0.23780826883000E+01 0.30192252202676E+00
 0.81433208183000E+00 0.72785027349547E+00
 p    1 1.00
 0.28887547253000E+00 0.10000000000000E+01
 p    1 1.00
 0.10056823671000E+00 0.10000000000000E+01
 d    1 1.00
 0.10970000000000E+01 0.10000000000000E+01
 d    1 1.00
 0.31800000000000E+00 0.10000000000000E+01
 d    1 1.00
 0.90985336424000E-01 0.10000000000000E+01
 f    1 1.00
 0.76100000000000E+00 0.10000000000000E+01
 
    3 0
 s    6 1.00
 0.13575349682000E+05 0.60645503603591E-03
 0.20352333680000E+04 0.46979088884982E-02
 0.46322562359000E+03 0.24332477647552E-01
 0.13120019598000E+03 0.97399968307759E-01
 0.42853015891000E+02 0.30195584253780E+00
 0.15584185766000E+02 0.66233609137875E+00
 s    2 1.00
 0.62067138508000E+01 0.65595308539952E+00
 0.25764896527000E+01 0.37585633285142E+00
 s    1 1.00
 0.57696339419000E+00 0.10000000000000E+01
 s    1 1.00
 0.22972831358000E+00 0.10000000000000E+01
 s    1 1.00
 0.95164440028000E-01 0.10000000000000E+01
 s    1 1.00
 0.48475401370000E-01 0.10000000000000E+01
 p    4 1.00
 0.34697232244000E+02 0.11327220003114E-01
 0.79582622826000E+01 0.76169659202087E-01
 0.23780826883000E+01 0.30192252202676E+00
 0.81433208183000E+00 0.72785027349547E+00
 p    1 1.00
 0.28887547253000E+00 0.10000000000000E+01
 p    1 1.00
 0.10056823671000E+00 0.10000000000000E+01
 d    1 1.00
 0.10970000000000E+01 0.10000000000000E+01
 d    1 1.00
 0.31800000000000E+00 0.10000000000000E+01
 d    1 1.00
 0.90985336424000E-01 0.10000000000000E+01
 f    1 1.00
 0.76100000000000E+00 0.10000000000000E+01
 
    4 0
 s    6 1.00
 0.13575349682000E+05 0.60645503603591E-03
 0.20352333680000E+04 0.46979088884982E-02
 0.46322562359000E+03 0.24332477647552E-01
 0.13120019598000E+03 0.97399968307759E-01
 0.42853015891000E+02 0.30195584253780E+00
 0.15584185766000E+02 0.66233609137875E+00
 s    2 1.00
 0.62067138508000E+01 0.65595308539952E+00
 0.25764896527000E+01 0.37585633285142E+00
 s    1 1.00
 0.57696339419000E+00 0.10000000000000E+01
 s    1 1.00
 0.22972831358000E+00 0.10000000000000E+01
 s    1 1.00
 0.95164440028000E-01 0.10000000000000E+01
 s    1 1.00
 0.48475401370000E-01 0.10000000000000E+01
 p    4 1.00
 0.34697232244000E+02 0.11327220003114E-01
 0.79582622826000E+01 0.76169659202087E-01
 0.23780826883000E+01 0.30192252202676E+00
 0.81433208183000E+00 0.72785027349547E+00
 p    1 1.00
 0.28887547253000E+00 0.10000000000000E+01
 p    1 1.00
 0.10056823671000E+00 0.10000000000000E+01
 d    1 1.00
 0.10970000000000E+01 0.10000000000000E+01
 d    1 1.00
 0.31800000000000E+00 0.10000000000000E+01
 d    1 1.00
 0.90985336424000E-01 0.10000000000000E+01
 f    1 1.00
 0.76100000000000E+00 0.10000000000000E+01
 
    5 0
 s    6 1.00
 0.13575349682000E+05 0.60645503603591E-03
 0.20352333680000E+04 0.46979088884982E-02
 0.46322562359000E+03 0.24332477647552E-01
 0.13120019598000E+03 0.97399968307759E-01
 0.42853015891000E+02 0.30195584253780E+00
 0.15584185766000E+02 0.66233609137875E+00
 s    2 1.00
 0.62067138508000E+01 0.65595308539952E+00
 0.25764896527000E+01 0.37585633285142E+00
 s    1 1.00
 0.57696339419000E+00 0.10000000000000E+01
 s    1 1.00
 0.22972831358000E+00 0.10000000000000E+01
 s    1 1.00
 0.95164440028000E-01 0.10000000000000E+01
 s    1 1.00
 0.48475401370000E-01 0.10000000000000E+01
 p    4 1.00
 0.34697232244000E+02 0.11327220003114E-01
 0.79582622826000E+01 0.76169659202087E-01
 0.23780826883000E+01 0.30192252202676E+00
 0.81433208183000E+00 0.72785027349547E+00
 p    1 1.00
 0.28887547253000E+00 0.10000000000000E+01
 p    1 1.00
 0.10056823671000E+00 0.10000000000000E+01
 d    1 1.00
 0.10970000000000E+01 0.10000000000000E+01
 d    1 1.00
 0.31800000000000E+00 0.10000000000000E+01
 d    1 1.00
 0.90985336424000E-01 0.10000000000000E+01
 f    1 1.00
 0.76100000000000E+00 0.10000000000000E+01
 
    6 0
 s    6 1.00
 0.13575349682000E+05 0.60645503603591E-03
 0.20352333680000E+04 0.46979088884982E-02
 0.46322562359000E+03 0.24332477647552E-01
 0.13120019598000E+03 0.97399968307759E-01
 0.42853015891000E+02 0.30195584253780E+00
 0.15584185766000E+02 0.66233609137875E+00
 s    2 1.00
 0.62067138508000E+01 0.65595308539952E+00
 0.25764896527000E+01 0.37585633285142E+00
 s    1 1.00
 0.57696339419000E+00 0.10000000000000E+01
 s    1 1.00
 0.22972831358000E+00 0.10000000000000E+01
 s    1 1.00
 0.95164440028000E-01 0.10000000000000E+01
 s    1 1.00
 0.48475401370000E-01 0.10000000000000E+01
 p    4 1.00
 0.34697232244000E+02 0.11327220003114E-01
 0.79582622826000E+01 0.76169659202087E-01
 0.23780826883000E+01 0.30192252202676E+00
 0.81433208183000E+00 0.72785027349547E+00
 p    1 1.00
 0.28887547253000E+00 0.10000000000000E+01
 p    1 1.00
 0.10056823671000E+00 0.10000000000000E+01
 d    1 1.00
 0.10970000000000E+01 0.10000000000000E+01
 d    1 1.00
 0.31800000000000E+00 0.10000000000000E+01
 d    1 1.00
 0.90985336424000E-01 0.10000000000000E+01
 f    1 1.00
 0.76100000000000E+00 0.10000000000000E+01
 
    7 0
 s    3 1.00
 0.34061341000000E+02 0.25439307208879E-01
 0.51235746000000E+01 0.19008594890375E+00
 0.11646626000000E+01 0.85244113011042E+00
 s    1 1.00
 0.32723041000000E+00 0.10000000000000E+01
 s    1 1.00
 0.10307241000000E+00 0.10000000000000E+01
 p    1 1.00
 0.80000000000000E+00 0.10000000000000E+01
 p    1 1.00
 0.95774129632000E-01 0.10000000000000E+01
 
    8 0
 s    3 1.00
 0.34061341000000E+02 0.25439307208879E-01
 0.51235746000000E+01 0.19008594890375E+00
 0.11646626000000E+01 0.85244113011042E+00
 s    1 1.00
 0.32723041000000E+00 0.10000000000000E+01
 s    1 1.00
 0.10307241000000E+00 0.10000000000000E+01
 p    1 1.00
 0.80000000000000E+00 0.10000000000000E+01
 p    1 1.00
 0.95774129632000E-01 0.10000000000000E+01
 
    9 0
 s    3 1.00
 0.34061341000000E+02 0.25439307208879E-01
 0.51235746000000E+01 0.19008594890375E+00
 0.11646626000000E+01 0.85244113011042E+00
 s    1 1.00
 0.32723041000000E+00 0.10000000000000E+01
 s    1 1.00
 0.10307241000000E+00 0.10000000000000E+01
 p    1 1.00
 0.80000000000000E+00 0.10000000000000E+01
 p    1 1.00
 0.95774129632000E-01 0.10000000000000E+01
 
   10 0
 s    3 1.00
 0.34061341000000E+02 0.25439307208879E-01
 0.51235746000000E+01 0.19008594890375E+00
 0.11646626000000E+01 0.85244113011042E+00
 s    1 1.00
 0.32723041000000E+00 0.10000000000000E+01
 s    1 1.00
 0.10307241000000E+00 0.10000000000000E+01
 p    1 1.00
 0.80000000000000E+00 0.10000000000000E+01
 p    1 1.00
 0.95774129632000E-01 0.10000000000000E+01
 
   11 0
 s    6 1.00
 0.19730800647000E+05 0.58626402628763E-03
 0.29578958745000E+04 0.45428820586397E-02
 0.67322133595000E+03 0.23558413450084E-01
 0.19068249494000E+03 0.94709193292923E-01
 0.62295441898000E+02 0.29719784913376E+00
 0.22654161182000E+02 0.66916246895232E+00
 s    2 1.00
 0.89791477428000E+01 0.64596683630063E+00
 0.36863002370000E+01 0.38700574393705E+00
 s    1 1.00
 0.84660076805000E+00 0.10000000000000E+01
 s    1 1.00
 0.33647133771000E+00 0.10000000000000E+01
 s    1 1.00
 0.13647653675000E+00 0.10000000000000E+01
 s    1 1.00
 0.68441605847000E-01 0.10000000000000E+01
 p    4 1.00
 0.49200380510000E+02 0.11448825101764E-01
 0.11346790537000E+02 0.78422337970864E-01
 0.34273972411000E+01 0.30818094738830E+00
 0.11785525134000E+01 0.72027196368413E+00
 p    1 1.00
 0.41642204972000E+00 0.10000000000000E+01
 p    1 1.00
 0.14260826011000E+00 0.10000000000000E+01
 d    1 1.00
 0.16540000000000E+01 0.10000000000000E+01
 d    1 1.00
 0.46900000000000E+00 0.10000000000000E+01
 d    1 1.00
 0.12829642058000E+00 0.10000000000000E+01
 f    1 1.00
 0.10930000000000E+01 0.10000000000000E+01
 
   12 0
 s    6 1.00
 0.27032382631000E+05 0.57227335211155E-03
 0.40523871392000E+04 0.44353233492995E-02
 0.92232722710000E+03 0.23020107706038E-01
 0.26124070989000E+03 0.92822490667928E-01
 0.85354641351000E+02 0.29378500009671E+00
 0.31035035245000E+02 0.67401604501641E+00
 s    2 1.00
 0.12260860728000E+02 0.63839937025506E+00
 0.49987076005000E+01 0.39534587125718E+00
 s    1 1.00
 0.11703108158000E+01 0.10000000000000E+01
 s    1 1.00
 0.46474740994000E+00 0.10000000000000E+01
 s    1 1.00
 0.18504536357000E+00 0.10000000000000E+01
 s    1 1.00
 0.70288026270000E-01 0.10000000000000E+01
 p    4 1.00
 0.63274954801000E+02 0.12018332222616E-01
 0.14627049379000E+02 0.83005421790056E-01
 0.44501223456000E+01 0.31991743925964E+00
 0.15275799647000E+01 0.70715542916104E+00
 p    1 1.00
 0.52935117943000E+00 0.10000000000000E+01
 p    1 1.00
 0.17478421270000E+00 0.10000000000000E+01
 p    1 1.00
 0.51112745706000E-01 0.10000000000000E+01
 d    1 1.00
 0.23140000000000E+01 0.10000000000000E+01
 d    1 1.00
 0.64500000000000E+00 0.10000000000000E+01
 d    1 1.00
 0.14696477366000E+00 0.10000000000000E+01
 f    1 1.00
 0.14280000000000E+01 0.10000000000000E+01
 
   13 0
 s    6 1.00
 0.27032382631000E+05 0.57227335211155E-03
 0.40523871392000E+04 0.44353233492995E-02
 0.92232722710000E+03 0.23020107706038E-01
 0.26124070989000E+03 0.92822490667928E-01
 0.85354641351000E+02 0.29378500009671E+00
 0.31035035245000E+02 0.67401604501641E+00
 s    2 1.00
 0.12260860728000E+02 0.63839937025506E+00
 0.49987076005000E+01 0.39534587125718E+00
 s    1 1.00
 0.11703108158000E+01 0.10000000000000E+01
 s    1 1.00
 0.46474740994000E+00 0.10000000000000E+01
 s    1 1.00
 0.18504536357000E+00 0.10000000000000E+01
 s    1 1.00
 0.70288026270000E-01 0.10000000000000E+01
 p    4 1.00
 0.63274954801000E+02 0.12018332222616E-01
 0.14627049379000E+02 0.83005421790056E-01
 0.44501223456000E+01 0.31991743925964E+00
 0.15275799647000E+01 0.70715542916104E+00
 p    1 1.00
 0.52935117943000E+00 0.10000000000000E+01
 p    1 1.00
 0.17478421270000E+00 0.10000000000000E+01
 p    1 1.00
 0.51112745706000E-01 0.10000000000000E+01
 d    1 1.00
 0.23140000000000E+01 0.10000000000000E+01
 d    1 1.00
 0.64500000000000E+00 0.10000000000000E+01
 d    1 1.00
 0.14696477366000E+00 0.10000000000000E+01
 f    1 1.00
 0.14280000000000E+01 0.10000000000000E+01
 
   14 0
 s    6 1.00
 0.19730800647000E+05 0.58626402628763E-03
 0.29578958745000E+04 0.45428820586397E-02
 0.67322133595000E+03 0.23558413450084E-01
 0.19068249494000E+03 0.94709193292923E-01
 0.62295441898000E+02 0.29719784913376E+00
 0.22654161182000E+02 0.66916246895232E+00
 s    2 1.00
 0.89791477428000E+01 0.64596683630063E+00
 0.36863002370000E+01 0.38700574393705E+00
 s    1 1.00
 0.84660076805000E+00 0.10000000000000E+01
 s    1 1.00
 0.33647133771000E+00 0.10000000000000E+01
 s    1 1.00
 0.13647653675000E+00 0.10000000000000E+01
 s    1 1.00
 0.68441605847000E-01 0.10000000000000E+01
 p    4 1.00
 0.49200380510000E+02 0.11448825101764E-01
 0.11346790537000E+02 0.78422337970864E-01
 0.34273972411000E+01 0.30818094738830E+00
 0.11785525134000E+01 0.72027196368413E+00
 p    1 1.00
 0.41642204972000E+00 0.10000000000000E+01
 p    1 1.00
 0.14260826011000E+00 0.10000000000000E+01
 d    1 1.00
 0.16540000000000E+01 0.10000000000000E+01
 d    1 1.00
 0.46900000000000E+00 0.10000000000000E+01
 d    1 1.00
 0.12829642058000E+00 0.10000000000000E+01
 f    1 1.00
 0.10930000000000E+01 0.10000000000000E+01
 
   15 0
 s    3 1.00
 0.34061341000000E+02 0.25439307208879E-01
 0.51235746000000E+01 0.19008594890375E+00
 0.11646626000000E+01 0.85244113011042E+00
 s    1 1.00
 0.32723041000000E+00 0.10000000000000E+01
 s    1 1.00
 0.10307241000000E+00 0.10000000000000E+01
 p    1 1.00
 0.80000000000000E+00 0.10000000000000E+01
 p    1 1.00
 0.95774129632000E-01 0.10000000000000E+01
 
   16 0
 s    3 1.00
 0.34061341000000E+02 0.25439307208879E-01
 0.51235746000000E+01 0.19008594890375E+00
 0.11646626000000E+01 0.85244113011042E+00
 s    1 1.00
 0.32723041000000E+00 0.10000000000000E+01
 s    1 1.00
 0.10307241000000E+00 0.10000000000000E+01
 p    1 1.00
 0.80000000000000E+00 0.10000000000000E+01
 p    1 1.00
 0.95774129632000E-01 0.10000000000000E+01
 
[MO]
 Sym= X
 Ene= -0.057763
 Spin= Alpha
 Occup= -0.057763
         1    6.219834E-04
         2    1.426678E-03
         3   -2.940887E-03
         4    1.887327E-03
         5    3.372289E-03
         6    1.751163E-02
         7    1.344267E-02
         8    2.675565E-03
         9    2.524144E-02
        10    4.696453E-03
        11    2.934394E-03
        12    2.641594E-02
        13   -5.145793E-02
        14    1.291108E-02
        15    1.633526E-02
        16   -3.366359E-04
        17    3.215533E-04
        18    1.508256E-05
        19    1.327287E-04
        20   -3.965361E-03
        21    1.278517E-03
        22    5.842615E-04
        23   -3.274026E-04
        24   -2.568589E-04
        25    1.339368E-03
        26   -8.993042E-03
        27    2.749602E-03
        28    5.922879E-03
        29   -5.134238E-03
        30   -7.886407E-04
        31   -2.559755E-03
        32    5.232694E-03
        33   -1.366001E-02
        34    4.116519E-06
        35    3.104165E-05
        36   -2.671929E-04
        37    5.352987E-06
        38   -2.674516E-05
        39    6.516430E-04
        40   -1.087588E-05
        41   -1.490159E-05
        42   -2.931661E-04
        43    2.884185E-04
        44   -5.700971E-04
        45   -1.277940E-03
        46    1.272471E-03
        47    9.009645E-03
        48    6.076584E-02
        49   -1.131559E-02
        50   -9.450659E-04
        51    3.644688E-06
        52   -7.317787E-02
        53   -2.016599E-03
        54    2.385736E-06
        55   -7.720276E-02
        56   -2.001993E-02
        57   -6.876871E-04
        58   -1.356203E-01
        59   -4.271504E-04
        60    4.289587E-04
        61   -1.808257E-06
        62   -1.621377E-07
        63   -1.385933E-03
        64    6.489647E-07
        65   -1.113865E-03
        66    1.640631E-03
        67   -5.267653E-04
        68   -9.788559E-07
        69   -3.743990E-03
        70    9.638509E-07
        71   -1.894135E-02
        72    2.033051E-02
        73   -1.389153E-03
        74    8.760201E-05
        75    7.254272E-04
        76   -4.671311E-06
        77    8.120219E-06
        78   -7.218378E-08
        79    2.730520E-04
        80   -1.816992E-05
        81    9.832173E-08
        82   -2.109330E-04
        83    7.275508E-06
        84   -1.477030E-09
        85   -1.554047E-04
        86   -7.243470E-08
        87    6.217049E-04
        88    1.426016E-03
        89   -2.940689E-03
        90    1.913161E-03
        91    1.055803E-03
        92    1.752459E-02
        93    1.345182E-02
        94   -2.686644E-03
        95    2.520951E-02
        96    4.712862E-03
        97   -2.948997E-03
        98    2.638518E-02
        99   -5.136050E-02
       100   -1.367050E-02
       101    1.628858E-02
       102   -3.367301E-04
       103    3.217643E-04
       104    1.496587E-05
       105   -1.333606E-04
       106   -3.964719E-03
       107   -1.278614E-03
       108    5.795911E-04
       109   -3.232585E-04
       110   -2.563326E-04
       111   -1.341024E-03
       112   -8.992050E-03
       113   -2.749641E-03
       114    5.958659E-03
       115   -5.188940E-03
       116   -7.697195E-04
       117    2.495143E-03
       118    5.235598E-03
       119    1.365095E-02
       120    4.080531E-06
       121   -3.104662E-05
       122   -2.670516E-04
       123    5.452793E-06
       124    2.663081E-05
       125    6.515057E-04
       126   -1.092740E-05
       127    1.502260E-05
       128   -2.932183E-04
       129   -2.884210E-04
       130   -3.534864E-04
       131   -7.809666E-04
       132   -5.530211E-04
       133    1.877550E-02
       134   -1.718116E-02
       135   -1.824492E-02
       136   -1.284824E-02
       137    3.373103E-03
       138    1.093404E-01
       139   -2.254884E-02
       140    1.170749E-02
       141    1.123918E-01
       142   -3.861016E-02
       143   -8.471870E-03
       144    6.247345E-02
       145   -6.993262E-04
       146    7.701490E-04
       147   -7.082279E-05
       148   -8.283121E-05
       149    1.210411E-03
       150    1.140259E-03
       151   -1.354681E-03
       152    1.713956E-03
       153   -3.592747E-04
       154   -2.944160E-03
       155   -3.314317E-05
       156    1.507140E-03
       157   -1.263753E-02
       158    9.967232E-03
       159    2.670294E-03
       160    1.396753E-02
       161    5.622527E-03
       162   -1.907384E-02
       163   -3.662865E-05
       164    4.965654E-05
       165   -5.429822E-04
       166   -5.541789E-05
       167   -9.754271E-06
       168    2.208800E-04
       169    1.045604E-04
       170   -5.686697E-05
       171    5.076070E-04
       172    8.279268E-06
       173    1.554938E-03
       174    3.543996E-03
       175   -3.389520E-03
       176   -3.075274E-02
       177    3.059599E-02
       178   -1.454739E-02
       179    2.889430E-02
       180   -7.145630E-06
       181   -6.705938E-04
       182    1.030433E-02
       183   -2.178329E-05
       184    5.008984E-03
       185   -5.588088E-02
       186    6.229495E-04
       187    1.203059E-01
       188   -1.559385E-03
       189    1.157071E-03
       190    4.023145E-04
       191   -5.416902E-07
       192    1.172964E-02
       193    6.816288E-07
       194    2.283259E-03
       195   -5.813070E-03
       196    3.529811E-03
       197   -5.143927E-06
       198    2.668410E-02
       199    1.308248E-06
       200    1.405589E-02
       201   -1.586079E-02
       202    1.804901E-03
       203    1.118816E-04
       204    1.651780E-02
       205    2.083575E-06
       206    2.558507E-04
       207   -5.827301E-08
       208    6.682033E-04
       209   -1.473699E-04
       210   -4.419842E-08
       211   -1.965476E-03
       212   -1.958898E-04
       213    1.223799E-07
       214    1.068987E-03
       215    9.740408E-08
       216   -3.538832E-04
       217   -7.816917E-04
       218   -5.568327E-04
       219    1.882830E-02
       220   -1.935136E-02
       221   -1.821068E-02
       222   -1.284126E-02
       223   -3.360156E-03
       224    1.093701E-01
       225   -2.255477E-02
       226   -1.171744E-02
       227    1.124229E-01
       228   -3.877912E-02
       229    9.263001E-03
       230    6.245310E-02
       231   -6.991777E-04
       232    7.704267E-04
       233   -7.124895E-05
       234    8.202313E-05
       235    1.210996E-03
       236   -1.140370E-03
       237   -1.356958E-03
       238    1.717989E-03
       239   -3.610313E-04
       240    2.947159E-03
       241   -2.965842E-05
       242   -1.506730E-03
       243   -1.260008E-02
       244    9.926171E-03
       245    2.673911E-03
       246   -1.400624E-02
       247    5.623995E-03
       248    1.908359E-02
       249   -3.653823E-05
       250   -4.972742E-05
       251   -5.432212E-04
       252   -5.563440E-05
       253    9.840828E-06
       254    2.211893E-04
       255    1.046556E-04
       256    5.687551E-05
       257    5.076184E-04
       258   -8.320895E-06
       259    4.167649E-03
       260    5.771232E-03
       261    3.022402E-02
       262   -9.598923E-05
       263   -5.529927E-04
       264    9.153315E-04
       265   -7.560728E-03
       266   -1.745983E-03
       267    7.979401E-03
       268    4.175757E-03
       269    5.771873E-03
       270    3.007439E-02
       271   -9.587576E-05
       272    5.525680E-04
       273    9.138864E-04
       274   -7.599899E-03
       275    1.713423E-03
       276    7.970742E-03
       277    2.939406E-03
       278    7.145630E-03
       279   -5.222755E-02
       280   -1.058615E-04
       281    5.463905E-04
       282    4.255248E-03
       283   -4.542478E-03
       284   -3.546713E-03
       285   -8.647620E-03
       286    2.946014E-03
       287    7.148277E-03
       288   -5.250042E-02
       289   -1.046177E-04
       290   -5.460550E-04
       291    4.256777E-03
       292   -4.551926E-03
       293    3.589560E-03
       294   -8.650487E-03
       295    4.550071E-04
       296    1.080150E-03
       297   -1.545172E-03
       298   -3.323448E-03
       299    1.325660E-02
       300    5.254939E-03
       301    4.418751E-03
       302   -3.173521E-06
       303   -2.181045E-02
       304    3.725023E-03
       305   -3.735440E-06
       306   -2.341688E-02
       307   -4.384675E-03
       308    4.379752E-05
       309   -1.488068E-03
       310    3.695236E-05
       311   -2.685677E-05
       312   -1.009559E-05
       313   -6.006586E-07
       314    1.716467E-03
       315    2.236575E-07
       316    1.226221E-04
       317   -1.597604E-04
       318    3.713837E-05
       319   -1.363444E-06
       320    5.410834E-03
       321    6.545449E-07
       322    1.107443E-03
       323   -4.232659E-03
       324    3.125217E-03
       325   -2.511495E-05
       326   -2.039414E-04
       327    7.438621E-07
       328    1.717578E-05
       329    1.258323E-07
       330    4.643264E-05
       331   -5.469522E-06
       332   -1.696546E-07
       333   -2.983436E-04
       334   -1.757421E-05
       335    8.328435E-10
       336    2.360477E-04
       337    2.242203E-08
       338    1.449598E-04
       339    3.507324E-04
       340   -4.736528E-04
       341   -1.591216E-03
       342    8.718589E-03
       343    4.930475E-04
       344    1.756650E-03
       345    2.186992E-03
       346    2.885892E-02
       347    1.375225E-03
       348    2.104985E-03
       349    2.701786E-02
       350   -9.188625E-04
       351    1.914076E-03
       352    2.428328E-02
       353   -2.331272E-04
       354    1.746805E-04
       355    3.654463E-03
       356   -3.883536E-05
       357    5.078512E-05
       358   -1.194977E-05
       359    2.092689E-05
       360    9.953179E-05
       361    3.800627E-05
       362   -5.815590E-05
       363    1.288287E-04
       364   -7.067278E-05
       365    6.562902E-05
       366    4.112918E-05
       367    1.878370E-04
       368    9.036653E-05
       369   -2.096294E-05
       370   -6.940359E-05
       371   -5.749948E-05
       372    5.924059E-04
       373    2.113598E-05
       374    9.759593E-07
       375    2.049172E-05
       376    1.958123E-06
       377   -1.879865E-06
       378   -2.130611E-05
       379   -3.499521E-05
       380    5.704782E-07
       381   -6.186415E-06
       382    3.236811E-05
       383   -1.799191E-05
       384    1.449495E-04
       385    3.507383E-04
       386   -4.739170E-04
       387   -1.587739E-03
       388    8.713699E-03
       389    4.782982E-04
       390    1.730685E-03
       391   -2.159230E-03
       392    2.886993E-02
       393    1.351697E-03
       394   -2.081328E-03
       395    2.702795E-02
       396   -9.124579E-04
       397   -1.890855E-03
       398    2.429014E-02
       399   -2.286249E-04
       400   -1.734976E-04
       401    3.657417E-03
       402   -3.857116E-05
       403    5.043304E-05
       404   -1.186188E-05
       405   -2.092926E-05
       406    9.945582E-05
       407   -3.810245E-05
       408   -5.770465E-05
       409    1.281686E-04
       410   -7.046400E-05
       411   -6.572863E-05
       412    4.091202E-05
       413   -1.881407E-04
       414    9.242972E-05
       415   -2.419971E-05
       416   -6.823001E-05
       417    5.552258E-05
       418    5.917652E-04
       419   -2.128813E-05
       420    9.408046E-07
       421   -2.039918E-05
       422    1.937839E-06
       423   -1.821487E-06
       424    2.120866E-05
       425   -3.499455E-05
       426    5.592647E-07
       427    6.159705E-06
       428    3.239466E-05
       429    1.802387E-05
       430   -7.281782E-03
       431   -1.729739E-02
       432    2.703161E-02
       433    4.285378E-02
       434    2.150790E-02
       435    8.779985E-02
       436   -4.054819E-02
       437    1.894565E-05
       438   -3.788978E-01
       439   -4.338743E-02
       440    8.704554E-06
       441   -3.708469E-01
       442   -4.231800E-02
       443   -1.206414E-04
       444   -2.802541E-01
       445   -2.626947E-05
       446    3.272170E-04
       447   -3.009475E-04
       448   -5.023951E-07
       449   -1.022322E-03
       450    4.632436E-07
       451   -1.165416E-04
       452    3.257245E-03
       453   -3.140704E-03
       454    4.543396E-06
       455   -7.788167E-04
       456    1.811914E-06
       457    1.308949E-03
       458    7.171971E-03
       459   -8.480920E-03
       460    5.173235E-06
       461    8.701157E-04
       462    9.804109E-06
       463   -2.241571E-04
       464    8.777825E-08
       465    1.758214E-03
       466   -1.647981E-04
       467    6.285507E-09
       468   -1.272565E-03
       469    4.655365E-04
       470   -1.240524E-07
       471   -1.086327E-03
       472    6.592648E-09
       473   -1.096605E-02
       474   -2.386476E-02
       475   -4.711944E-02
       476   -3.950630E-03
       477   -2.712338E-03
       478   -1.827525E-02
       479   -9.159868E-04
       480   -5.577425E-03
       481   -1.494607E-02
       482   -1.095316E-02
       483   -2.376872E-02
       484   -4.689366E-02
       485   -3.944865E-03
       486    2.703772E-03
       487   -1.827910E-02
       488   -8.963545E-04
       489    5.532681E-03
       490   -1.496477E-02
 Sym= X
 Ene= -0.869657
 Spin= Alpha
 Occup= -0.869657
         1    2.655324E-05
         2    6.073124E-05
         3   -1.625237E-04
         4    2.852019E-04
         5    1.071860E-02
         6    6.327215E-04
         7   -1.389628E-04
         8   -1.756758E-04
         9    1.877543E-01
        10   -7.059932E-04
        11   -2.416467E-05
        12    1.883013E-01
        13    4.044170E-03
        14   -6.829674E-03
        15    1.094774E-01
        16    8.654274E-06
        17   -3.033667E-06
        18   -5.620606E-06
        19   -6.747541E-07
        20   -4.955134E-03
        21   -5.443212E-04
        22    1.281211E-04
        23   -8.004943E-05
        24   -4.807165E-05
        25   -1.757843E-05
        26   -9.576215E-03
        27    4.245718E-04
        28   -9.175364E-04
        29    1.068944E-03
        30   -1.514073E-04
        31   -5.082047E-04
        32   -3.204863E-03
        33   -4.853995E-06
        34   -5.218197E-06
        35   -8.275807E-07
        36   -1.160877E-03
        37    1.271471E-06
        38    1.534755E-08
        39    1.403980E-03
        40    5.729475E-06
        41    1.094969E-06
        42    1.535007E-04
        43    4.381780E-06
        44    1.547468E-08
        45   -1.016466E-07
        46    8.330300E-06
        47   -3.142406E-05
        48   -2.940243E-03
        49   -2.078730E-04
        50   -2.622682E-06
        51    9.983652E-05
        52    9.656534E-06
        53    1.917647E-05
        54    2.716419E-04
        55    4.579437E-06
        56    1.308149E-03
        57   -1.034352E-02
        58   -1.024680E-05
        59    9.027188E-08
        60   -2.596393E-07
        61    1.693674E-07
        62   -1.022588E-05