[Molden Format]
[Title]
ADC(2) - opt by CAM-B3LYP gaussian                                              
[Atoms] AU
 c     1    6 0.12589710753986E+01 0.22825551554713E+01 -.28105798744860E-01
 c     2    6 0.25558923691721E+01 0.80431469000000E-06 -.26811997747980E-01
 c     3    6 0.12589700738438E+01 -.22825573262942E+01 -.28139341383720E-01
 c     4    6 -.13331755585332E+01 -.22837561874501E+01 -.30470167390540E-01
 c     5    6 -.26866009864883E+01 0.27696298600000E-05 -.30311128039200E-01
 c     6    6 -.13331783742251E+01 0.22837572858534E+01 -.30432977580250E-01
 h     7    1 0.22993222678978E+01 0.40366379181686E+01 -.25216785432900E-01
 h     8    1 0.22993197734593E+01 -.40366408826765E+01 -.25273722881290E-01
 h     9    1 -.23520966897676E+01 -.40562070503646E+01 -.33235309154490E-01
 h    10    1 -.23520900190344E+01 0.40562136478709E+01 -.33159965773570E-01
 n    11    7 0.52762255328692E+01 0.25629411000000E-06 -.20783601308720E-01
 o    12    8 0.63803680214636E+01 -.20270720034092E+01 -.18188232540560E-01
 o    13    8 0.63803692875801E+01 0.20270718545932E+01 -.18282964511600E-01
 n    14    7 -.52484248103301E+01 -.66967170000000E-06 -.81289589624650E-01
 h    15    1 -.62019351690707E+01 -.16149791988436E+01 0.21484054874156E+00
 h    16    1 -.62019367942352E+01 0.16149736265137E+01 0.21486103337284E+00
[GTO]
    1 0
 s    6 1.00
 0.13575349682000E+05 0.60645503603591E-03
 0.20352333680000E+04 0.46979088884982E-02
 0.46322562359000E+03 0.24332477647552E-01
 0.13120019598000E+03 0.97399968307759E-01
 0.42853015891000E+02 0.30195584253780E+00
 0.15584185766000E+02 0.66233609137875E+00
 s    2 1.00
 0.62067138508000E+01 0.65595308539952E+00
 0.25764896527000E+01 0.37585633285142E+00
 s    1 1.00
 0.57696339419000E+00 0.10000000000000E+01
 s    1 1.00
 0.22972831358000E+00 0.10000000000000E+01
 s    1 1.00
 0.95164440028000E-01 0.10000000000000E+01
 s    1 1.00
 0.48475401370000E-01 0.10000000000000E+01
 p    4 1.00
 0.34697232244000E+02 0.11327220003114E-01
 0.79582622826000E+01 0.76169659202087E-01
 0.23780826883000E+01 0.30192252202676E+00
 0.81433208183000E+00 0.72785027349547E+00
 p    1 1.00
 0.28887547253000E+00 0.10000000000000E+01
 p    1 1.00
 0.10056823671000E+00 0.10000000000000E+01
 d    1 1.00
 0.10970000000000E+01 0.10000000000000E+01
 d    1 1.00
 0.31800000000000E+00 0.10000000000000E+01
 d    1 1.00
 0.90985336424000E-01 0.10000000000000E+01
 f    1 1.00
 0.76100000000000E+00 0.10000000000000E+01
 
    2 0
 s    6 1.00
 0.13575349682000E+05 0.60645503603591E-03
 0.20352333680000E+04 0.46979088884982E-02
 0.46322562359000E+03 0.24332477647552E-01
 0.13120019598000E+03 0.97399968307759E-01
 0.42853015891000E+02 0.30195584253780E+00
 0.15584185766000E+02 0.66233609137875E+00
 s    2 1.00
 0.62067138508000E+01 0.65595308539952E+00
 0.25764896527000E+01 0.37585633285142E+00
 s    1 1.00
 0.57696339419000E+00 0.10000000000000E+01
 s    1 1.00
 0.22972831358000E+00 0.10000000000000E+01
 s    1 1.00
 0.95164440028000E-01 0.10000000000000E+01
 s    1 1.00
 0.48475401370000E-01 0.10000000000000E+01
 p    4 1.00
 0.34697232244000E+02 0.11327220003114E-01
 0.79582622826000E+01 0.76169659202087E-01
 0.23780826883000E+01 0.30192252202676E+00
 0.81433208183000E+00 0.72785027349547E+00
 p    1 1.00
 0.28887547253000E+00 0.10000000000000E+01
 p    1 1.00
 0.10056823671000E+00 0.10000000000000E+01
 d    1 1.00
 0.10970000000000E+01 0.10000000000000E+01
 d    1 1.00
 0.31800000000000E+00 0.10000000000000E+01
 d    1 1.00
 0.90985336424000E-01 0.10000000000000E+01
 f    1 1.00
 0.76100000000000E+00 0.10000000000000E+01
 
    3 0
 s    6 1.00
 0.13575349682000E+05 0.60645503603591E-03
 0.20352333680000E+04 0.46979088884982E-02
 0.46322562359000E+03 0.24332477647552E-01
 0.13120019598000E+03 0.97399968307759E-01
 0.42853015891000E+02 0.30195584253780E+00
 0.15584185766000E+02 0.66233609137875E+00
 s    2 1.00
 0.62067138508000E+01 0.65595308539952E+00
 0.25764896527000E+01 0.37585633285142E+00
 s    1 1.00
 0.57696339419000E+00 0.10000000000000E+01
 s    1 1.00
 0.22972831358000E+00 0.10000000000000E+01
 s    1 1.00
 0.95164440028000E-01 0.10000000000000E+01
 s    1 1.00
 0.48475401370000E-01 0.10000000000000E+01
 p    4 1.00
 0.34697232244000E+02 0.11327220003114E-01
 0.79582622826000E+01 0.76169659202087E-01
 0.23780826883000E+01 0.30192252202676E+00
 0.81433208183000E+00 0.72785027349547E+00
 p    1 1.00
 0.28887547253000E+00 0.10000000000000E+01
 p    1 1.00
 0.10056823671000E+00 0.10000000000000E+01
 d    1 1.00
 0.10970000000000E+01 0.10000000000000E+01
 d    1 1.00
 0.31800000000000E+00 0.10000000000000E+01
 d    1 1.00
 0.90985336424000E-01 0.10000000000000E+01
 f    1 1.00
 0.76100000000000E+00 0.10000000000000E+01
 
    4 0
 s    6 1.00
 0.13575349682000E+05 0.60645503603591E-03
 0.20352333680000E+04 0.46979088884982E-02
 0.46322562359000E+03 0.24332477647552E-01
 0.13120019598000E+03 0.97399968307759E-01
 0.42853015891000E+02 0.30195584253780E+00
 0.15584185766000E+02 0.66233609137875E+00
 s    2 1.00
 0.62067138508000E+01 0.65595308539952E+00
 0.25764896527000E+01 0.37585633285142E+00
 s    1 1.00
 0.57696339419000E+00 0.10000000000000E+01
 s    1 1.00
 0.22972831358000E+00 0.10000000000000E+01
 s    1 1.00
 0.95164440028000E-01 0.10000000000000E+01
 s    1 1.00
 0.48475401370000E-01 0.10000000000000E+01
 p    4 1.00
 0.34697232244000E+02 0.11327220003114E-01
 0.79582622826000E+01 0.76169659202087E-01
 0.23780826883000E+01 0.30192252202676E+00
 0.81433208183000E+00 0.72785027349547E+00
 p    1 1.00
 0.28887547253000E+00 0.10000000000000E+01
 p    1 1.00
 0.10056823671000E+00 0.10000000000000E+01
 d    1 1.00
 0.10970000000000E+01 0.10000000000000E+01
 d    1 1.00
 0.31800000000000E+00 0.10000000000000E+01
 d    1 1.00
 0.90985336424000E-01 0.10000000000000E+01
 f    1 1.00
 0.76100000000000E+00 0.10000000000000E+01
 
    5 0
 s    6 1.00
 0.13575349682000E+05 0.60645503603591E-03
 0.20352333680000E+04 0.46979088884982E-02
 0.46322562359000E+03 0.24332477647552E-01
 0.13120019598000E+03 0.97399968307759E-01
 0.42853015891000E+02 0.30195584253780E+00
 0.15584185766000E+02 0.66233609137875E+00
 s    2 1.00
 0.62067138508000E+01 0.65595308539952E+00
 0.25764896527000E+01 0.37585633285142E+00
 s    1 1.00
 0.57696339419000E+00 0.10000000000000E+01
 s    1 1.00
 0.22972831358000E+00 0.10000000000000E+01
 s    1 1.00
 0.95164440028000E-01 0.10000000000000E+01
 s    1 1.00
 0.48475401370000E-01 0.10000000000000E+01
 p    4 1.00
 0.34697232244000E+02 0.11327220003114E-01
 0.79582622826000E+01 0.76169659202087E-01
 0.23780826883000E+01 0.30192252202676E+00
 0.81433208183000E+00 0.72785027349547E+00
 p    1 1.00
 0.28887547253000E+00 0.10000000000000E+01
 p    1 1.00
 0.10056823671000E+00 0.10000000000000E+01
 d    1 1.00
 0.10970000000000E+01 0.10000000000000E+01
 d    1 1.00
 0.31800000000000E+00 0.10000000000000E+01
 d    1 1.00
 0.90985336424000E-01 0.10000000000000E+01
 f    1 1.00
 0.76100000000000E+00 0.10000000000000E+01
 
    6 0
 s    6 1.00
 0.13575349682000E+05 0.60645503603591E-03
 0.20352333680000E+04 0.46979088884982E-02
 0.46322562359000E+03 0.24332477647552E-01
 0.13120019598000E+03 0.97399968307759E-01
 0.42853015891000E+02 0.30195584253780E+00
 0.15584185766000E+02 0.66233609137875E+00
 s    2 1.00
 0.62067138508000E+01 0.65595308539952E+00
 0.25764896527000E+01 0.37585633285142E+00
 s    1 1.00
 0.57696339419000E+00 0.10000000000000E+01
 s    1 1.00
 0.22972831358000E+00 0.10000000000000E+01
 s    1 1.00
 0.95164440028000E-01 0.10000000000000E+01
 s    1 1.00
 0.48475401370000E-01 0.10000000000000E+01
 p    4 1.00
 0.34697232244000E+02 0.11327220003114E-01
 0.79582622826000E+01 0.76169659202087E-01
 0.23780826883000E+01 0.30192252202676E+00
 0.81433208183000E+00 0.72785027349547E+00
 p    1 1.00
 0.28887547253000E+00 0.10000000000000E+01
 p    1 1.00
 0.10056823671000E+00 0.10000000000000E+01
 d    1 1.00
 0.10970000000000E+01 0.10000000000000E+01
 d    1 1.00
 0.31800000000000E+00 0.10000000000000E+01
 d    1 1.00
 0.90985336424000E-01 0.10000000000000E+01
 f    1 1.00
 0.76100000000000E+00 0.10000000000000E+01
 
    7 0
 s    3 1.00
 0.34061341000000E+02 0.25439307208879E-01
 0.51235746000000E+01 0.19008594890375E+00
 0.11646626000000E+01 0.85244113011042E+00
 s    1 1.00
 0.32723041000000E+00 0.10000000000000E+01
 s    1 1.00
 0.10307241000000E+00 0.10000000000000E+01
 p    1 1.00
 0.80000000000000E+00 0.10000000000000E+01
 p    1 1.00
 0.95774129632000E-01 0.10000000000000E+01
 
    8 0
 s    3 1.00
 0.34061341000000E+02 0.25439307208879E-01
 0.51235746000000E+01 0.19008594890375E+00
 0.11646626000000E+01 0.85244113011042E+00
 s    1 1.00
 0.32723041000000E+00 0.10000000000000E+01
 s    1 1.00
 0.10307241000000E+00 0.10000000000000E+01
 p    1 1.00
 0.80000000000000E+00 0.10000000000000E+01
 p    1 1.00
 0.95774129632000E-01 0.10000000000000E+01
 
    9 0
 s    3 1.00
 0.34061341000000E+02 0.25439307208879E-01
 0.51235746000000E+01 0.19008594890375E+00
 0.11646626000000E+01 0.85244113011042E+00
 s    1 1.00
 0.32723041000000E+00 0.10000000000000E+01
 s    1 1.00
 0.10307241000000E+00 0.10000000000000E+01
 p    1 1.00
 0.80000000000000E+00 0.10000000000000E+01
 p    1 1.00
 0.95774129632000E-01 0.10000000000000E+01
 
   10 0
 s    3 1.00
 0.34061341000000E+02 0.25439307208879E-01
 0.51235746000000E+01 0.19008594890375E+00
 0.11646626000000E+01 0.85244113011042E+00
 s    1 1.00
 0.32723041000000E+00 0.10000000000000E+01
 s    1 1.00
 0.10307241000000E+00 0.10000000000000E+01
 p    1 1.00
 0.80000000000000E+00 0.10000000000000E+01
 p    1 1.00
 0.95774129632000E-01 0.10000000000000E+01
 
   11 0
 s    6 1.00
 0.19730800647000E+05 0.58626402628763E-03
 0.29578958745000E+04 0.45428820586397E-02
 0.67322133595000E+03 0.23558413450084E-01
 0.19068249494000E+03 0.94709193292923E-01
 0.62295441898000E+02 0.29719784913376E+00
 0.22654161182000E+02 0.66916246895232E+00
 s    2 1.00
 0.89791477428000E+01 0.64596683630063E+00
 0.36863002370000E+01 0.38700574393705E+00
 s    1 1.00
 0.84660076805000E+00 0.10000000000000E+01
 s    1 1.00
 0.33647133771000E+00 0.10000000000000E+01
 s    1 1.00
 0.13647653675000E+00 0.10000000000000E+01
 s    1 1.00
 0.68441605847000E-01 0.10000000000000E+01
 p    4 1.00
 0.49200380510000E+02 0.11448825101764E-01
 0.11346790537000E+02 0.78422337970864E-01
 0.34273972411000E+01 0.30818094738830E+00
 0.11785525134000E+01 0.72027196368413E+00
 p    1 1.00
 0.41642204972000E+00 0.10000000000000E+01
 p    1 1.00
 0.14260826011000E+00 0.10000000000000E+01
 d    1 1.00
 0.16540000000000E+01 0.10000000000000E+01
 d    1 1.00
 0.46900000000000E+00 0.10000000000000E+01
 d    1 1.00
 0.12829642058000E+00 0.10000000000000E+01
 f    1 1.00
 0.10930000000000E+01 0.10000000000000E+01
 
   12 0
 s    6 1.00
 0.27032382631000E+05 0.57227335211155E-03
 0.40523871392000E+04 0.44353233492995E-02
 0.92232722710000E+03 0.23020107706038E-01
 0.26124070989000E+03 0.92822490667928E-01
 0.85354641351000E+02 0.29378500009671E+00
 0.31035035245000E+02 0.67401604501641E+00
 s    2 1.00
 0.12260860728000E+02 0.63839937025506E+00
 0.49987076005000E+01 0.39534587125718E+00
 s    1 1.00
 0.11703108158000E+01 0.10000000000000E+01
 s    1 1.00
 0.46474740994000E+00 0.10000000000000E+01
 s    1 1.00
 0.18504536357000E+00 0.10000000000000E+01
 s    1 1.00
 0.70288026270000E-01 0.10000000000000E+01
 p    4 1.00
 0.63274954801000E+02 0.12018332222616E-01
 0.14627049379000E+02 0.83005421790056E-01
 0.44501223456000E+01 0.31991743925964E+00
 0.15275799647000E+01 0.70715542916104E+00
 p    1 1.00
 0.52935117943000E+00 0.10000000000000E+01
 p    1 1.00
 0.17478421270000E+00 0.10000000000000E+01
 p    1 1.00
 0.51112745706000E-01 0.10000000000000E+01
 d    1 1.00
 0.23140000000000E+01 0.10000000000000E+01
 d    1 1.00
 0.64500000000000E+00 0.10000000000000E+01
 d    1 1.00
 0.14696477366000E+00 0.10000000000000E+01
 f    1 1.00
 0.14280000000000E+01 0.10000000000000E+01
 
   13 0
 s    6 1.00
 0.27032382631000E+05 0.57227335211155E-03
 0.40523871392000E+04 0.44353233492995E-02
 0.92232722710000E+03 0.23020107706038E-01
 0.26124070989000E+03 0.92822490667928E-01
 0.85354641351000E+02 0.29378500009671E+00
 0.31035035245000E+02 0.67401604501641E+00
 s    2 1.00
 0.12260860728000E+02 0.63839937025506E+00
 0.49987076005000E+01 0.39534587125718E+00
 s    1 1.00
 0.11703108158000E+01 0.10000000000000E+01
 s    1 1.00
 0.46474740994000E+00 0.10000000000000E+01
 s    1 1.00
 0.18504536357000E+00 0.10000000000000E+01
 s    1 1.00
 0.70288026270000E-01 0.10000000000000E+01
 p    4 1.00
 0.63274954801000E+02 0.12018332222616E-01
 0.14627049379000E+02 0.83005421790056E-01
 0.44501223456000E+01 0.31991743925964E+00
 0.15275799647000E+01 0.70715542916104E+00
 p    1 1.00
 0.52935117943000E+00 0.10000000000000E+01
 p    1 1.00
 0.17478421270000E+00 0.10000000000000E+01
 p    1 1.00
 0.51112745706000E-01 0.10000000000000E+01
 d    1 1.00
 0.23140000000000E+01 0.10000000000000E+01
 d    1 1.00
 0.64500000000000E+00 0.10000000000000E+01
 d    1 1.00
 0.14696477366000E+00 0.10000000000000E+01
 f    1 1.00
 0.14280000000000E+01 0.10000000000000E+01
 
   14 0
 s    6 1.00
 0.19730800647000E+05 0.58626402628763E-03
 0.29578958745000E+04 0.45428820586397E-02
 0.67322133595000E+03 0.23558413450084E-01
 0.19068249494000E+03 0.94709193292923E-01
 0.62295441898000E+02 0.29719784913376E+00
 0.22654161182000E+02 0.66916246895232E+00
 s    2 1.00
 0.89791477428000E+01 0.64596683630063E+00
 0.36863002370000E+01 0.38700574393705E+00
 s    1 1.00
 0.84660076805000E+00 0.10000000000000E+01
 s    1 1.00
 0.33647133771000E+00 0.10000000000000E+01
 s    1 1.00
 0.13647653675000E+00 0.10000000000000E+01
 s    1 1.00
 0.68441605847000E-01 0.10000000000000E+01
 p    4 1.00
 0.49200380510000E+02 0.11448825101764E-01
 0.11346790537000E+02 0.78422337970864E-01
 0.34273972411000E+01 0.30818094738830E+00
 0.11785525134000E+01 0.72027196368413E+00
 p    1 1.00
 0.41642204972000E+00 0.10000000000000E+01
 p    1 1.00
 0.14260826011000E+00 0.10000000000000E+01
 d    1 1.00
 0.16540000000000E+01 0.10000000000000E+01
 d    1 1.00
 0.46900000000000E+00 0.10000000000000E+01
 d    1 1.00
 0.12829642058000E+00 0.10000000000000E+01
 f    1 1.00
 0.10930000000000E+01 0.10000000000000E+01
 
   15 0
 s    3 1.00
 0.34061341000000E+02 0.25439307208879E-01
 0.51235746000000E+01 0.19008594890375E+00
 0.11646626000000E+01 0.85244113011042E+00
 s    1 1.00
 0.32723041000000E+00 0.10000000000000E+01
 s    1 1.00
 0.10307241000000E+00 0.10000000000000E+01
 p    1 1.00
 0.80000000000000E+00 0.10000000000000E+01
 p    1 1.00
 0.95774129632000E-01 0.10000000000000E+01
 
   16 0
 s    3 1.00
 0.34061341000000E+02 0.25439307208879E-01
 0.51235746000000E+01 0.19008594890375E+00
 0.11646626000000E+01 0.85244113011042E+00
 s    1 1.00
 0.32723041000000E+00 0.10000000000000E+01
 s    1 1.00
 0.10307241000000E+00 0.10000000000000E+01
 p    1 1.00
 0.80000000000000E+00 0.10000000000000E+01
 p    1 1.00
 0.95774129632000E-01 0.10000000000000E+01
 
[MO]
 Sym= X
 Ene= -0.949507
 Spin= Alpha
 Occup= -0.949507
         1    2.003995E-04
         2    4.663832E-04
         3   -1.315093E-03
         4    2.942777E-03
         5    6.139681E-03
         6    1.221192E-02
         7    2.116279E-03
         8    1.977887E-04
         9   -1.613712E-02
        10   -2.413897E-03
        11    4.344768E-04
        12   -1.447506E-02
        13   -3.706398E-02
        14    1.165465E-02
        15   -3.005850E-03
        16   -1.617766E-05
        17    2.801607E-05
        18   -1.183841E-05
        19    1.474432E-05
        20   -6.353622E-03
        21    3.561387E-03
        22    7.059541E-04
        23   -4.176057E-04
        24   -2.883484E-04
        25    7.661135E-04
        26   -1.427764E-02
        27    6.787887E-03
        28    5.255609E-03
        29   -4.961615E-03
        30   -2.939941E-04
        31   -1.231583E-03
        32    2.281405E-03
        33   -9.977315E-03
        34   -2.085190E-05
        35    6.883004E-06
        36    2.388210E-05
        37    9.084795E-06
        38   -6.601293E-06
        39    7.575388E-04
        40    1.889096E-05
        41   -2.633225E-06
        42   -7.895800E-04
        43    6.712692E-04
        44   -3.322856E-05
        45   -7.276827E-05
        46   -1.349191E-04
        47    3.070623E-03
        48    5.486077E-02
        49   -6.127323E-03
        50    1.231728E-04
        51    3.241574E-06
        52   -1.901007E-01
        53   -6.906876E-04
        54    1.368773E-05
        55   -1.975881E-01
        56   -1.747063E-02
        57   -6.988015E-04
        58   -1.937500E-01
        59   -6.012169E-05
        60    5.721545E-05
        61    2.906234E-06
        62   -1.285772E-07
        63   -9.514453E-04
        64    6.775837E-07
        65   -4.292666E-04
        66    6.984894E-04
        67   -2.692228E-04
        68   -3.150823E-06
        69   -3.704178E-03
        70    1.187484E-06
        71   -1.006136E-02
        72    1.133432E-02
        73   -1.272957E-03
        74    1.061561E-04
        75    4.371231E-03
        76   -3.737178E-06
        77    6.440395E-06
        78    2.872443E-08
        79    1.041309E-03
        80   -6.670454E-06
        81    3.351791E-08
        82   -6.429264E-04
        83   -1.970243E-06
        84   -7.205577E-08
        85   -7.541357E-04
        86   -8.990710E-08
        87    2.007517E-04
        88    4.671327E-04
        89   -1.314986E-03
        90    2.943343E-03
        91    3.942403E-03
        92    1.219464E-02
        93    2.118841E-03
        94   -2.013837E-04
        95   -1.617199E-02
        96   -2.372127E-03
        97   -4.336431E-04
        98   -1.450937E-02
        99   -3.712332E-02
       100   -1.236143E-02
       101   -3.052362E-03
       102   -1.633462E-05
       103    2.812561E-05
       104   -1.179099E-05
       105   -1.500659E-05
       106   -6.352957E-03
       107   -3.561547E-03
       108    6.968785E-04
       109   -4.099309E-04
       110   -2.869475E-04
       111   -7.647119E-04
       112   -1.427560E-02
       113   -6.787255E-03
       114    5.332982E-03
       115   -5.056075E-03
       116   -2.769065E-04
       117    1.152372E-03
       118    2.286780E-03
       119    9.978906E-03
       120   -2.079024E-05
       121   -6.857667E-06
       122    2.404992E-05
       123    9.180070E-06
       124    6.533524E-06
       125    7.573493E-04
       126    1.871296E-05
       127    2.667002E-06
       128   -7.896157E-04
       129   -6.712204E-04
       130   -1.280519E-04
       131   -2.764659E-04
       132   -5.990426E-04
       133    1.102756E-02
       134   -2.733653E-02
       135   -1.394843E-02
       136   -1.789094E-03
       137    7.191379E-04
       138    1.612454E-01
       139   -1.009624E-02
       140    6.620863E-03
       141    1.638343E-01
       142   -2.392924E-02
       143   -7.868749E-03
       144    9.796021E-02
       145   -1.688091E-04
       146    1.996811E-04
       147   -3.087201E-05
       148    2.915498E-06
       149   -7.441078E-04
       150    3.171519E-03
       151   -7.003744E-04
       152    8.228147E-04
       153   -1.224403E-04
       154   -1.813777E-03
       155   -3.977322E-03
       156    5.309892E-03
       157   -8.903458E-03
       158    7.006983E-03
       159    1.896475E-03
       160    9.814289E-03
       161    3.571859E-03
       162   -1.208112E-02
       163   -1.761607E-05
       164    1.016531E-05
       165   -9.374446E-04
       166   -2.013238E-05
       167    1.836173E-05
       168    2.730698E-04
       169    4.376681E-05
       170   -3.199993E-05
       171    9.846441E-04
       172   -3.505833E-04
       173    1.166487E-03
       174    2.660861E-03
       175   -2.712093E-03
       176   -2.327537E-02
       177    2.122792E-02
       178   -9.232156E-03
       179    9.816543E-03
       180   -2.842859E-06
       181    1.218460E-01
       182    5.934816E-04
       183   -7.278721E-06
       184    1.243929E-01
       185   -3.109649E-02
       186    9.484106E-04
       187    1.345237E-01
       188   -5.376867E-04
       189    3.066122E-04
       190    2.310745E-04
       191   -3.426417E-07
       192    9.991311E-03
       193    7.608593E-07
       194    1.959003E-03
       195   -4.351163E-03
       196    2.392160E-03
       197   -7.317276E-07
       198    2.476584E-02
       199    3.142514E-09
       200    6.201456E-03
       201   -7.489078E-03
       202    1.287622E-03
       203    1.297418E-04
       204    1.867330E-02
       205   -8.720031E-06
       206    1.243253E-04
       207    3.005483E-08
       208   -4.070449E-04
       209   -8.723275E-05
       210   -4.655177E-08
       211   -9.901644E-04
       212   -7.956717E-05
       213    6.228980E-09
       214    1.536272E-03
       215    5.665988E-08
       216   -1.288573E-04
       217   -2.781144E-04
       218   -5.954635E-04
       219    1.103831E-02
       220   -2.980113E-02
       221   -1.395587E-02
       222   -1.788094E-03
       223   -7.125795E-04
       224    1.612778E-01
       225   -1.011863E-02
       226   -6.620519E-03
       227    1.638698E-01
       228   -2.377319E-02
       229    8.855190E-03
       230    9.796304E-02
       231   -1.686168E-04
       232    2.001217E-04
       233   -3.150493E-05
       234   -3.368346E-06
       235   -7.434454E-04
       236   -3.171656E-03
       237   -7.075618E-04
       238    8.274495E-04
       239   -1.198878E-04
       240    1.814824E-03
       241   -3.973978E-03
       242   -5.310153E-03
       243   -8.866450E-03
       244    6.962133E-03
       245    1.904318E-03
       246   -9.917430E-03
       247    3.565116E-03
       248    1.208460E-02
       249   -1.783120E-05
       250   -1.022383E-05
       251   -9.377767E-04
       252   -2.008893E-05
       253   -1.828071E-05
       254    2.734406E-04
       255    4.401200E-05
       256    3.199742E-05
       257    9.847189E-04
       258    3.505720E-04
       259    4.714184E-04
       260    3.472171E-04
       261    1.854593E-02
       262   -1.199300E-05
       263   -1.134454E-05
       264   -6.863567E-04
       265   -5.703051E-03
       266   -3.308145E-04
       267    6.057191E-03
       268    4.741652E-04
       269    3.401630E-04
       270    1.849111E-02
       271   -1.129720E-05
       272    1.029626E-05
       273   -6.877981E-04
       274   -5.774918E-03
       275    2.999681E-04
       276    6.056913E-03
       277    5.460373E-04
       278    2.702360E-03
       279   -3.725308E-02
       280   -1.267639E-05
       281    1.245327E-04
       282    6.503321E-03
       283   -1.805149E-03
       284   -2.973559E-03
       285   -1.410233E-03
       286    5.513865E-04
       287    2.707998E-03
       288   -3.760548E-02
       289   -1.216554E-05
       290   -1.246758E-04
       291    6.505107E-03
       292   -1.817178E-03
       293    3.016846E-03
       294   -1.412093E-03
       295    6.327337E-05
       296    1.476442E-04
       297   -1.493340E-04
       298   -5.322504E-04
       299    6.997576E-03
       300   -9.722366E-04
       301    7.737354E-04
       302   -1.339830E-06
       303   -2.550029E-02
       304    4.194032E-04
       305   -6.671182E-07
       306   -2.751231E-02
       307   -3.132907E-03
       308    3.942998E-05
       309   -9.258421E-03
       310   -3.371663E-05
       311    2.239260E-05
       312    1.132403E-05
       313   -1.214207E-07
       314    4.055684E-03
       315    5.544942E-08
       316   -3.933142E-05
       317   -2.356379E-05
       318    6.289521E-05
       319    1.579803E-07
       320    1.233392E-02
       321    8.826305E-08
       322    1.046028E-03
       323   -3.039699E-03
       324    1.993671E-03
       325   -2.405680E-05
       326    2.942361E-03
       327    2.224841E-06
       328    7.308867E-06
       329    3.521328E-08
       330    4.072861E-05
       331   -4.378767E-06
       332   -6.851766E-09
       333   -6.699910E-04
       334   -5.427108E-06
       335   -4.039181E-08
       336    6.153478E-04
       337   -7.173148E-09
       338    1.528779E-05
       339    3.346522E-05
       340   -2.990094E-06
       341   -5.822647E-04
       342    6.348277E-03
       343    1.054785E-03
       344   -5.371386E-04
       345    1.170437E-04
       346    6.904030E-02
       347   -5.942976E-04
       348    2.491036E-04
       349    6.414817E-02
       350   -1.743132E-03
       351    5.344389E-04
       352    5.341704E-02
       353   -2.117981E-04
       354    2.269894E-04
       355    6.744938E-03
       356   -4.006669E-06
       357    6.089684E-06
       358   -2.083016E-06
       359   -2.995652E-06
       360    6.129732E-05
       361    3.494218E-04
       362    1.425075E-05
       363    1.313692E-05
       364   -2.738768E-05
       365   -1.661091E-05
       366   -3.230752E-04
       367    1.206182E-03
       368    8.366998E-05
       369   -5.216827E-05
       370   -3.150172E-05
       371   -8.760133E-05
       372   -1.304028E-04
       373    1.518926E-04
       374    1.195506E-06
       375    1.693111E-06
       376   -4.123932E-05
       377   -2.229213E-06
       378    1.767153E-08
       379   -7.867671E-05
       380    6.252745E-07
       381   -2.289218E-06
       382    1.340051E-04
       383   -1.017168E-04
       384    1.531280E-05
       385    3.357284E-05
       386   -3.683981E-06
       387   -5.780613E-04
       388    6.334523E-03
       389    1.027291E-03
       390   -5.377081E-04
       391   -1.095897E-04
       392    6.904165E-02
       393   -5.945152E-04
       394   -2.423078E-04
       395    6.414969E-02
       396   -1.716547E-03
       397   -5.218403E-04
       398    5.341423E-02
       399   -1.980623E-04
       400   -2.303891E-04
       401    6.747196E-03
       402   -3.947123E-06
       403    5.993533E-06
       404   -2.046410E-06
       405    3.019261E-06
       406    6.125644E-05
       407   -3.494319E-04
       408    1.418487E-05
       409    1.283790E-05
       410   -2.702277E-05
       411    1.613442E-05
       412   -3.230652E-04
       413   -1.206256E-03
       414    8.394130E-05
       415   -5.396068E-05
       416   -2.998062E-05
       417    8.625655E-05
       418   -1.310507E-04
       419   -1.511617E-04
       420    1.181575E-06
       421   -1.660479E-06
       422   -4.124640E-05
       423   -2.190333E-06
       424   -3.275703E-08
       425   -7.867090E-05
       426    6.050838E-07
       427    2.260524E-06
       428    1.340087E-04
       429    1.017246E-04
       430   -5.046083E-03
       431   -1.200296E-02
       432    1.877807E-02
       433    2.948118E-02
       434    2.173268E-02
       435    7.394979E-02
       436   -1.853847E-02
       437    9.199354E-06
       438   -2.501512E-01
       439   -2.123295E-02
       440    2.704744E-06
       441   -2.471838E-01
       442   -2.032837E-02
       443   -1.070478E-04
       444   -2.035406E-01
       445    1.092883E-04
       446    7.072189E-06
       447   -1.163605E-04
       448   -2.368003E-07
       449    9.153492E-04
       450    2.636122E-07
       451    2.403638E-04
       452    1.643264E-03
       453   -1.883628E-03
       454    3.447640E-06
       455    3.947449E-03
       456    1.249615E-06
       457    2.056098E-03
       458    3.389444E-03
       459   -5.445542E-03
       460   -1.130212E-06
       461    2.426958E-03
       462    6.903129E-06
       463   -1.570797E-04
       464    3.178999E-08
       465    9.663676E-04
       466   -8.764800E-05
       467    9.984781E-09
       468   -4.939857E-04
       469    2.983926E-04
       470   -5.263553E-08
       471   -8.025324E-04
       472    1.913431E-08
       473   -1.046356E-02
       474   -1.968664E-02
       475   -3.320390E-02
       476   -2.435750E-03
       477   -2.071729E-03
       478   -1.267824E-02
       479    1.340540E-03
       480   -3.822757E-03
       481   -1.488743E-02
       482   -1.045824E-02
       483   -1.962260E-02
       484   -3.302966E-02
       485   -2.432148E-03
       486    2.065965E-03
       487   -1.268105E-02
       488    1.360384E-03
       489    3.792160E-03
       490   -1.489711E-02
 Sym= X
 Ene= 0.949507
 Spin= Alpha
 Occup= 0.949507
         1   -1.190309E-02
         2   -2.655205E-02
         3    1.302012E-02
         4    3.913851E-01
         5    5.418426E+00
         6   -6.496763E+00
         7    5.451128E-03
         8    1.629334E-02
         9    5.035750E-04
        10   -7.232374E-02
        11   -5.587280E-03
        12   -2.183739E-03
        13    7.144136E-01
        14    5.895428E-01
        15   -3.144320E-02
        16    1.517389E-03
        17    5.535708E-04
        18   -2.070960E-03
        19    2.195896E-04
        20   -1.893748E-04
        21   -2.366406E-05
        22    2.886067E-02
        23   -1.279408E-02
        24   -1.606659E-02
        25   -1.190191E-02
        26    6.509607E-04
        27    1.057765E-04
        28   -7.824414E-02
        29   -8.339525E-02
        30    1.616394E-01
        31    1.328814E+00
        32   -8.345747E-03
        33    1.987579E-02
        34   -7.489846E-04
        35   -9.476837E-05
        36   -2.851014E-05
        37    6.544385E-04
        38   -4.254283E-05
        39    1.942342E-05
        40    3.504298E-04
        41    1.696879E-04
        42    1.882695E-05
        43   -2.102320E-06
        44   -3.579426E-03
        45   -7.238808E-03
        46   -8.151321E-03
        47    2.227615E-01
        48    7.560553E+00
        49    4.829937E+00
        50    5.628485E-03
        51   -5.989237E-06
        52   -1.189973E-03
        53    6.591780E-02
        54    2.592500E-05
        55   -3.458886E-03
        56    2.057145E+00
        57    3.738824E-03
        58    7.840935E-02
        59    1.027766E-03
        60    2.051333E-03
        61   -3.079100E-03
        62   -2.852439E-07