[Molden Format]
[Title]
ADC(2) - opt by CAM-B3LYP gaussian                                              
[Atoms] AU
 c     1    6 0.12589710753986E+01 0.22825551554713E+01 -.28105798744860E-01
 c     2    6 0.25558923691721E+01 0.80431469000000E-06 -.26811997747980E-01
 c     3    6 0.12589700738438E+01 -.22825573262942E+01 -.28139341383720E-01
 c     4    6 -.13331755585332E+01 -.22837561874501E+01 -.30470167390540E-01
 c     5    6 -.26866009864883E+01 0.27696298600000E-05 -.30311128039200E-01
 c     6    6 -.13331783742251E+01 0.22837572858534E+01 -.30432977580250E-01
 h     7    1 0.22993222678978E+01 0.40366379181686E+01 -.25216785432900E-01
 h     8    1 0.22993197734593E+01 -.40366408826765E+01 -.25273722881290E-01
 h     9    1 -.23520966897676E+01 -.40562070503646E+01 -.33235309154490E-01
 h    10    1 -.23520900190344E+01 0.40562136478709E+01 -.33159965773570E-01
 n    11    7 0.52762255328692E+01 0.25629411000000E-06 -.20783601308720E-01
 o    12    8 0.63803680214636E+01 -.20270720034092E+01 -.18188232540560E-01
 o    13    8 0.63803692875801E+01 0.20270718545932E+01 -.18282964511600E-01
 n    14    7 -.52484248103301E+01 -.66967170000000E-06 -.81289589624650E-01
 h    15    1 -.62019351690707E+01 -.16149791988436E+01 0.21484054874156E+00
 h    16    1 -.62019367942352E+01 0.16149736265137E+01 0.21486103337284E+00
[GTO]
    1 0
 s    6 1.00
 0.13575349682000E+05 0.60645503603591E-03
 0.20352333680000E+04 0.46979088884982E-02
 0.46322562359000E+03 0.24332477647552E-01
 0.13120019598000E+03 0.97399968307759E-01
 0.42853015891000E+02 0.30195584253780E+00
 0.15584185766000E+02 0.66233609137875E+00
 s    2 1.00
 0.62067138508000E+01 0.65595308539952E+00
 0.25764896527000E+01 0.37585633285142E+00
 s    1 1.00
 0.57696339419000E+00 0.10000000000000E+01
 s    1 1.00
 0.22972831358000E+00 0.10000000000000E+01
 s    1 1.00
 0.95164440028000E-01 0.10000000000000E+01
 s    1 1.00
 0.48475401370000E-01 0.10000000000000E+01
 p    4 1.00
 0.34697232244000E+02 0.11327220003114E-01
 0.79582622826000E+01 0.76169659202087E-01
 0.23780826883000E+01 0.30192252202676E+00
 0.81433208183000E+00 0.72785027349547E+00
 p    1 1.00
 0.28887547253000E+00 0.10000000000000E+01
 p    1 1.00
 0.10056823671000E+00 0.10000000000000E+01
 d    1 1.00
 0.10970000000000E+01 0.10000000000000E+01
 d    1 1.00
 0.31800000000000E+00 0.10000000000000E+01
 d    1 1.00
 0.90985336424000E-01 0.10000000000000E+01
 f    1 1.00
 0.76100000000000E+00 0.10000000000000E+01
 
    2 0
 s    6 1.00
 0.13575349682000E+05 0.60645503603591E-03
 0.20352333680000E+04 0.46979088884982E-02
 0.46322562359000E+03 0.24332477647552E-01
 0.13120019598000E+03 0.97399968307759E-01
 0.42853015891000E+02 0.30195584253780E+00
 0.15584185766000E+02 0.66233609137875E+00
 s    2 1.00
 0.62067138508000E+01 0.65595308539952E+00
 0.25764896527000E+01 0.37585633285142E+00
 s    1 1.00
 0.57696339419000E+00 0.10000000000000E+01
 s    1 1.00
 0.22972831358000E+00 0.10000000000000E+01
 s    1 1.00
 0.95164440028000E-01 0.10000000000000E+01
 s    1 1.00
 0.48475401370000E-01 0.10000000000000E+01
 p    4 1.00
 0.34697232244000E+02 0.11327220003114E-01
 0.79582622826000E+01 0.76169659202087E-01
 0.23780826883000E+01 0.30192252202676E+00
 0.81433208183000E+00 0.72785027349547E+00
 p    1 1.00
 0.28887547253000E+00 0.10000000000000E+01
 p    1 1.00
 0.10056823671000E+00 0.10000000000000E+01
 d    1 1.00
 0.10970000000000E+01 0.10000000000000E+01
 d    1 1.00
 0.31800000000000E+00 0.10000000000000E+01
 d    1 1.00
 0.90985336424000E-01 0.10000000000000E+01
 f    1 1.00
 0.76100000000000E+00 0.10000000000000E+01
 
    3 0
 s    6 1.00
 0.13575349682000E+05 0.60645503603591E-03
 0.20352333680000E+04 0.46979088884982E-02
 0.46322562359000E+03 0.24332477647552E-01
 0.13120019598000E+03 0.97399968307759E-01
 0.42853015891000E+02 0.30195584253780E+00
 0.15584185766000E+02 0.66233609137875E+00
 s    2 1.00
 0.62067138508000E+01 0.65595308539952E+00
 0.25764896527000E+01 0.37585633285142E+00
 s    1 1.00
 0.57696339419000E+00 0.10000000000000E+01
 s    1 1.00
 0.22972831358000E+00 0.10000000000000E+01
 s    1 1.00
 0.95164440028000E-01 0.10000000000000E+01
 s    1 1.00
 0.48475401370000E-01 0.10000000000000E+01
 p    4 1.00
 0.34697232244000E+02 0.11327220003114E-01
 0.79582622826000E+01 0.76169659202087E-01
 0.23780826883000E+01 0.30192252202676E+00
 0.81433208183000E+00 0.72785027349547E+00
 p    1 1.00
 0.28887547253000E+00 0.10000000000000E+01
 p    1 1.00
 0.10056823671000E+00 0.10000000000000E+01
 d    1 1.00
 0.10970000000000E+01 0.10000000000000E+01
 d    1 1.00
 0.31800000000000E+00 0.10000000000000E+01
 d    1 1.00
 0.90985336424000E-01 0.10000000000000E+01
 f    1 1.00
 0.76100000000000E+00 0.10000000000000E+01
 
    4 0
 s    6 1.00
 0.13575349682000E+05 0.60645503603591E-03
 0.20352333680000E+04 0.46979088884982E-02
 0.46322562359000E+03 0.24332477647552E-01
 0.13120019598000E+03 0.97399968307759E-01
 0.42853015891000E+02 0.30195584253780E+00
 0.15584185766000E+02 0.66233609137875E+00
 s    2 1.00
 0.62067138508000E+01 0.65595308539952E+00
 0.25764896527000E+01 0.37585633285142E+00
 s    1 1.00
 0.57696339419000E+00 0.10000000000000E+01
 s    1 1.00
 0.22972831358000E+00 0.10000000000000E+01
 s    1 1.00
 0.95164440028000E-01 0.10000000000000E+01
 s    1 1.00
 0.48475401370000E-01 0.10000000000000E+01
 p    4 1.00
 0.34697232244000E+02 0.11327220003114E-01
 0.79582622826000E+01 0.76169659202087E-01
 0.23780826883000E+01 0.30192252202676E+00
 0.81433208183000E+00 0.72785027349547E+00
 p    1 1.00
 0.28887547253000E+00 0.10000000000000E+01
 p    1 1.00
 0.10056823671000E+00 0.10000000000000E+01
 d    1 1.00
 0.10970000000000E+01 0.10000000000000E+01
 d    1 1.00
 0.31800000000000E+00 0.10000000000000E+01
 d    1 1.00
 0.90985336424000E-01 0.10000000000000E+01
 f    1 1.00
 0.76100000000000E+00 0.10000000000000E+01
 
    5 0
 s    6 1.00
 0.13575349682000E+05 0.60645503603591E-03
 0.20352333680000E+04 0.46979088884982E-02
 0.46322562359000E+03 0.24332477647552E-01
 0.13120019598000E+03 0.97399968307759E-01
 0.42853015891000E+02 0.30195584253780E+00
 0.15584185766000E+02 0.66233609137875E+00
 s    2 1.00
 0.62067138508000E+01 0.65595308539952E+00
 0.25764896527000E+01 0.37585633285142E+00
 s    1 1.00
 0.57696339419000E+00 0.10000000000000E+01
 s    1 1.00
 0.22972831358000E+00 0.10000000000000E+01
 s    1 1.00
 0.95164440028000E-01 0.10000000000000E+01
 s    1 1.00
 0.48475401370000E-01 0.10000000000000E+01
 p    4 1.00
 0.34697232244000E+02 0.11327220003114E-01
 0.79582622826000E+01 0.76169659202087E-01
 0.23780826883000E+01 0.30192252202676E+00
 0.81433208183000E+00 0.72785027349547E+00
 p    1 1.00
 0.28887547253000E+00 0.10000000000000E+01
 p    1 1.00
 0.10056823671000E+00 0.10000000000000E+01
 d    1 1.00
 0.10970000000000E+01 0.10000000000000E+01
 d    1 1.00
 0.31800000000000E+00 0.10000000000000E+01
 d    1 1.00
 0.90985336424000E-01 0.10000000000000E+01
 f    1 1.00
 0.76100000000000E+00 0.10000000000000E+01
 
    6 0
 s    6 1.00
 0.13575349682000E+05 0.60645503603591E-03
 0.20352333680000E+04 0.46979088884982E-02
 0.46322562359000E+03 0.24332477647552E-01
 0.13120019598000E+03 0.97399968307759E-01
 0.42853015891000E+02 0.30195584253780E+00
 0.15584185766000E+02 0.66233609137875E+00
 s    2 1.00
 0.62067138508000E+01 0.65595308539952E+00
 0.25764896527000E+01 0.37585633285142E+00
 s    1 1.00
 0.57696339419000E+00 0.10000000000000E+01
 s    1 1.00
 0.22972831358000E+00 0.10000000000000E+01
 s    1 1.00
 0.95164440028000E-01 0.10000000000000E+01
 s    1 1.00
 0.48475401370000E-01 0.10000000000000E+01
 p    4 1.00
 0.34697232244000E+02 0.11327220003114E-01
 0.79582622826000E+01 0.76169659202087E-01
 0.23780826883000E+01 0.30192252202676E+00
 0.81433208183000E+00 0.72785027349547E+00
 p    1 1.00
 0.28887547253000E+00 0.10000000000000E+01
 p    1 1.00
 0.10056823671000E+00 0.10000000000000E+01
 d    1 1.00
 0.10970000000000E+01 0.10000000000000E+01
 d    1 1.00
 0.31800000000000E+00 0.10000000000000E+01
 d    1 1.00
 0.90985336424000E-01 0.10000000000000E+01
 f    1 1.00
 0.76100000000000E+00 0.10000000000000E+01
 
    7 0
 s    3 1.00
 0.34061341000000E+02 0.25439307208879E-01
 0.51235746000000E+01 0.19008594890375E+00
 0.11646626000000E+01 0.85244113011042E+00
 s    1 1.00
 0.32723041000000E+00 0.10000000000000E+01
 s    1 1.00
 0.10307241000000E+00 0.10000000000000E+01
 p    1 1.00
 0.80000000000000E+00 0.10000000000000E+01
 p    1 1.00
 0.95774129632000E-01 0.10000000000000E+01
 
    8 0
 s    3 1.00
 0.34061341000000E+02 0.25439307208879E-01
 0.51235746000000E+01 0.19008594890375E+00
 0.11646626000000E+01 0.85244113011042E+00
 s    1 1.00
 0.32723041000000E+00 0.10000000000000E+01
 s    1 1.00
 0.10307241000000E+00 0.10000000000000E+01
 p    1 1.00
 0.80000000000000E+00 0.10000000000000E+01
 p    1 1.00
 0.95774129632000E-01 0.10000000000000E+01
 
    9 0
 s    3 1.00
 0.34061341000000E+02 0.25439307208879E-01
 0.51235746000000E+01 0.19008594890375E+00
 0.11646626000000E+01 0.85244113011042E+00
 s    1 1.00
 0.32723041000000E+00 0.10000000000000E+01
 s    1 1.00
 0.10307241000000E+00 0.10000000000000E+01
 p    1 1.00
 0.80000000000000E+00 0.10000000000000E+01
 p    1 1.00
 0.95774129632000E-01 0.10000000000000E+01
 
   10 0
 s    3 1.00
 0.34061341000000E+02 0.25439307208879E-01
 0.51235746000000E+01 0.19008594890375E+00
 0.11646626000000E+01 0.85244113011042E+00
 s    1 1.00
 0.32723041000000E+00 0.10000000000000E+01
 s    1 1.00
 0.10307241000000E+00 0.10000000000000E+01
 p    1 1.00
 0.80000000000000E+00 0.10000000000000E+01
 p    1 1.00
 0.95774129632000E-01 0.10000000000000E+01
 
   11 0
 s    6 1.00
 0.19730800647000E+05 0.58626402628763E-03
 0.29578958745000E+04 0.45428820586397E-02
 0.67322133595000E+03 0.23558413450084E-01
 0.19068249494000E+03 0.94709193292923E-01
 0.62295441898000E+02 0.29719784913376E+00
 0.22654161182000E+02 0.66916246895232E+00
 s    2 1.00
 0.89791477428000E+01 0.64596683630063E+00
 0.36863002370000E+01 0.38700574393705E+00
 s    1 1.00
 0.84660076805000E+00 0.10000000000000E+01
 s    1 1.00
 0.33647133771000E+00 0.10000000000000E+01
 s    1 1.00
 0.13647653675000E+00 0.10000000000000E+01
 s    1 1.00
 0.68441605847000E-01 0.10000000000000E+01
 p    4 1.00
 0.49200380510000E+02 0.11448825101764E-01
 0.11346790537000E+02 0.78422337970864E-01
 0.34273972411000E+01 0.30818094738830E+00
 0.11785525134000E+01 0.72027196368413E+00
 p    1 1.00
 0.41642204972000E+00 0.10000000000000E+01
 p    1 1.00
 0.14260826011000E+00 0.10000000000000E+01
 d    1 1.00
 0.16540000000000E+01 0.10000000000000E+01
 d    1 1.00
 0.46900000000000E+00 0.10000000000000E+01
 d    1 1.00
 0.12829642058000E+00 0.10000000000000E+01
 f    1 1.00
 0.10930000000000E+01 0.10000000000000E+01
 
   12 0
 s    6 1.00
 0.27032382631000E+05 0.57227335211155E-03
 0.40523871392000E+04 0.44353233492995E-02
 0.92232722710000E+03 0.23020107706038E-01
 0.26124070989000E+03 0.92822490667928E-01
 0.85354641351000E+02 0.29378500009671E+00
 0.31035035245000E+02 0.67401604501641E+00
 s    2 1.00
 0.12260860728000E+02 0.63839937025506E+00
 0.49987076005000E+01 0.39534587125718E+00
 s    1 1.00
 0.11703108158000E+01 0.10000000000000E+01
 s    1 1.00
 0.46474740994000E+00 0.10000000000000E+01
 s    1 1.00
 0.18504536357000E+00 0.10000000000000E+01
 s    1 1.00
 0.70288026270000E-01 0.10000000000000E+01
 p    4 1.00
 0.63274954801000E+02 0.12018332222616E-01
 0.14627049379000E+02 0.83005421790056E-01
 0.44501223456000E+01 0.31991743925964E+00
 0.15275799647000E+01 0.70715542916104E+00
 p    1 1.00
 0.52935117943000E+00 0.10000000000000E+01
 p    1 1.00
 0.17478421270000E+00 0.10000000000000E+01
 p    1 1.00
 0.51112745706000E-01 0.10000000000000E+01
 d    1 1.00
 0.23140000000000E+01 0.10000000000000E+01
 d    1 1.00
 0.64500000000000E+00 0.10000000000000E+01
 d    1 1.00
 0.14696477366000E+00 0.10000000000000E+01
 f    1 1.00
 0.14280000000000E+01 0.10000000000000E+01
 
   13 0
 s    6 1.00
 0.27032382631000E+05 0.57227335211155E-03
 0.40523871392000E+04 0.44353233492995E-02
 0.92232722710000E+03 0.23020107706038E-01
 0.26124070989000E+03 0.92822490667928E-01
 0.85354641351000E+02 0.29378500009671E+00
 0.31035035245000E+02 0.67401604501641E+00
 s    2 1.00
 0.12260860728000E+02 0.63839937025506E+00
 0.49987076005000E+01 0.39534587125718E+00
 s    1 1.00
 0.11703108158000E+01 0.10000000000000E+01
 s    1 1.00
 0.46474740994000E+00 0.10000000000000E+01
 s    1 1.00
 0.18504536357000E+00 0.10000000000000E+01
 s    1 1.00
 0.70288026270000E-01 0.10000000000000E+01
 p    4 1.00
 0.63274954801000E+02 0.12018332222616E-01
 0.14627049379000E+02 0.83005421790056E-01
 0.44501223456000E+01 0.31991743925964E+00
 0.15275799647000E+01 0.70715542916104E+00
 p    1 1.00
 0.52935117943000E+00 0.10000000000000E+01
 p    1 1.00
 0.17478421270000E+00 0.10000000000000E+01
 p    1 1.00
 0.51112745706000E-01 0.10000000000000E+01
 d    1 1.00
 0.23140000000000E+01 0.10000000000000E+01
 d    1 1.00
 0.64500000000000E+00 0.10000000000000E+01
 d    1 1.00
 0.14696477366000E+00 0.10000000000000E+01
 f    1 1.00
 0.14280000000000E+01 0.10000000000000E+01
 
   14 0
 s    6 1.00
 0.19730800647000E+05 0.58626402628763E-03
 0.29578958745000E+04 0.45428820586397E-02
 0.67322133595000E+03 0.23558413450084E-01
 0.19068249494000E+03 0.94709193292923E-01
 0.62295441898000E+02 0.29719784913376E+00
 0.22654161182000E+02 0.66916246895232E+00
 s    2 1.00
 0.89791477428000E+01 0.64596683630063E+00
 0.36863002370000E+01 0.38700574393705E+00
 s    1 1.00
 0.84660076805000E+00 0.10000000000000E+01
 s    1 1.00
 0.33647133771000E+00 0.10000000000000E+01
 s    1 1.00
 0.13647653675000E+00 0.10000000000000E+01
 s    1 1.00
 0.68441605847000E-01 0.10000000000000E+01
 p    4 1.00
 0.49200380510000E+02 0.11448825101764E-01
 0.11346790537000E+02 0.78422337970864E-01
 0.34273972411000E+01 0.30818094738830E+00
 0.11785525134000E+01 0.72027196368413E+00
 p    1 1.00
 0.41642204972000E+00 0.10000000000000E+01
 p    1 1.00
 0.14260826011000E+00 0.10000000000000E+01
 d    1 1.00
 0.16540000000000E+01 0.10000000000000E+01
 d    1 1.00
 0.46900000000000E+00 0.10000000000000E+01
 d    1 1.00
 0.12829642058000E+00 0.10000000000000E+01
 f    1 1.00
 0.10930000000000E+01 0.10000000000000E+01
 
   15 0
 s    3 1.00
 0.34061341000000E+02 0.25439307208879E-01
 0.51235746000000E+01 0.19008594890375E+00
 0.11646626000000E+01 0.85244113011042E+00
 s    1 1.00
 0.32723041000000E+00 0.10000000000000E+01
 s    1 1.00
 0.10307241000000E+00 0.10000000000000E+01
 p    1 1.00
 0.80000000000000E+00 0.10000000000000E+01
 p    1 1.00
 0.95774129632000E-01 0.10000000000000E+01
 
   16 0
 s    3 1.00
 0.34061341000000E+02 0.25439307208879E-01
 0.51235746000000E+01 0.19008594890375E+00
 0.11646626000000E+01 0.85244113011042E+00
 s    1 1.00
 0.32723041000000E+00 0.10000000000000E+01
 s    1 1.00
 0.10307241000000E+00 0.10000000000000E+01
 p    1 1.00
 0.80000000000000E+00 0.10000000000000E+01
 p    1 1.00
 0.95774129632000E-01 0.10000000000000E+01
 
[MO]
 Sym= X
 Ene= -0.084559
 Spin= Alpha
 Occup= -0.084559
         1    1.260993E-04
         2    2.964946E-04
         3   -9.899455E-04
         4    2.896643E-03
         5    6.821166E-03
         6    1.060661E-02
         7    5.040169E-04
         8   -8.170947E-05
         9   -2.905397E-02
        10   -3.139619E-03
        11    1.224202E-04
        12   -2.724998E-02
        13   -3.315676E-02
        14    1.117769E-02
        15   -8.365684E-03
        16    2.824886E-05
        17   -1.321196E-05
        18   -1.503691E-05
        19   -2.274157E-06
        20   -6.520036E-03
        21    4.013793E-03
        22    6.739718E-04
        23   -4.006975E-04
        24   -2.732743E-04
        25    6.297331E-04
        26   -1.467259E-02
        27    7.549547E-03
        28    4.927896E-03
        29   -4.709002E-03
        30   -2.188940E-04
        31   -9.300511E-04
        32    1.469362E-03
        33   -9.012166E-03
        34   -2.257665E-05
        35    3.598343E-06
        36    1.280685E-04
        37    9.219628E-06
        38   -3.810229E-06
        39    7.145448E-04
        40    2.107013E-05
        41   -1.017454E-06
        42   -8.863667E-04
        43    7.313166E-04
        44    2.670986E-05
        45    6.143944E-05
        46   -2.622230E-04
        47    2.081449E-03
        48    5.205773E-02
        49   -4.754723E-03
        50    3.897258E-04
        51    3.043889E-06
        52   -2.121410E-01
        53   -3.406715E-04
        54    1.621479E-05
        55   -2.199795E-01
        56   -1.623288E-02
        57   -6.438231E-04
        58   -2.002646E-01
        59   -5.757809E-06
        60    2.638502E-06
        61    3.119307E-06
        62   -1.189286E-07
        63   -7.061552E-04
        64    6.450962E-07
        65   -3.030671E-04
        66    5.203386E-04
        67   -2.172715E-04
        68   -3.597634E-06
        69   -3.349854E-03
        70    1.206360E-06
        71   -8.060041E-03
        72    9.257902E-03
        73   -1.197860E-03
        74    1.025200E-04
        75    5.173142E-03
        76   -3.784056E-06
        77    6.905383E-06
        78    5.272747E-08
        79    1.207750E-03
        80   -5.061449E-06
        81    1.941217E-08
        82   -7.302449E-04
        83   -4.203094E-06
        84   -9.015350E-08
        85   -8.901221E-04
        86   -9.116864E-08
        87    1.266148E-04
        88    2.976149E-04
        89   -9.905565E-04
        90    2.894829E-03
        91    4.843222E-03
        92    1.058336E-02
        93    5.051736E-04
        94    7.997295E-05
        95   -2.908769E-02
        96   -3.096599E-03
        97   -1.174328E-04
        98   -2.728329E-02
        99   -3.325070E-02
       100   -1.180917E-02
       101   -8.407663E-03
       102    2.809069E-05
       103   -1.312786E-05
       104   -1.496283E-05
       105    2.103933E-06
       106   -6.519392E-03
       107   -4.013964E-03
       108    6.649572E-04
       109   -3.928838E-04
       110   -2.720733E-04
       111   -6.274965E-04
       112   -1.467043E-02
       113   -7.548730E-03
       114    5.010408E-03
       115   -4.806604E-03
       116   -2.038043E-04
       117    8.513615E-04
       118    1.473933E-03
       119    9.016962E-03
       120   -2.251695E-05
       121   -3.563528E-06
       122    1.282328E-04
       123    9.322794E-06
       124    3.758893E-06
       125    7.143541E-04
       126    2.088687E-05
       127    1.022081E-06
       128   -8.863965E-04
       129   -7.312552E-04
       130   -8.125038E-05
       131   -1.721770E-04
       132   -5.893808E-04
       133    9.170834E-03
       134   -2.808148E-02
       135   -1.227425E-02
       136   -2.056473E-04
       137    2.989713E-04
       138    1.604951E-01
       139   -7.700506E-03
       140    5.448277E-03
       141    1.629881E-01
       142   -2.107511E-02
       143   -6.913633E-03
       144    9.890073E-02
       145   -8.516065E-05
       146    1.075816E-04
       147   -2.242095E-05
       148    1.171818E-05
       149   -1.199576E-03
       150    3.358296E-03
       151   -5.687527E-04
       152    6.476649E-04
       153   -7.891221E-05
       154   -1.530969E-03
       155   -4.767990E-03
       156    5.709236E-03
       157   -7.788800E-03
       158    6.103524E-03
       159    1.685276E-03
       160    8.545301E-03
       161    3.050897E-03
       162   -1.026656E-02
       163   -1.393158E-05
       164    4.180833E-06
       165   -9.363091E-04
       166   -1.379318E-05
       167    2.065937E-05
       168    2.363665E-04
       169    3.248435E-05
       170   -2.626855E-05
       171    1.019824E-03
       172   -4.048818E-04
       173    1.005935E-03
       174    2.295917E-03
       175   -2.324429E-03
       176   -2.076441E-02
       177    1.609456E-02
       178   -8.407189E-03
       179    6.452518E-03
       180   -1.899014E-06
       181    1.375672E-01
       182   -7.226041E-04
       183   -4.737782E-06
       184    1.395218E-01
       185   -2.489463E-02
       186    9.429409E-04
       187    1.316838E-01
       188   -3.611328E-04
       189    1.701395E-04
       190    1.909933E-04
       191   -2.888818E-07
       192    9.136578E-03
       193    7.476144E-07
       194    1.750290E-03
       195   -3.827526E-03
       196    2.077237E-03
       197   -1.934937E-09
       198    2.308020E-02
       199   -2.541836E-07
       200    4.671720E-03
       201   -5.857283E-03
       202    1.185563E-03
       203    1.247490E-04
       204    1.816235E-02
       205   -1.028252E-05
       206    9.726103E-05
       207    4.210306E-08
       208   -5.664110E-04
       209   -7.271400E-05
       210   -4.480098E-08
       211   -7.759364E-04
       212   -5.777537E-05
       213   -1.168620E-08
       214    1.535857E-03
       215    4.566600E-08
       216   -8.206353E-05
       217   -1.738490E-04
       218   -5.851059E-04
       219    9.175126E-03
       220   -3.039739E-02
       221   -1.228963E-02
       222   -2.056849E-04
       223   -2.939751E-04
       224    1.605266E-01
       225   -7.722987E-03
       226   -5.446529E-03
       227    1.630229E-01
       228   -2.085705E-02
       229    7.860039E-03
       230    9.891076E-02
       231   -8.496327E-05
       232    1.080229E-04
       233   -2.305964E-05
       234   -1.206898E-05
       235   -1.198941E-03
       236   -3.358425E-03
       237   -5.760167E-04
       238    6.519944E-04
       239   -7.597774E-05
       240    1.531771E-03
       241   -4.764775E-03
       242   -5.709663E-03
       243   -7.752268E-03
       244    6.059673E-03
       245    1.692595E-03
       246   -8.656255E-03
       247    3.043703E-03
       248    1.026773E-02
       249   -1.417674E-05
       250   -4.237399E-06
       251   -9.366454E-04
       252   -1.371651E-05
       253   -2.058356E-05
       254    2.367341E-04
       255    3.273660E-05
       256    2.626863E-05
       257    1.019908E-03
       258    4.048774E-04
       259   -2.253007E-05
       260   -3.579584E-04
       261    1.555821E-02
       262   -2.295597E-06
       263    5.727108E-05
       264   -1.159570E-03
       265   -5.065892E-03
       266   -6.618808E-05
       267    5.556042E-03
       268   -2.108948E-05
       269   -3.658391E-04
       270    1.553060E-02
       271   -1.530826E-06
       272   -5.835071E-05
       273   -1.160932E-03
       274   -5.142553E-03
       275    3.734985E-05
       276    5.558781E-03
       277    1.799485E-04
       278    1.898814E-03
       279   -3.234801E-02
       280    7.626514E-08
       281    5.865034E-05
       282    6.530117E-03
       283   -1.121977E-03
       284   -2.687674E-03
       285    3.058419E-05
       286    1.846702E-04
       287    1.904840E-03
       288   -3.269155E-02
       289    4.324833E-07
       290   -5.888855E-05
       291    6.531885E-03
       292   -1.131882E-03
       293    2.728652E-03
       294    3.005155E-05
       295    7.193349E-06
       296    1.446888E-05
       297    4.183300E-05
       298   -1.141378E-04
       299    5.578194E-03
       300   -2.004189E-03
       301    1.710121E-04
       302   -8.533655E-07
       303   -2.395598E-02
       304   -1.022777E-04
       305    1.139542E-07
       306   -2.601931E-02
       307   -2.715501E-03
       308    3.486111E-05
       309   -1.029078E-02
       310   -3.353976E-05
       311    1.776532E-05
       312    1.577443E-05
       313   -3.750069E-09
       314    4.484452E-03
       315    1.245396E-08
       316   -3.962617E-05
       317   -2.797559E-05
       318    6.760176E-05
       319    5.098953E-07
       320    1.356546E-02
       321   -5.361175E-08
       322    9.917902E-04
       323   -2.683764E-03
       324    1.691974E-03
       325   -2.221683E-05
       326    3.588481E-03
       327    2.675361E-06
       328    5.880896E-06
       329    1.279895E-08
       330    3.072302E-05
       331   -4.321006E-06
       332    3.168659E-08
       333   -7.330805E-04
       334   -3.569044E-06
       335   -4.885818E-08
       336    6.918613E-04
       337   -1.378159E-08
       338   -1.773089E-06
       339   -7.919933E-06
       340    5.542045E-05
       341   -4.042177E-04
       342    5.567952E-03
       343    1.056315E-03
       344   -5.904775E-04
       345   -1.140997E-04
       346    7.680136E-02
       347   -6.245982E-04
       348    3.405946E-05
       349    7.129386E-02
       350   -1.616544E-03
       351    3.341986E-04
       352    5.858470E-02
       353   -1.750620E-04
       354    2.304261E-04
       355    7.198422E-03
       356    8.681047E-08
       357    7.476253E-08
       358   -1.615730E-07
       359   -4.110702E-06
       360    3.942636E-05
       361    4.304827E-04
       362    2.037500E-05
       363   -1.792731E-06
       364   -1.858227E-05
       365   -2.202092E-05
       366   -4.307413E-04
       367    1.458154E-03
       368    7.815682E-05
       369   -5.652490E-05
       370   -2.163192E-05
       371   -8.890190E-05
       372   -3.163707E-04
       373    1.904245E-04
       374    9.662474E-07
       375   -4.725236E-07
       376   -5.356244E-05
       377   -1.714291E-06
       378    2.130669E-06
       379   -8.645334E-05
       380    4.179339E-07
       381   -1.496712E-06
       382    1.583149E-04
       383   -1.227648E-04
       384   -1.745903E-06
       385   -7.805687E-06
       386    5.468092E-05
       387   -4.000326E-04
       388    5.553580E-03
       389    1.027646E-03
       390   -5.849998E-04
       391    1.165638E-04
       392    7.680029E-02
       393   -6.192748E-04
       394   -3.143276E-05
       395    7.129327E-02
       396   -1.586946E-03
       397   -3.248122E-04
       398    5.857927E-02
       399   -1.599839E-04
       400   -2.347381E-04
       401    7.200254E-03
       402    9.510819E-08
       403    4.078904E-08
       404   -1.358972E-07
       405    4.136602E-06
       406    3.939571E-05
       407   -4.304722E-04
       408    2.019220E-05
       409   -2.003032E-06
       410   -1.818916E-05
       411    2.147882E-05
       412   -4.306752E-04
       413   -1.458165E-03
       414    7.794067E-05
       415   -5.788014E-05
       416   -2.006053E-05
       417    8.785669E-05
       418   -3.169431E-04
       419   -1.894684E-04
       420    9.579991E-07
       421    4.904326E-07
       422   -5.356584E-05
       423   -1.680608E-06
       424   -2.125808E-06
       425   -8.644682E-05
       426    3.953170E-07
       427    1.467824E-06
       428    1.583129E-04
       429    1.227664E-04
       430   -4.373221E-03
       431   -1.040684E-02
       432    1.629421E-02
       433    2.549659E-02
       434    2.093040E-02
       435    6.850843E-02
       436   -1.422373E-02
       437    7.136480E-06
       438   -2.147772E-01
       439   -1.667137E-02
       440    1.564209E-06
       441   -2.128712E-01
       442   -1.532543E-02
       443   -9.806927E-05
       444   -1.800590E-01
       445    1.169513E-04
       446   -4.065618E-05
       447   -7.629511E-05
       448   -1.802733E-07
       449    1.219747E-03
       450    2.160604E-07
       451    2.836010E-04
       452    1.280518E-03
       453   -1.564119E-03
       454    3.081276E-06
       455    4.606453E-03
       456    1.092742E-06
       457    2.180505E-03
       458    2.489012E-03
       459   -4.669517E-03
       460   -1.829673E-06
       461    2.554573E-03
       462    6.070821E-06
       463   -1.391527E-04
       464    2.063486E-08
       465    7.763081E-04
       466   -6.944787E-05
       467    1.017149E-08
       468   -3.289198E-04
       469    2.561409E-04
       470   -3.785606E-08
       471   -7.126067E-04
       472    2.019193E-08
       473   -9.752629E-03
       474   -1.779930E-02
       475   -2.913578E-02
       476   -2.045245E-03
       477   -1.834092E-03
       478   -1.105878E-02
       479    1.764594E-03
       480   -3.383787E-03
       481   -1.421422E-02
       482   -9.748811E-03
       483   -1.774411E-02
       484   -2.897952E-02
       485   -2.042207E-03
       486    1.829094E-03
       487   -1.106127E-02
       488    1.783069E-03
       489    3.356908E-03
       490   -1.422168E-02
 Sym= X
 Ene= -0.854070
 Spin= Alpha
 Occup= -0.854070
         1   -3.031375E-04
         2   -6.976811E-04
         3    1.618819E-03
         4   -1.871645E-03
         5    8.296366E-03
         6   -1.152365E-02
         7   -2.827545E-03
         8    5.376386E-04
         9   -1.409430E-01
        10    1.672132E-03
        11    1.177993E-04
        12   -1.388735E-01
        13    2.194364E-02
        14   -9.071856E-04
        15   -5.239225E-02
        16    7.689115E-05
        17   -7.437812E-05
        18   -2.513037E-06
        19   -3.621853E-05
        20   -3.110423E-04
        21    4.353669E-03
        22   -5.294506E-04
        23    3.173265E-04
        24    2.121241E-04
        25   -8.250469E-04
        26   -1.235845E-03
        27    7.229870E-03
        28   -2.136037E-03
        29    2.011944E-03
        30    1.240925E-04
        31    1.878796E-03
        32   -6.803829E-03
        33    4.822607E-03
        34    1.514361E-05
        35   -2.430125E-06
        36    1.185431E-03
        37   -2.007463E-06
        38    2.583963E-06
        39   -6.650843E-04
        40   -1.830983E-05
        41    6.763919E-07
        42   -9.253384E-04
        43    4.868470E-04
        44   -1.233722E-04
        45   -2.821364E-04
        46    7.490997E-04
        47   -3.180467E-03
        48   -1.390651E-02
        49    1.017151E-02
        50    2.368555E-03
        51   -1.258878E-06
        52   -2.065554E-01
        53    2.934538E-03
        54    2.493643E-05
        55   -2.082120E-01
        56    8.952757E-03
        57    6.931875E-04
        58   -6.560414E-02
        59    1.315133E-04
        60   -1.263029E-04
        61   -5.210327E-06
        62    4.367068E-08