[Molden Format]
[Title]
ADC(2) - opt by CAM-B3LYP gaussian                                              
[Atoms] AU
 c     1    6 0.12589710753986E+01 0.22825551554713E+01 -.28105798744860E-01
 c     2    6 0.25558923691721E+01 0.80431469000000E-06 -.26811997747980E-01
 c     3    6 0.12589700738438E+01 -.22825573262942E+01 -.28139341383720E-01
 c     4    6 -.13331755585332E+01 -.22837561874501E+01 -.30470167390540E-01
 c     5    6 -.26866009864883E+01 0.27696298600000E-05 -.30311128039200E-01
 c     6    6 -.13331783742251E+01 0.22837572858534E+01 -.30432977580250E-01
 h     7    1 0.22993222678978E+01 0.40366379181686E+01 -.25216785432900E-01
 h     8    1 0.22993197734593E+01 -.40366408826765E+01 -.25273722881290E-01
 h     9    1 -.23520966897676E+01 -.40562070503646E+01 -.33235309154490E-01
 h    10    1 -.23520900190344E+01 0.40562136478709E+01 -.33159965773570E-01
 n    11    7 0.52762255328692E+01 0.25629411000000E-06 -.20783601308720E-01
 o    12    8 0.63803680214636E+01 -.20270720034092E+01 -.18188232540560E-01
 o    13    8 0.63803692875801E+01 0.20270718545932E+01 -.18282964511600E-01
 n    14    7 -.52484248103301E+01 -.66967170000000E-06 -.81289589624650E-01
 h    15    1 -.62019351690707E+01 -.16149791988436E+01 0.21484054874156E+00
 h    16    1 -.62019367942352E+01 0.16149736265137E+01 0.21486103337284E+00
[GTO]
    1 0
 s    6 1.00
 0.13575349682000E+05 0.60645503603591E-03
 0.20352333680000E+04 0.46979088884982E-02
 0.46322562359000E+03 0.24332477647552E-01
 0.13120019598000E+03 0.97399968307759E-01
 0.42853015891000E+02 0.30195584253780E+00
 0.15584185766000E+02 0.66233609137875E+00
 s    2 1.00
 0.62067138508000E+01 0.65595308539952E+00
 0.25764896527000E+01 0.37585633285142E+00
 s    1 1.00
 0.57696339419000E+00 0.10000000000000E+01
 s    1 1.00
 0.22972831358000E+00 0.10000000000000E+01
 s    1 1.00
 0.95164440028000E-01 0.10000000000000E+01
 s    1 1.00
 0.48475401370000E-01 0.10000000000000E+01
 p    4 1.00
 0.34697232244000E+02 0.11327220003114E-01
 0.79582622826000E+01 0.76169659202087E-01
 0.23780826883000E+01 0.30192252202676E+00
 0.81433208183000E+00 0.72785027349547E+00
 p    1 1.00
 0.28887547253000E+00 0.10000000000000E+01
 p    1 1.00
 0.10056823671000E+00 0.10000000000000E+01
 d    1 1.00
 0.10970000000000E+01 0.10000000000000E+01
 d    1 1.00
 0.31800000000000E+00 0.10000000000000E+01
 d    1 1.00
 0.90985336424000E-01 0.10000000000000E+01
 f    1 1.00
 0.76100000000000E+00 0.10000000000000E+01
 
    2 0
 s    6 1.00
 0.13575349682000E+05 0.60645503603591E-03
 0.20352333680000E+04 0.46979088884982E-02
 0.46322562359000E+03 0.24332477647552E-01
 0.13120019598000E+03 0.97399968307759E-01
 0.42853015891000E+02 0.30195584253780E+00
 0.15584185766000E+02 0.66233609137875E+00
 s    2 1.00
 0.62067138508000E+01 0.65595308539952E+00
 0.25764896527000E+01 0.37585633285142E+00
 s    1 1.00
 0.57696339419000E+00 0.10000000000000E+01
 s    1 1.00
 0.22972831358000E+00 0.10000000000000E+01
 s    1 1.00
 0.95164440028000E-01 0.10000000000000E+01
 s    1 1.00
 0.48475401370000E-01 0.10000000000000E+01
 p    4 1.00
 0.34697232244000E+02 0.11327220003114E-01
 0.79582622826000E+01 0.76169659202087E-01
 0.23780826883000E+01 0.30192252202676E+00
 0.81433208183000E+00 0.72785027349547E+00
 p    1 1.00
 0.28887547253000E+00 0.10000000000000E+01
 p    1 1.00
 0.10056823671000E+00 0.10000000000000E+01
 d    1 1.00
 0.10970000000000E+01 0.10000000000000E+01
 d    1 1.00
 0.31800000000000E+00 0.10000000000000E+01
 d    1 1.00
 0.90985336424000E-01 0.10000000000000E+01
 f    1 1.00
 0.76100000000000E+00 0.10000000000000E+01
 
    3 0
 s    6 1.00
 0.13575349682000E+05 0.60645503603591E-03
 0.20352333680000E+04 0.46979088884982E-02
 0.46322562359000E+03 0.24332477647552E-01
 0.13120019598000E+03 0.97399968307759E-01
 0.42853015891000E+02 0.30195584253780E+00
 0.15584185766000E+02 0.66233609137875E+00
 s    2 1.00
 0.62067138508000E+01 0.65595308539952E+00
 0.25764896527000E+01 0.37585633285142E+00
 s    1 1.00
 0.57696339419000E+00 0.10000000000000E+01
 s    1 1.00
 0.22972831358000E+00 0.10000000000000E+01
 s    1 1.00
 0.95164440028000E-01 0.10000000000000E+01
 s    1 1.00
 0.48475401370000E-01 0.10000000000000E+01
 p    4 1.00
 0.34697232244000E+02 0.11327220003114E-01
 0.79582622826000E+01 0.76169659202087E-01
 0.23780826883000E+01 0.30192252202676E+00
 0.81433208183000E+00 0.72785027349547E+00
 p    1 1.00
 0.28887547253000E+00 0.10000000000000E+01
 p    1 1.00
 0.10056823671000E+00 0.10000000000000E+01
 d    1 1.00
 0.10970000000000E+01 0.10000000000000E+01
 d    1 1.00
 0.31800000000000E+00 0.10000000000000E+01
 d    1 1.00
 0.90985336424000E-01 0.10000000000000E+01
 f    1 1.00
 0.76100000000000E+00 0.10000000000000E+01
 
    4 0
 s    6 1.00
 0.13575349682000E+05 0.60645503603591E-03
 0.20352333680000E+04 0.46979088884982E-02
 0.46322562359000E+03 0.24332477647552E-01
 0.13120019598000E+03 0.97399968307759E-01
 0.42853015891000E+02 0.30195584253780E+00
 0.15584185766000E+02 0.66233609137875E+00
 s    2 1.00
 0.62067138508000E+01 0.65595308539952E+00
 0.25764896527000E+01 0.37585633285142E+00
 s    1 1.00
 0.57696339419000E+00 0.10000000000000E+01
 s    1 1.00
 0.22972831358000E+00 0.10000000000000E+01
 s    1 1.00
 0.95164440028000E-01 0.10000000000000E+01
 s    1 1.00
 0.48475401370000E-01 0.10000000000000E+01
 p    4 1.00
 0.34697232244000E+02 0.11327220003114E-01
 0.79582622826000E+01 0.76169659202087E-01
 0.23780826883000E+01 0.30192252202676E+00
 0.81433208183000E+00 0.72785027349547E+00
 p    1 1.00
 0.28887547253000E+00 0.10000000000000E+01
 p    1 1.00
 0.10056823671000E+00 0.10000000000000E+01
 d    1 1.00
 0.10970000000000E+01 0.10000000000000E+01
 d    1 1.00
 0.31800000000000E+00 0.10000000000000E+01
 d    1 1.00
 0.90985336424000E-01 0.10000000000000E+01
 f    1 1.00
 0.76100000000000E+00 0.10000000000000E+01
 
    5 0
 s    6 1.00
 0.13575349682000E+05 0.60645503603591E-03
 0.20352333680000E+04 0.46979088884982E-02
 0.46322562359000E+03 0.24332477647552E-01
 0.13120019598000E+03 0.97399968307759E-01
 0.42853015891000E+02 0.30195584253780E+00
 0.15584185766000E+02 0.66233609137875E+00
 s    2 1.00
 0.62067138508000E+01 0.65595308539952E+00
 0.25764896527000E+01 0.37585633285142E+00
 s    1 1.00
 0.57696339419000E+00 0.10000000000000E+01
 s    1 1.00
 0.22972831358000E+00 0.10000000000000E+01
 s    1 1.00
 0.95164440028000E-01 0.10000000000000E+01
 s    1 1.00
 0.48475401370000E-01 0.10000000000000E+01
 p    4 1.00
 0.34697232244000E+02 0.11327220003114E-01
 0.79582622826000E+01 0.76169659202087E-01
 0.23780826883000E+01 0.30192252202676E+00
 0.81433208183000E+00 0.72785027349547E+00
 p    1 1.00
 0.28887547253000E+00 0.10000000000000E+01
 p    1 1.00
 0.10056823671000E+00 0.10000000000000E+01
 d    1 1.00
 0.10970000000000E+01 0.10000000000000E+01
 d    1 1.00
 0.31800000000000E+00 0.10000000000000E+01
 d    1 1.00
 0.90985336424000E-01 0.10000000000000E+01
 f    1 1.00
 0.76100000000000E+00 0.10000000000000E+01
 
    6 0
 s    6 1.00
 0.13575349682000E+05 0.60645503603591E-03
 0.20352333680000E+04 0.46979088884982E-02
 0.46322562359000E+03 0.24332477647552E-01
 0.13120019598000E+03 0.97399968307759E-01
 0.42853015891000E+02 0.30195584253780E+00
 0.15584185766000E+02 0.66233609137875E+00
 s    2 1.00
 0.62067138508000E+01 0.65595308539952E+00
 0.25764896527000E+01 0.37585633285142E+00
 s    1 1.00
 0.57696339419000E+00 0.10000000000000E+01
 s    1 1.00
 0.22972831358000E+00 0.10000000000000E+01
 s    1 1.00
 0.95164440028000E-01 0.10000000000000E+01
 s    1 1.00
 0.48475401370000E-01 0.10000000000000E+01
 p    4 1.00
 0.34697232244000E+02 0.11327220003114E-01
 0.79582622826000E+01 0.76169659202087E-01
 0.23780826883000E+01 0.30192252202676E+00
 0.81433208183000E+00 0.72785027349547E+00
 p    1 1.00
 0.28887547253000E+00 0.10000000000000E+01
 p    1 1.00
 0.10056823671000E+00 0.10000000000000E+01
 d    1 1.00
 0.10970000000000E+01 0.10000000000000E+01
 d    1 1.00
 0.31800000000000E+00 0.10000000000000E+01
 d    1 1.00
 0.90985336424000E-01 0.10000000000000E+01
 f    1 1.00
 0.76100000000000E+00 0.10000000000000E+01
 
    7 0
 s    3 1.00
 0.34061341000000E+02 0.25439307208879E-01
 0.51235746000000E+01 0.19008594890375E+00
 0.11646626000000E+01 0.85244113011042E+00
 s    1 1.00
 0.32723041000000E+00 0.10000000000000E+01
 s    1 1.00
 0.10307241000000E+00 0.10000000000000E+01
 p    1 1.00
 0.80000000000000E+00 0.10000000000000E+01
 p    1 1.00
 0.95774129632000E-01 0.10000000000000E+01
 
    8 0
 s    3 1.00
 0.34061341000000E+02 0.25439307208879E-01
 0.51235746000000E+01 0.19008594890375E+00
 0.11646626000000E+01 0.85244113011042E+00
 s    1 1.00
 0.32723041000000E+00 0.10000000000000E+01
 s    1 1.00
 0.10307241000000E+00 0.10000000000000E+01
 p    1 1.00
 0.80000000000000E+00 0.10000000000000E+01
 p    1 1.00
 0.95774129632000E-01 0.10000000000000E+01
 
    9 0
 s    3 1.00
 0.34061341000000E+02 0.25439307208879E-01
 0.51235746000000E+01 0.19008594890375E+00
 0.11646626000000E+01 0.85244113011042E+00
 s    1 1.00
 0.32723041000000E+00 0.10000000000000E+01
 s    1 1.00
 0.10307241000000E+00 0.10000000000000E+01
 p    1 1.00
 0.80000000000000E+00 0.10000000000000E+01
 p    1 1.00
 0.95774129632000E-01 0.10000000000000E+01
 
   10 0
 s    3 1.00
 0.34061341000000E+02 0.25439307208879E-01
 0.51235746000000E+01 0.19008594890375E+00
 0.11646626000000E+01 0.85244113011042E+00
 s    1 1.00
 0.32723041000000E+00 0.10000000000000E+01
 s    1 1.00
 0.10307241000000E+00 0.10000000000000E+01
 p    1 1.00
 0.80000000000000E+00 0.10000000000000E+01
 p    1 1.00
 0.95774129632000E-01 0.10000000000000E+01
 
   11 0
 s    6 1.00
 0.19730800647000E+05 0.58626402628763E-03
 0.29578958745000E+04 0.45428820586397E-02
 0.67322133595000E+03 0.23558413450084E-01
 0.19068249494000E+03 0.94709193292923E-01
 0.62295441898000E+02 0.29719784913376E+00
 0.22654161182000E+02 0.66916246895232E+00
 s    2 1.00
 0.89791477428000E+01 0.64596683630063E+00
 0.36863002370000E+01 0.38700574393705E+00
 s    1 1.00
 0.84660076805000E+00 0.10000000000000E+01
 s    1 1.00
 0.33647133771000E+00 0.10000000000000E+01
 s    1 1.00
 0.13647653675000E+00 0.10000000000000E+01
 s    1 1.00
 0.68441605847000E-01 0.10000000000000E+01
 p    4 1.00
 0.49200380510000E+02 0.11448825101764E-01
 0.11346790537000E+02 0.78422337970864E-01
 0.34273972411000E+01 0.30818094738830E+00
 0.11785525134000E+01 0.72027196368413E+00
 p    1 1.00
 0.41642204972000E+00 0.10000000000000E+01
 p    1 1.00
 0.14260826011000E+00 0.10000000000000E+01
 d    1 1.00
 0.16540000000000E+01 0.10000000000000E+01
 d    1 1.00
 0.46900000000000E+00 0.10000000000000E+01
 d    1 1.00
 0.12829642058000E+00 0.10000000000000E+01
 f    1 1.00
 0.10930000000000E+01 0.10000000000000E+01
 
   12 0
 s    6 1.00
 0.27032382631000E+05 0.57227335211155E-03
 0.40523871392000E+04 0.44353233492995E-02
 0.92232722710000E+03 0.23020107706038E-01
 0.26124070989000E+03 0.92822490667928E-01
 0.85354641351000E+02 0.29378500009671E+00
 0.31035035245000E+02 0.67401604501641E+00
 s    2 1.00
 0.12260860728000E+02 0.63839937025506E+00
 0.49987076005000E+01 0.39534587125718E+00
 s    1 1.00
 0.11703108158000E+01 0.10000000000000E+01
 s    1 1.00
 0.46474740994000E+00 0.10000000000000E+01
 s    1 1.00
 0.18504536357000E+00 0.10000000000000E+01
 s    1 1.00
 0.70288026270000E-01 0.10000000000000E+01
 p    4 1.00
 0.63274954801000E+02 0.12018332222616E-01
 0.14627049379000E+02 0.83005421790056E-01
 0.44501223456000E+01 0.31991743925964E+00
 0.15275799647000E+01 0.70715542916104E+00
 p    1 1.00
 0.52935117943000E+00 0.10000000000000E+01
 p    1 1.00
 0.17478421270000E+00 0.10000000000000E+01
 p    1 1.00
 0.51112745706000E-01 0.10000000000000E+01
 d    1 1.00
 0.23140000000000E+01 0.10000000000000E+01
 d    1 1.00
 0.64500000000000E+00 0.10000000000000E+01
 d    1 1.00
 0.14696477366000E+00 0.10000000000000E+01
 f    1 1.00
 0.14280000000000E+01 0.10000000000000E+01
 
   13 0
 s    6 1.00
 0.27032382631000E+05 0.57227335211155E-03
 0.40523871392000E+04 0.44353233492995E-02
 0.92232722710000E+03 0.23020107706038E-01
 0.26124070989000E+03 0.92822490667928E-01
 0.85354641351000E+02 0.29378500009671E+00
 0.31035035245000E+02 0.67401604501641E+00
 s    2 1.00
 0.12260860728000E+02 0.63839937025506E+00
 0.49987076005000E+01 0.39534587125718E+00
 s    1 1.00
 0.11703108158000E+01 0.10000000000000E+01
 s    1 1.00
 0.46474740994000E+00 0.10000000000000E+01
 s    1 1.00
 0.18504536357000E+00 0.10000000000000E+01
 s    1 1.00
 0.70288026270000E-01 0.10000000000000E+01
 p    4 1.00
 0.63274954801000E+02 0.12018332222616E-01
 0.14627049379000E+02 0.83005421790056E-01
 0.44501223456000E+01 0.31991743925964E+00
 0.15275799647000E+01 0.70715542916104E+00
 p    1 1.00
 0.52935117943000E+00 0.10000000000000E+01
 p    1 1.00
 0.17478421270000E+00 0.10000000000000E+01
 p    1 1.00
 0.51112745706000E-01 0.10000000000000E+01
 d    1 1.00
 0.23140000000000E+01 0.10000000000000E+01
 d    1 1.00
 0.64500000000000E+00 0.10000000000000E+01
 d    1 1.00
 0.14696477366000E+00 0.10000000000000E+01
 f    1 1.00
 0.14280000000000E+01 0.10000000000000E+01
 
   14 0
 s    6 1.00
 0.19730800647000E+05 0.58626402628763E-03
 0.29578958745000E+04 0.45428820586397E-02
 0.67322133595000E+03 0.23558413450084E-01
 0.19068249494000E+03 0.94709193292923E-01
 0.62295441898000E+02 0.29719784913376E+00
 0.22654161182000E+02 0.66916246895232E+00
 s    2 1.00
 0.89791477428000E+01 0.64596683630063E+00
 0.36863002370000E+01 0.38700574393705E+00
 s    1 1.00
 0.84660076805000E+00 0.10000000000000E+01
 s    1 1.00
 0.33647133771000E+00 0.10000000000000E+01
 s    1 1.00
 0.13647653675000E+00 0.10000000000000E+01
 s    1 1.00
 0.68441605847000E-01 0.10000000000000E+01
 p    4 1.00
 0.49200380510000E+02 0.11448825101764E-01
 0.11346790537000E+02 0.78422337970864E-01
 0.34273972411000E+01 0.30818094738830E+00
 0.11785525134000E+01 0.72027196368413E+00
 p    1 1.00
 0.41642204972000E+00 0.10000000000000E+01
 p    1 1.00
 0.14260826011000E+00 0.10000000000000E+01
 d    1 1.00
 0.16540000000000E+01 0.10000000000000E+01
 d    1 1.00
 0.46900000000000E+00 0.10000000000000E+01
 d    1 1.00
 0.12829642058000E+00 0.10000000000000E+01
 f    1 1.00
 0.10930000000000E+01 0.10000000000000E+01
 
   15 0
 s    3 1.00
 0.34061341000000E+02 0.25439307208879E-01
 0.51235746000000E+01 0.19008594890375E+00
 0.11646626000000E+01 0.85244113011042E+00
 s    1 1.00
 0.32723041000000E+00 0.10000000000000E+01
 s    1 1.00
 0.10307241000000E+00 0.10000000000000E+01
 p    1 1.00
 0.80000000000000E+00 0.10000000000000E+01
 p    1 1.00
 0.95774129632000E-01 0.10000000000000E+01
 
   16 0
 s    3 1.00
 0.34061341000000E+02 0.25439307208879E-01
 0.51235746000000E+01 0.19008594890375E+00
 0.11646626000000E+01 0.85244113011042E+00
 s    1 1.00
 0.32723041000000E+00 0.10000000000000E+01
 s    1 1.00
 0.10307241000000E+00 0.10000000000000E+01
 p    1 1.00
 0.80000000000000E+00 0.10000000000000E+01
 p    1 1.00
 0.95774129632000E-01 0.10000000000000E+01
 
[MO]
 Sym= X
 Ene= -0.218162
 Spin= Alpha
 Occup= -0.218162
         1    2.219819E-04
         2    5.158516E-04
         3   -1.417856E-03
         4    3.001950E-03
         5    5.667475E-03
         6    1.281668E-02
         7    2.453417E-03
         8    2.170853E-04
         9   -8.551085E-03
        10   -2.353503E-03
        11    4.734286E-04
        12   -7.003561E-03
        13   -3.824318E-02
        14    1.167753E-02
        15   -1.239483E-04
        16   -2.573168E-05
        17    3.690709E-05
        18   -1.117541E-05
        19    1.860813E-05
        20   -6.270620E-03
        21    3.296948E-03
        22    7.264402E-04
        23   -4.295854E-04
        24   -2.968548E-04
        25    8.134041E-04
        26   -1.406689E-02
        27    6.340888E-03
        28    5.350621E-03
        29   -5.042633E-03
        30   -3.079881E-04
        31   -1.341625E-03
        32    2.653733E-03
        33   -1.023918E-02
        34   -2.103795E-05
        35    7.420478E-06
        36   -3.844765E-05
        37    9.077866E-06
        38   -7.072951E-06
        39    7.846284E-04
        40    1.914750E-05
        41   -2.882665E-06
        42   -7.330454E-04
        43    6.383114E-04
        44   -3.711585E-05
        45   -8.125255E-05
        46   -1.443098E-04
        47    3.321454E-03
        48    5.543051E-02
        49   -6.688073E-03
        50   -1.065027E-05
        51    3.297208E-06
        52   -1.773158E-01
        53   -8.533594E-04
        54    1.223116E-05
        55   -1.846315E-01
        56   -1.788143E-02
        57   -7.292130E-04
        58   -1.887992E-01
        59   -7.299147E-05
        60    6.993347E-05
        61    3.058001E-06
        62   -1.308086E-07
        63   -1.096142E-03
        64    6.913512E-07
        65   -4.665253E-04
        66    7.510027E-04
        67   -2.844774E-04
        68   -2.891114E-06
        69   -3.909120E-03
        70    1.163449E-06
        71   -1.074320E-02
        72    1.203943E-02
        73   -1.296232E-03
        74    1.082882E-04
        75    3.913350E-03
        76   -3.534898E-06
        77    5.768328E-06
        78    1.666501E-08
        79    9.441758E-04
        80   -6.886356E-06
        81    3.899285E-08
        82   -5.921819E-04
        83   -8.526678E-07
        84   -6.135130E-08
        85   -6.745629E-04
        86   -8.827114E-08
        87    2.222439E-04
        88    5.163954E-04
        89   -1.417165E-03
        90    3.002357E-03
        91    3.349056E-03
        92    1.280221E-02
        93    2.456531E-03
        94   -2.215085E-04
        95   -8.586355E-03
        96   -2.311600E-03
        97   -4.747566E-04
        98   -7.038208E-03
        99   -3.828567E-02
       100   -1.242602E-02
       101   -1.731326E-04
       102   -2.588928E-05
       103    3.702667E-05
       104   -1.113739E-05
       105   -1.890959E-05
       106   -6.269951E-03
       107   -3.297101E-03
       108    7.171532E-04
       109   -4.219057E-04
       110   -2.952475E-04
       111   -8.124691E-04
       112   -1.406491E-02
       113   -6.340367E-03
       114    5.425456E-03
       115   -5.135663E-03
       116   -2.897928E-04
       117    1.262572E-03
       118    2.659856E-03
       119    1.023898E-02
       120   -2.096791E-05
       121   -7.401022E-06
       122   -3.827856E-05
       123    9.164060E-06
       124    6.997041E-06
       125    7.844397E-04
       126    1.896734E-05
       127    2.932471E-06
       128   -7.330836E-04
       129   -6.382699E-04
       130   -1.449607E-04
       131   -3.141663E-04
       132   -5.971906E-04
       133    1.166247E-02
       134   -2.694542E-02
       135   -1.465435E-02
       136   -2.132238E-03
       137    8.280736E-04
       138    1.625224E-01
       139   -1.080452E-02
       140    7.013489E-03
       141    1.650927E-01
       142   -2.451400E-02
       143   -8.428080E-03
       144    9.791234E-02
       145   -1.897304E-04
       146    2.235418E-04
       147   -3.381145E-05
       148    2.743673E-06
       149   -5.140511E-04
       150    3.114536E-03
       151   -7.384541E-04
       152    8.742719E-04
       153   -1.358178E-04
       154   -1.911580E-03
       155   -3.562695E-03
       156    5.176487E-03
       157   -9.309162E-03
       158    7.346150E-03
       159    1.963012E-03
       160    1.029171E-02
       161    3.749393E-03
       162   -1.272025E-02
       163   -1.866924E-05
       164    1.157727E-05
       165   -9.499548E-04
       166   -2.196160E-05
       167    1.839434E-05
       168    3.015372E-04
       169    4.700900E-05
       170   -3.392688E-05
       171    9.729610E-04
       172   -3.276996E-04
       173    1.240069E-03
       174    2.827887E-03
       175   -2.913936E-03
       176   -2.419389E-02
       177    2.420299E-02
       178   -9.258618E-03
       179    1.077756E-02
       180   -3.198278E-06
       181    1.163125E-01
       182    8.556955E-04
       183   -7.999796E-06
       184    1.190288E-01
       185   -3.343994E-02
       186    9.584820E-04
       187    1.349865E-01
       188   -5.859000E-04
       189    3.412936E-04
       190    2.446064E-04
       191   -3.626063E-07
       192    1.032421E-02
       193    7.610493E-07
       194    2.059657E-03
       195   -4.562345E-03
       196    2.502688E-03
       197   -9.492806E-07
       198    2.543297E-02
       199    1.066398E-07
       200    6.667417E-03
       201   -7.966722E-03
       202    1.299305E-03
       203    1.323985E-04
       204    1.884929E-02
       205   -8.132696E-06
       206    1.328573E-04
       207    2.679569E-08
       208   -3.559315E-04
       209   -9.221201E-05
       210   -4.713221E-08
       211   -1.063063E-03
       212   -8.603478E-05
       213    1.118202E-08
       214    1.540595E-03
       215    6.104582E-08
       216   -1.457755E-04
       217   -3.158349E-04
       218   -5.936503E-04
       219    1.167479E-02
       220   -2.950125E-02
       221   -1.465856E-02
       222   -2.130905E-03
       223   -8.209080E-04
       224    1.625550E-01
       225   -1.082770E-02
       226   -7.013452E-03
       227    1.651284E-01
       228   -2.438560E-02
       229    9.441411E-03
       230    9.791110E-02
       231   -1.895429E-04
       232    2.239854E-04
       233   -3.444245E-05
       234   -3.240824E-06
       235   -5.133744E-04
       236   -3.114679E-03
       237   -7.458245E-04
       238    8.791034E-04
       239   -1.332788E-04
       240    1.912643E-03
       241   -3.559332E-03
       242   -5.176661E-03
       243   -9.272644E-03
       244    7.301182E-03
       245    1.971462E-03
       246   -1.039142E-02
       247    3.742491E-03
       248    1.272504E-02
       249   -1.888019E-05
       250   -1.163503E-05
       251   -9.502838E-04
       252   -2.192485E-05
       253   -1.831134E-05
       254    3.019073E-04
       255    4.725528E-05
       256    3.392137E-05
       257    9.730322E-04
       258    3.276855E-04
       259    5.598339E-04
       260    4.685774E-04
       261    1.961529E-02
       262   -1.271021E-05
       263   -2.250547E-05
       264   -4.134387E-04
       265   -5.944087E-03
       266   -4.236537E-04
       267    6.172300E-03
       268    5.631495E-04
       269    4.617243E-04
       270    1.954716E-02
       271   -1.203863E-05
       272    2.145489E-05
       273   -4.149130E-04
       274   -6.013083E-03
       275    3.919954E-04
       276    6.170235E-03
       277    6.360195E-04
       278    2.933255E-03
       279   -3.920431E-02
       280   -1.513517E-05
       281    1.408669E-04
       282    6.520593E-03
       283   -2.099720E-03
       284   -3.094011E-03
       285   -1.963778E-03
       286    6.416597E-04
       287    2.938693E-03
       288   -3.956264E-02
       289   -1.456947E-05
       290   -1.409682E-04
       291    6.522374E-03
       292   -2.113446E-03
       293    3.138253E-03
       294   -1.966609E-03
       295    7.542353E-05
       296    1.763700E-04
       297   -1.872090E-04
       298   -6.322804E-04
       299    7.487557E-03
       300   -6.177603E-04
       301    9.494493E-04
       302   -1.557999E-06
       303   -2.650287E-02
       304    5.646041E-04
       305   -1.040942E-06
       306   -2.846041E-02
       307   -3.301684E-03
       308    4.194070E-05
       309   -8.843332E-03
       310   -3.900315E-05
       311    2.982545E-05
       312    9.177706E-06
       313   -1.758395E-07
       314    3.804204E-03
       315    7.565723E-08
       316   -5.173482E-05
       317   -7.986653E-06
       318    5.972147E-05
       319   -9.301164E-09
       320    1.161303E-02
       321    1.561684E-07
       322    1.061826E-03
       323   -3.164707E-03
       324    2.102880E-03
       325   -2.493966E-05
       326    2.604143E-03
       327    1.925431E-06
       328    7.497070E-06
       329    4.535890E-08
       330    4.759234E-05
       331   -4.235228E-06
       332   -2.493753E-08
       333   -6.336106E-04
       334   -5.823148E-06
       335   -3.591782E-08
       336    5.697587E-04
       337   -4.021462E-09
       338    1.819668E-05
       339    4.037683E-05
       340   -1.184275E-05
       341   -6.317600E-04
       342    6.650046E-03
       343    1.076401E-03
       344   -6.726228E-04
       345    1.323218E-04
       346    6.440749E-02
       347   -7.203995E-04
       348    2.659596E-04
       349    5.988067E-02
       350   -1.876891E-03
       351    5.723698E-04
       352    5.036113E-02
       353   -2.355438E-04
       354    2.233365E-04
       355    6.474409E-03
       356   -4.386066E-06
       357    7.184659E-06
       358   -2.798593E-06
       359   -4.006286E-06
       360    7.477916E-05
       361    3.004721E-04
       362    1.491838E-05
       363    1.550242E-05
       364   -3.042080E-05
       365   -1.863751E-05
       366   -2.571485E-04
       367    1.055493E-03
       368    8.575563E-05
       369   -4.998463E-05
       370   -3.577100E-05
       371   -8.704213E-05
       372   -3.414150E-05
       373    1.275043E-04
       374    1.376075E-06
       375    1.872408E-06
       376   -3.372265E-05
       377   -2.633174E-06
       378    5.400260E-08
       379   -7.410358E-05
       380    7.869756E-07
       381   -2.566101E-06
       382    1.193473E-04
       383   -8.899510E-05
       384    1.822229E-05
       385    4.048503E-05
       386   -1.251898E-05
       387   -6.275766E-04
       388    6.636376E-03
       389    1.049441E-03
       390   -6.760542E-04
       391   -1.226115E-04
       392    6.440999E-02
       393   -7.232431E-04
       394   -2.572828E-04
       395    5.988318E-02
       396   -1.851716E-03
       397   -5.582920E-04
       398    5.035975E-02
       399   -2.224592E-04
       400   -2.262877E-04
       401    6.476911E-03
       402   -4.302632E-06
       403    7.060710E-06
       404   -2.758078E-06
       405    4.029634E-06
       406    7.473367E-05
       407   -3.004917E-04
       408    1.490740E-05
       409    1.516707E-05
       410   -3.007447E-05
       411    1.819462E-05
       412   -2.571662E-04
       413   -1.055597E-03
       414    8.627385E-05
       415   -5.197669E-05
       416   -3.429716E-05
       417    8.553331E-05
       418   -3.483764E-05
       419   -1.269026E-04
       420    1.359541E-06
       421   -1.833361E-06
       422   -3.373150E-05
       423   -2.592516E-06
       424   -7.834425E-08
       425   -7.409805E-05
       426    7.685012E-07
       427    2.538056E-06
       428    1.193536E-04
       429    8.900587E-05
       430   -5.300029E-03
       431   -1.260536E-02
       432    1.971204E-02
       433    3.098303E-02
       434    2.191811E-02
       435    7.559986E-02
       436   -1.984089E-02
       437    9.879312E-06
       438   -2.629100E-01
       439   -2.266576E-02
       440    3.083979E-06
       441   -2.595581E-01
       442   -2.216051E-02
       443   -1.108871E-04
       444   -2.118852E-01
       445    1.117942E-04
       446    1.959008E-05
       447   -1.313843E-04
       448   -2.559050E-07
       449    8.048577E-04
       450    2.802017E-07
       451    2.289793E-04
       452    1.770597E-03
       453   -1.999577E-03
       454    3.580078E-06
       455    3.707762E-03
       456    1.303714E-06
       457    1.968760E-03
       458    3.739998E-03
       459   -5.708758E-03
       460   -1.053371E-06
       461    2.396216E-03
       462    7.190807E-06
       463   -1.627000E-04
       464    3.560251E-08
       465    1.035175E-03
       466   -9.423816E-05
       467    9.911680E-09
       468   -5.540352E-04
       469    3.125231E-04
       470   -5.767746E-08
       471   -8.347979E-04
       472    1.887174E-08
       473   -1.077015E-02
       474   -2.044757E-02
       475   -3.464433E-02
       476   -2.576211E-03
       477   -2.167260E-03
       478   -1.325918E-02
       479    1.148083E-03
       480   -3.951534E-03
       481   -1.509887E-02
       482   -1.076434E-02
       483   -2.038035E-02
       484   -3.446353E-02
       485   -2.572407E-03
       486    2.161228E-03
       487   -1.326211E-02
       488    1.168623E-03
       489    3.919747E-03
       490   -1.510941E-02
 Sym= X
 Ene= -0.724695
 Spin= Alpha
 Occup= -0.724695
         1    2.180959E-05
         2    4.987520E-05
         3   -1.363598E-04
         4    2.597317E-04
         5    9.862258E-03
         6    4.938223E-04
         7   -1.085579E-04
         8   -1.334824E-04
         9    1.601618E-01
        10   -6.316968E-04
        11    3.106376E-06
        12    1.606549E-01
        13    3.944028E-03
        14   -6.307804E-03
        15    8.936820E-02
        16    7.270379E-06
        17   -2.209812E-06
        18   -5.060568E-06
        19    2.308197E-07
        20   -4.329920E-03
        21   -4.457794E-04
        22    1.174043E-04
        23   -7.302507E-05
        24   -4.437918E-05
        25   -1.306166E-05
        26   -8.870179E-03
        27    5.090281E-04
        28   -9.690921E-04
        29    1.120597E-03
        30   -1.515049E-04
        31   -4.986823E-04
        32   -4.095505E-03
        33    1.279985E-03
        34   -4.431754E-06
        35   -7.124278E-07
        36   -9.617580E-04
        37    1.114904E-06
        38    6.948308E-08
        39    1.171566E-03
        40    4.830918E-06
        41    8.863391E-07
        42    1.187681E-04
        43    2.800513E-05
        44    1.926528E-07
        45    3.270020E-07
        46    5.831447E-06
        47   -2.567172E-05
        48   -2.505111E-03
        49   -1.626709E-04
        50   -4.559320E-06
        51    7.602456E-05
        52    1.103159E-05
        53    1.462191E-05
        54    2.460433E-04
        55    7.005835E-06
        56    1.134181E-03
        57   -9.737587E-03
        58   -2.046915E-06
        59   -3.043006E-08
        60   -1.466988E-07
        61    1.771288E-07
        62   -7.713107E-06