[Molden Format]
[Title]
ADC(2) - opt by CAM-B3LYP gaussian                                              
[Atoms] AU
 c     1    6 0.12589710753986E+01 0.22825551554713E+01 -.28105798744860E-01
 c     2    6 0.25558923691721E+01 0.80431469000000E-06 -.26811997747980E-01
 c     3    6 0.12589700738438E+01 -.22825573262942E+01 -.28139341383720E-01
 c     4    6 -.13331755585332E+01 -.22837561874501E+01 -.30470167390540E-01
 c     5    6 -.26866009864883E+01 0.27696298600000E-05 -.30311128039200E-01
 c     6    6 -.13331783742251E+01 0.22837572858534E+01 -.30432977580250E-01
 h     7    1 0.22993222678978E+01 0.40366379181686E+01 -.25216785432900E-01
 h     8    1 0.22993197734593E+01 -.40366408826765E+01 -.25273722881290E-01
 h     9    1 -.23520966897676E+01 -.40562070503646E+01 -.33235309154490E-01
 h    10    1 -.23520900190344E+01 0.40562136478709E+01 -.33159965773570E-01
 n    11    7 0.52762255328692E+01 0.25629411000000E-06 -.20783601308720E-01
 o    12    8 0.63803680214636E+01 -.20270720034092E+01 -.18188232540560E-01
 o    13    8 0.63803692875801E+01 0.20270718545932E+01 -.18282964511600E-01
 n    14    7 -.52484248103301E+01 -.66967170000000E-06 -.81289589624650E-01
 h    15    1 -.62019351690707E+01 -.16149791988436E+01 0.21484054874156E+00
 h    16    1 -.62019367942352E+01 0.16149736265137E+01 0.21486103337284E+00
[GTO]
    1 0
 s    6 1.00
 0.13575349682000E+05 0.60645503603591E-03
 0.20352333680000E+04 0.46979088884982E-02
 0.46322562359000E+03 0.24332477647552E-01
 0.13120019598000E+03 0.97399968307759E-01
 0.42853015891000E+02 0.30195584253780E+00
 0.15584185766000E+02 0.66233609137875E+00
 s    2 1.00
 0.62067138508000E+01 0.65595308539952E+00
 0.25764896527000E+01 0.37585633285142E+00
 s    1 1.00
 0.57696339419000E+00 0.10000000000000E+01
 s    1 1.00
 0.22972831358000E+00 0.10000000000000E+01
 s    1 1.00
 0.95164440028000E-01 0.10000000000000E+01
 s    1 1.00
 0.48475401370000E-01 0.10000000000000E+01
 p    4 1.00
 0.34697232244000E+02 0.11327220003114E-01
 0.79582622826000E+01 0.76169659202087E-01
 0.23780826883000E+01 0.30192252202676E+00
 0.81433208183000E+00 0.72785027349547E+00
 p    1 1.00
 0.28887547253000E+00 0.10000000000000E+01
 p    1 1.00
 0.10056823671000E+00 0.10000000000000E+01
 d    1 1.00
 0.10970000000000E+01 0.10000000000000E+01
 d    1 1.00
 0.31800000000000E+00 0.10000000000000E+01
 d    1 1.00
 0.90985336424000E-01 0.10000000000000E+01
 f    1 1.00
 0.76100000000000E+00 0.10000000000000E+01
 
    2 0
 s    6 1.00
 0.13575349682000E+05 0.60645503603591E-03
 0.20352333680000E+04 0.46979088884982E-02
 0.46322562359000E+03 0.24332477647552E-01
 0.13120019598000E+03 0.97399968307759E-01
 0.42853015891000E+02 0.30195584253780E+00
 0.15584185766000E+02 0.66233609137875E+00
 s    2 1.00
 0.62067138508000E+01 0.65595308539952E+00
 0.25764896527000E+01 0.37585633285142E+00
 s    1 1.00
 0.57696339419000E+00 0.10000000000000E+01
 s    1 1.00
 0.22972831358000E+00 0.10000000000000E+01
 s    1 1.00
 0.95164440028000E-01 0.10000000000000E+01
 s    1 1.00
 0.48475401370000E-01 0.10000000000000E+01
 p    4 1.00
 0.34697232244000E+02 0.11327220003114E-01
 0.79582622826000E+01 0.76169659202087E-01
 0.23780826883000E+01 0.30192252202676E+00
 0.81433208183000E+00 0.72785027349547E+00
 p    1 1.00
 0.28887547253000E+00 0.10000000000000E+01
 p    1 1.00
 0.10056823671000E+00 0.10000000000000E+01
 d    1 1.00
 0.10970000000000E+01 0.10000000000000E+01
 d    1 1.00
 0.31800000000000E+00 0.10000000000000E+01
 d    1 1.00
 0.90985336424000E-01 0.10000000000000E+01
 f    1 1.00
 0.76100000000000E+00 0.10000000000000E+01
 
    3 0
 s    6 1.00
 0.13575349682000E+05 0.60645503603591E-03
 0.20352333680000E+04 0.46979088884982E-02
 0.46322562359000E+03 0.24332477647552E-01
 0.13120019598000E+03 0.97399968307759E-01
 0.42853015891000E+02 0.30195584253780E+00
 0.15584185766000E+02 0.66233609137875E+00
 s    2 1.00
 0.62067138508000E+01 0.65595308539952E+00
 0.25764896527000E+01 0.37585633285142E+00
 s    1 1.00
 0.57696339419000E+00 0.10000000000000E+01
 s    1 1.00
 0.22972831358000E+00 0.10000000000000E+01
 s    1 1.00
 0.95164440028000E-01 0.10000000000000E+01
 s    1 1.00
 0.48475401370000E-01 0.10000000000000E+01
 p    4 1.00
 0.34697232244000E+02 0.11327220003114E-01
 0.79582622826000E+01 0.76169659202087E-01
 0.23780826883000E+01 0.30192252202676E+00
 0.81433208183000E+00 0.72785027349547E+00
 p    1 1.00
 0.28887547253000E+00 0.10000000000000E+01
 p    1 1.00
 0.10056823671000E+00 0.10000000000000E+01
 d    1 1.00
 0.10970000000000E+01 0.10000000000000E+01
 d    1 1.00
 0.31800000000000E+00 0.10000000000000E+01
 d    1 1.00
 0.90985336424000E-01 0.10000000000000E+01
 f    1 1.00
 0.76100000000000E+00 0.10000000000000E+01
 
    4 0
 s    6 1.00
 0.13575349682000E+05 0.60645503603591E-03
 0.20352333680000E+04 0.46979088884982E-02
 0.46322562359000E+03 0.24332477647552E-01
 0.13120019598000E+03 0.97399968307759E-01
 0.42853015891000E+02 0.30195584253780E+00
 0.15584185766000E+02 0.66233609137875E+00
 s    2 1.00
 0.62067138508000E+01 0.65595308539952E+00
 0.25764896527000E+01 0.37585633285142E+00
 s    1 1.00
 0.57696339419000E+00 0.10000000000000E+01
 s    1 1.00
 0.22972831358000E+00 0.10000000000000E+01
 s    1 1.00
 0.95164440028000E-01 0.10000000000000E+01
 s    1 1.00
 0.48475401370000E-01 0.10000000000000E+01
 p    4 1.00
 0.34697232244000E+02 0.11327220003114E-01
 0.79582622826000E+01 0.76169659202087E-01
 0.23780826883000E+01 0.30192252202676E+00
 0.81433208183000E+00 0.72785027349547E+00
 p    1 1.00
 0.28887547253000E+00 0.10000000000000E+01
 p    1 1.00
 0.10056823671000E+00 0.10000000000000E+01
 d    1 1.00
 0.10970000000000E+01 0.10000000000000E+01
 d    1 1.00
 0.31800000000000E+00 0.10000000000000E+01
 d    1 1.00
 0.90985336424000E-01 0.10000000000000E+01
 f    1 1.00
 0.76100000000000E+00 0.10000000000000E+01
 
    5 0
 s    6 1.00
 0.13575349682000E+05 0.60645503603591E-03
 0.20352333680000E+04 0.46979088884982E-02
 0.46322562359000E+03 0.24332477647552E-01
 0.13120019598000E+03 0.97399968307759E-01
 0.42853015891000E+02 0.30195584253780E+00
 0.15584185766000E+02 0.66233609137875E+00
 s    2 1.00
 0.62067138508000E+01 0.65595308539952E+00
 0.25764896527000E+01 0.37585633285142E+00
 s    1 1.00
 0.57696339419000E+00 0.10000000000000E+01
 s    1 1.00
 0.22972831358000E+00 0.10000000000000E+01
 s    1 1.00
 0.95164440028000E-01 0.10000000000000E+01
 s    1 1.00
 0.48475401370000E-01 0.10000000000000E+01
 p    4 1.00
 0.34697232244000E+02 0.11327220003114E-01
 0.79582622826000E+01 0.76169659202087E-01
 0.23780826883000E+01 0.30192252202676E+00
 0.81433208183000E+00 0.72785027349547E+00
 p    1 1.00
 0.28887547253000E+00 0.10000000000000E+01
 p    1 1.00
 0.10056823671000E+00 0.10000000000000E+01
 d    1 1.00
 0.10970000000000E+01 0.10000000000000E+01
 d    1 1.00
 0.31800000000000E+00 0.10000000000000E+01
 d    1 1.00
 0.90985336424000E-01 0.10000000000000E+01
 f    1 1.00
 0.76100000000000E+00 0.10000000000000E+01
 
    6 0
 s    6 1.00
 0.13575349682000E+05 0.60645503603591E-03
 0.20352333680000E+04 0.46979088884982E-02
 0.46322562359000E+03 0.24332477647552E-01
 0.13120019598000E+03 0.97399968307759E-01
 0.42853015891000E+02 0.30195584253780E+00
 0.15584185766000E+02 0.66233609137875E+00
 s    2 1.00
 0.62067138508000E+01 0.65595308539952E+00
 0.25764896527000E+01 0.37585633285142E+00
 s    1 1.00
 0.57696339419000E+00 0.10000000000000E+01
 s    1 1.00
 0.22972831358000E+00 0.10000000000000E+01
 s    1 1.00
 0.95164440028000E-01 0.10000000000000E+01
 s    1 1.00
 0.48475401370000E-01 0.10000000000000E+01
 p    4 1.00
 0.34697232244000E+02 0.11327220003114E-01
 0.79582622826000E+01 0.76169659202087E-01
 0.23780826883000E+01 0.30192252202676E+00
 0.81433208183000E+00 0.72785027349547E+00
 p    1 1.00
 0.28887547253000E+00 0.10000000000000E+01
 p    1 1.00
 0.10056823671000E+00 0.10000000000000E+01
 d    1 1.00
 0.10970000000000E+01 0.10000000000000E+01
 d    1 1.00
 0.31800000000000E+00 0.10000000000000E+01
 d    1 1.00
 0.90985336424000E-01 0.10000000000000E+01
 f    1 1.00
 0.76100000000000E+00 0.10000000000000E+01
 
    7 0
 s    3 1.00
 0.34061341000000E+02 0.25439307208879E-01
 0.51235746000000E+01 0.19008594890375E+00
 0.11646626000000E+01 0.85244113011042E+00
 s    1 1.00
 0.32723041000000E+00 0.10000000000000E+01
 s    1 1.00
 0.10307241000000E+00 0.10000000000000E+01
 p    1 1.00
 0.80000000000000E+00 0.10000000000000E+01
 p    1 1.00
 0.95774129632000E-01 0.10000000000000E+01
 
    8 0
 s    3 1.00
 0.34061341000000E+02 0.25439307208879E-01
 0.51235746000000E+01 0.19008594890375E+00
 0.11646626000000E+01 0.85244113011042E+00
 s    1 1.00
 0.32723041000000E+00 0.10000000000000E+01
 s    1 1.00
 0.10307241000000E+00 0.10000000000000E+01
 p    1 1.00
 0.80000000000000E+00 0.10000000000000E+01
 p    1 1.00
 0.95774129632000E-01 0.10000000000000E+01
 
    9 0
 s    3 1.00
 0.34061341000000E+02 0.25439307208879E-01
 0.51235746000000E+01 0.19008594890375E+00
 0.11646626000000E+01 0.85244113011042E+00
 s    1 1.00
 0.32723041000000E+00 0.10000000000000E+01
 s    1 1.00
 0.10307241000000E+00 0.10000000000000E+01
 p    1 1.00
 0.80000000000000E+00 0.10000000000000E+01
 p    1 1.00
 0.95774129632000E-01 0.10000000000000E+01
 
   10 0
 s    3 1.00
 0.34061341000000E+02 0.25439307208879E-01
 0.51235746000000E+01 0.19008594890375E+00
 0.11646626000000E+01 0.85244113011042E+00
 s    1 1.00
 0.32723041000000E+00 0.10000000000000E+01
 s    1 1.00
 0.10307241000000E+00 0.10000000000000E+01
 p    1 1.00
 0.80000000000000E+00 0.10000000000000E+01
 p    1 1.00
 0.95774129632000E-01 0.10000000000000E+01
 
   11 0
 s    6 1.00
 0.19730800647000E+05 0.58626402628763E-03
 0.29578958745000E+04 0.45428820586397E-02
 0.67322133595000E+03 0.23558413450084E-01
 0.19068249494000E+03 0.94709193292923E-01
 0.62295441898000E+02 0.29719784913376E+00
 0.22654161182000E+02 0.66916246895232E+00
 s    2 1.00
 0.89791477428000E+01 0.64596683630063E+00
 0.36863002370000E+01 0.38700574393705E+00
 s    1 1.00
 0.84660076805000E+00 0.10000000000000E+01
 s    1 1.00
 0.33647133771000E+00 0.10000000000000E+01
 s    1 1.00
 0.13647653675000E+00 0.10000000000000E+01
 s    1 1.00
 0.68441605847000E-01 0.10000000000000E+01
 p    4 1.00
 0.49200380510000E+02 0.11448825101764E-01
 0.11346790537000E+02 0.78422337970864E-01
 0.34273972411000E+01 0.30818094738830E+00
 0.11785525134000E+01 0.72027196368413E+00
 p    1 1.00
 0.41642204972000E+00 0.10000000000000E+01
 p    1 1.00
 0.14260826011000E+00 0.10000000000000E+01
 d    1 1.00
 0.16540000000000E+01 0.10000000000000E+01
 d    1 1.00
 0.46900000000000E+00 0.10000000000000E+01
 d    1 1.00
 0.12829642058000E+00 0.10000000000000E+01
 f    1 1.00
 0.10930000000000E+01 0.10000000000000E+01
 
   12 0
 s    6 1.00
 0.27032382631000E+05 0.57227335211155E-03
 0.40523871392000E+04 0.44353233492995E-02
 0.92232722710000E+03 0.23020107706038E-01
 0.26124070989000E+03 0.92822490667928E-01
 0.85354641351000E+02 0.29378500009671E+00
 0.31035035245000E+02 0.67401604501641E+00
 s    2 1.00
 0.12260860728000E+02 0.63839937025506E+00
 0.49987076005000E+01 0.39534587125718E+00
 s    1 1.00
 0.11703108158000E+01 0.10000000000000E+01
 s    1 1.00
 0.46474740994000E+00 0.10000000000000E+01
 s    1 1.00
 0.18504536357000E+00 0.10000000000000E+01
 s    1 1.00
 0.70288026270000E-01 0.10000000000000E+01
 p    4 1.00
 0.63274954801000E+02 0.12018332222616E-01
 0.14627049379000E+02 0.83005421790056E-01
 0.44501223456000E+01 0.31991743925964E+00
 0.15275799647000E+01 0.70715542916104E+00
 p    1 1.00
 0.52935117943000E+00 0.10000000000000E+01
 p    1 1.00
 0.17478421270000E+00 0.10000000000000E+01
 p    1 1.00
 0.51112745706000E-01 0.10000000000000E+01
 d    1 1.00
 0.23140000000000E+01 0.10000000000000E+01
 d    1 1.00
 0.64500000000000E+00 0.10000000000000E+01
 d    1 1.00
 0.14696477366000E+00 0.10000000000000E+01
 f    1 1.00
 0.14280000000000E+01 0.10000000000000E+01
 
   13 0
 s    6 1.00
 0.27032382631000E+05 0.57227335211155E-03
 0.40523871392000E+04 0.44353233492995E-02
 0.92232722710000E+03 0.23020107706038E-01
 0.26124070989000E+03 0.92822490667928E-01
 0.85354641351000E+02 0.29378500009671E+00
 0.31035035245000E+02 0.67401604501641E+00
 s    2 1.00
 0.12260860728000E+02 0.63839937025506E+00
 0.49987076005000E+01 0.39534587125718E+00
 s    1 1.00
 0.11703108158000E+01 0.10000000000000E+01
 s    1 1.00
 0.46474740994000E+00 0.10000000000000E+01
 s    1 1.00
 0.18504536357000E+00 0.10000000000000E+01
 s    1 1.00
 0.70288026270000E-01 0.10000000000000E+01
 p    4 1.00
 0.63274954801000E+02 0.12018332222616E-01
 0.14627049379000E+02 0.83005421790056E-01
 0.44501223456000E+01 0.31991743925964E+00
 0.15275799647000E+01 0.70715542916104E+00
 p    1 1.00
 0.52935117943000E+00 0.10000000000000E+01
 p    1 1.00
 0.17478421270000E+00 0.10000000000000E+01
 p    1 1.00
 0.51112745706000E-01 0.10000000000000E+01
 d    1 1.00
 0.23140000000000E+01 0.10000000000000E+01
 d    1 1.00
 0.64500000000000E+00 0.10000000000000E+01
 d    1 1.00
 0.14696477366000E+00 0.10000000000000E+01
 f    1 1.00
 0.14280000000000E+01 0.10000000000000E+01
 
   14 0
 s    6 1.00
 0.19730800647000E+05 0.58626402628763E-03
 0.29578958745000E+04 0.45428820586397E-02
 0.67322133595000E+03 0.23558413450084E-01
 0.19068249494000E+03 0.94709193292923E-01
 0.62295441898000E+02 0.29719784913376E+00
 0.22654161182000E+02 0.66916246895232E+00
 s    2 1.00
 0.89791477428000E+01 0.64596683630063E+00
 0.36863002370000E+01 0.38700574393705E+00
 s    1 1.00
 0.84660076805000E+00 0.10000000000000E+01
 s    1 1.00
 0.33647133771000E+00 0.10000000000000E+01
 s    1 1.00
 0.13647653675000E+00 0.10000000000000E+01
 s    1 1.00
 0.68441605847000E-01 0.10000000000000E+01
 p    4 1.00
 0.49200380510000E+02 0.11448825101764E-01
 0.11346790537000E+02 0.78422337970864E-01
 0.34273972411000E+01 0.30818094738830E+00
 0.11785525134000E+01 0.72027196368413E+00
 p    1 1.00
 0.41642204972000E+00 0.10000000000000E+01
 p    1 1.00
 0.14260826011000E+00 0.10000000000000E+01
 d    1 1.00
 0.16540000000000E+01 0.10000000000000E+01
 d    1 1.00
 0.46900000000000E+00 0.10000000000000E+01
 d    1 1.00
 0.12829642058000E+00 0.10000000000000E+01
 f    1 1.00
 0.10930000000000E+01 0.10000000000000E+01
 
   15 0
 s    3 1.00
 0.34061341000000E+02 0.25439307208879E-01
 0.51235746000000E+01 0.19008594890375E+00
 0.11646626000000E+01 0.85244113011042E+00
 s    1 1.00
 0.32723041000000E+00 0.10000000000000E+01
 s    1 1.00
 0.10307241000000E+00 0.10000000000000E+01
 p    1 1.00
 0.80000000000000E+00 0.10000000000000E+01
 p    1 1.00
 0.95774129632000E-01 0.10000000000000E+01
 
   16 0
 s    3 1.00
 0.34061341000000E+02 0.25439307208879E-01
 0.51235746000000E+01 0.19008594890375E+00
 0.11646626000000E+01 0.85244113011042E+00
 s    1 1.00
 0.32723041000000E+00 0.10000000000000E+01
 s    1 1.00
 0.10307241000000E+00 0.10000000000000E+01
 p    1 1.00
 0.80000000000000E+00 0.10000000000000E+01
 p    1 1.00
 0.95774129632000E-01 0.10000000000000E+01
 
[MO]
 Sym= X
 Ene= -0.292347
 Spin= Alpha
 Occup= -0.292347
         1    2.692181E-05
         2    6.157546E-05
         3   -1.642364E-04
         4    2.843390E-04
         5    1.066707E-02
         6    6.463984E-04
         7   -1.419475E-04
         8   -1.801597E-04
         9    1.892346E-01
        10   -7.059855E-04
        11   -2.884365E-05
        12    1.897809E-01
        13    3.982541E-03
        14   -6.792348E-03
        15    1.111014E-01
        16    8.743712E-06
        17   -3.129119E-06
        18   -5.614593E-06
        19   -8.326701E-07
        20   -4.974713E-03
        21   -5.521227E-04
        22    1.275962E-04
        23   -7.978368E-05
        24   -4.781256E-05
        25   -1.808289E-05
        26   -9.519014E-03
        27    4.001309E-04
        28   -8.894990E-04
        29    1.037871E-03
        30   -1.483721E-04
        31   -4.998809E-04
        32   -2.972472E-03
        33   -2.478852E-04
        34   -5.263044E-06
        35   -8.328817E-07
        36   -1.175426E-03
        37    1.275765E-06
        38    4.797786E-09
        39    1.419985E-03
        40    5.785349E-06
        41    1.112630E-06
        42    1.570146E-04
        43   -1.757310E-07
        44   -1.836077E-08
        45   -1.807337E-07
        46    8.637175E-06
        47   -3.188646E-05
        48   -2.963999E-03
        49   -2.122847E-04
        50   -2.203959E-06
        51    1.023532E-04
        52    9.203931E-06
        53    1.965624E-05
        54    2.710735E-04
        55    4.029050E-06
        56    1.315004E-03
        57   -1.025208E-02
        58   -1.159429E-05
        59    1.113135E-07
        60   -2.758376E-07
        61    1.645242E-07
        62   -1.049762E-05
        63   -1.039102E-07
        64    7.121028E-03
        65    2.152995E-06
        66   -8.665236E-06
        67    6.512242E-06
        68   -9.429180E-05
        69    1.605934E-06
        70    1.606790E-02
        71   -7.123709E-05
        72    8.999109E-06
        73    6.223798E-05
        74    1.440532E-03
        75    4.068202E-06
        76    1.765781E-03
        77   -6.964831E-08
        78    1.601026E-07
        79    2.966050E-08
        80    2.157429E-07
        81    1.952262E-06
        82   -1.173900E-08
        83   -1.222998E-07
        84   -2.167062E-06
        85   -2.805473E-08
        86   -1.016368E-03
        87   -2.598705E-05
        88   -5.932240E-05
        89    1.405024E-04
        90   -1.956247E-04
        91   -4.965894E-03
        92   -3.319634E-04
        93    1.401429E-04
        94   -1.737132E-04
        95   -1.892324E-01
        96    6.263255E-04
        97    1.911945E-05
        98   -1.897769E-01
        99   -5.593524E-03
       100   -4.291107E-03
       101   -1.110144E-01
       102   -8.708760E-06
       103    2.919198E-06
       104    5.789562E-06
       105   -4.804391E-07
       106    4.975708E-03
       107   -5.519480E-04
       108   -1.050762E-04
       109    7.250861E-05
       110    3.256754E-05
       111   -6.008205E-06
       112    9.521159E-03
       113    4.031968E-04
       114    8.535751E-04
       115   -8.937360E-04
       116    4.016091E-05
       117   -6.468682E-04
       118    2.957252E-03
       119   -2.338030E-04
       120    4.556910E-06
       121   -5.992927E-07
       122    1.175486E-03
       123   -8.110693E-07
       124    1.737292E-07
       125   -1.420205E-03
       126   -5.302667E-06
       127    6.303063E-07
       128   -1.568747E-04
       129   -4.012722E-10
       130    1.430463E-05
       131    3.423900E-05
       132   -1.485961E-04
       133    7.657572E-04
       134    9.504451E-03
       135    3.939955E-04
       136    1.835622E-04
       137    5.431691E-05
       138   -2.005865E-01
       139    4.364084E-04
       140    1.563875E-04
       141   -2.033202E-01
       142   -6.771262E-03
       143    6.847085E-03
       144   -1.302982E-01
       145    1.452073E-05
       146    2.508969E-06
       147   -1.702969E-05
       148   -7.169140E-06
       149   -4.671549E-03
       150   -4.885155E-04
       151    1.632545E-04
       152   -5.204921E-05
       153   -1.112053E-04
       154   -7.832756E-05
       155   -8.317948E-03
       156   -6.875670E-04
       157   -2.108150E-04
       158    4.298095E-04
       159   -2.189945E-04
       160   -1.141090E-03
       161    4.407865E-04
       162   -2.783351E-03
       163    5.924920E-06
       164    1.187672E-06
       165    1.315910E-03
       166   -3.640180E-06
       167    6.307297E-07
       168   -1.467500E-03
       169   -4.308935E-06
       170   -2.224159E-06
       171   -2.979788E-04
       172    4.663255E-05
       173   -2.736880E-07
       174   -4.361134E-07
       175   -1.010721E-05
       176    3.006589E-05
       177    3.574894E-03
       178    2.516153E-04
       179   -1.207411E-06
       180   -1.362935E-04
       181   -6.486770E-06
       182    2.615321E-05
       183   -1.084147E-04
       184   -2.826331E-06
       185    1.368792E-03
       186    1.671899E-02
       187    7.241293E-06
       188   -3.771789E-07
       189    1.349971E-07
       190    2.421818E-07
       191    2.425972E-05
       192   -1.029010E-06
       193    7.525182E-03
       194   -2.112310E-07
       195    1.049781E-05
       196   -1.028658E-05
       197    9.286801E-05
       198   -9.788148E-07
       199    1.570273E-02
       200    7.764401E-05
       201    7.241670E-06
       202   -8.488568E-05
       203    2.516075E-03
       204   -1.249913E-07
       205   -4.005581E-03
       206   -1.136071E-07
       207    4.882812E-06
       208   -2.922421E-08
       209    3.660880E-07
       210   -4.412850E-06
       211    1.498916E-07
       212   -2.136680E-07
       213   -2.138130E-06
       214   -1.106833E-07
       215    1.184126E-03
       216   -1.529091E-05
       217   -3.661426E-05
       218    1.759953E-04
       219   -8.710310E-04
       220   -1.572189E-02
       221   -7.226482E-04
       222   -1.876763E-04
       223    5.539568E-05
       224    2.005599E-01
       225   -5.102610E-04
       226    2.093614E-04
       227    2.032925E-01
       228    5.381221E-03
       229    9.526670E-03
       230    1.301933E-01
       231   -1.463471E-05
       232   -1.940305E-06
       233    1.657501E-05
       234   -7.748467E-06
       235    4.671806E-03
       236   -4.883110E-04
       237   -1.852542E-04
       238    5.567598E-05
       239    1.295782E-04
       240   -9.152547E-05
       241    8.318389E-03
       242   -6.849026E-04
       243    2.346960E-04
       244   -5.682628E-04
       245    3.335669E-04
       246   -1.005611E-03
       247   -4.524532E-04
       248   -2.775952E-03
       249   -6.675429E-06
       250    1.503627E-06
       251   -1.315769E-03
       252    4.277544E-06
       253    7.194713E-07
       254    1.467503E-03
       255    4.678485E-06
       256   -2.736799E-06
       257    2.977860E-04
       258    4.653912E-05
       259   -3.226267E-05
       260   -2.557238E-05
       261    9.112213E-04
       262   -1.095569E-05
       263   -2.068869E-06
       264    7.756226E-03
       265    5.636826E-05
       266   -3.530734E-04
       267    7.388622E-03
       268    2.800787E-05
       269    4.604596E-05
       270   -1.418091E-04
       271    1.023670E-05
       272    2.207336E-07
       273   -7.755962E-03
       274   -1.226196E-04
       275   -1.352316E-04
       276   -7.379412E-03
       277    8.829431E-06
       278    3.533586E-05
       279    1.928430E-03
       280    2.012813E-05
       281    7.561477E-06
       282   -8.638358E-03
       283    4.304820E-04
       284    1.029970E-04
       285   -9.623638E-03
       286   -3.217271E-06
       287   -4.490145E-05
       288   -2.710731E-03
       289   -2.076343E-05
       290    9.099789E-06
       291    8.637238E-03
       292   -5.316678E-04
       293    3.204747E-04
       294    9.622472E-03
       295   -3.902695E-08
       296   -1.470901E-07
       297    1.004107E-06
       298   -7.431803E-06
       299   -7.613452E-05
       300    1.339595E-04
       301   -3.854202E-07
       302   -1.107481E-05
       303   -2.880509E-07
       304    2.771269E-06
       305    1.053832E-05
       306    2.683810E-07
       307    2.225925E-05
       308    3.333160E-04
       309   -6.888750E-07
       310   -7.724948E-08
       311    2.746032E-08
       312    4.978916E-08
       313    7.829153E-07
       314   -1.770257E-07
       315   -6.155817E-04
       316   -5.347069E-07
       317    6.765257E-07
       318   -1.418189E-07
       319   -1.106019E-05
       320   -4.913282E-07
       321   -1.398420E-03
       322    5.712537E-06
       323    8.330420E-06
       324   -1.404296E-05
       325   -1.677512E-04
       326    1.823005E-06
       327   -2.045008E-03
       328    2.510343E-09
       329   -7.383952E-07
       330    5.389766E-09
       331   -1.215125E-08
       332    2.133285E-06
       333    2.371072E-08
       334    8.783272E-09
       335   -1.142624E-06
       336   -3.094185E-08
       337   -2.750916E-04
       338   -8.335011E-07
       339   -2.125002E-06
       340    4.464645E-06
       341   -9.124734E-06
       342    3.331571E-05
       343    3.923925E-06
       344   -9.404640E-05
       345   -5.482788E-06
       346    2.343176E-02
       347   -8.202864E-05
       348   -2.366385E-06
       349    2.205915E-02
       350   -1.744251E-04
       351   -3.770709E-05
       352    1.537104E-02
       353   -2.535185E-05
       354   -1.695259E-05
       355   -1.374959E-04
       356   -7.975759E-08
       357    1.686161E-07
       358   -8.885851E-08
       359   -5.456991E-07
       360   -4.302331E-05
       361    1.748486E-04
       362    2.969631E-06
       363   -7.094219E-07
       364   -2.260210E-06
       365   -3.855205E-06
       366   -1.861280E-04
       367    7.564031E-04
       368    1.030828E-05
       369   -1.935278E-05
       370    9.044506E-06
       371   -1.109858E-05
       372    3.598376E-04
       373   -3.172090E-04
       374    1.760705E-07
       375   -8.706814E-08
       376   -1.930938E-05
       377   -2.652570E-07
       378    4.402231E-07
       379   -2.689137E-05
       380    2.903357E-08
       381   -3.234089E-07
       382    5.279762E-05
       383   -6.057486E-05
       384    6.393289E-07
       385    1.668284E-06
       386   -4.012201E-06
       387    1.221834E-05
       388   -8.477888E-05
       389   -6.798881E-05
       390    8.994822E-05
       391   -4.760967E-06
       392   -2.343793E-02
       393    8.000776E-05
       394   -1.099448E-06
       395   -2.206446E-02
       396    1.750610E-04
       397   -2.450700E-05
       398   -1.537749E-02
       399    3.128023E-05
       400   -1.035618E-05
       401    1.371000E-04
       402    6.804588E-08
       403   -1.794088E-07
       404    1.113629E-07
       405   -4.700366E-07
       406    4.303505E-05
       407    1.749046E-04
       408   -2.790199E-06
       409    6.510597E-07
       410    2.139140E-06
       411   -4.031381E-06
       412    1.861780E-04
       413    7.565996E-04
       414   -1.009751E-05
       415    1.754295E-05
       416   -7.445433E-06
       417   -9.575518E-06
       418   -3.602882E-04
       419   -3.162226E-04
       420   -1.827849E-07
       421   -7.327063E-08
       422    1.932021E-05
       423    2.513436E-07
       424    4.259572E-07
       425    2.690008E-05
       426   -6.111851E-09
       427   -3.276543E-07
       428   -5.282086E-05
       429   -6.059150E-05
       430    8.415145E-07
       431    2.081408E-06
       432   -4.259241E-06
       433    6.664781E-06
       434    1.175918E-05
       435   -8.719488E-05
       436    4.276365E-07
       437   -9.976430E-04
       438    2.639492E-05
       439    4.128465E-06
       440   -1.263322E-03
       441    2.629387E-05
       442   -4.751966E-05
       443   -1.564752E-03
       444    2.108897E-05
       445   -3.623018E-08
       446    6.456003E-08
       447   -2.832984E-08
       448   -2.083262E-05
       449   -4.039142E-08
       450    2.999791E-04
       451   -1.063607E-07
       452   -8.539674E-07
       453    9.603280E-07
       454    4.158473E-05
       455    4.366005E-08
       456    6.466009E-04
       457   -1.548894E-05
       458    5.757207E-06
       459    9.731732E-06
       460    5.414950E-04
       461   -8.443378E-07
       462   -9.160532E-04
       463    2.010678E-08
       464   -4.370889E-06
       465   -1.014267E-07
       466   -1.452991E-08
       467   -1.584544E-05
       468    7.939001E-08
       469   -1.244616E-08
       470    2.170960E-05
       471    5.668814E-08
       472    1.335723E-04
       473   -6.842191E-05
       474   -5.812356E-04
       475   -3.574563E-03
       476   -7.143774E-05
       477   -7.910600E-05
       478   -3.700392E-04
       479   -2.428833E-04
       480   -7.731847E-04
       481   -1.852176E-03
       482    7.103257E-05
       483    5.884324E-04
       484    3.548092E-03
       485    7.264544E-05
       486   -7.986607E-05
       487    3.724808E-04
       488    2.229218E-04
       489   -7.781249E-04
       490    1.851949E-03
 Sym= X
 Ene= -0.668263
 Spin= Alpha
 Occup= -0.668263
         1    1.436619E-04
         2    3.362379E-04
         3   -1.039883E-03
         4    2.753675E-03
         5    7.233546E-03
         6    1.052961E-02
         7    1.244199E-03
         8    1.467995E-04
         9   -3.486644E-02
        10   -2.530972E-03
        11    3.310568E-04
        12   -3.294150E-02
        13   -3.359797E-02
        14    1.143411E-02
        15   -1.016483E-02
        16    7.922056E-06
        17    5.407088E-06
        18   -1.332914E-05
        19    4.883011E-06
        20   -6.471971E-03
        21    4.172235E-03
        22    6.448699E-04
        23   -3.818182E-04
        24   -2.630517E-04
        25    6.372088E-04
        26   -1.460413E-02
        27    7.809682E-03
        28    4.944538E-03
        29   -4.689632E-03
        30   -2.549061E-04
        31   -9.393558E-04
        32    1.319079E-03
        33   -9.183135E-03
        34   -2.009475E-05
        35    5.443524E-06
        36    1.792930E-04
        37    8.974777E-06
        38   -5.330220E-06
        39    6.792316E-04
        40    1.798516E-05
        41   -1.973034E-06
        42   -9.197784E-04
        43    7.442134E-04
        44   -2.304950E-05
        45   -5.054833E-05
        46   -1.095631E-04
        47    2.400823E-03
        48    5.266822E-02
        49   -4.640275E-03
        50    4.558350E-04
        51    3.057123E-06
        52   -2.193824E-01
        53   -2.745328E-04
        54    1.713545E-05
        55   -2.271939E-01
        56   -1.619929E-02
        57   -6.130167E-04
        58   -2.034053E-01
        59   -2.712081E-05
        60    2.463453E-05
        61    2.486276E-06
        62   -1.211995E-07