[Molden Format]
[Title]
ADC(2) - opt by CAM-B3LYP gaussian                                              
[Atoms] AU
 c     1    6 0.12589710753986E+01 0.22825551554713E+01 -.28105798744860E-01
 c     2    6 0.25558923691721E+01 0.80431469000000E-06 -.26811997747980E-01
 c     3    6 0.12589700738438E+01 -.22825573262942E+01 -.28139341383720E-01
 c     4    6 -.13331755585332E+01 -.22837561874501E+01 -.30470167390540E-01
 c     5    6 -.26866009864883E+01 0.27696298600000E-05 -.30311128039200E-01
 c     6    6 -.13331783742251E+01 0.22837572858534E+01 -.30432977580250E-01
 h     7    1 0.22993222678978E+01 0.40366379181686E+01 -.25216785432900E-01
 h     8    1 0.22993197734593E+01 -.40366408826765E+01 -.25273722881290E-01
 h     9    1 -.23520966897676E+01 -.40562070503646E+01 -.33235309154490E-01
 h    10    1 -.23520900190344E+01 0.40562136478709E+01 -.33159965773570E-01
 n    11    7 0.52762255328692E+01 0.25629411000000E-06 -.20783601308720E-01
 o    12    8 0.63803680214636E+01 -.20270720034092E+01 -.18188232540560E-01
 o    13    8 0.63803692875801E+01 0.20270718545932E+01 -.18282964511600E-01
 n    14    7 -.52484248103301E+01 -.66967170000000E-06 -.81289589624650E-01
 h    15    1 -.62019351690707E+01 -.16149791988436E+01 0.21484054874156E+00
 h    16    1 -.62019367942352E+01 0.16149736265137E+01 0.21486103337284E+00
[GTO]
    1 0
 s    6 1.00
 0.13575349682000E+05 0.60645503603591E-03
 0.20352333680000E+04 0.46979088884982E-02
 0.46322562359000E+03 0.24332477647552E-01
 0.13120019598000E+03 0.97399968307759E-01
 0.42853015891000E+02 0.30195584253780E+00
 0.15584185766000E+02 0.66233609137875E+00
 s    2 1.00
 0.62067138508000E+01 0.65595308539952E+00
 0.25764896527000E+01 0.37585633285142E+00
 s    1 1.00
 0.57696339419000E+00 0.10000000000000E+01
 s    1 1.00
 0.22972831358000E+00 0.10000000000000E+01
 s    1 1.00
 0.95164440028000E-01 0.10000000000000E+01
 s    1 1.00
 0.48475401370000E-01 0.10000000000000E+01
 p    4 1.00
 0.34697232244000E+02 0.11327220003114E-01
 0.79582622826000E+01 0.76169659202087E-01
 0.23780826883000E+01 0.30192252202676E+00
 0.81433208183000E+00 0.72785027349547E+00
 p    1 1.00
 0.28887547253000E+00 0.10000000000000E+01
 p    1 1.00
 0.10056823671000E+00 0.10000000000000E+01
 d    1 1.00
 0.10970000000000E+01 0.10000000000000E+01
 d    1 1.00
 0.31800000000000E+00 0.10000000000000E+01
 d    1 1.00
 0.90985336424000E-01 0.10000000000000E+01
 f    1 1.00
 0.76100000000000E+00 0.10000000000000E+01
 
    2 0
 s    6 1.00
 0.13575349682000E+05 0.60645503603591E-03
 0.20352333680000E+04 0.46979088884982E-02
 0.46322562359000E+03 0.24332477647552E-01
 0.13120019598000E+03 0.97399968307759E-01
 0.42853015891000E+02 0.30195584253780E+00
 0.15584185766000E+02 0.66233609137875E+00
 s    2 1.00
 0.62067138508000E+01 0.65595308539952E+00
 0.25764896527000E+01 0.37585633285142E+00
 s    1 1.00
 0.57696339419000E+00 0.10000000000000E+01
 s    1 1.00
 0.22972831358000E+00 0.10000000000000E+01
 s    1 1.00
 0.95164440028000E-01 0.10000000000000E+01
 s    1 1.00
 0.48475401370000E-01 0.10000000000000E+01
 p    4 1.00
 0.34697232244000E+02 0.11327220003114E-01
 0.79582622826000E+01 0.76169659202087E-01
 0.23780826883000E+01 0.30192252202676E+00
 0.81433208183000E+00 0.72785027349547E+00
 p    1 1.00
 0.28887547253000E+00 0.10000000000000E+01
 p    1 1.00
 0.10056823671000E+00 0.10000000000000E+01
 d    1 1.00
 0.10970000000000E+01 0.10000000000000E+01
 d    1 1.00
 0.31800000000000E+00 0.10000000000000E+01
 d    1 1.00
 0.90985336424000E-01 0.10000000000000E+01
 f    1 1.00
 0.76100000000000E+00 0.10000000000000E+01
 
    3 0
 s    6 1.00
 0.13575349682000E+05 0.60645503603591E-03
 0.20352333680000E+04 0.46979088884982E-02
 0.46322562359000E+03 0.24332477647552E-01
 0.13120019598000E+03 0.97399968307759E-01
 0.42853015891000E+02 0.30195584253780E+00
 0.15584185766000E+02 0.66233609137875E+00
 s    2 1.00
 0.62067138508000E+01 0.65595308539952E+00
 0.25764896527000E+01 0.37585633285142E+00
 s    1 1.00
 0.57696339419000E+00 0.10000000000000E+01
 s    1 1.00
 0.22972831358000E+00 0.10000000000000E+01
 s    1 1.00
 0.95164440028000E-01 0.10000000000000E+01
 s    1 1.00
 0.48475401370000E-01 0.10000000000000E+01
 p    4 1.00
 0.34697232244000E+02 0.11327220003114E-01
 0.79582622826000E+01 0.76169659202087E-01
 0.23780826883000E+01 0.30192252202676E+00
 0.81433208183000E+00 0.72785027349547E+00
 p    1 1.00
 0.28887547253000E+00 0.10000000000000E+01
 p    1 1.00
 0.10056823671000E+00 0.10000000000000E+01
 d    1 1.00
 0.10970000000000E+01 0.10000000000000E+01
 d    1 1.00
 0.31800000000000E+00 0.10000000000000E+01
 d    1 1.00
 0.90985336424000E-01 0.10000000000000E+01
 f    1 1.00
 0.76100000000000E+00 0.10000000000000E+01
 
    4 0
 s    6 1.00
 0.13575349682000E+05 0.60645503603591E-03
 0.20352333680000E+04 0.46979088884982E-02
 0.46322562359000E+03 0.24332477647552E-01
 0.13120019598000E+03 0.97399968307759E-01
 0.42853015891000E+02 0.30195584253780E+00
 0.15584185766000E+02 0.66233609137875E+00
 s    2 1.00
 0.62067138508000E+01 0.65595308539952E+00
 0.25764896527000E+01 0.37585633285142E+00
 s    1 1.00
 0.57696339419000E+00 0.10000000000000E+01
 s    1 1.00
 0.22972831358000E+00 0.10000000000000E+01
 s    1 1.00
 0.95164440028000E-01 0.10000000000000E+01
 s    1 1.00
 0.48475401370000E-01 0.10000000000000E+01
 p    4 1.00
 0.34697232244000E+02 0.11327220003114E-01
 0.79582622826000E+01 0.76169659202087E-01
 0.23780826883000E+01 0.30192252202676E+00
 0.81433208183000E+00 0.72785027349547E+00
 p    1 1.00
 0.28887547253000E+00 0.10000000000000E+01
 p    1 1.00
 0.10056823671000E+00 0.10000000000000E+01
 d    1 1.00
 0.10970000000000E+01 0.10000000000000E+01
 d    1 1.00
 0.31800000000000E+00 0.10000000000000E+01
 d    1 1.00
 0.90985336424000E-01 0.10000000000000E+01
 f    1 1.00
 0.76100000000000E+00 0.10000000000000E+01
 
    5 0
 s    6 1.00
 0.13575349682000E+05 0.60645503603591E-03
 0.20352333680000E+04 0.46979088884982E-02
 0.46322562359000E+03 0.24332477647552E-01
 0.13120019598000E+03 0.97399968307759E-01
 0.42853015891000E+02 0.30195584253780E+00
 0.15584185766000E+02 0.66233609137875E+00
 s    2 1.00
 0.62067138508000E+01 0.65595308539952E+00
 0.25764896527000E+01 0.37585633285142E+00
 s    1 1.00
 0.57696339419000E+00 0.10000000000000E+01
 s    1 1.00
 0.22972831358000E+00 0.10000000000000E+01
 s    1 1.00
 0.95164440028000E-01 0.10000000000000E+01
 s    1 1.00
 0.48475401370000E-01 0.10000000000000E+01
 p    4 1.00
 0.34697232244000E+02 0.11327220003114E-01
 0.79582622826000E+01 0.76169659202087E-01
 0.23780826883000E+01 0.30192252202676E+00
 0.81433208183000E+00 0.72785027349547E+00
 p    1 1.00
 0.28887547253000E+00 0.10000000000000E+01
 p    1 1.00
 0.10056823671000E+00 0.10000000000000E+01
 d    1 1.00
 0.10970000000000E+01 0.10000000000000E+01
 d    1 1.00
 0.31800000000000E+00 0.10000000000000E+01
 d    1 1.00
 0.90985336424000E-01 0.10000000000000E+01
 f    1 1.00
 0.76100000000000E+00 0.10000000000000E+01
 
    6 0
 s    6 1.00
 0.13575349682000E+05 0.60645503603591E-03
 0.20352333680000E+04 0.46979088884982E-02
 0.46322562359000E+03 0.24332477647552E-01
 0.13120019598000E+03 0.97399968307759E-01
 0.42853015891000E+02 0.30195584253780E+00
 0.15584185766000E+02 0.66233609137875E+00
 s    2 1.00
 0.62067138508000E+01 0.65595308539952E+00
 0.25764896527000E+01 0.37585633285142E+00
 s    1 1.00
 0.57696339419000E+00 0.10000000000000E+01
 s    1 1.00
 0.22972831358000E+00 0.10000000000000E+01
 s    1 1.00
 0.95164440028000E-01 0.10000000000000E+01
 s    1 1.00
 0.48475401370000E-01 0.10000000000000E+01
 p    4 1.00
 0.34697232244000E+02 0.11327220003114E-01
 0.79582622826000E+01 0.76169659202087E-01
 0.23780826883000E+01 0.30192252202676E+00
 0.81433208183000E+00 0.72785027349547E+00
 p    1 1.00
 0.28887547253000E+00 0.10000000000000E+01
 p    1 1.00
 0.10056823671000E+00 0.10000000000000E+01
 d    1 1.00
 0.10970000000000E+01 0.10000000000000E+01
 d    1 1.00
 0.31800000000000E+00 0.10000000000000E+01
 d    1 1.00
 0.90985336424000E-01 0.10000000000000E+01
 f    1 1.00
 0.76100000000000E+00 0.10000000000000E+01
 
    7 0
 s    3 1.00
 0.34061341000000E+02 0.25439307208879E-01
 0.51235746000000E+01 0.19008594890375E+00
 0.11646626000000E+01 0.85244113011042E+00
 s    1 1.00
 0.32723041000000E+00 0.10000000000000E+01
 s    1 1.00
 0.10307241000000E+00 0.10000000000000E+01
 p    1 1.00
 0.80000000000000E+00 0.10000000000000E+01
 p    1 1.00
 0.95774129632000E-01 0.10000000000000E+01
 
    8 0
 s    3 1.00
 0.34061341000000E+02 0.25439307208879E-01
 0.51235746000000E+01 0.19008594890375E+00
 0.11646626000000E+01 0.85244113011042E+00
 s    1 1.00
 0.32723041000000E+00 0.10000000000000E+01
 s    1 1.00
 0.10307241000000E+00 0.10000000000000E+01
 p    1 1.00
 0.80000000000000E+00 0.10000000000000E+01
 p    1 1.00
 0.95774129632000E-01 0.10000000000000E+01
 
    9 0
 s    3 1.00
 0.34061341000000E+02 0.25439307208879E-01
 0.51235746000000E+01 0.19008594890375E+00
 0.11646626000000E+01 0.85244113011042E+00
 s    1 1.00
 0.32723041000000E+00 0.10000000000000E+01
 s    1 1.00
 0.10307241000000E+00 0.10000000000000E+01
 p    1 1.00
 0.80000000000000E+00 0.10000000000000E+01
 p    1 1.00
 0.95774129632000E-01 0.10000000000000E+01
 
   10 0
 s    3 1.00
 0.34061341000000E+02 0.25439307208879E-01
 0.51235746000000E+01 0.19008594890375E+00
 0.11646626000000E+01 0.85244113011042E+00
 s    1 1.00
 0.32723041000000E+00 0.10000000000000E+01
 s    1 1.00
 0.10307241000000E+00 0.10000000000000E+01
 p    1 1.00
 0.80000000000000E+00 0.10000000000000E+01
 p    1 1.00
 0.95774129632000E-01 0.10000000000000E+01
 
   11 0
 s    6 1.00
 0.19730800647000E+05 0.58626402628763E-03
 0.29578958745000E+04 0.45428820586397E-02
 0.67322133595000E+03 0.23558413450084E-01
 0.19068249494000E+03 0.94709193292923E-01
 0.62295441898000E+02 0.29719784913376E+00
 0.22654161182000E+02 0.66916246895232E+00
 s    2 1.00
 0.89791477428000E+01 0.64596683630063E+00
 0.36863002370000E+01 0.38700574393705E+00
 s    1 1.00
 0.84660076805000E+00 0.10000000000000E+01
 s    1 1.00
 0.33647133771000E+00 0.10000000000000E+01
 s    1 1.00
 0.13647653675000E+00 0.10000000000000E+01
 s    1 1.00
 0.68441605847000E-01 0.10000000000000E+01
 p    4 1.00
 0.49200380510000E+02 0.11448825101764E-01
 0.11346790537000E+02 0.78422337970864E-01
 0.34273972411000E+01 0.30818094738830E+00
 0.11785525134000E+01 0.72027196368413E+00
 p    1 1.00
 0.41642204972000E+00 0.10000000000000E+01
 p    1 1.00
 0.14260826011000E+00 0.10000000000000E+01
 d    1 1.00
 0.16540000000000E+01 0.10000000000000E+01
 d    1 1.00
 0.46900000000000E+00 0.10000000000000E+01
 d    1 1.00
 0.12829642058000E+00 0.10000000000000E+01
 f    1 1.00
 0.10930000000000E+01 0.10000000000000E+01
 
   12 0
 s    6 1.00
 0.27032382631000E+05 0.57227335211155E-03
 0.40523871392000E+04 0.44353233492995E-02
 0.92232722710000E+03 0.23020107706038E-01
 0.26124070989000E+03 0.92822490667928E-01
 0.85354641351000E+02 0.29378500009671E+00
 0.31035035245000E+02 0.67401604501641E+00
 s    2 1.00
 0.12260860728000E+02 0.63839937025506E+00
 0.49987076005000E+01 0.39534587125718E+00
 s    1 1.00
 0.11703108158000E+01 0.10000000000000E+01
 s    1 1.00
 0.46474740994000E+00 0.10000000000000E+01
 s    1 1.00
 0.18504536357000E+00 0.10000000000000E+01
 s    1 1.00
 0.70288026270000E-01 0.10000000000000E+01
 p    4 1.00
 0.63274954801000E+02 0.12018332222616E-01
 0.14627049379000E+02 0.83005421790056E-01
 0.44501223456000E+01 0.31991743925964E+00
 0.15275799647000E+01 0.70715542916104E+00
 p    1 1.00
 0.52935117943000E+00 0.10000000000000E+01
 p    1 1.00
 0.17478421270000E+00 0.10000000000000E+01
 p    1 1.00
 0.51112745706000E-01 0.10000000000000E+01
 d    1 1.00
 0.23140000000000E+01 0.10000000000000E+01
 d    1 1.00
 0.64500000000000E+00 0.10000000000000E+01
 d    1 1.00
 0.14696477366000E+00 0.10000000000000E+01
 f    1 1.00
 0.14280000000000E+01 0.10000000000000E+01
 
   13 0
 s    6 1.00
 0.27032382631000E+05 0.57227335211155E-03
 0.40523871392000E+04 0.44353233492995E-02
 0.92232722710000E+03 0.23020107706038E-01
 0.26124070989000E+03 0.92822490667928E-01
 0.85354641351000E+02 0.29378500009671E+00
 0.31035035245000E+02 0.67401604501641E+00
 s    2 1.00
 0.12260860728000E+02 0.63839937025506E+00
 0.49987076005000E+01 0.39534587125718E+00
 s    1 1.00
 0.11703108158000E+01 0.10000000000000E+01
 s    1 1.00
 0.46474740994000E+00 0.10000000000000E+01
 s    1 1.00
 0.18504536357000E+00 0.10000000000000E+01
 s    1 1.00
 0.70288026270000E-01 0.10000000000000E+01
 p    4 1.00
 0.63274954801000E+02 0.12018332222616E-01
 0.14627049379000E+02 0.83005421790056E-01
 0.44501223456000E+01 0.31991743925964E+00
 0.15275799647000E+01 0.70715542916104E+00
 p    1 1.00
 0.52935117943000E+00 0.10000000000000E+01
 p    1 1.00
 0.17478421270000E+00 0.10000000000000E+01
 p    1 1.00
 0.51112745706000E-01 0.10000000000000E+01
 d    1 1.00
 0.23140000000000E+01 0.10000000000000E+01
 d    1 1.00
 0.64500000000000E+00 0.10000000000000E+01
 d    1 1.00
 0.14696477366000E+00 0.10000000000000E+01
 f    1 1.00
 0.14280000000000E+01 0.10000000000000E+01
 
   14 0
 s    6 1.00
 0.19730800647000E+05 0.58626402628763E-03
 0.29578958745000E+04 0.45428820586397E-02
 0.67322133595000E+03 0.23558413450084E-01
 0.19068249494000E+03 0.94709193292923E-01
 0.62295441898000E+02 0.29719784913376E+00
 0.22654161182000E+02 0.66916246895232E+00
 s    2 1.00
 0.89791477428000E+01 0.64596683630063E+00
 0.36863002370000E+01 0.38700574393705E+00
 s    1 1.00
 0.84660076805000E+00 0.10000000000000E+01
 s    1 1.00
 0.33647133771000E+00 0.10000000000000E+01
 s    1 1.00
 0.13647653675000E+00 0.10000000000000E+01
 s    1 1.00
 0.68441605847000E-01 0.10000000000000E+01
 p    4 1.00
 0.49200380510000E+02 0.11448825101764E-01
 0.11346790537000E+02 0.78422337970864E-01
 0.34273972411000E+01 0.30818094738830E+00
 0.11785525134000E+01 0.72027196368413E+00
 p    1 1.00
 0.41642204972000E+00 0.10000000000000E+01
 p    1 1.00
 0.14260826011000E+00 0.10000000000000E+01
 d    1 1.00
 0.16540000000000E+01 0.10000000000000E+01
 d    1 1.00
 0.46900000000000E+00 0.10000000000000E+01
 d    1 1.00
 0.12829642058000E+00 0.10000000000000E+01
 f    1 1.00
 0.10930000000000E+01 0.10000000000000E+01
 
   15 0
 s    3 1.00
 0.34061341000000E+02 0.25439307208879E-01
 0.51235746000000E+01 0.19008594890375E+00
 0.11646626000000E+01 0.85244113011042E+00
 s    1 1.00
 0.32723041000000E+00 0.10000000000000E+01
 s    1 1.00
 0.10307241000000E+00 0.10000000000000E+01
 p    1 1.00
 0.80000000000000E+00 0.10000000000000E+01
 p    1 1.00
 0.95774129632000E-01 0.10000000000000E+01
 
   16 0
 s    3 1.00
 0.34061341000000E+02 0.25439307208879E-01
 0.51235746000000E+01 0.19008594890375E+00
 0.11646626000000E+01 0.85244113011042E+00
 s    1 1.00
 0.32723041000000E+00 0.10000000000000E+01
 s    1 1.00
 0.10307241000000E+00 0.10000000000000E+01
 p    1 1.00
 0.80000000000000E+00 0.10000000000000E+01
 p    1 1.00
 0.95774129632000E-01 0.10000000000000E+01
 
[MO]
 Sym= X
 Ene= -0.951786
 Spin= Alpha
 Occup= -0.951786
         1    2.046489E-04
         2    4.761248E-04
         3   -1.335416E-03
         4    2.955027E-03
         5    6.049345E-03
         6    1.233264E-02
         7    2.182404E-03
         8    2.015927E-04
         9   -1.466519E-02
        10   -2.402751E-03
        11    4.421643E-04
        12   -1.302500E-02
        13   -3.730270E-02
        14    1.166202E-02
        15   -2.445888E-03
        16   -1.804059E-05
        17    2.975296E-05
        18   -1.171238E-05
        19    1.549977E-05
        20   -6.339065E-03
        21    3.510829E-03
        22    7.101168E-04
        23   -4.200411E-04
        24   -2.900757E-04
        25    7.755065E-04
        26   -1.424021E-02
        27    6.702618E-03
        28    5.275412E-03
        29   -4.978621E-03
        30   -2.967905E-04
        31   -1.253302E-03
        32    2.354419E-03
        33   -1.003077E-02
        34   -2.089332E-05
        35    6.989301E-06
        36    1.176094E-05
        37    9.085723E-06
        38   -6.694715E-06
        39    7.629993E-04
        40    1.894561E-05
        41   -2.682417E-06
        42   -7.787782E-04
        43    6.650249E-04
        44   -3.399321E-05
        45   -7.443724E-05
        46   -1.367800E-04
        47    3.120195E-03
        48    5.498537E-02
        49   -6.237960E-03
        50    9.716645E-05
        51    3.253210E-06
        52   -1.876609E-01
        53   -7.225107E-04
        54    1.340776E-05
        55   -1.951168E-01
        56   -1.755493E-02
        57   -7.048936E-04
        58   -1.928353E-01
        59   -6.264075E-05
        60    5.970426E-05
        61    2.936491E-06
        62   -1.290436E-07
        63   -9.798365E-04
        64    6.804322E-07
        65   -4.366234E-04
        66    7.088816E-04
        67   -2.722582E-04
        68   -3.101082E-06
        69   -3.744980E-03
        70    1.183105E-06
        71   -1.019654E-02
        72    1.147435E-02
        73   -1.277805E-03
        74    1.065976E-04
        75    4.283238E-03
        76   -3.698758E-06
        77    6.311249E-06
        78    2.638529E-08
        79    1.022671E-03
        80   -6.714132E-06
        81    3.459154E-08
        82   -6.332144E-04
        83   -1.753297E-06
        84   -6.999112E-08
        85   -7.388426E-04
        86   -8.961132E-08
        87    2.049836E-04
        88    4.768345E-04
        89   -1.335196E-03
        90    2.955563E-03
        91    3.827947E-03
        92    1.231591E-02
        93    2.185075E-03
        94   -2.053498E-04
        95   -1.470015E-02
        96   -2.360945E-03
        97   -4.417509E-04
        98   -1.305939E-02
        99   -3.735877E-02
       100   -1.237709E-02
       101   -2.492932E-03
       102   -1.819771E-05
       103    2.986448E-05
       104   -1.166678E-05
       105   -1.576973E-05
       106   -6.338399E-03
       107   -3.510988E-03
       108    7.009978E-04
       109   -4.123635E-04
       110   -2.886343E-04
       111   -7.741953E-04
       112   -1.423818E-02
       113   -6.702007E-03
       114    5.352310E-03
       115   -5.072827E-03
       116   -2.794831E-04
       117    1.174102E-03
       118    2.359940E-03
       119    1.003201E-02
       120   -2.083001E-05
       121   -6.965103E-06
       122    1.192905E-05
       123    9.179255E-06
       124    6.625345E-06
       125    7.628099E-04
       126    1.876714E-05
       127    2.719321E-06
       128   -7.788144E-04
       129   -6.649775E-04
       130   -1.313738E-04
       131   -2.838703E-04
       132   -5.988323E-04
       133    1.115386E-02
       134   -2.726728E-02
       135   -1.408927E-02
       136   -1.856305E-03
       137    7.405130E-04
       138    1.615343E-01
       139   -1.023658E-02
       140    6.698913E-03
       141    1.641202E-01
       142   -2.404901E-02
       143   -7.979546E-03
       144    9.797544E-02
       145   -1.729220E-04
       146    2.043736E-04
       147   -3.145165E-05
       148    2.882798E-06
       149   -6.995334E-04
       150    3.161227E-03
       151   -7.079588E-04
       152    8.330326E-04
       153   -1.250738E-04
       154   -1.833261E-03
       155   -3.897647E-03
       156    5.285267E-03
       157   -8.984624E-03
       158    7.074728E-03
       159    1.909896E-03
       160    9.909636E-03
       161    3.607296E-03
       162   -1.220850E-02
       163   -1.782539E-05
       164    1.044258E-05
       165   -9.401135E-04
       166   -2.049332E-05
       167    1.837267E-05
       168    2.786769E-04
       169    4.440859E-05
       170   -3.238286E-05
       171    9.826177E-04
       172   -3.462188E-04
       173    1.181096E-03
       174    2.694024E-03
       175   -2.752044E-03
       176   -2.345991E-02
       177    2.181208E-02
       178   -9.239617E-03
       179    1.000598E-02
       180   -2.912723E-06
       181    1.207999E-01
       182    6.446477E-04
       183   -7.420840E-06
       184    1.233804E-01
       185   -3.156023E-02
       186    9.506077E-04
       187    1.346474E-01
       188   -5.472020E-04
       189    3.134368E-04
       190    2.337652E-04
       191   -3.466119E-07
       192    1.005858E-02
       193    7.610869E-07
       194    1.979077E-03
       195   -4.393341E-03
       196    2.414264E-03
       197   -7.742389E-07
       198    2.490184E-02
       199    2.328017E-08
       200    6.293669E-03
       201   -7.583887E-03
       202    1.290218E-03
       203    1.302912E-04
       204    1.871222E-02
       205   -8.607941E-06
       206    1.260165E-04
       207    2.942825E-08
       208   -3.972020E-04
       209   -8.822339E-05
       210   -4.667636E-08
       211   -1.004596E-03
       212   -8.084547E-05
       213    7.194226E-09
       214    1.537498E-03
       215    5.752743E-08
       216   -1.321813E-04
       217   -2.855231E-04
       218   -5.952599E-04
       219    1.116491E-02
       220   -2.975025E-02
       221   -1.409608E-02
       222   -1.855241E-03
       223   -7.338349E-04
       224    1.615667E-01
       225   -1.025912E-02
       226   -6.698629E-03
       227    1.641557E-01
       228   -2.389830E-02
       229    8.971466E-03
       230    9.797747E-02
       231   -1.727305E-04
       232    2.048149E-04
       233   -3.208436E-05
       234   -3.344379E-06
       235   -6.988681E-04
       236   -3.161365E-03
       237   -7.151836E-04
       238    8.377068E-04
       239   -1.225232E-04
       240    1.834311E-03
       241   -3.894299E-03
       242   -5.285511E-03
       243   -8.947702E-03
       244    7.029844E-03
       245    1.917859E-03
       246   -1.001214E-02
       247    3.600520E-03
       248    1.221223E-02
       249   -1.803977E-05
       250   -1.050096E-05
       251   -9.404451E-04
       252   -2.045116E-05
       253   -1.829125E-05
       254    2.790477E-04
       255    4.465405E-05
       256    3.237976E-05
       257    9.826918E-04
       258    3.462070E-04
       259    4.887390E-04
       260    3.709164E-04
       261    1.875863E-02
       262   -1.213555E-05
       263   -1.351890E-05
       264   -6.334286E-04
       265   -5.751377E-03
       266   -3.489606E-04
       267    6.081105E-03
       268    4.915972E-04
       269    3.638997E-04
       270    1.870121E-02
       271   -1.144428E-05
       272    1.246991E-05
       273   -6.348767E-04
       274   -5.822703E-03
       275    3.179485E-04
       276    6.080479E-03
       277    5.636814E-04
       278    2.747961E-03
       279   -3.764205E-02
       280   -1.315796E-05
       281    1.277419E-04
       282    6.508311E-03
       283   -1.862915E-03
       284   -2.997740E-03
       285   -1.518286E-03
       286    5.690885E-04
       287    2.753561E-03
       288   -3.799569E-02
       289   -1.263631E-05
       290   -1.278770E-04
       291    6.510096E-03
       292   -1.875277E-03
       293    3.041223E-03
       294   -1.520336E-03
       295    6.565321E-05
       296    1.532702E-04
       297   -1.567406E-04
       298   -5.518460E-04
       299    7.094662E-03
       300   -9.035118E-04
       301    8.081169E-04
       302   -1.382614E-06
       303   -2.570174E-02
       304    4.477592E-04
       305   -7.400180E-07
       306   -2.770367E-02
       307   -3.166530E-03
       308    3.992835E-05
       309   -9.179979E-03
       310   -3.475364E-05
       311    2.384438E-05
       312    1.090927E-05
       313   -1.320391E-07
       314    4.007771E-03
       315    5.939503E-08
       316   -4.175453E-05
       317   -2.053894E-05
       318    6.229347E-05
       319    1.254729E-07
       320    1.219675E-02
       321    1.014971E-07
       322    1.049364E-03
       323   -3.064782E-03
       324    2.015418E-03
       325   -2.423460E-05
       326    2.877293E-03
       327    2.167144E-06
       328    7.347316E-06
       329    3.719608E-08
       330    4.207425E-05
       331   -4.351936E-06
       332   -1.037232E-08
       333   -6.630805E-04
       334   -5.505523E-06
       335   -3.953145E-08
       336    6.066320E-04
       337   -6.561740E-09
       338    1.585759E-05
       339    3.481835E-05
       340   -4.713253E-06
       341   -5.920406E-04
       342    6.408581E-03
       343    1.059255E-03
       344   -5.636335E-04
       345    1.200456E-04
       346    6.815622E-02
       347   -6.189814E-04
       348    2.524456E-04
       349    6.333394E-02
       350   -1.769593E-03
       351    5.419528E-04
       352    5.283585E-02
       353   -2.164713E-04
       354    2.263356E-04
       355    6.693993E-03
       356   -4.081489E-06
       357    6.304253E-06
       358   -2.222763E-06
       359   -3.193036E-06
       360    6.393576E-05
       361    3.399855E-04
       362    1.438422E-05
       363    1.360046E-05
       364   -2.798468E-05
       365   -1.700937E-05
       366   -3.103291E-04
       367    1.177166E-03
       368    8.409674E-05
       369   -5.175648E-05
       370   -3.234026E-05
       371   -8.751447E-05
       372   -1.117065E-04
       373    1.471855E-04
       374    1.230937E-06
       375    1.728420E-06
       376   -3.978718E-05
       377   -2.308368E-06
       378    2.474468E-08
       379   -7.780665E-05
       380    6.568924E-07
       381   -2.343663E-06
       382    1.311868E-04
       383   -9.926706E-05
       384    1.588272E-05
       385    3.492612E-05
       386   -5.403879E-06
       387   -5.878400E-04
       388    6.394840E-03
       389    1.031858E-03
       390   -5.647600E-04
       391   -1.121507E-04
       392    6.815779E-02
       393   -6.197100E-04
       394   -2.452821E-04
       395    6.333565E-02
       396   -1.743276E-03
       397   -5.290632E-04
       398    5.283332E-02
       399   -2.028587E-04
       400   -2.296488E-04
       401    6.696299E-03
       402   -4.017281E-06
       403    6.202669E-06
       404   -2.185388E-06
       405    3.216600E-06
       406    6.389397E-05
       407   -3.399974E-04
       408    1.432900E-05
       409    1.329429E-05
       410   -2.762329E-05
       411    1.653930E-05
       412   -3.103245E-04
       413   -1.177245E-03
       414    8.441616E-05
       415   -5.358819E-05
       416   -3.082797E-05
       417    8.613745E-05
       418   -1.123639E-04
       419   -1.464796E-04
       420    1.216497E-06
       421   -1.694532E-06
       422   -3.979460E-05
       423   -2.269132E-06
       424   -4.163488E-08
       425   -7.780089E-05
       426    6.370306E-07
       427    2.315088E-06
       428    1.311910E-04
       429    9.927547E-05
       430   -5.096756E-03
       431   -1.212317E-02
       432    1.896449E-02
       433    2.978077E-02
       434    2.177421E-02
       435    7.428936E-02
       436   -1.879652E-02
       437    9.333954E-06
       438   -2.526963E-01
       439   -2.151704E-02
       440    2.779207E-06
       441   -2.496533E-01
       442   -2.068994E-02
       443   -1.078216E-04
       444   -2.052152E-01
       445    1.098033E-04
       446    9.509495E-06
       447   -1.193128E-04
       448   -2.405767E-07
       449    8.940808E-04
       450    2.669059E-07
       451    2.382090E-04
       452    1.668450E-03
       453   -1.906659E-03
       454    3.474271E-06
       455    3.901803E-03
       456    1.260453E-06
       457    2.039620E-03
       458    3.458498E-03
       459   -5.498118E-03
       460   -1.115544E-06
       461    2.421584E-03
       462    6.960830E-06
       463   -1.582126E-04
       464    3.253974E-08
       465    9.799971E-04
       466   -8.895217E-05
       467    9.973059E-09
       468   -5.057930E-04
       469    3.012166E-04
       470   -5.362970E-08
       471   -8.090112E-04
       472    1.908802E-08
       473   -1.052583E-02
       474   -1.983962E-02
       475   -3.349247E-02
       476   -2.463689E-03
       477   -2.090835E-03
       478   -1.279444E-02
       479    1.303430E-03
       480   -3.848770E-03
       481   -1.493230E-02
       482   -1.052041E-02
       483   -1.977494E-02
       484   -3.331692E-02
       485   -2.460046E-03
       486    2.085017E-03
       487   -1.279728E-02
       488    1.323415E-03
       489    3.817934E-03
       490   -1.494215E-02
 Sym= X
 Ene= 0.951786
 Spin= Alpha
 Occup= 0.951786
         1    6.821944E-03
         2    1.548868E-02
         3   -3.227901E-02
         4    1.743722E-02
         5    1.697089E+00
         6   -2.048297E+00
         7   -1.402913E-02
         8   -5.640139E-03
         9    2.896697E-04
        10   -1.397468E-01
        11   -2.632125E-02
        12   -4.263466E-03
        13   -3.864065E-01
        14    8.085517E-02
        15    2.934575E-02
        16   -1.202225E-03
        17   -6.339401E-04
        18    1.836165E-03
        19    8.941061E-04
        20   -1.342172E-04
        21   -1.243454E-04
        22    2.446519E-02
        23   -2.635343E-02
        24    1.888239E-03
        25   -5.582973E-03
        26    1.275689E-03
        27   -4.783080E-04
        28    6.827149E-01
        29   -5.134996E-01
        30   -1.692153E-01
        31    8.421730E-01
        32   -3.087232E-02
        33    3.314754E-02
        34   -3.461506E-04
        35   -1.694831E-04
        36   -1.178518E-05
        37   -4.054446E-04
        38   -5.745468E-05
        39   -4.093231E-05
        40    8.698543E-04
        41    2.848401E-04
        42    5.674378E-05
        43   -4.122595E-05
        44    5.381725E-03
        45    1.180235E-02
        46   -2.858084E-03
        47   -1.764563E-01
        48    3.768443E+00
        49    2.154992E+00
        50    2.231071E-03
        51    5.275203E-07
        52    3.994443E-03
        53   -6.521404E-02
        54   -2.291650E-05
        55    3.687433E-04
        56   -2.070130E+00
        57    1.003970E-04
        58    1.107774E-01
        59    6.050234E-04
        60   -3.024470E-03
        61    2.419447E-03
        62    2.973205E-07