[Molden Format]
[Title]
ADC(2) - opt by CAM-B3LYP gaussian                                              
[Atoms] AU
 c     1    6 0.12589710753986E+01 0.22825551554713E+01 -.28105798744860E-01
 c     2    6 0.25558923691721E+01 0.80431469000000E-06 -.26811997747980E-01
 c     3    6 0.12589700738438E+01 -.22825573262942E+01 -.28139341383720E-01
 c     4    6 -.13331755585332E+01 -.22837561874501E+01 -.30470167390540E-01
 c     5    6 -.26866009864883E+01 0.27696298600000E-05 -.30311128039200E-01
 c     6    6 -.13331783742251E+01 0.22837572858534E+01 -.30432977580250E-01
 h     7    1 0.22993222678978E+01 0.40366379181686E+01 -.25216785432900E-01
 h     8    1 0.22993197734593E+01 -.40366408826765E+01 -.25273722881290E-01
 h     9    1 -.23520966897676E+01 -.40562070503646E+01 -.33235309154490E-01
 h    10    1 -.23520900190344E+01 0.40562136478709E+01 -.33159965773570E-01
 n    11    7 0.52762255328692E+01 0.25629411000000E-06 -.20783601308720E-01
 o    12    8 0.63803680214636E+01 -.20270720034092E+01 -.18188232540560E-01
 o    13    8 0.63803692875801E+01 0.20270718545932E+01 -.18282964511600E-01
 n    14    7 -.52484248103301E+01 -.66967170000000E-06 -.81289589624650E-01
 h    15    1 -.62019351690707E+01 -.16149791988436E+01 0.21484054874156E+00
 h    16    1 -.62019367942352E+01 0.16149736265137E+01 0.21486103337284E+00
[GTO]
    1 0
 s    6 1.00
 0.13575349682000E+05 0.60645503603591E-03
 0.20352333680000E+04 0.46979088884982E-02
 0.46322562359000E+03 0.24332477647552E-01
 0.13120019598000E+03 0.97399968307759E-01
 0.42853015891000E+02 0.30195584253780E+00
 0.15584185766000E+02 0.66233609137875E+00
 s    2 1.00
 0.62067138508000E+01 0.65595308539952E+00
 0.25764896527000E+01 0.37585633285142E+00
 s    1 1.00
 0.57696339419000E+00 0.10000000000000E+01
 s    1 1.00
 0.22972831358000E+00 0.10000000000000E+01
 s    1 1.00
 0.95164440028000E-01 0.10000000000000E+01
 s    1 1.00
 0.48475401370000E-01 0.10000000000000E+01
 p    4 1.00
 0.34697232244000E+02 0.11327220003114E-01
 0.79582622826000E+01 0.76169659202087E-01
 0.23780826883000E+01 0.30192252202676E+00
 0.81433208183000E+00 0.72785027349547E+00
 p    1 1.00
 0.28887547253000E+00 0.10000000000000E+01
 p    1 1.00
 0.10056823671000E+00 0.10000000000000E+01
 d    1 1.00
 0.10970000000000E+01 0.10000000000000E+01
 d    1 1.00
 0.31800000000000E+00 0.10000000000000E+01
 d    1 1.00
 0.90985336424000E-01 0.10000000000000E+01
 f    1 1.00
 0.76100000000000E+00 0.10000000000000E+01
 
    2 0
 s    6 1.00
 0.13575349682000E+05 0.60645503603591E-03
 0.20352333680000E+04 0.46979088884982E-02
 0.46322562359000E+03 0.24332477647552E-01
 0.13120019598000E+03 0.97399968307759E-01
 0.42853015891000E+02 0.30195584253780E+00
 0.15584185766000E+02 0.66233609137875E+00
 s    2 1.00
 0.62067138508000E+01 0.65595308539952E+00
 0.25764896527000E+01 0.37585633285142E+00
 s    1 1.00
 0.57696339419000E+00 0.10000000000000E+01
 s    1 1.00
 0.22972831358000E+00 0.10000000000000E+01
 s    1 1.00
 0.95164440028000E-01 0.10000000000000E+01
 s    1 1.00
 0.48475401370000E-01 0.10000000000000E+01
 p    4 1.00
 0.34697232244000E+02 0.11327220003114E-01
 0.79582622826000E+01 0.76169659202087E-01
 0.23780826883000E+01 0.30192252202676E+00
 0.81433208183000E+00 0.72785027349547E+00
 p    1 1.00
 0.28887547253000E+00 0.10000000000000E+01
 p    1 1.00
 0.10056823671000E+00 0.10000000000000E+01
 d    1 1.00
 0.10970000000000E+01 0.10000000000000E+01
 d    1 1.00
 0.31800000000000E+00 0.10000000000000E+01
 d    1 1.00
 0.90985336424000E-01 0.10000000000000E+01
 f    1 1.00
 0.76100000000000E+00 0.10000000000000E+01
 
    3 0
 s    6 1.00
 0.13575349682000E+05 0.60645503603591E-03
 0.20352333680000E+04 0.46979088884982E-02
 0.46322562359000E+03 0.24332477647552E-01
 0.13120019598000E+03 0.97399968307759E-01
 0.42853015891000E+02 0.30195584253780E+00
 0.15584185766000E+02 0.66233609137875E+00
 s    2 1.00
 0.62067138508000E+01 0.65595308539952E+00
 0.25764896527000E+01 0.37585633285142E+00
 s    1 1.00
 0.57696339419000E+00 0.10000000000000E+01
 s    1 1.00
 0.22972831358000E+00 0.10000000000000E+01
 s    1 1.00
 0.95164440028000E-01 0.10000000000000E+01
 s    1 1.00
 0.48475401370000E-01 0.10000000000000E+01
 p    4 1.00
 0.34697232244000E+02 0.11327220003114E-01
 0.79582622826000E+01 0.76169659202087E-01
 0.23780826883000E+01 0.30192252202676E+00
 0.81433208183000E+00 0.72785027349547E+00
 p    1 1.00
 0.28887547253000E+00 0.10000000000000E+01
 p    1 1.00
 0.10056823671000E+00 0.10000000000000E+01
 d    1 1.00
 0.10970000000000E+01 0.10000000000000E+01
 d    1 1.00
 0.31800000000000E+00 0.10000000000000E+01
 d    1 1.00
 0.90985336424000E-01 0.10000000000000E+01
 f    1 1.00
 0.76100000000000E+00 0.10000000000000E+01
 
    4 0
 s    6 1.00
 0.13575349682000E+05 0.60645503603591E-03
 0.20352333680000E+04 0.46979088884982E-02
 0.46322562359000E+03 0.24332477647552E-01
 0.13120019598000E+03 0.97399968307759E-01
 0.42853015891000E+02 0.30195584253780E+00
 0.15584185766000E+02 0.66233609137875E+00
 s    2 1.00
 0.62067138508000E+01 0.65595308539952E+00
 0.25764896527000E+01 0.37585633285142E+00
 s    1 1.00
 0.57696339419000E+00 0.10000000000000E+01
 s    1 1.00
 0.22972831358000E+00 0.10000000000000E+01
 s    1 1.00
 0.95164440028000E-01 0.10000000000000E+01
 s    1 1.00
 0.48475401370000E-01 0.10000000000000E+01
 p    4 1.00
 0.34697232244000E+02 0.11327220003114E-01
 0.79582622826000E+01 0.76169659202087E-01
 0.23780826883000E+01 0.30192252202676E+00
 0.81433208183000E+00 0.72785027349547E+00
 p    1 1.00
 0.28887547253000E+00 0.10000000000000E+01
 p    1 1.00
 0.10056823671000E+00 0.10000000000000E+01
 d    1 1.00
 0.10970000000000E+01 0.10000000000000E+01
 d    1 1.00
 0.31800000000000E+00 0.10000000000000E+01
 d    1 1.00
 0.90985336424000E-01 0.10000000000000E+01
 f    1 1.00
 0.76100000000000E+00 0.10000000000000E+01
 
    5 0
 s    6 1.00
 0.13575349682000E+05 0.60645503603591E-03
 0.20352333680000E+04 0.46979088884982E-02
 0.46322562359000E+03 0.24332477647552E-01
 0.13120019598000E+03 0.97399968307759E-01
 0.42853015891000E+02 0.30195584253780E+00
 0.15584185766000E+02 0.66233609137875E+00
 s    2 1.00
 0.62067138508000E+01 0.65595308539952E+00
 0.25764896527000E+01 0.37585633285142E+00
 s    1 1.00
 0.57696339419000E+00 0.10000000000000E+01
 s    1 1.00
 0.22972831358000E+00 0.10000000000000E+01
 s    1 1.00
 0.95164440028000E-01 0.10000000000000E+01
 s    1 1.00
 0.48475401370000E-01 0.10000000000000E+01
 p    4 1.00
 0.34697232244000E+02 0.11327220003114E-01
 0.79582622826000E+01 0.76169659202087E-01
 0.23780826883000E+01 0.30192252202676E+00
 0.81433208183000E+00 0.72785027349547E+00
 p    1 1.00
 0.28887547253000E+00 0.10000000000000E+01
 p    1 1.00
 0.10056823671000E+00 0.10000000000000E+01
 d    1 1.00
 0.10970000000000E+01 0.10000000000000E+01
 d    1 1.00
 0.31800000000000E+00 0.10000000000000E+01
 d    1 1.00
 0.90985336424000E-01 0.10000000000000E+01
 f    1 1.00
 0.76100000000000E+00 0.10000000000000E+01
 
    6 0
 s    6 1.00
 0.13575349682000E+05 0.60645503603591E-03
 0.20352333680000E+04 0.46979088884982E-02
 0.46322562359000E+03 0.24332477647552E-01
 0.13120019598000E+03 0.97399968307759E-01
 0.42853015891000E+02 0.30195584253780E+00
 0.15584185766000E+02 0.66233609137875E+00
 s    2 1.00
 0.62067138508000E+01 0.65595308539952E+00
 0.25764896527000E+01 0.37585633285142E+00
 s    1 1.00
 0.57696339419000E+00 0.10000000000000E+01
 s    1 1.00
 0.22972831358000E+00 0.10000000000000E+01
 s    1 1.00
 0.95164440028000E-01 0.10000000000000E+01
 s    1 1.00
 0.48475401370000E-01 0.10000000000000E+01
 p    4 1.00
 0.34697232244000E+02 0.11327220003114E-01
 0.79582622826000E+01 0.76169659202087E-01
 0.23780826883000E+01 0.30192252202676E+00
 0.81433208183000E+00 0.72785027349547E+00
 p    1 1.00
 0.28887547253000E+00 0.10000000000000E+01
 p    1 1.00
 0.10056823671000E+00 0.10000000000000E+01
 d    1 1.00
 0.10970000000000E+01 0.10000000000000E+01
 d    1 1.00
 0.31800000000000E+00 0.10000000000000E+01
 d    1 1.00
 0.90985336424000E-01 0.10000000000000E+01
 f    1 1.00
 0.76100000000000E+00 0.10000000000000E+01
 
    7 0
 s    3 1.00
 0.34061341000000E+02 0.25439307208879E-01
 0.51235746000000E+01 0.19008594890375E+00
 0.11646626000000E+01 0.85244113011042E+00
 s    1 1.00
 0.32723041000000E+00 0.10000000000000E+01
 s    1 1.00
 0.10307241000000E+00 0.10000000000000E+01
 p    1 1.00
 0.80000000000000E+00 0.10000000000000E+01
 p    1 1.00
 0.95774129632000E-01 0.10000000000000E+01
 
    8 0
 s    3 1.00
 0.34061341000000E+02 0.25439307208879E-01
 0.51235746000000E+01 0.19008594890375E+00
 0.11646626000000E+01 0.85244113011042E+00
 s    1 1.00
 0.32723041000000E+00 0.10000000000000E+01
 s    1 1.00
 0.10307241000000E+00 0.10000000000000E+01
 p    1 1.00
 0.80000000000000E+00 0.10000000000000E+01
 p    1 1.00
 0.95774129632000E-01 0.10000000000000E+01
 
    9 0
 s    3 1.00
 0.34061341000000E+02 0.25439307208879E-01
 0.51235746000000E+01 0.19008594890375E+00
 0.11646626000000E+01 0.85244113011042E+00
 s    1 1.00
 0.32723041000000E+00 0.10000000000000E+01
 s    1 1.00
 0.10307241000000E+00 0.10000000000000E+01
 p    1 1.00
 0.80000000000000E+00 0.10000000000000E+01
 p    1 1.00
 0.95774129632000E-01 0.10000000000000E+01
 
   10 0
 s    3 1.00
 0.34061341000000E+02 0.25439307208879E-01
 0.51235746000000E+01 0.19008594890375E+00
 0.11646626000000E+01 0.85244113011042E+00
 s    1 1.00
 0.32723041000000E+00 0.10000000000000E+01
 s    1 1.00
 0.10307241000000E+00 0.10000000000000E+01
 p    1 1.00
 0.80000000000000E+00 0.10000000000000E+01
 p    1 1.00
 0.95774129632000E-01 0.10000000000000E+01
 
   11 0
 s    6 1.00
 0.19730800647000E+05 0.58626402628763E-03
 0.29578958745000E+04 0.45428820586397E-02
 0.67322133595000E+03 0.23558413450084E-01
 0.19068249494000E+03 0.94709193292923E-01
 0.62295441898000E+02 0.29719784913376E+00
 0.22654161182000E+02 0.66916246895232E+00
 s    2 1.00
 0.89791477428000E+01 0.64596683630063E+00
 0.36863002370000E+01 0.38700574393705E+00
 s    1 1.00
 0.84660076805000E+00 0.10000000000000E+01
 s    1 1.00
 0.33647133771000E+00 0.10000000000000E+01
 s    1 1.00
 0.13647653675000E+00 0.10000000000000E+01
 s    1 1.00
 0.68441605847000E-01 0.10000000000000E+01
 p    4 1.00
 0.49200380510000E+02 0.11448825101764E-01
 0.11346790537000E+02 0.78422337970864E-01
 0.34273972411000E+01 0.30818094738830E+00
 0.11785525134000E+01 0.72027196368413E+00
 p    1 1.00
 0.41642204972000E+00 0.10000000000000E+01
 p    1 1.00
 0.14260826011000E+00 0.10000000000000E+01
 d    1 1.00
 0.16540000000000E+01 0.10000000000000E+01
 d    1 1.00
 0.46900000000000E+00 0.10000000000000E+01
 d    1 1.00
 0.12829642058000E+00 0.10000000000000E+01
 f    1 1.00
 0.10930000000000E+01 0.10000000000000E+01
 
   12 0
 s    6 1.00
 0.27032382631000E+05 0.57227335211155E-03
 0.40523871392000E+04 0.44353233492995E-02
 0.92232722710000E+03 0.23020107706038E-01
 0.26124070989000E+03 0.92822490667928E-01
 0.85354641351000E+02 0.29378500009671E+00
 0.31035035245000E+02 0.67401604501641E+00
 s    2 1.00
 0.12260860728000E+02 0.63839937025506E+00
 0.49987076005000E+01 0.39534587125718E+00
 s    1 1.00
 0.11703108158000E+01 0.10000000000000E+01
 s    1 1.00
 0.46474740994000E+00 0.10000000000000E+01
 s    1 1.00
 0.18504536357000E+00 0.10000000000000E+01
 s    1 1.00
 0.70288026270000E-01 0.10000000000000E+01
 p    4 1.00
 0.63274954801000E+02 0.12018332222616E-01
 0.14627049379000E+02 0.83005421790056E-01
 0.44501223456000E+01 0.31991743925964E+00
 0.15275799647000E+01 0.70715542916104E+00
 p    1 1.00
 0.52935117943000E+00 0.10000000000000E+01
 p    1 1.00
 0.17478421270000E+00 0.10000000000000E+01
 p    1 1.00
 0.51112745706000E-01 0.10000000000000E+01
 d    1 1.00
 0.23140000000000E+01 0.10000000000000E+01
 d    1 1.00
 0.64500000000000E+00 0.10000000000000E+01
 d    1 1.00
 0.14696477366000E+00 0.10000000000000E+01
 f    1 1.00
 0.14280000000000E+01 0.10000000000000E+01
 
   13 0
 s    6 1.00
 0.27032382631000E+05 0.57227335211155E-03
 0.40523871392000E+04 0.44353233492995E-02
 0.92232722710000E+03 0.23020107706038E-01
 0.26124070989000E+03 0.92822490667928E-01
 0.85354641351000E+02 0.29378500009671E+00
 0.31035035245000E+02 0.67401604501641E+00
 s    2 1.00
 0.12260860728000E+02 0.63839937025506E+00
 0.49987076005000E+01 0.39534587125718E+00
 s    1 1.00
 0.11703108158000E+01 0.10000000000000E+01
 s    1 1.00
 0.46474740994000E+00 0.10000000000000E+01
 s    1 1.00
 0.18504536357000E+00 0.10000000000000E+01
 s    1 1.00
 0.70288026270000E-01 0.10000000000000E+01
 p    4 1.00
 0.63274954801000E+02 0.12018332222616E-01
 0.14627049379000E+02 0.83005421790056E-01
 0.44501223456000E+01 0.31991743925964E+00
 0.15275799647000E+01 0.70715542916104E+00
 p    1 1.00
 0.52935117943000E+00 0.10000000000000E+01
 p    1 1.00
 0.17478421270000E+00 0.10000000000000E+01
 p    1 1.00
 0.51112745706000E-01 0.10000000000000E+01
 d    1 1.00
 0.23140000000000E+01 0.10000000000000E+01
 d    1 1.00
 0.64500000000000E+00 0.10000000000000E+01
 d    1 1.00
 0.14696477366000E+00 0.10000000000000E+01
 f    1 1.00
 0.14280000000000E+01 0.10000000000000E+01
 
   14 0
 s    6 1.00
 0.19730800647000E+05 0.58626402628763E-03
 0.29578958745000E+04 0.45428820586397E-02
 0.67322133595000E+03 0.23558413450084E-01
 0.19068249494000E+03 0.94709193292923E-01
 0.62295441898000E+02 0.29719784913376E+00
 0.22654161182000E+02 0.66916246895232E+00
 s    2 1.00
 0.89791477428000E+01 0.64596683630063E+00
 0.36863002370000E+01 0.38700574393705E+00
 s    1 1.00
 0.84660076805000E+00 0.10000000000000E+01
 s    1 1.00
 0.33647133771000E+00 0.10000000000000E+01
 s    1 1.00
 0.13647653675000E+00 0.10000000000000E+01
 s    1 1.00
 0.68441605847000E-01 0.10000000000000E+01
 p    4 1.00
 0.49200380510000E+02 0.11448825101764E-01
 0.11346790537000E+02 0.78422337970864E-01
 0.34273972411000E+01 0.30818094738830E+00
 0.11785525134000E+01 0.72027196368413E+00
 p    1 1.00
 0.41642204972000E+00 0.10000000000000E+01
 p    1 1.00
 0.14260826011000E+00 0.10000000000000E+01
 d    1 1.00
 0.16540000000000E+01 0.10000000000000E+01
 d    1 1.00
 0.46900000000000E+00 0.10000000000000E+01
 d    1 1.00
 0.12829642058000E+00 0.10000000000000E+01
 f    1 1.00
 0.10930000000000E+01 0.10000000000000E+01
 
   15 0
 s    3 1.00
 0.34061341000000E+02 0.25439307208879E-01
 0.51235746000000E+01 0.19008594890375E+00
 0.11646626000000E+01 0.85244113011042E+00
 s    1 1.00
 0.32723041000000E+00 0.10000000000000E+01
 s    1 1.00
 0.10307241000000E+00 0.10000000000000E+01
 p    1 1.00
 0.80000000000000E+00 0.10000000000000E+01
 p    1 1.00
 0.95774129632000E-01 0.10000000000000E+01
 
   16 0
 s    3 1.00
 0.34061341000000E+02 0.25439307208879E-01
 0.51235746000000E+01 0.19008594890375E+00
 0.11646626000000E+01 0.85244113011042E+00
 s    1 1.00
 0.32723041000000E+00 0.10000000000000E+01
 s    1 1.00
 0.10307241000000E+00 0.10000000000000E+01
 p    1 1.00
 0.80000000000000E+00 0.10000000000000E+01
 p    1 1.00
 0.95774129632000E-01 0.10000000000000E+01
 
[MO]
 Sym= X
 Ene= -0.078572
 Spin= Alpha
 Occup= -0.078572
         1    3.825363E-04
         2    8.773213E-04
         3   -1.850688E-03
         4    1.231794E-03
         5   -8.128765E-03
         6    1.123807E-02
         7    5.765489E-03
         8    2.696361E-04
         9    1.343482E-01
        10    7.321175E-04
        11    6.330212E-04
        12    1.323778E-01
        13   -2.235771E-02
        14    8.838942E-04
        15    5.105038E-02
        16   -1.614655E-04
        17    1.509975E-04
        18    1.046802E-05
        19    6.606724E-05
        20    1.129112E-03
        21   -4.521178E-03
        22    4.041189E-04
        23   -2.371933E-04
        24   -1.669255E-04
        25    8.648888E-04
        26    2.976156E-03
        27   -7.602213E-03
        28    1.919022E-03
        29   -1.671436E-03
        30   -2.475864E-04
        31   -1.988339E-03
        32    6.697870E-03
        33   -5.025369E-03
        34   -5.140814E-06
        35    9.134196E-06
        36   -1.110372E-03
        37    4.074665E-07
        38   -8.077322E-06
        39    5.246737E-04
        40    6.489659E-06
        41   -4.177488E-06
        42    9.650462E-04
        43   -5.499946E-04
        44   -5.271100E-05
        45   -1.138916E-04
        46   -2.239938E-04
        47    4.442457E-03
        48    1.247441E-02
        49   -1.018064E-02
        50   -2.365357E-03
        51    1.130535E-06
        52    2.175653E-01
        53   -2.911510E-03
        54   -2.520998E-05
        55    2.202024E-01
        56   -8.076376E-03
        57   -5.785473E-04
        58    7.848525E-02
        59   -2.214522E-04
        60    2.184284E-04
        61    3.023834E-06
        62   -4.467313E-08
        63   -2.630665E-03
        64    2.787230E-07
        65   -6.655820E-04
        66    9.430186E-04
        67   -2.774367E-04
        68    4.458087E-06
        69   -3.850328E-03
        70   -3.721312E-07
        71   -1.240493E-02
        72    1.287604E-02
        73   -4.711085E-04
        74    4.371031E-05
        75   -7.918655E-03
        76    3.507010E-06
        77   -1.186676E-05
        78   -2.122114E-07
        79   -1.674961E-03
        80   -3.779508E-06
        81    9.774223E-08
        82    8.695926E-04
        83    1.970044E-05
        84    1.869692E-07
        85    1.377603E-03
        86    2.484924E-08
        87    3.809502E-04
        88    8.737042E-04
        89   -1.840185E-03
        90    1.228070E-03
        91   -1.040169E-02
        92    1.128677E-02
        93    5.775311E-03
        94   -2.844382E-04
        95    1.343393E-01
        96    7.372497E-04
        97   -6.713443E-04
        98    1.323701E-01
        99   -2.206258E-02
       100   -1.663760E-03
       101    5.100026E-02
       102   -1.614864E-04
       103    1.511796E-04
       104    1.030679E-05
       105   -6.677112E-05
       106    1.129213E-03
       107    4.521295E-03
       108    3.997590E-04
       109   -2.366397E-04
       110   -1.631193E-04
       111   -8.731161E-04
       112    2.975208E-03
       113    7.600265E-03
       114    1.878237E-03
       115   -1.651276E-03
       116   -2.269611E-04
       117    1.987166E-03
       118    6.711652E-03
       119    4.993489E-03
       120   -4.983916E-06
       121   -9.237823E-06
       122   -1.110340E-03
       123    2.481333E-07
       124    7.929456E-06
       125    5.246798E-04
       126    6.438492E-06
       127    4.464384E-06
       128    9.649983E-04
       129    5.498681E-04
       130   -3.020718E-04
       131   -6.730443E-04
       132    5.207025E-06
       133    1.164278E-02
       134    5.473780E-03
       135   -1.317023E-02
       136   -5.868407E-03
       137    1.899554E-03
       138    3.192497E-02
       139   -1.275784E-02
       140    7.180761E-03
       141    3.168949E-02
       142   -1.106984E-02
       143   -1.039196E-02
       144    4.711258E-03
       145   -3.654451E-04
       146    4.183123E-04
       147   -5.286716E-05
       148    2.523889E-08
       149    4.038634E-03
       150   -8.141958E-04
       151   -6.934113E-04
       152    9.312939E-04
       153   -2.378826E-04
       154   -1.800768E-03
       155    7.147393E-03
       156   -2.032964E-03
       157   -7.564285E-03
       158    6.310027E-03
       159    1.254258E-03
       160    8.880383E-03
       161    3.281224E-03
       162   -1.179179E-02
       163   -1.906807E-05
       164    2.448080E-05
       165   -2.803512E-04
       166   -3.257672E-05
       167    2.379396E-06
       168    5.261527E-04
       169    5.815922E-05
       170   -3.522383E-05
       171   -1.500221E-04
       172    3.837493E-04
       173    1.362133E-03
       174    3.092499E-03
       175   -3.728443E-03
       176   -1.729757E-02
       177    5.414697E-02
       178   -6.995761E-04
       179    1.706238E-02
       180   -6.371362E-06
       181   -8.990789E-02
       182    4.406194E-03
       183   -1.279186E-05
       184   -8.685550E-02
       185   -4.268127E-02
       186    2.345481E-04
       187    1.477915E-02
       188   -8.557547E-04
       189    6.079991E-04
       190    2.477556E-04
       191   -3.674761E-07
       192    6.371823E-03
       193    3.985788E-08
       194    1.886607E-03
       195   -3.941695E-03
       196    2.055088E-03
       197   -3.793320E-06
       198    1.303389E-02
       199    1.817007E-06
       200    8.385365E-03
       201   -8.634551E-03
       202    2.491865E-04
       203    5.416955E-05
       204    4.068383E-03
       205    9.806159E-06
       206    1.544457E-04
       207   -5.423728E-08
       208    8.642564E-04
       209   -9.136315E-05
       210   -1.258708E-08
       211   -1.321588E-03
       212   -1.158475E-04
       213    8.535403E-08
       214    1.620668E-04
       215    8.000931E-08
       216   -3.022900E-04
       217   -6.735104E-04
       218    4.924468E-06
       219    1.167008E-02
       220    3.712905E-03
       221   -1.311373E-02
       222   -5.862560E-03
       223   -1.888559E-03
       224    3.192940E-02
       225   -1.277362E-02
       226   -7.185928E-03
       227    3.169308E-02
       228   -1.154909E-02
       229    1.092631E-02
       230    4.638912E-03
       231   -3.655230E-04
       232    4.183907E-04
       233   -5.286766E-05
       234   -8.300907E-07
       235    4.038922E-03
       236    8.140910E-04
       237   -6.971957E-04
       238    9.350599E-04
       239   -2.378642E-04
       240    1.801026E-03
       241    7.147869E-03
       242    2.034499E-03
       243   -7.571470E-03
       244    6.305787E-03
       245    1.265683E-03
       246   -8.825505E-03
       247    3.277771E-03
       248    1.181523E-02
       249   -1.901297E-05
       250   -2.446927E-05
       251   -2.803116E-04
       252   -3.268648E-05
       253   -2.340222E-06
       254    5.261594E-04
       255    5.819505E-05
       256    3.516920E-05
       257   -1.500819E-04
       258   -3.837999E-04
       259    1.483026E-03
       260    2.010134E-03
       261    1.965627E-02
       262   -1.050952E-05
       263   -1.824588E-04
       264    4.824737E-03
       265   -4.524941E-03
       266   -1.635892E-03
       267    2.272405E-03
       268    1.493195E-03
       269    2.013171E-03
       270    1.941758E-02
       271   -1.089407E-05
       272    1.823494E-04
       273    4.824083E-03
       274   -4.477598E-03
       275    1.619976E-03
       276    2.240531E-03
       277    1.559920E-03
       278    4.119539E-03
       279   -3.623788E-02
       280   -4.155759E-05
       281    2.847318E-04
       282    6.769875E-04
       283   -5.285068E-03
       284   -2.279064E-03
       285   -9.770796E-03
       286    1.565351E-03
       287    4.116304E-03
       288   -3.636291E-02
       289   -4.057349E-05
       290   -2.840024E-04
       291    6.769840E-04
       292   -5.316226E-03
       293    2.298192E-03
       294   -9.788307E-03
       295    2.077817E-04
       296    4.909355E-04
       297   -6.394969E-04
       298   -1.726249E-03
       299    8.908413E-03
       300    6.118473E-03
       301    3.069052E-03
       302   -3.921160E-06
       303   -1.929788E-02
       304    2.516142E-03
       305   -6.649252E-06
       306   -1.842085E-02
       307   -3.132049E-03
       308    4.677145E-05
       309    6.788608E-03
       310   -9.908162E-05
       311    1.364552E-04
       312   -3.737360E-05
       313   -9.678950E-07
       314   -4.264143E-03
       315    3.602154E-07
       316   -2.305733E-04
       317    2.840006E-04
       318   -5.342733E-05
       319   -2.950081E-06
       320   -1.218459E-02
       321    1.206074E-06
       322    3.284399E-04
       323   -2.342389E-03
       324    2.013949E-03
       325   -1.691425E-05
       326   -5.846072E-03
       327   -5.237538E-06
       328    3.366234E-06
       329    1.809627E-07
       330    1.251110E-04
       331    2.427059E-06
       332   -3.200683E-07
       333    6.120295E-04
       334   -6.943335E-06
       335    7.728130E-08
       336   -7.798836E-04
       337    5.536315E-08
       338    4.850112E-05
       339    1.147941E-04
       340   -1.430272E-04
       341   -8.812398E-04
       342    5.628476E-03
       343    4.552346E-04
       344   -2.541632E-03
       345    2.079651E-04
       346   -7.890749E-02
       347   -2.364036E-03
       348    2.496630E-04
       349   -7.265688E-02
       350   -2.512754E-03
       351    6.581133E-04
       352   -5.160898E-02
       353   -4.359140E-04
       354   -5.386019E-05
       355   -4.461697E-03
       356   -5.790594E-06
       357    1.841519E-05
       358   -1.262459E-05
       359   -1.915174E-05
       360    2.439751E-04
       361   -8.544914E-04
       362    1.516725E-05
       363    3.911510E-05
       364   -5.428235E-05
       365   -4.006798E-05
       366    1.159304E-03
       367   -2.622653E-03
       368    4.099955E-05
       369    3.589623E-05
       370   -7.689578E-05
       371    5.135917E-06
       372    1.701182E-03
       373   -4.275663E-04
       374    3.309764E-06
       375    2.646152E-06
       376    1.319256E-04
       377   -7.379776E-06
       378    1.397605E-06
       379    7.728512E-05
       380    2.939261E-06
       381   -4.947790E-06
       382   -2.542819E-04
       383    2.214958E-04
       384    4.851400E-05
       385    1.148127E-04
       386   -1.427552E-04
       387   -8.813892E-04
       388    5.629066E-03
       389    4.631718E-04
       390   -2.592271E-03
       391   -1.677433E-04
       392   -7.888700E-02
       393   -2.410485E-03
       394   -2.161025E-04
       395   -7.263925E-02
       396   -2.536262E-03
       397   -6.313089E-04
       398   -5.158376E-02
       399   -4.467030E-04
       400    6.162175E-05
       401   -4.457251E-03
       402   -5.365237E-06
       403    1.791964E-05
       404   -1.255441E-05
       405    1.914900E-05
       406    2.438918E-04
       407    8.543222E-04
       408    1.613436E-05
       409    3.846087E-05
       410   -5.459523E-05
       411    4.063852E-05
       412    1.158815E-03
       413    2.622111E-03
       414    4.539193E-05
       415    3.227484E-05
       416   -7.766678E-05
       417   -8.125243E-06
       418    1.700285E-03
       419    4.253071E-04
       420    3.263032E-06
       421   -2.531368E-06
       422    1.318939E-04
       423   -7.346754E-06
       424   -1.561959E-06
       425    7.728044E-05
       426    2.968938E-06
       427    4.958146E-06
       428   -2.542346E-04
       429   -2.214435E-04
       430   -4.714992E-03
       431   -1.118635E-02
       432    1.734940E-02
       433    2.786353E-02
       434    4.306386E-03
       435    3.248231E-02
       436   -2.348969E-02
       437    1.230284E-05
       438   -2.361688E-01
       439   -2.595000E-02
       440    6.734663E-06
       441   -2.292970E-01
       442   -3.310129E-02
       443   -7.334973E-05
       444   -1.564892E-01
       445    5.465257E-05
       446    2.144059E-04
       447   -2.690584E-04
       448   -3.449999E-07
       449   -1.880165E-03
       450    3.032256E-07
       451   -1.817791E-04
       452    2.307756E-03
       453   -2.125977E-03
       454    2.497534E-06
       455   -3.973543E-03
       456    1.009189E-06
       457   -1.454522E-03
       458    6.326134E-03
       459   -4.871611E-03
       460    1.113009E-06
       461   -3.914939E-04
       462    5.380985E-06
       463   -1.057473E-04
       464    6.805916E-08
       465    1.253313E-03
       466   -1.197755E-04
       467   -7.445380E-10
       468   -1.075274E-03
       469    2.616504E-04
       470   -9.056641E-08
       471   -6.062219E-04
       472   -3.440775E-09
       473   -5.962465E-03
       474   -1.441801E-02
       475   -2.690409E-02
       476   -2.582510E-03
       477   -1.788370E-03
       478   -1.081974E-02
       479   -3.325120E-03
       480   -2.425294E-03
       481   -4.461652E-03
       482   -5.953672E-03
       483   -1.435909E-02
       484   -2.678013E-02
       485   -2.578784E-03
       486    1.783406E-03
       487   -1.082191E-02
       488   -3.311720E-03
       489    2.403020E-03
       490   -4.477198E-03
 Sym= X
 Ene= -0.841362
 Spin= Alpha
 Occup= -0.841362
         1    2.478601E-04
         2    5.741276E-04
         3   -1.472242E-03
         4    2.683758E-03
         5    6.805388E-03
         6    1.238088E-02
         7    3.825453E-03
         8    6.842648E-04
         9   -2.480658E-02
        10   -1.125735E-03
        11    8.895654E-04
        12   -2.293868E-02
        13   -3.868021E-02
        14    1.224687E-02
        15   -5.433585E-03
        16   -6.308418E-05
        17    7.109939E-05
        18   -8.015215E-06
        19    3.152855E-05
        20   -6.240250E-03
        21    3.783439E-03
        22    6.575756E-04
        23   -3.854513E-04
        24   -2.721243E-04
        25    8.067285E-04
        26   -1.409414E-02
        27    7.150270E-03
        28    5.355470E-03
        29   -4.978673E-03
        30   -3.767971E-04
        31   -1.307006E-03
        32    2.149843E-03
        33   -1.049550E-02
        34   -1.584386E-05
        35    1.100956E-05
        36    1.019116E-04
        37    8.607124E-06
        38   -1.001774E-05
        39    6.994739E-04
        40    1.264965E-05
        41   -4.753134E-06
        42   -8.362027E-04
        43    6.855632E-04
        44   -1.389765E-04
        45   -3.106325E-04
        46    1.786684E-04
        47    3.865644E-03
        48    5.661849E-02
        49   -6.173380E-03
        50    1.994657E-04
        51    3.307984E-06
        52   -2.000343E-01
        53   -6.309823E-04
        54    1.498712E-05
        55   -2.074157E-01
        56   -1.766119E-02
        57   -6.514459E-04
        58   -1.987798E-01
        59   -1.109050E-04
        60    1.092374E-04
        61    1.667656E-06
        62   -1.348655E-07