[Molden Format]
[Title]
ADC(2) - opt by CAM-B3LYP gaussian                                              
[Atoms] AU
 c     1    6 0.12589710753986E+01 0.22825551554713E+01 -.28105798744860E-01
 c     2    6 0.25558923691721E+01 0.80431469000000E-06 -.26811997747980E-01
 c     3    6 0.12589700738438E+01 -.22825573262942E+01 -.28139341383720E-01
 c     4    6 -.13331755585332E+01 -.22837561874501E+01 -.30470167390540E-01
 c     5    6 -.26866009864883E+01 0.27696298600000E-05 -.30311128039200E-01
 c     6    6 -.13331783742251E+01 0.22837572858534E+01 -.30432977580250E-01
 h     7    1 0.22993222678978E+01 0.40366379181686E+01 -.25216785432900E-01
 h     8    1 0.22993197734593E+01 -.40366408826765E+01 -.25273722881290E-01
 h     9    1 -.23520966897676E+01 -.40562070503646E+01 -.33235309154490E-01
 h    10    1 -.23520900190344E+01 0.40562136478709E+01 -.33159965773570E-01
 n    11    7 0.52762255328692E+01 0.25629411000000E-06 -.20783601308720E-01
 o    12    8 0.63803680214636E+01 -.20270720034092E+01 -.18188232540560E-01
 o    13    8 0.63803692875801E+01 0.20270718545932E+01 -.18282964511600E-01
 n    14    7 -.52484248103301E+01 -.66967170000000E-06 -.81289589624650E-01
 h    15    1 -.62019351690707E+01 -.16149791988436E+01 0.21484054874156E+00
 h    16    1 -.62019367942352E+01 0.16149736265137E+01 0.21486103337284E+00
[GTO]
    1 0
 s    6 1.00
 0.13575349682000E+05 0.60645503603591E-03
 0.20352333680000E+04 0.46979088884982E-02
 0.46322562359000E+03 0.24332477647552E-01
 0.13120019598000E+03 0.97399968307759E-01
 0.42853015891000E+02 0.30195584253780E+00
 0.15584185766000E+02 0.66233609137875E+00
 s    2 1.00
 0.62067138508000E+01 0.65595308539952E+00
 0.25764896527000E+01 0.37585633285142E+00
 s    1 1.00
 0.57696339419000E+00 0.10000000000000E+01
 s    1 1.00
 0.22972831358000E+00 0.10000000000000E+01
 s    1 1.00
 0.95164440028000E-01 0.10000000000000E+01
 s    1 1.00
 0.48475401370000E-01 0.10000000000000E+01
 p    4 1.00
 0.34697232244000E+02 0.11327220003114E-01
 0.79582622826000E+01 0.76169659202087E-01
 0.23780826883000E+01 0.30192252202676E+00
 0.81433208183000E+00 0.72785027349547E+00
 p    1 1.00
 0.28887547253000E+00 0.10000000000000E+01
 p    1 1.00
 0.10056823671000E+00 0.10000000000000E+01
 d    1 1.00
 0.10970000000000E+01 0.10000000000000E+01
 d    1 1.00
 0.31800000000000E+00 0.10000000000000E+01
 d    1 1.00
 0.90985336424000E-01 0.10000000000000E+01
 f    1 1.00
 0.76100000000000E+00 0.10000000000000E+01
 
    2 0
 s    6 1.00
 0.13575349682000E+05 0.60645503603591E-03
 0.20352333680000E+04 0.46979088884982E-02
 0.46322562359000E+03 0.24332477647552E-01
 0.13120019598000E+03 0.97399968307759E-01
 0.42853015891000E+02 0.30195584253780E+00
 0.15584185766000E+02 0.66233609137875E+00
 s    2 1.00
 0.62067138508000E+01 0.65595308539952E+00
 0.25764896527000E+01 0.37585633285142E+00
 s    1 1.00
 0.57696339419000E+00 0.10000000000000E+01
 s    1 1.00
 0.22972831358000E+00 0.10000000000000E+01
 s    1 1.00
 0.95164440028000E-01 0.10000000000000E+01
 s    1 1.00
 0.48475401370000E-01 0.10000000000000E+01
 p    4 1.00
 0.34697232244000E+02 0.11327220003114E-01
 0.79582622826000E+01 0.76169659202087E-01
 0.23780826883000E+01 0.30192252202676E+00
 0.81433208183000E+00 0.72785027349547E+00
 p    1 1.00
 0.28887547253000E+00 0.10000000000000E+01
 p    1 1.00
 0.10056823671000E+00 0.10000000000000E+01
 d    1 1.00
 0.10970000000000E+01 0.10000000000000E+01
 d    1 1.00
 0.31800000000000E+00 0.10000000000000E+01
 d    1 1.00
 0.90985336424000E-01 0.10000000000000E+01
 f    1 1.00
 0.76100000000000E+00 0.10000000000000E+01
 
    3 0
 s    6 1.00
 0.13575349682000E+05 0.60645503603591E-03
 0.20352333680000E+04 0.46979088884982E-02
 0.46322562359000E+03 0.24332477647552E-01
 0.13120019598000E+03 0.97399968307759E-01
 0.42853015891000E+02 0.30195584253780E+00
 0.15584185766000E+02 0.66233609137875E+00
 s    2 1.00
 0.62067138508000E+01 0.65595308539952E+00
 0.25764896527000E+01 0.37585633285142E+00
 s    1 1.00
 0.57696339419000E+00 0.10000000000000E+01
 s    1 1.00
 0.22972831358000E+00 0.10000000000000E+01
 s    1 1.00
 0.95164440028000E-01 0.10000000000000E+01
 s    1 1.00
 0.48475401370000E-01 0.10000000000000E+01
 p    4 1.00
 0.34697232244000E+02 0.11327220003114E-01
 0.79582622826000E+01 0.76169659202087E-01
 0.23780826883000E+01 0.30192252202676E+00
 0.81433208183000E+00 0.72785027349547E+00
 p    1 1.00
 0.28887547253000E+00 0.10000000000000E+01
 p    1 1.00
 0.10056823671000E+00 0.10000000000000E+01
 d    1 1.00
 0.10970000000000E+01 0.10000000000000E+01
 d    1 1.00
 0.31800000000000E+00 0.10000000000000E+01
 d    1 1.00
 0.90985336424000E-01 0.10000000000000E+01
 f    1 1.00
 0.76100000000000E+00 0.10000000000000E+01
 
    4 0
 s    6 1.00
 0.13575349682000E+05 0.60645503603591E-03
 0.20352333680000E+04 0.46979088884982E-02
 0.46322562359000E+03 0.24332477647552E-01
 0.13120019598000E+03 0.97399968307759E-01
 0.42853015891000E+02 0.30195584253780E+00
 0.15584185766000E+02 0.66233609137875E+00
 s    2 1.00
 0.62067138508000E+01 0.65595308539952E+00
 0.25764896527000E+01 0.37585633285142E+00
 s    1 1.00
 0.57696339419000E+00 0.10000000000000E+01
 s    1 1.00
 0.22972831358000E+00 0.10000000000000E+01
 s    1 1.00
 0.95164440028000E-01 0.10000000000000E+01
 s    1 1.00
 0.48475401370000E-01 0.10000000000000E+01
 p    4 1.00
 0.34697232244000E+02 0.11327220003114E-01
 0.79582622826000E+01 0.76169659202087E-01
 0.23780826883000E+01 0.30192252202676E+00
 0.81433208183000E+00 0.72785027349547E+00
 p    1 1.00
 0.28887547253000E+00 0.10000000000000E+01
 p    1 1.00
 0.10056823671000E+00 0.10000000000000E+01
 d    1 1.00
 0.10970000000000E+01 0.10000000000000E+01
 d    1 1.00
 0.31800000000000E+00 0.10000000000000E+01
 d    1 1.00
 0.90985336424000E-01 0.10000000000000E+01
 f    1 1.00
 0.76100000000000E+00 0.10000000000000E+01
 
    5 0
 s    6 1.00
 0.13575349682000E+05 0.60645503603591E-03
 0.20352333680000E+04 0.46979088884982E-02
 0.46322562359000E+03 0.24332477647552E-01
 0.13120019598000E+03 0.97399968307759E-01
 0.42853015891000E+02 0.30195584253780E+00
 0.15584185766000E+02 0.66233609137875E+00
 s    2 1.00
 0.62067138508000E+01 0.65595308539952E+00
 0.25764896527000E+01 0.37585633285142E+00
 s    1 1.00
 0.57696339419000E+00 0.10000000000000E+01
 s    1 1.00
 0.22972831358000E+00 0.10000000000000E+01
 s    1 1.00
 0.95164440028000E-01 0.10000000000000E+01
 s    1 1.00
 0.48475401370000E-01 0.10000000000000E+01
 p    4 1.00
 0.34697232244000E+02 0.11327220003114E-01
 0.79582622826000E+01 0.76169659202087E-01
 0.23780826883000E+01 0.30192252202676E+00
 0.81433208183000E+00 0.72785027349547E+00
 p    1 1.00
 0.28887547253000E+00 0.10000000000000E+01
 p    1 1.00
 0.10056823671000E+00 0.10000000000000E+01
 d    1 1.00
 0.10970000000000E+01 0.10000000000000E+01
 d    1 1.00
 0.31800000000000E+00 0.10000000000000E+01
 d    1 1.00
 0.90985336424000E-01 0.10000000000000E+01
 f    1 1.00
 0.76100000000000E+00 0.10000000000000E+01
 
    6 0
 s    6 1.00
 0.13575349682000E+05 0.60645503603591E-03
 0.20352333680000E+04 0.46979088884982E-02
 0.46322562359000E+03 0.24332477647552E-01
 0.13120019598000E+03 0.97399968307759E-01
 0.42853015891000E+02 0.30195584253780E+00
 0.15584185766000E+02 0.66233609137875E+00
 s    2 1.00
 0.62067138508000E+01 0.65595308539952E+00
 0.25764896527000E+01 0.37585633285142E+00
 s    1 1.00
 0.57696339419000E+00 0.10000000000000E+01
 s    1 1.00
 0.22972831358000E+00 0.10000000000000E+01
 s    1 1.00
 0.95164440028000E-01 0.10000000000000E+01
 s    1 1.00
 0.48475401370000E-01 0.10000000000000E+01
 p    4 1.00
 0.34697232244000E+02 0.11327220003114E-01
 0.79582622826000E+01 0.76169659202087E-01
 0.23780826883000E+01 0.30192252202676E+00
 0.81433208183000E+00 0.72785027349547E+00
 p    1 1.00
 0.28887547253000E+00 0.10000000000000E+01
 p    1 1.00
 0.10056823671000E+00 0.10000000000000E+01
 d    1 1.00
 0.10970000000000E+01 0.10000000000000E+01
 d    1 1.00
 0.31800000000000E+00 0.10000000000000E+01
 d    1 1.00
 0.90985336424000E-01 0.10000000000000E+01
 f    1 1.00
 0.76100000000000E+00 0.10000000000000E+01
 
    7 0
 s    3 1.00
 0.34061341000000E+02 0.25439307208879E-01
 0.51235746000000E+01 0.19008594890375E+00
 0.11646626000000E+01 0.85244113011042E+00
 s    1 1.00
 0.32723041000000E+00 0.10000000000000E+01
 s    1 1.00
 0.10307241000000E+00 0.10000000000000E+01
 p    1 1.00
 0.80000000000000E+00 0.10000000000000E+01
 p    1 1.00
 0.95774129632000E-01 0.10000000000000E+01
 
    8 0
 s    3 1.00
 0.34061341000000E+02 0.25439307208879E-01
 0.51235746000000E+01 0.19008594890375E+00
 0.11646626000000E+01 0.85244113011042E+00
 s    1 1.00
 0.32723041000000E+00 0.10000000000000E+01
 s    1 1.00
 0.10307241000000E+00 0.10000000000000E+01
 p    1 1.00
 0.80000000000000E+00 0.10000000000000E+01
 p    1 1.00
 0.95774129632000E-01 0.10000000000000E+01
 
    9 0
 s    3 1.00
 0.34061341000000E+02 0.25439307208879E-01
 0.51235746000000E+01 0.19008594890375E+00
 0.11646626000000E+01 0.85244113011042E+00
 s    1 1.00
 0.32723041000000E+00 0.10000000000000E+01
 s    1 1.00
 0.10307241000000E+00 0.10000000000000E+01
 p    1 1.00
 0.80000000000000E+00 0.10000000000000E+01
 p    1 1.00
 0.95774129632000E-01 0.10000000000000E+01
 
   10 0
 s    3 1.00
 0.34061341000000E+02 0.25439307208879E-01
 0.51235746000000E+01 0.19008594890375E+00
 0.11646626000000E+01 0.85244113011042E+00
 s    1 1.00
 0.32723041000000E+00 0.10000000000000E+01
 s    1 1.00
 0.10307241000000E+00 0.10000000000000E+01
 p    1 1.00
 0.80000000000000E+00 0.10000000000000E+01
 p    1 1.00
 0.95774129632000E-01 0.10000000000000E+01
 
   11 0
 s    6 1.00
 0.19730800647000E+05 0.58626402628763E-03
 0.29578958745000E+04 0.45428820586397E-02
 0.67322133595000E+03 0.23558413450084E-01
 0.19068249494000E+03 0.94709193292923E-01
 0.62295441898000E+02 0.29719784913376E+00
 0.22654161182000E+02 0.66916246895232E+00
 s    2 1.00
 0.89791477428000E+01 0.64596683630063E+00
 0.36863002370000E+01 0.38700574393705E+00
 s    1 1.00
 0.84660076805000E+00 0.10000000000000E+01
 s    1 1.00
 0.33647133771000E+00 0.10000000000000E+01
 s    1 1.00
 0.13647653675000E+00 0.10000000000000E+01
 s    1 1.00
 0.68441605847000E-01 0.10000000000000E+01
 p    4 1.00
 0.49200380510000E+02 0.11448825101764E-01
 0.11346790537000E+02 0.78422337970864E-01
 0.34273972411000E+01 0.30818094738830E+00
 0.11785525134000E+01 0.72027196368413E+00
 p    1 1.00
 0.41642204972000E+00 0.10000000000000E+01
 p    1 1.00
 0.14260826011000E+00 0.10000000000000E+01
 d    1 1.00
 0.16540000000000E+01 0.10000000000000E+01
 d    1 1.00
 0.46900000000000E+00 0.10000000000000E+01
 d    1 1.00
 0.12829642058000E+00 0.10000000000000E+01
 f    1 1.00
 0.10930000000000E+01 0.10000000000000E+01
 
   12 0
 s    6 1.00
 0.27032382631000E+05 0.57227335211155E-03
 0.40523871392000E+04 0.44353233492995E-02
 0.92232722710000E+03 0.23020107706038E-01
 0.26124070989000E+03 0.92822490667928E-01
 0.85354641351000E+02 0.29378500009671E+00
 0.31035035245000E+02 0.67401604501641E+00
 s    2 1.00
 0.12260860728000E+02 0.63839937025506E+00
 0.49987076005000E+01 0.39534587125718E+00
 s    1 1.00
 0.11703108158000E+01 0.10000000000000E+01
 s    1 1.00
 0.46474740994000E+00 0.10000000000000E+01
 s    1 1.00
 0.18504536357000E+00 0.10000000000000E+01
 s    1 1.00
 0.70288026270000E-01 0.10000000000000E+01
 p    4 1.00
 0.63274954801000E+02 0.12018332222616E-01
 0.14627049379000E+02 0.83005421790056E-01
 0.44501223456000E+01 0.31991743925964E+00
 0.15275799647000E+01 0.70715542916104E+00
 p    1 1.00
 0.52935117943000E+00 0.10000000000000E+01
 p    1 1.00
 0.17478421270000E+00 0.10000000000000E+01
 p    1 1.00
 0.51112745706000E-01 0.10000000000000E+01
 d    1 1.00
 0.23140000000000E+01 0.10000000000000E+01
 d    1 1.00
 0.64500000000000E+00 0.10000000000000E+01
 d    1 1.00
 0.14696477366000E+00 0.10000000000000E+01
 f    1 1.00
 0.14280000000000E+01 0.10000000000000E+01
 
   13 0
 s    6 1.00
 0.27032382631000E+05 0.57227335211155E-03
 0.40523871392000E+04 0.44353233492995E-02
 0.92232722710000E+03 0.23020107706038E-01
 0.26124070989000E+03 0.92822490667928E-01
 0.85354641351000E+02 0.29378500009671E+00
 0.31035035245000E+02 0.67401604501641E+00
 s    2 1.00
 0.12260860728000E+02 0.63839937025506E+00
 0.49987076005000E+01 0.39534587125718E+00
 s    1 1.00
 0.11703108158000E+01 0.10000000000000E+01
 s    1 1.00
 0.46474740994000E+00 0.10000000000000E+01
 s    1 1.00
 0.18504536357000E+00 0.10000000000000E+01
 s    1 1.00
 0.70288026270000E-01 0.10000000000000E+01
 p    4 1.00
 0.63274954801000E+02 0.12018332222616E-01
 0.14627049379000E+02 0.83005421790056E-01
 0.44501223456000E+01 0.31991743925964E+00
 0.15275799647000E+01 0.70715542916104E+00
 p    1 1.00
 0.52935117943000E+00 0.10000000000000E+01
 p    1 1.00
 0.17478421270000E+00 0.10000000000000E+01
 p    1 1.00
 0.51112745706000E-01 0.10000000000000E+01
 d    1 1.00
 0.23140000000000E+01 0.10000000000000E+01
 d    1 1.00
 0.64500000000000E+00 0.10000000000000E+01
 d    1 1.00
 0.14696477366000E+00 0.10000000000000E+01
 f    1 1.00
 0.14280000000000E+01 0.10000000000000E+01
 
   14 0
 s    6 1.00
 0.19730800647000E+05 0.58626402628763E-03
 0.29578958745000E+04 0.45428820586397E-02
 0.67322133595000E+03 0.23558413450084E-01
 0.19068249494000E+03 0.94709193292923E-01
 0.62295441898000E+02 0.29719784913376E+00
 0.22654161182000E+02 0.66916246895232E+00
 s    2 1.00
 0.89791477428000E+01 0.64596683630063E+00
 0.36863002370000E+01 0.38700574393705E+00
 s    1 1.00
 0.84660076805000E+00 0.10000000000000E+01
 s    1 1.00
 0.33647133771000E+00 0.10000000000000E+01
 s    1 1.00
 0.13647653675000E+00 0.10000000000000E+01
 s    1 1.00
 0.68441605847000E-01 0.10000000000000E+01
 p    4 1.00
 0.49200380510000E+02 0.11448825101764E-01
 0.11346790537000E+02 0.78422337970864E-01
 0.34273972411000E+01 0.30818094738830E+00
 0.11785525134000E+01 0.72027196368413E+00
 p    1 1.00
 0.41642204972000E+00 0.10000000000000E+01
 p    1 1.00
 0.14260826011000E+00 0.10000000000000E+01
 d    1 1.00
 0.16540000000000E+01 0.10000000000000E+01
 d    1 1.00
 0.46900000000000E+00 0.10000000000000E+01
 d    1 1.00
 0.12829642058000E+00 0.10000000000000E+01
 f    1 1.00
 0.10930000000000E+01 0.10000000000000E+01
 
   15 0
 s    3 1.00
 0.34061341000000E+02 0.25439307208879E-01
 0.51235746000000E+01 0.19008594890375E+00
 0.11646626000000E+01 0.85244113011042E+00
 s    1 1.00
 0.32723041000000E+00 0.10000000000000E+01
 s    1 1.00
 0.10307241000000E+00 0.10000000000000E+01
 p    1 1.00
 0.80000000000000E+00 0.10000000000000E+01
 p    1 1.00
 0.95774129632000E-01 0.10000000000000E+01
 
   16 0
 s    3 1.00
 0.34061341000000E+02 0.25439307208879E-01
 0.51235746000000E+01 0.19008594890375E+00
 0.11646626000000E+01 0.85244113011042E+00
 s    1 1.00
 0.32723041000000E+00 0.10000000000000E+01
 s    1 1.00
 0.10307241000000E+00 0.10000000000000E+01
 p    1 1.00
 0.80000000000000E+00 0.10000000000000E+01
 p    1 1.00
 0.95774129632000E-01 0.10000000000000E+01
 
[MO]
 Sym= X
 Ene= -0.935355
 Spin= Alpha
 Occup= -0.935355
         1    1.614527E-04
         2    3.770610E-04
         3   -1.126913E-03
         4    2.817841E-03
         5    6.911967E-03
         6    1.107054E-02
         7    1.515587E-03
         8    1.628257E-04
         9   -2.916980E-02
        10   -2.500315E-03
        11    3.636336E-04
        12   -2.732174E-02
        13   -3.473793E-02
        14    1.152655E-02
        15   -7.980613E-03
        16    5.128842E-07
        17    1.238544E-05
        18   -1.289832E-05
        19    7.932147E-06
        20   -6.449359E-03
        21    3.992939E-03
        22    6.650731E-04
        23   -3.936633E-04
        24   -2.714098E-04
        25    6.782940E-04
        26   -1.453479E-02
        27    7.511545E-03
        28    5.050978E-03
        29   -4.783482E-03
        30   -2.674965E-04
        31   -1.031414E-03
        32    1.618436E-03
        33   -9.447516E-03
        34   -2.037108E-05
        35    5.898742E-06
        36    1.317883E-04
        37    9.027893E-06
        38   -5.733302E-06
        39    7.048155E-04
        40    1.830278E-05
        41   -2.180691E-06
        42   -8.816280E-04
        43    7.233296E-04
        44   -2.623544E-05
        45   -5.750345E-05
        46   -1.176109E-04
        47    2.612356E-03
        48    5.345660E-02
        49   -5.108431E-03
        50    3.543037E-04
        51    3.120505E-06
        52   -2.108292E-01
        53   -4.033553E-04
        54    1.610975E-05
        55   -2.185575E-01
        56   -1.662573E-02
        57   -6.407630E-04
        58   -2.008656E-01
        59   -3.734783E-05
        60    3.472682E-05
        61    2.621006E-06
        62   -1.237324E-07
        63   -6.933063E-04
        64    6.485690E-07
        65   -3.613992E-04
        66    6.021261E-04
        67   -2.407270E-04
        68   -3.577286E-06
        69   -3.320683E-03
        70    1.220154E-06
        71   -8.802652E-03
        72    1.002559E-02
        73   -1.222939E-03
        74    1.016535E-04
        75    5.132090E-03
        76   -4.059607E-06
        77    7.556983E-06
        78    4.941901E-08
        79    1.201849E-03
        80   -6.245450E-06
        81    2.376944E-08
        82   -7.260460E-04
        83   -3.893308E-06
        84   -9.007199E-08
        85   -8.864036E-04
        86   -9.206198E-08
        87    1.619588E-04
        88    3.781613E-04
        89   -1.127819E-03
        90    2.818679E-03
        91    4.941431E-03
        92    1.104853E-02
        93    1.517172E-03
        94   -1.649571E-04
        95   -2.920371E-02
        96   -2.459093E-03
        97   -3.590575E-04
        98   -2.735521E-02
        99   -3.482604E-02
       100   -1.215565E-02
       101   -8.022140E-03
       102    3.582555E-07
       103    1.247672E-05
       104   -1.283497E-05
       105   -8.124474E-06
       106   -6.448706E-03
       107   -3.993111E-03
       108    6.564330E-04
       109   -3.860555E-04
       110   -2.703775E-04
       111   -6.760939E-04
       112   -1.453266E-02
       113   -7.510724E-03
       114    5.132164E-03
       115   -4.879704E-03
       116   -2.524595E-04
       117    9.525304E-04
       118    1.622473E-03
       119    9.452209E-03
       120   -2.032442E-05
       121   -5.863402E-06
       122    1.319526E-04
       123    9.138191E-06
       124    5.680165E-06
       125    7.046258E-04
       126    1.812988E-05
       127    2.186414E-06
       128   -8.816588E-04
       129   -7.232686E-04
       130   -9.775858E-05
       131   -2.089915E-04
       132   -5.977098E-04
       133    9.842896E-03
       134   -2.780737E-02
       135   -1.261845E-02
       136   -1.180467E-03
       137    5.247747E-04
       138    1.578076E-01
       139   -8.791405E-03
       140    5.889777E-03
       141    1.604090E-01
       142   -2.273366E-02
       143   -6.839108E-03
       144    9.730007E-02
       145   -1.312486E-04
       146    1.567890E-04
       147   -2.554045E-05
       148    3.191346E-06
       149   -1.137409E-03
       150    3.246275E-03
       151   -6.290264E-04
       152    7.273398E-04
       153   -9.831335E-05
       154   -1.630416E-03
       155   -4.666165E-03
       156    5.500950E-03
       157   -8.132373E-03
       158    6.365668E-03
       159    1.766704E-03
       160    8.911938E-03
       161    3.236896E-03
       162   -1.088113E-02
       163   -1.565611E-05
       164    7.639689E-06
       165   -9.086386E-04
       166   -1.680757E-05
       167    1.816587E-05
       168    2.216322E-04
       169    3.781244E-05
       170   -2.841559E-05
       171    9.974343E-04
       172   -3.876067E-04
       173    1.030039E-03
       174    2.351031E-03
       175   -2.341497E-03
       176   -2.150598E-02
       177    1.590776E-02
       178   -9.116231E-03
       179    8.075554E-03
       180   -2.204953E-06
       181    1.305174E-01
       182    1.342685E-04
       183   -5.973073E-06
       184    1.327511E-01
       185   -2.679675E-02
       186    9.237506E-04
       187    1.327004E-01
       188   -4.499999E-04
       189    2.441443E-04
       190    2.058556E-04
       191   -3.054213E-07
       192    9.338235E-03
       193    7.547577E-07
       194    1.769594E-03
       195   -3.951938E-03
       196    2.182345E-03
       197   -3.489132E-07
       198    2.342106E-02
       199   -1.763581E-07
       200    5.346378E-03
       201   -6.603973E-03
       202    1.257595E-03
       203    1.241506E-04
       204    1.822646E-02
       205   -9.672389E-06
       206    1.085867E-04
       207    3.547858E-08
       208   -4.925937E-04
       209   -7.793634E-05
       210   -4.519206E-08
       211   -8.562379E-04
       212   -6.774795E-05
       213   -2.407450E-09
       214    1.517122E-03
       215    4.862431E-08
       216   -9.854165E-05
       217   -2.105927E-04
       218   -5.940905E-04
       219    9.850834E-03
       220   -3.009508E-02
       221   -1.263145E-02
       222   -1.180054E-03
       223   -5.193191E-04
       224    1.578395E-01
       225   -8.812255E-03
       226   -5.888901E-03
       227    1.604441E-01
       228   -2.253086E-02
       229    7.771433E-03
       230    9.730994E-02
       231   -1.310492E-04
       232    1.572211E-04
       233   -2.617192E-05
       234   -3.563933E-06
       235   -1.136776E-03
       236   -3.246401E-03
       237   -6.358417E-04
       238    7.315983E-04
       239   -9.575654E-05
       240    1.631428E-03
       241   -4.662878E-03
       242   -5.501361E-03
       243   -8.094797E-03
       244    6.321363E-03
       245    1.773434E-03
       246   -9.020242E-03
       247    3.230480E-03
       248    1.088232E-02
       249   -1.587687E-05
       250   -7.699079E-06
       251   -9.089738E-04
       252   -1.675281E-05
       253   -1.808892E-05
       254    2.220014E-04
       255    3.805386E-05
       256    2.841832E-05
       257    9.975149E-04
       258    3.876005E-04
       259    3.145189E-04
       260    1.341296E-04
       261    1.655083E-02
       262   -1.065828E-05
       263    8.095921E-06
       264   -1.154423E-03
       265   -5.241801E-03
       266   -1.673105E-04
       267    5.811628E-03
       268    3.162586E-04
       269    1.267804E-04
       270    1.651951E-02
       271   -9.925770E-06
       272   -9.132275E-06
       273   -1.155796E-03
       274   -5.318101E-03
       275    1.381061E-04
       276    5.814451E-03
       277    3.858551E-04
       278    2.281459E-03
       279   -3.358680E-02
       280   -8.316397E-06
       281    9.526246E-05
       282    6.424034E-03
       283   -1.280634E-03
       284   -2.742124E-03
       285   -4.396209E-04
       286    3.906588E-04
       287    2.287400E-03
       288   -3.392624E-02
       289   -7.904544E-06
       290   -9.547704E-05
       291    6.425814E-03
       292   -1.289629E-03
       293    2.783425E-03
       294   -4.397837E-04
       295    4.172352E-05
       296    9.671027E-05
       297   -8.252141E-05
       298   -3.547485E-04
       299    6.094805E-03
       300   -1.579566E-03
       301    4.631566E-04
       302   -9.513360E-07
       303   -2.356824E-02
       304    1.644255E-04
       305   -1.380156E-08
       306   -2.565946E-02
       307   -2.816461E-03
       308    3.477696E-05
       309   -9.907999E-03
       310   -2.429337E-05
       311    9.333269E-06
       312    1.496010E-05
       313   -2.613082E-08
       314    4.461014E-03
       315    1.998598E-08
       316   -1.752406E-05
       317   -5.039766E-05
       318    6.792172E-05
       319    4.468683E-07
       320    1.349046E-02
       321   -3.016265E-08
       322    1.010696E-03
       323   -2.799860E-03
       324    1.789163E-03
       325   -2.234331E-05
       326    3.506550E-03
       327    2.727175E-06
       328    6.927053E-06
       329    1.735242E-08
       330    2.851710E-05
       331   -4.594462E-06
       332    2.456312E-08
       333   -7.279964E-04
       334   -4.699155E-06
       335   -4.784383E-08
       336    6.897367E-04
       337   -1.258414E-08
       338    1.012743E-05
       339    2.122577E-05
       340    1.238417E-05
       341   -4.920167E-04
       342    5.776813E-03
       343    1.009297E-03
       344   -2.981178E-04
       345    8.966169E-05
       346    7.655040E-02
       347   -3.711132E-04
       348    2.179835E-04
       349    7.106189E-02
       350   -1.497954E-03
       351    4.646078E-04
       352    5.831112E-02
       353   -1.690136E-04
       354    2.316019E-04
       355    7.162899E-03
       356   -3.318353E-06
       357    4.144667E-06
       358   -8.263149E-07
       359   -1.220365E-06
       360    3.745318E-05
       361    4.316558E-04
       362    1.298491E-05
       363    8.935204E-06
       364   -2.192011E-05
       365   -1.297053E-05
       366   -4.349491E-04
       367    1.458345E-03
       368    7.941848E-05
       369   -5.555920E-05
       370   -2.385928E-05
       371   -8.790648E-05
       372   -2.963424E-04
       373    1.930324E-04
       374    8.733067E-07
       375    1.369345E-06
       376   -5.396129E-05
       377   -1.511786E-06
       378   -4.546502E-08
       379   -8.601022E-05
       380    3.401218E-07
       381   -1.791704E-06
       382    1.584069E-04
       383   -1.230060E-04
       384    1.015124E-05
       385    2.133158E-05
       386    1.166493E-05
       387   -4.878104E-04
       388    5.763018E-03
       389    9.810867E-04
       390   -2.937199E-04
       391   -8.617685E-05
       392    7.654974E-02
       393   -3.667753E-04
       394   -2.145012E-04
       395    7.106168E-02
       396   -1.469124E-03
       397   -4.546699E-04
       398    5.830587E-02
       399   -1.542527E-04
       400   -2.357537E-04
       401    7.164719E-03
       402   -3.300684E-06
       403    4.097452E-06
       404   -7.967674E-07
       405    1.244248E-06
       406    3.742058E-05
       407   -4.316492E-04
       408    1.282430E-05
       409    8.701431E-06
       410   -2.152573E-05
       411    1.243938E-05
       412   -4.348913E-04
       413   -1.458366E-03
       414    7.925958E-05
       415   -5.699182E-05
       416   -2.226776E-05
       417    8.685638E-05
       418   -2.969017E-04
       419   -1.920833E-04
       420    8.639974E-07
       421   -1.348085E-06
       422   -5.396524E-05
       423   -1.476282E-06
       424    4.654523E-08
       425   -8.600396E-05
       426    3.171080E-07
       427    1.762100E-06
       428    1.584059E-04
       429    1.230087E-04
       430   -4.567429E-03
       431   -1.086728E-02
       432    1.701602E-02
       433    2.665313E-02
       434    2.124626E-02
       435    7.052736E-02
       436   -1.613926E-02
       437    7.950435E-06
       438   -2.261283E-01
       439   -1.858720E-02
       440    2.026585E-06
       441   -2.238501E-01
       442   -1.699701E-02
       443   -9.957784E-05
       444   -1.875261E-01
       445    1.041137E-04
       446   -1.468900E-05
       447   -8.942474E-05
       448   -2.018739E-07
       449    1.100011E-03
       450    2.328441E-07
       451    2.582825E-04
       452    1.409985E-03
       453   -1.668268E-03
       454    3.191821E-06
       455    4.333149E-03
       456    1.146320E-06
       457    2.191953E-03
       458    2.755828E-03
       459   -4.947782E-03
       460   -1.254890E-06
       461    2.461856E-03
       462    6.351891E-06
       463   -1.461419E-04
       464    2.493746E-08
       465    8.397160E-04
       466   -7.555495E-05
       467    1.003580E-08
       468   -3.861051E-04
       469    2.716248E-04
       470   -4.349291E-08
       471   -7.404921E-04
       472    1.944448E-08
       473   -9.852517E-03
       474   -1.821776E-02
       475   -3.045413E-02
       476   -2.173694E-03
       477   -1.890351E-03
       478   -1.157463E-02
       479    1.664112E-03
       480   -3.570442E-03
       481   -1.440782E-02
       482   -9.848085E-03
       483   -1.815971E-02
       484   -3.029259E-02
       485   -2.170471E-03
       486    1.885094E-03
       487   -1.157722E-02
       488    1.682600E-03
       489    3.542141E-03
       490   -1.441595E-02
 Sym= X
 Ene= 0.935355
 Spin= Alpha
 Occup= 0.935355
         1   -4.373658E-03
         2   -9.175616E-03
         3   -5.495392E-03
         4    2.563229E-01
         5    7.039068E+00
         6    2.453997E-01
         7    1.598978E-02
         8    3.874658E-02
         9    8.346599E-03
        10    1.022125E-01
        11    1.386637E-02
        12    1.005767E-02
        13    3.758492E+00
        14   -4.147768E+00
        15   -7.135007E-03
        16    8.741461E-04
        17    1.537688E-04
        18   -1.027915E-03
        19   -1.141756E-03
        20    2.274098E-04
        21   -1.239249E-08
        22   -2.188803E-02
        23    2.692063E-02
        24   -5.032599E-03
        25   -1.299160E-02
        26    6.101711E-04
        27    5.957674E-05
        28   -1.319614E+00
        29    1.238728E+00
        30    8.088596E-02
        31   -1.316101E+00
        32   -1.032645E-02
        33    1.207603E-02
        34    1.261898E-04
        35   -4.134890E-05
        36   -2.011385E-05
        37    8.313343E-04
        38    3.358933E-04
        39    4.399162E-06
        40   -1.000636E-03
        41   -2.804179E-04
        42    2.258640E-05
        43    7.391847E-06
        44    5.414288E-07
        45    6.772854E-07
        46    1.290725E-05
        47   -5.245280E-05
        48   -2.192902E-04
        49    5.535776E-03
        50    2.989278E-06
        51    1.099938E-02
        52   -4.216785E-05
        53   -2.320522E-05
        54   -9.055683E-02
        55   -4.109074E-05
        56    2.697733E-03
        57   -9.037175E+00
        58   -2.092342E-04
        59   -1.221883E-06
        60    1.721962E-06
        61   -5.000783E-07
        62    1.776131E-03