[Molden Format]
[Title]
ADC(2) - opt by CAM-B3LYP gaussian                                              
[Atoms] AU
 c     1    6 0.12589710753986E+01 0.22825551554713E+01 -.28105798744860E-01
 c     2    6 0.25558923691721E+01 0.80431469000000E-06 -.26811997747980E-01
 c     3    6 0.12589700738438E+01 -.22825573262942E+01 -.28139341383720E-01
 c     4    6 -.13331755585332E+01 -.22837561874501E+01 -.30470167390540E-01
 c     5    6 -.26866009864883E+01 0.27696298600000E-05 -.30311128039200E-01
 c     6    6 -.13331783742251E+01 0.22837572858534E+01 -.30432977580250E-01
 h     7    1 0.22993222678978E+01 0.40366379181686E+01 -.25216785432900E-01
 h     8    1 0.22993197734593E+01 -.40366408826765E+01 -.25273722881290E-01
 h     9    1 -.23520966897676E+01 -.40562070503646E+01 -.33235309154490E-01
 h    10    1 -.23520900190344E+01 0.40562136478709E+01 -.33159965773570E-01
 n    11    7 0.52762255328692E+01 0.25629411000000E-06 -.20783601308720E-01
 o    12    8 0.63803680214636E+01 -.20270720034092E+01 -.18188232540560E-01
 o    13    8 0.63803692875801E+01 0.20270718545932E+01 -.18282964511600E-01
 n    14    7 -.52484248103301E+01 -.66967170000000E-06 -.81289589624650E-01
 h    15    1 -.62019351690707E+01 -.16149791988436E+01 0.21484054874156E+00
 h    16    1 -.62019367942352E+01 0.16149736265137E+01 0.21486103337284E+00
[GTO]
    1 0
 s    6 1.00
 0.13575349682000E+05 0.60645503603591E-03
 0.20352333680000E+04 0.46979088884982E-02
 0.46322562359000E+03 0.24332477647552E-01
 0.13120019598000E+03 0.97399968307759E-01
 0.42853015891000E+02 0.30195584253780E+00
 0.15584185766000E+02 0.66233609137875E+00
 s    2 1.00
 0.62067138508000E+01 0.65595308539952E+00
 0.25764896527000E+01 0.37585633285142E+00
 s    1 1.00
 0.57696339419000E+00 0.10000000000000E+01
 s    1 1.00
 0.22972831358000E+00 0.10000000000000E+01
 s    1 1.00
 0.95164440028000E-01 0.10000000000000E+01
 s    1 1.00
 0.48475401370000E-01 0.10000000000000E+01
 p    4 1.00
 0.34697232244000E+02 0.11327220003114E-01
 0.79582622826000E+01 0.76169659202087E-01
 0.23780826883000E+01 0.30192252202676E+00
 0.81433208183000E+00 0.72785027349547E+00
 p    1 1.00
 0.28887547253000E+00 0.10000000000000E+01
 p    1 1.00
 0.10056823671000E+00 0.10000000000000E+01
 d    1 1.00
 0.10970000000000E+01 0.10000000000000E+01
 d    1 1.00
 0.31800000000000E+00 0.10000000000000E+01
 d    1 1.00
 0.90985336424000E-01 0.10000000000000E+01
 f    1 1.00
 0.76100000000000E+00 0.10000000000000E+01
 
    2 0
 s    6 1.00
 0.13575349682000E+05 0.60645503603591E-03
 0.20352333680000E+04 0.46979088884982E-02
 0.46322562359000E+03 0.24332477647552E-01
 0.13120019598000E+03 0.97399968307759E-01
 0.42853015891000E+02 0.30195584253780E+00
 0.15584185766000E+02 0.66233609137875E+00
 s    2 1.00
 0.62067138508000E+01 0.65595308539952E+00
 0.25764896527000E+01 0.37585633285142E+00
 s    1 1.00
 0.57696339419000E+00 0.10000000000000E+01
 s    1 1.00
 0.22972831358000E+00 0.10000000000000E+01
 s    1 1.00
 0.95164440028000E-01 0.10000000000000E+01
 s    1 1.00
 0.48475401370000E-01 0.10000000000000E+01
 p    4 1.00
 0.34697232244000E+02 0.11327220003114E-01
 0.79582622826000E+01 0.76169659202087E-01
 0.23780826883000E+01 0.30192252202676E+00
 0.81433208183000E+00 0.72785027349547E+00
 p    1 1.00
 0.28887547253000E+00 0.10000000000000E+01
 p    1 1.00
 0.10056823671000E+00 0.10000000000000E+01
 d    1 1.00
 0.10970000000000E+01 0.10000000000000E+01
 d    1 1.00
 0.31800000000000E+00 0.10000000000000E+01
 d    1 1.00
 0.90985336424000E-01 0.10000000000000E+01
 f    1 1.00
 0.76100000000000E+00 0.10000000000000E+01
 
    3 0
 s    6 1.00
 0.13575349682000E+05 0.60645503603591E-03
 0.20352333680000E+04 0.46979088884982E-02
 0.46322562359000E+03 0.24332477647552E-01
 0.13120019598000E+03 0.97399968307759E-01
 0.42853015891000E+02 0.30195584253780E+00
 0.15584185766000E+02 0.66233609137875E+00
 s    2 1.00
 0.62067138508000E+01 0.65595308539952E+00
 0.25764896527000E+01 0.37585633285142E+00
 s    1 1.00
 0.57696339419000E+00 0.10000000000000E+01
 s    1 1.00
 0.22972831358000E+00 0.10000000000000E+01
 s    1 1.00
 0.95164440028000E-01 0.10000000000000E+01
 s    1 1.00
 0.48475401370000E-01 0.10000000000000E+01
 p    4 1.00
 0.34697232244000E+02 0.11327220003114E-01
 0.79582622826000E+01 0.76169659202087E-01
 0.23780826883000E+01 0.30192252202676E+00
 0.81433208183000E+00 0.72785027349547E+00
 p    1 1.00
 0.28887547253000E+00 0.10000000000000E+01
 p    1 1.00
 0.10056823671000E+00 0.10000000000000E+01
 d    1 1.00
 0.10970000000000E+01 0.10000000000000E+01
 d    1 1.00
 0.31800000000000E+00 0.10000000000000E+01
 d    1 1.00
 0.90985336424000E-01 0.10000000000000E+01
 f    1 1.00
 0.76100000000000E+00 0.10000000000000E+01
 
    4 0
 s    6 1.00
 0.13575349682000E+05 0.60645503603591E-03
 0.20352333680000E+04 0.46979088884982E-02
 0.46322562359000E+03 0.24332477647552E-01
 0.13120019598000E+03 0.97399968307759E-01
 0.42853015891000E+02 0.30195584253780E+00
 0.15584185766000E+02 0.66233609137875E+00
 s    2 1.00
 0.62067138508000E+01 0.65595308539952E+00
 0.25764896527000E+01 0.37585633285142E+00
 s    1 1.00
 0.57696339419000E+00 0.10000000000000E+01
 s    1 1.00
 0.22972831358000E+00 0.10000000000000E+01
 s    1 1.00
 0.95164440028000E-01 0.10000000000000E+01
 s    1 1.00
 0.48475401370000E-01 0.10000000000000E+01
 p    4 1.00
 0.34697232244000E+02 0.11327220003114E-01
 0.79582622826000E+01 0.76169659202087E-01
 0.23780826883000E+01 0.30192252202676E+00
 0.81433208183000E+00 0.72785027349547E+00
 p    1 1.00
 0.28887547253000E+00 0.10000000000000E+01
 p    1 1.00
 0.10056823671000E+00 0.10000000000000E+01
 d    1 1.00
 0.10970000000000E+01 0.10000000000000E+01
 d    1 1.00
 0.31800000000000E+00 0.10000000000000E+01
 d    1 1.00
 0.90985336424000E-01 0.10000000000000E+01
 f    1 1.00
 0.76100000000000E+00 0.10000000000000E+01
 
    5 0
 s    6 1.00
 0.13575349682000E+05 0.60645503603591E-03
 0.20352333680000E+04 0.46979088884982E-02
 0.46322562359000E+03 0.24332477647552E-01
 0.13120019598000E+03 0.97399968307759E-01
 0.42853015891000E+02 0.30195584253780E+00
 0.15584185766000E+02 0.66233609137875E+00
 s    2 1.00
 0.62067138508000E+01 0.65595308539952E+00
 0.25764896527000E+01 0.37585633285142E+00
 s    1 1.00
 0.57696339419000E+00 0.10000000000000E+01
 s    1 1.00
 0.22972831358000E+00 0.10000000000000E+01
 s    1 1.00
 0.95164440028000E-01 0.10000000000000E+01
 s    1 1.00
 0.48475401370000E-01 0.10000000000000E+01
 p    4 1.00
 0.34697232244000E+02 0.11327220003114E-01
 0.79582622826000E+01 0.76169659202087E-01
 0.23780826883000E+01 0.30192252202676E+00
 0.81433208183000E+00 0.72785027349547E+00
 p    1 1.00
 0.28887547253000E+00 0.10000000000000E+01
 p    1 1.00
 0.10056823671000E+00 0.10000000000000E+01
 d    1 1.00
 0.10970000000000E+01 0.10000000000000E+01
 d    1 1.00
 0.31800000000000E+00 0.10000000000000E+01
 d    1 1.00
 0.90985336424000E-01 0.10000000000000E+01
 f    1 1.00
 0.76100000000000E+00 0.10000000000000E+01
 
    6 0
 s    6 1.00
 0.13575349682000E+05 0.60645503603591E-03
 0.20352333680000E+04 0.46979088884982E-02
 0.46322562359000E+03 0.24332477647552E-01
 0.13120019598000E+03 0.97399968307759E-01
 0.42853015891000E+02 0.30195584253780E+00
 0.15584185766000E+02 0.66233609137875E+00
 s    2 1.00
 0.62067138508000E+01 0.65595308539952E+00
 0.25764896527000E+01 0.37585633285142E+00
 s    1 1.00
 0.57696339419000E+00 0.10000000000000E+01
 s    1 1.00
 0.22972831358000E+00 0.10000000000000E+01
 s    1 1.00
 0.95164440028000E-01 0.10000000000000E+01
 s    1 1.00
 0.48475401370000E-01 0.10000000000000E+01
 p    4 1.00
 0.34697232244000E+02 0.11327220003114E-01
 0.79582622826000E+01 0.76169659202087E-01
 0.23780826883000E+01 0.30192252202676E+00
 0.81433208183000E+00 0.72785027349547E+00
 p    1 1.00
 0.28887547253000E+00 0.10000000000000E+01
 p    1 1.00
 0.10056823671000E+00 0.10000000000000E+01
 d    1 1.00
 0.10970000000000E+01 0.10000000000000E+01
 d    1 1.00
 0.31800000000000E+00 0.10000000000000E+01
 d    1 1.00
 0.90985336424000E-01 0.10000000000000E+01
 f    1 1.00
 0.76100000000000E+00 0.10000000000000E+01
 
    7 0
 s    3 1.00
 0.34061341000000E+02 0.25439307208879E-01
 0.51235746000000E+01 0.19008594890375E+00
 0.11646626000000E+01 0.85244113011042E+00
 s    1 1.00
 0.32723041000000E+00 0.10000000000000E+01
 s    1 1.00
 0.10307241000000E+00 0.10000000000000E+01
 p    1 1.00
 0.80000000000000E+00 0.10000000000000E+01
 p    1 1.00
 0.95774129632000E-01 0.10000000000000E+01
 
    8 0
 s    3 1.00
 0.34061341000000E+02 0.25439307208879E-01
 0.51235746000000E+01 0.19008594890375E+00
 0.11646626000000E+01 0.85244113011042E+00
 s    1 1.00
 0.32723041000000E+00 0.10000000000000E+01
 s    1 1.00
 0.10307241000000E+00 0.10000000000000E+01
 p    1 1.00
 0.80000000000000E+00 0.10000000000000E+01
 p    1 1.00
 0.95774129632000E-01 0.10000000000000E+01
 
    9 0
 s    3 1.00
 0.34061341000000E+02 0.25439307208879E-01
 0.51235746000000E+01 0.19008594890375E+00
 0.11646626000000E+01 0.85244113011042E+00
 s    1 1.00
 0.32723041000000E+00 0.10000000000000E+01
 s    1 1.00
 0.10307241000000E+00 0.10000000000000E+01
 p    1 1.00
 0.80000000000000E+00 0.10000000000000E+01
 p    1 1.00
 0.95774129632000E-01 0.10000000000000E+01
 
   10 0
 s    3 1.00
 0.34061341000000E+02 0.25439307208879E-01
 0.51235746000000E+01 0.19008594890375E+00
 0.11646626000000E+01 0.85244113011042E+00
 s    1 1.00
 0.32723041000000E+00 0.10000000000000E+01
 s    1 1.00
 0.10307241000000E+00 0.10000000000000E+01
 p    1 1.00
 0.80000000000000E+00 0.10000000000000E+01
 p    1 1.00
 0.95774129632000E-01 0.10000000000000E+01
 
   11 0
 s    6 1.00
 0.19730800647000E+05 0.58626402628763E-03
 0.29578958745000E+04 0.45428820586397E-02
 0.67322133595000E+03 0.23558413450084E-01
 0.19068249494000E+03 0.94709193292923E-01
 0.62295441898000E+02 0.29719784913376E+00
 0.22654161182000E+02 0.66916246895232E+00
 s    2 1.00
 0.89791477428000E+01 0.64596683630063E+00
 0.36863002370000E+01 0.38700574393705E+00
 s    1 1.00
 0.84660076805000E+00 0.10000000000000E+01
 s    1 1.00
 0.33647133771000E+00 0.10000000000000E+01
 s    1 1.00
 0.13647653675000E+00 0.10000000000000E+01
 s    1 1.00
 0.68441605847000E-01 0.10000000000000E+01
 p    4 1.00
 0.49200380510000E+02 0.11448825101764E-01
 0.11346790537000E+02 0.78422337970864E-01
 0.34273972411000E+01 0.30818094738830E+00
 0.11785525134000E+01 0.72027196368413E+00
 p    1 1.00
 0.41642204972000E+00 0.10000000000000E+01
 p    1 1.00
 0.14260826011000E+00 0.10000000000000E+01
 d    1 1.00
 0.16540000000000E+01 0.10000000000000E+01
 d    1 1.00
 0.46900000000000E+00 0.10000000000000E+01
 d    1 1.00
 0.12829642058000E+00 0.10000000000000E+01
 f    1 1.00
 0.10930000000000E+01 0.10000000000000E+01
 
   12 0
 s    6 1.00
 0.27032382631000E+05 0.57227335211155E-03
 0.40523871392000E+04 0.44353233492995E-02
 0.92232722710000E+03 0.23020107706038E-01
 0.26124070989000E+03 0.92822490667928E-01
 0.85354641351000E+02 0.29378500009671E+00
 0.31035035245000E+02 0.67401604501641E+00
 s    2 1.00
 0.12260860728000E+02 0.63839937025506E+00
 0.49987076005000E+01 0.39534587125718E+00
 s    1 1.00
 0.11703108158000E+01 0.10000000000000E+01
 s    1 1.00
 0.46474740994000E+00 0.10000000000000E+01
 s    1 1.00
 0.18504536357000E+00 0.10000000000000E+01
 s    1 1.00
 0.70288026270000E-01 0.10000000000000E+01
 p    4 1.00
 0.63274954801000E+02 0.12018332222616E-01
 0.14627049379000E+02 0.83005421790056E-01
 0.44501223456000E+01 0.31991743925964E+00
 0.15275799647000E+01 0.70715542916104E+00
 p    1 1.00
 0.52935117943000E+00 0.10000000000000E+01
 p    1 1.00
 0.17478421270000E+00 0.10000000000000E+01
 p    1 1.00
 0.51112745706000E-01 0.10000000000000E+01
 d    1 1.00
 0.23140000000000E+01 0.10000000000000E+01
 d    1 1.00
 0.64500000000000E+00 0.10000000000000E+01
 d    1 1.00
 0.14696477366000E+00 0.10000000000000E+01
 f    1 1.00
 0.14280000000000E+01 0.10000000000000E+01
 
   13 0
 s    6 1.00
 0.27032382631000E+05 0.57227335211155E-03
 0.40523871392000E+04 0.44353233492995E-02
 0.92232722710000E+03 0.23020107706038E-01
 0.26124070989000E+03 0.92822490667928E-01
 0.85354641351000E+02 0.29378500009671E+00
 0.31035035245000E+02 0.67401604501641E+00
 s    2 1.00
 0.12260860728000E+02 0.63839937025506E+00
 0.49987076005000E+01 0.39534587125718E+00
 s    1 1.00
 0.11703108158000E+01 0.10000000000000E+01
 s    1 1.00
 0.46474740994000E+00 0.10000000000000E+01
 s    1 1.00
 0.18504536357000E+00 0.10000000000000E+01
 s    1 1.00
 0.70288026270000E-01 0.10000000000000E+01
 p    4 1.00
 0.63274954801000E+02 0.12018332222616E-01
 0.14627049379000E+02 0.83005421790056E-01
 0.44501223456000E+01 0.31991743925964E+00
 0.15275799647000E+01 0.70715542916104E+00
 p    1 1.00
 0.52935117943000E+00 0.10000000000000E+01
 p    1 1.00
 0.17478421270000E+00 0.10000000000000E+01
 p    1 1.00
 0.51112745706000E-01 0.10000000000000E+01
 d    1 1.00
 0.23140000000000E+01 0.10000000000000E+01
 d    1 1.00
 0.64500000000000E+00 0.10000000000000E+01
 d    1 1.00
 0.14696477366000E+00 0.10000000000000E+01
 f    1 1.00
 0.14280000000000E+01 0.10000000000000E+01
 
   14 0
 s    6 1.00
 0.19730800647000E+05 0.58626402628763E-03
 0.29578958745000E+04 0.45428820586397E-02
 0.67322133595000E+03 0.23558413450084E-01
 0.19068249494000E+03 0.94709193292923E-01
 0.62295441898000E+02 0.29719784913376E+00
 0.22654161182000E+02 0.66916246895232E+00
 s    2 1.00
 0.89791477428000E+01 0.64596683630063E+00
 0.36863002370000E+01 0.38700574393705E+00
 s    1 1.00
 0.84660076805000E+00 0.10000000000000E+01
 s    1 1.00
 0.33647133771000E+00 0.10000000000000E+01
 s    1 1.00
 0.13647653675000E+00 0.10000000000000E+01
 s    1 1.00
 0.68441605847000E-01 0.10000000000000E+01
 p    4 1.00
 0.49200380510000E+02 0.11448825101764E-01
 0.11346790537000E+02 0.78422337970864E-01
 0.34273972411000E+01 0.30818094738830E+00
 0.11785525134000E+01 0.72027196368413E+00
 p    1 1.00
 0.41642204972000E+00 0.10000000000000E+01
 p    1 1.00
 0.14260826011000E+00 0.10000000000000E+01
 d    1 1.00
 0.16540000000000E+01 0.10000000000000E+01
 d    1 1.00
 0.46900000000000E+00 0.10000000000000E+01
 d    1 1.00
 0.12829642058000E+00 0.10000000000000E+01
 f    1 1.00
 0.10930000000000E+01 0.10000000000000E+01
 
   15 0
 s    3 1.00
 0.34061341000000E+02 0.25439307208879E-01
 0.51235746000000E+01 0.19008594890375E+00
 0.11646626000000E+01 0.85244113011042E+00
 s    1 1.00
 0.32723041000000E+00 0.10000000000000E+01
 s    1 1.00
 0.10307241000000E+00 0.10000000000000E+01
 p    1 1.00
 0.80000000000000E+00 0.10000000000000E+01
 p    1 1.00
 0.95774129632000E-01 0.10000000000000E+01
 
   16 0
 s    3 1.00
 0.34061341000000E+02 0.25439307208879E-01
 0.51235746000000E+01 0.19008594890375E+00
 0.11646626000000E+01 0.85244113011042E+00
 s    1 1.00
 0.32723041000000E+00 0.10000000000000E+01
 s    1 1.00
 0.10307241000000E+00 0.10000000000000E+01
 p    1 1.00
 0.80000000000000E+00 0.10000000000000E+01
 p    1 1.00
 0.95774129632000E-01 0.10000000000000E+01
 
[MO]
 Sym= X
 Ene= -0.954827
 Spin= Alpha
 Occup= -0.954827
         1    5.263194E-03
         2    1.206182E-02
         3   -2.474184E-02
         4    4.342656E-03
         5   -2.104364E-01
         6   -3.281280E-02
         7   -5.115213E-02
         8   -2.810951E-02
         9   -9.986811E-05
        10   -5.809613E-02
        11   -2.330941E-02
        12   -9.068003E-05
        13   -6.358206E-02
        14    7.685158E-02
        15    1.380648E-04
        16    1.774953E-03
        17   -1.980019E-03
        18    2.050659E-04
        19   -9.948595E-04
        20    1.218319E-06
        21   -2.984900E-06
        22    9.977189E-03
        23   -7.081399E-03
        24   -2.895790E-03
        25   -2.522174E-03
        26    7.721472E-06
        27   -6.217247E-06
        28   -8.757974E-05
        29   -3.952032E-03
        30    4.039611E-03
        31    1.234568E-02
        32    6.964678E-05
        33   -3.314608E-06
        34   -7.853330E-05
        35    7.529501E-05
        36    3.891214E-07
        37   -5.606396E-05
        38   -2.100787E-04
        39    1.005590E-07
        40    1.614274E-04
        41    1.090599E-04
        42   -6.226201E-07
        43   -6.480204E-07
        44   -5.264813E-08
        45   -1.250851E-07
        46    3.638521E-07
        47   -7.280110E-07
        48    7.665397E-05
        49    1.094505E-06
        50    1.189609E-06
        51   -1.066254E-02
        52   -1.842273E-05
        53    2.786435E-07
        54   -2.193735E-02
        55   -1.915065E-05
        56   -2.401541E-05
        57    2.011380E-01
        58   -1.933589E-05
        59    7.337379E-08
        60   -6.786328E-08
        61   -5.510504E-09
        62    8.845336E-04
        63    1.692166E-07
        64    7.885786E-07
        65   -4.766203E-08
        66   -2.857781E-08
        67    7.623984E-08
        68   -4.755601E-03
        69    2.172894E-07
        70   -7.222325E-06
        71    7.970708E-06
        72   -6.929624E-06
        73   -1.041085E-06
        74   -3.950383E-02
        75   -7.181691E-09
        76   -2.066685E-04
        77    5.921127E-09
        78   -5.737662E-04
        79    1.860053E-07
        80   -4.989691E-09
        81    6.307305E-04
        82   -9.712485E-08
        83   -2.954335E-09
        84    1.390576E-04
        85   -1.524274E-07
        86    7.956342E-07
        87   -5.263359E-03
        88   -1.206219E-02
        89    2.474245E-02
        90   -4.341444E-03
        91    2.104191E-01
        92    3.280913E-02
        93    5.115030E-02
        94   -2.811026E-02
        95    7.677521E-05
        96    5.809567E-02
        97   -2.331012E-02
        98    6.843925E-05
        99    6.358376E-02
       100    7.679620E-02
       101   -1.537787E-04
       102   -1.774915E-03
       103    1.979983E-03
       104   -2.050680E-04
       105   -9.948517E-04
       106   -1.475263E-06
       107   -3.735271E-06
       108   -9.977114E-03
       109    7.081410E-03
       110    2.895703E-03
       111   -2.522186E-03
       112   -8.300006E-06
       113   -6.525113E-06
       114    9.313392E-05
       115    3.944593E-03
       116   -4.037727E-03
       117    1.234292E-02
       118   -6.024226E-05
       119   -1.623080E-06
       120    7.853918E-05
       121    7.527757E-05
       122   -2.121626E-07
       123    5.606837E-05
       124   -2.100641E-04
       125   -1.782611E-07
       126   -1.614397E-04
       127    1.090686E-04
       128    4.629072E-07
       129   -7.347834E-07
       130    3.013192E-03
       131    6.831845E-03
       132   -1.316561E-02
       133    9.340838E-03
       134   -7.253756E-02
       135   -1.201430E-02
       136   -3.830230E-02
       137    1.822995E-02
       138   -3.163324E-05
       139   -5.676234E-03
       140    6.803577E-03
       141   -5.404621E-05
       142    2.342689E-02
       143   -1.344684E-02
       144    3.614834E-04
       145   -9.322385E-04
       146    8.317810E-04
       147    1.004575E-04
       148   -1.379065E-03
       149   -1.146361E-06
       150   -1.588261E-06
       151    4.636844E-03
       152   -3.038560E-03
       153   -1.598284E-03
       154   -1.337500E-03
       155    2.652895E-05
       156   -1.121735E-05
       157    1.035644E-02
       158   -1.166514E-02
       159    1.308705E-03
       160    6.514669E-04
       161   -5.513699E-05
       162    2.648698E-05
       163   -2.730422E-05
       164    3.286081E-05
       165    1.021045E-06
       166   -3.873200E-05
       167    1.106976E-05
       168   -5.224438E-07
       169    7.536446E-05
       170   -5.515716E-05
       171   -8.474317E-07
       172    1.167225E-06
       173   -1.303193E-07
       174   -2.804340E-07
       175    1.277824E-07
       176    6.988903E-07
       177   -7.998656E-05
       178    1.926093E-06
       179   -1.958753E-06
       180   -4.106979E-02
       181    1.016519E-05
       182    1.824343E-06
       183   -4.311838E-02
       184    9.410020E-06
       185   -1.254936E-05
       186   -6.086143E-02
       187   -5.897890E-06
       188    9.731242E-08
       189   -9.942490E-08
       190    2.112488E-09
       191   -9.577068E-04
       192   -7.362522E-07
       193    1.217647E-05
       194   -7.193275E-07
       195    1.092446E-06
       196   -3.731180E-07
       197   -5.172299E-03
       198   -1.394742E-06
       199   -2.705536E-05
       200   -7.258888E-06
       201    6.313802E-06
       202    9.450859E-07
       203   -1.005492E-02
       204   -1.434651E-06
       205    2.845637E-04
       206   -7.568215E-09
       207   -2.791171E-04
       208   -1.071119E-07
       209    9.214517E-09
       210    1.947861E-04
       211    1.663148E-07
       212    9.393091E-10
       213    1.796888E-04
       214   -2.260902E-08
       215   -1.805065E-06
       216   -3.013089E-03
       217   -6.831615E-03
       218    1.316588E-02
       219   -9.348465E-03
       220    7.254591E-02
       221    1.201818E-02
       222    3.830459E-02
       223    1.823017E-02
       224    2.715321E-05
       225    5.681574E-03
       226    6.806347E-03
       227    4.807755E-05
       228   -2.342832E-02
       229   -1.349780E-02
       230   -3.402612E-04
       231    9.323290E-04
       232   -8.319077E-04
       233   -1.004213E-04
       234   -1.379064E-03
       235    3.391774E-07
       236   -1.826712E-06
       237   -4.636724E-03
       238    3.038257E-03
       239    1.598467E-03
       240   -1.338009E-03
       241   -2.764426E-05
       242   -1.164559E-05
       243   -1.035861E-02
       244    1.166948E-02
       245   -1.310872E-03
       246    6.544926E-04
       247    6.073854E-05
       248    2.281785E-05
       249    2.731592E-05
       250    3.285469E-05
       251   -1.002277E-06
       252    3.874968E-05
       253    1.109295E-05
       254    4.685350E-07
       255   -7.539784E-05
       256   -5.517214E-05
       257    8.761604E-07
       258    1.265140E-06
       259   -2.883143E-02
       260   -4.151033E-02
       261   -3.625215E-02
       262    2.808558E-03
       263    4.090623E-03
       264    6.081376E-06
       265    5.229084E-03
       266    1.094217E-03
       267   -4.656104E-05
       268    2.883121E-02
       269    4.150971E-02
       270    3.622321E-02
       271   -2.808526E-03
       272    4.090573E-03
       273   -7.532106E-06
       274   -5.227697E-03
       275    1.087600E-03
       276    4.203860E-05
       277   -3.658909E-03
       278   -5.527700E-03
       279    1.766623E-02
       280   -1.037567E-03
       281   -3.917597E-05
       282   -4.178742E-06
       283    2.465692E-03
       284   -4.606011E-04
       285   -3.964277E-05
       286    3.658185E-03
       287    5.526695E-03
       288   -1.763815E-02
       289    1.037620E-03
       290   -3.909179E-05
       291    3.890993E-06
       292   -2.460583E-03
       293   -4.650338E-04
       294    4.594662E-05
       295   -1.109010E-08
       296   -2.821906E-08
       297    9.049890E-08
       298   -8.395113E-07
       299   -2.791231E-06
       300    2.510709E-06
       301   -1.302290E-06
       302   -4.680772E-02
       303    1.054479E-06
       304   -1.406407E-06
       305   -3.511234E-02
       306   -5.781787E-08
       307    5.350533E-07
       308    5.452451E-03
       309   -4.330091E-06
       310    6.919262E-08
       311   -9.726559E-08
       312    2.807297E-08
       313   -9.754557E-03
       314    6.523925E-07
       315   -2.315915E-05
       316    2.848292E-07
       317   -2.299637E-07
       318   -5.486550E-08
       319   -2.635021E-02
       320    1.260247E-06
       321   -6.447403E-05
       322    2.410072E-08
       323    1.258680E-06
       324   -1.282781E-06
       325    7.493146E-03
       326   -3.173915E-06
       327    3.747238E-05
       328   -4.455441E-09
       329    2.106961E-03
       330   -1.618644E-09
       331    2.356336E-10
       332   -3.025812E-03
       333    1.430037E-08
       334    5.741968E-09
       335    1.990270E-04
       336   -1.212873E-08
       337   -8.689448E-06
       338   -2.165453E-04
       339   -6.290304E-04
       340    4.478900E-04
       341   -8.048864E-03
       342    4.898345E-03
       343   -1.837947E-02
       344    2.497610E-01
       345    2.325276E-01
       346    5.980746E-04
       347    2.270572E-01
       348    2.035742E-01
       349    5.427785E-04
       350    1.731510E-01
       351    1.465939E-01
       352    4.306495E-04
       353    2.906400E-02
       354    1.478226E-02
       355    6.249341E-05
       356   -2.082288E-03
       357    2.823100E-03
       358   -7.408125E-04
       359   -2.425750E-04
       360   -3.592461E-06
       361   -3.729397E-07
       362   -6.279098E-03
       363    7.284261E-03
       364   -1.005163E-03
       365    6.692678E-04
       366   -1.392905E-05
       367    2.634555E-06
       368   -7.102341E-03
       369    6.426660E-03
       370    6.756804E-04
       371    1.250433E-03
       372   -1.612780E-05
       373    9.036543E-06
       374    2.783982E-04
       375    7.845155E-04
       376    6.969952E-07
       377   -5.164332E-04
       378   -8.514214E-04
       379    2.504046E-07
       380    1.429229E-04
       381   -2.011165E-04
       382   -1.185522E-06
       383   -1.760293E-06
       384    2.164960E-04
       385    6.289156E-04
       386   -4.477794E-04
       387    8.049878E-03
       388   -4.904860E-03
       389    1.837484E-02
       390   -2.497568E-01
       391    2.325275E-01
       392   -5.957814E-04
       393   -2.270533E-01
       394    2.035741E-01
       395   -5.405951E-04
       396   -1.731473E-01
       397    1.465931E-01
       398   -4.185327E-04
       399   -2.906302E-02
       400    1.478229E-02
       401   -6.191245E-05
       402    2.082290E-03
       403   -2.823126E-03
       404    7.408362E-04
       405   -2.426197E-04
       406    3.654229E-06
       407   -2.821660E-07
       408    6.279063E-03
       409   -7.284313E-03
       410    1.005250E-03
       411    6.692417E-04
       412    1.426462E-05
       413    2.178358E-06
       414    7.102392E-03
       415   -6.426807E-03
       416   -6.755843E-04
       417    1.250967E-03
       418    2.072056E-05
       419    5.438715E-06
       420   -2.784049E-04
       421    7.845108E-04
       422   -7.591407E-07
       423    5.164485E-04
       424   -8.514115E-04
       425   -1.643567E-07
       426   -1.429292E-04
       427   -2.011203E-04
       428    1.182851E-06
       429   -1.823382E-06
       430    4.941084E-07
       431    1.173228E-06
       432   -1.876565E-06
       433   -1.851966E-06
       434    1.491901E-06
       435   -6.879574E-06
       436    2.467712E-06
       437    1.514753E-02
       438    2.823564E-05
       439    3.538872E-06
       440    1.180098E-02
       441    2.725833E-05
       442    1.032282E-05
       443    7.000000E-03
       444    1.882338E-05
       445   -1.874777E-08
       446   -1.159575E-08
       447    3.034352E-08
       448   -8.137466E-04
       449    2.016215E-07
       450    1.574897E-04
       451    3.248619E-07
       452   -5.945313E-07
       453    2.696694E-07
       454   -2.132438E-03
       455    4.788379E-07
       456    2.162284E-04
       457    1.907185E-06
       458   -3.254552E-06
       459    1.347368E-06
       460    1.446621E-03
       461    7.854704E-07
       462   -1.276208E-04
       463    1.279673E-08
       464    1.228045E-04
       465   -1.451887E-07
       466    1.860642E-08
       467   -1.256463E-04
       468    1.251239E-07
       469   -3.577503E-08
       470   -3.911325E-05
       471    6.966721E-08
       472   -3.110698E-05
       473   -8.156822E-03
       474   -1.239776E-02
       475   -1.095151E-02
       476   -7.259462E-04
       477   -7.882600E-04
       478    2.331963E-04
       479   -1.059658E-03
       480   -1.154272E-03
       481    3.185424E-04
       482    8.158342E-03
       483    1.240464E-02
       484    1.097618E-02
       485    7.267816E-04
       486   -7.888462E-04
       487   -2.302077E-04
       488    1.065311E-03
       489   -1.154666E-03
       490   -3.161343E-04
 Sym= X
 Ene= 0.954827
 Spin= Alpha
 Occup= 0.954827
         1   -5.679630E-05
         2   -1.488587E-04
         3    5.927817E-04
         4   -2.510669E-03
         5   -3.990710E-01
         6   -5.013670E-02
         7    5.785109E-05
         8    1.152603E-04
         9    9.900698E-02
        10   -2.761361E-03
        11    1.127949E-03
        12    1.040991E-01
        13    1.803331E-01
        14   -1.197846E-01
        15    3.560080E-02
        16    6.782913E-05
        17   -4.343453E-05
        18   -2.439460E-05
        19   -3.887299E-05
        20   -1.502180E-04
        21   -9.012898E-04
        22   -4.372871E-04
        23    2.497897E-04
        24    1.874974E-04
        25    7.168345E-04
        26    3.754442E-03
        27    1.168655E-03
        28   -4.201256E-02
        29    4.972285E-02
        30   -7.710290E-03
        31   -4.044546E-03
        32    5.027370E-02
        33    3.170121E-02
        34   -2.718087E-06
        35   -1.223795E-05
        36   -1.213263E-04
        37   -1.776779E-06
        38    1.704302E-05
        39   -2.195563E-04
        40    5.423476E-06
        41   -6.240942E-07
        42    3.823327E-04
        43    1.774288E-04
        44   -9.182201E-05
        45   -2.149646E-04
        46    1.624472E-04
        47    6.669101E-03
        48   -4.357758E-01
        49    8.410936E-02
        50    2.111647E-04
        51   -1.657988E-06
        52   -1.321073E-02
        53   -1.950494E-03
        54    2.519021E-05
        55   -8.020016E-03
        56    1.392597E-01
        57    1.099351E-03
        58   -1.056439E-02
        59    1.615524E-05
        60    2.749218E-05
        61   -4.364741E-05
        62   -3.068794E-07