[Molden Format]
[Title]
ADC(2) - opt by CAM-B3LYP gaussian                                              
[Atoms] AU
 c     1    6 0.12589710753986E+01 0.22825551554713E+01 -.28105798744860E-01
 c     2    6 0.25558923691721E+01 0.80431469000000E-06 -.26811997747980E-01
 c     3    6 0.12589700738438E+01 -.22825573262942E+01 -.28139341383720E-01
 c     4    6 -.13331755585332E+01 -.22837561874501E+01 -.30470167390540E-01
 c     5    6 -.26866009864883E+01 0.27696298600000E-05 -.30311128039200E-01
 c     6    6 -.13331783742251E+01 0.22837572858534E+01 -.30432977580250E-01
 h     7    1 0.22993222678978E+01 0.40366379181686E+01 -.25216785432900E-01
 h     8    1 0.22993197734593E+01 -.40366408826765E+01 -.25273722881290E-01
 h     9    1 -.23520966897676E+01 -.40562070503646E+01 -.33235309154490E-01
 h    10    1 -.23520900190344E+01 0.40562136478709E+01 -.33159965773570E-01
 n    11    7 0.52762255328692E+01 0.25629411000000E-06 -.20783601308720E-01
 o    12    8 0.63803680214636E+01 -.20270720034092E+01 -.18188232540560E-01
 o    13    8 0.63803692875801E+01 0.20270718545932E+01 -.18282964511600E-01
 n    14    7 -.52484248103301E+01 -.66967170000000E-06 -.81289589624650E-01
 h    15    1 -.62019351690707E+01 -.16149791988436E+01 0.21484054874156E+00
 h    16    1 -.62019367942352E+01 0.16149736265137E+01 0.21486103337284E+00
[GTO]
    1 0
 s    6 1.00
 0.13575349682000E+05 0.60645503603591E-03
 0.20352333680000E+04 0.46979088884982E-02
 0.46322562359000E+03 0.24332477647552E-01
 0.13120019598000E+03 0.97399968307759E-01
 0.42853015891000E+02 0.30195584253780E+00
 0.15584185766000E+02 0.66233609137875E+00
 s    2 1.00
 0.62067138508000E+01 0.65595308539952E+00
 0.25764896527000E+01 0.37585633285142E+00
 s    1 1.00
 0.57696339419000E+00 0.10000000000000E+01
 s    1 1.00
 0.22972831358000E+00 0.10000000000000E+01
 s    1 1.00
 0.95164440028000E-01 0.10000000000000E+01
 s    1 1.00
 0.48475401370000E-01 0.10000000000000E+01
 p    4 1.00
 0.34697232244000E+02 0.11327220003114E-01
 0.79582622826000E+01 0.76169659202087E-01
 0.23780826883000E+01 0.30192252202676E+00
 0.81433208183000E+00 0.72785027349547E+00
 p    1 1.00
 0.28887547253000E+00 0.10000000000000E+01
 p    1 1.00
 0.10056823671000E+00 0.10000000000000E+01
 d    1 1.00
 0.10970000000000E+01 0.10000000000000E+01
 d    1 1.00
 0.31800000000000E+00 0.10000000000000E+01
 d    1 1.00
 0.90985336424000E-01 0.10000000000000E+01
 f    1 1.00
 0.76100000000000E+00 0.10000000000000E+01
 
    2 0
 s    6 1.00
 0.13575349682000E+05 0.60645503603591E-03
 0.20352333680000E+04 0.46979088884982E-02
 0.46322562359000E+03 0.24332477647552E-01
 0.13120019598000E+03 0.97399968307759E-01
 0.42853015891000E+02 0.30195584253780E+00
 0.15584185766000E+02 0.66233609137875E+00
 s    2 1.00
 0.62067138508000E+01 0.65595308539952E+00
 0.25764896527000E+01 0.37585633285142E+00
 s    1 1.00
 0.57696339419000E+00 0.10000000000000E+01
 s    1 1.00
 0.22972831358000E+00 0.10000000000000E+01
 s    1 1.00
 0.95164440028000E-01 0.10000000000000E+01
 s    1 1.00
 0.48475401370000E-01 0.10000000000000E+01
 p    4 1.00
 0.34697232244000E+02 0.11327220003114E-01
 0.79582622826000E+01 0.76169659202087E-01
 0.23780826883000E+01 0.30192252202676E+00
 0.81433208183000E+00 0.72785027349547E+00
 p    1 1.00
 0.28887547253000E+00 0.10000000000000E+01
 p    1 1.00
 0.10056823671000E+00 0.10000000000000E+01
 d    1 1.00
 0.10970000000000E+01 0.10000000000000E+01
 d    1 1.00
 0.31800000000000E+00 0.10000000000000E+01
 d    1 1.00
 0.90985336424000E-01 0.10000000000000E+01
 f    1 1.00
 0.76100000000000E+00 0.10000000000000E+01
 
    3 0
 s    6 1.00
 0.13575349682000E+05 0.60645503603591E-03
 0.20352333680000E+04 0.46979088884982E-02
 0.46322562359000E+03 0.24332477647552E-01
 0.13120019598000E+03 0.97399968307759E-01
 0.42853015891000E+02 0.30195584253780E+00
 0.15584185766000E+02 0.66233609137875E+00
 s    2 1.00
 0.62067138508000E+01 0.65595308539952E+00
 0.25764896527000E+01 0.37585633285142E+00
 s    1 1.00
 0.57696339419000E+00 0.10000000000000E+01
 s    1 1.00
 0.22972831358000E+00 0.10000000000000E+01
 s    1 1.00
 0.95164440028000E-01 0.10000000000000E+01
 s    1 1.00
 0.48475401370000E-01 0.10000000000000E+01
 p    4 1.00
 0.34697232244000E+02 0.11327220003114E-01
 0.79582622826000E+01 0.76169659202087E-01
 0.23780826883000E+01 0.30192252202676E+00
 0.81433208183000E+00 0.72785027349547E+00
 p    1 1.00
 0.28887547253000E+00 0.10000000000000E+01
 p    1 1.00
 0.10056823671000E+00 0.10000000000000E+01
 d    1 1.00
 0.10970000000000E+01 0.10000000000000E+01
 d    1 1.00
 0.31800000000000E+00 0.10000000000000E+01
 d    1 1.00
 0.90985336424000E-01 0.10000000000000E+01
 f    1 1.00
 0.76100000000000E+00 0.10000000000000E+01
 
    4 0
 s    6 1.00
 0.13575349682000E+05 0.60645503603591E-03
 0.20352333680000E+04 0.46979088884982E-02
 0.46322562359000E+03 0.24332477647552E-01
 0.13120019598000E+03 0.97399968307759E-01
 0.42853015891000E+02 0.30195584253780E+00
 0.15584185766000E+02 0.66233609137875E+00
 s    2 1.00
 0.62067138508000E+01 0.65595308539952E+00
 0.25764896527000E+01 0.37585633285142E+00
 s    1 1.00
 0.57696339419000E+00 0.10000000000000E+01
 s    1 1.00
 0.22972831358000E+00 0.10000000000000E+01
 s    1 1.00
 0.95164440028000E-01 0.10000000000000E+01
 s    1 1.00
 0.48475401370000E-01 0.10000000000000E+01
 p    4 1.00
 0.34697232244000E+02 0.11327220003114E-01
 0.79582622826000E+01 0.76169659202087E-01
 0.23780826883000E+01 0.30192252202676E+00
 0.81433208183000E+00 0.72785027349547E+00
 p    1 1.00
 0.28887547253000E+00 0.10000000000000E+01
 p    1 1.00
 0.10056823671000E+00 0.10000000000000E+01
 d    1 1.00
 0.10970000000000E+01 0.10000000000000E+01
 d    1 1.00
 0.31800000000000E+00 0.10000000000000E+01
 d    1 1.00
 0.90985336424000E-01 0.10000000000000E+01
 f    1 1.00
 0.76100000000000E+00 0.10000000000000E+01
 
    5 0
 s    6 1.00
 0.13575349682000E+05 0.60645503603591E-03
 0.20352333680000E+04 0.46979088884982E-02
 0.46322562359000E+03 0.24332477647552E-01
 0.13120019598000E+03 0.97399968307759E-01
 0.42853015891000E+02 0.30195584253780E+00
 0.15584185766000E+02 0.66233609137875E+00
 s    2 1.00
 0.62067138508000E+01 0.65595308539952E+00
 0.25764896527000E+01 0.37585633285142E+00
 s    1 1.00
 0.57696339419000E+00 0.10000000000000E+01
 s    1 1.00
 0.22972831358000E+00 0.10000000000000E+01
 s    1 1.00
 0.95164440028000E-01 0.10000000000000E+01
 s    1 1.00
 0.48475401370000E-01 0.10000000000000E+01
 p    4 1.00
 0.34697232244000E+02 0.11327220003114E-01
 0.79582622826000E+01 0.76169659202087E-01
 0.23780826883000E+01 0.30192252202676E+00
 0.81433208183000E+00 0.72785027349547E+00
 p    1 1.00
 0.28887547253000E+00 0.10000000000000E+01
 p    1 1.00
 0.10056823671000E+00 0.10000000000000E+01
 d    1 1.00
 0.10970000000000E+01 0.10000000000000E+01
 d    1 1.00
 0.31800000000000E+00 0.10000000000000E+01
 d    1 1.00
 0.90985336424000E-01 0.10000000000000E+01
 f    1 1.00
 0.76100000000000E+00 0.10000000000000E+01
 
    6 0
 s    6 1.00
 0.13575349682000E+05 0.60645503603591E-03
 0.20352333680000E+04 0.46979088884982E-02
 0.46322562359000E+03 0.24332477647552E-01
 0.13120019598000E+03 0.97399968307759E-01
 0.42853015891000E+02 0.30195584253780E+00
 0.15584185766000E+02 0.66233609137875E+00
 s    2 1.00
 0.62067138508000E+01 0.65595308539952E+00
 0.25764896527000E+01 0.37585633285142E+00
 s    1 1.00
 0.57696339419000E+00 0.10000000000000E+01
 s    1 1.00
 0.22972831358000E+00 0.10000000000000E+01
 s    1 1.00
 0.95164440028000E-01 0.10000000000000E+01
 s    1 1.00
 0.48475401370000E-01 0.10000000000000E+01
 p    4 1.00
 0.34697232244000E+02 0.11327220003114E-01
 0.79582622826000E+01 0.76169659202087E-01
 0.23780826883000E+01 0.30192252202676E+00
 0.81433208183000E+00 0.72785027349547E+00
 p    1 1.00
 0.28887547253000E+00 0.10000000000000E+01
 p    1 1.00
 0.10056823671000E+00 0.10000000000000E+01
 d    1 1.00
 0.10970000000000E+01 0.10000000000000E+01
 d    1 1.00
 0.31800000000000E+00 0.10000000000000E+01
 d    1 1.00
 0.90985336424000E-01 0.10000000000000E+01
 f    1 1.00
 0.76100000000000E+00 0.10000000000000E+01
 
    7 0
 s    3 1.00
 0.34061341000000E+02 0.25439307208879E-01
 0.51235746000000E+01 0.19008594890375E+00
 0.11646626000000E+01 0.85244113011042E+00
 s    1 1.00
 0.32723041000000E+00 0.10000000000000E+01
 s    1 1.00
 0.10307241000000E+00 0.10000000000000E+01
 p    1 1.00
 0.80000000000000E+00 0.10000000000000E+01
 p    1 1.00
 0.95774129632000E-01 0.10000000000000E+01
 
    8 0
 s    3 1.00
 0.34061341000000E+02 0.25439307208879E-01
 0.51235746000000E+01 0.19008594890375E+00
 0.11646626000000E+01 0.85244113011042E+00
 s    1 1.00
 0.32723041000000E+00 0.10000000000000E+01
 s    1 1.00
 0.10307241000000E+00 0.10000000000000E+01
 p    1 1.00
 0.80000000000000E+00 0.10000000000000E+01
 p    1 1.00
 0.95774129632000E-01 0.10000000000000E+01
 
    9 0
 s    3 1.00
 0.34061341000000E+02 0.25439307208879E-01
 0.51235746000000E+01 0.19008594890375E+00
 0.11646626000000E+01 0.85244113011042E+00
 s    1 1.00
 0.32723041000000E+00 0.10000000000000E+01
 s    1 1.00
 0.10307241000000E+00 0.10000000000000E+01
 p    1 1.00
 0.80000000000000E+00 0.10000000000000E+01
 p    1 1.00
 0.95774129632000E-01 0.10000000000000E+01
 
   10 0
 s    3 1.00
 0.34061341000000E+02 0.25439307208879E-01
 0.51235746000000E+01 0.19008594890375E+00
 0.11646626000000E+01 0.85244113011042E+00
 s    1 1.00
 0.32723041000000E+00 0.10000000000000E+01
 s    1 1.00
 0.10307241000000E+00 0.10000000000000E+01
 p    1 1.00
 0.80000000000000E+00 0.10000000000000E+01
 p    1 1.00
 0.95774129632000E-01 0.10000000000000E+01
 
   11 0
 s    6 1.00
 0.19730800647000E+05 0.58626402628763E-03
 0.29578958745000E+04 0.45428820586397E-02
 0.67322133595000E+03 0.23558413450084E-01
 0.19068249494000E+03 0.94709193292923E-01
 0.62295441898000E+02 0.29719784913376E+00
 0.22654161182000E+02 0.66916246895232E+00
 s    2 1.00
 0.89791477428000E+01 0.64596683630063E+00
 0.36863002370000E+01 0.38700574393705E+00
 s    1 1.00
 0.84660076805000E+00 0.10000000000000E+01
 s    1 1.00
 0.33647133771000E+00 0.10000000000000E+01
 s    1 1.00
 0.13647653675000E+00 0.10000000000000E+01
 s    1 1.00
 0.68441605847000E-01 0.10000000000000E+01
 p    4 1.00
 0.49200380510000E+02 0.11448825101764E-01
 0.11346790537000E+02 0.78422337970864E-01
 0.34273972411000E+01 0.30818094738830E+00
 0.11785525134000E+01 0.72027196368413E+00
 p    1 1.00
 0.41642204972000E+00 0.10000000000000E+01
 p    1 1.00
 0.14260826011000E+00 0.10000000000000E+01
 d    1 1.00
 0.16540000000000E+01 0.10000000000000E+01
 d    1 1.00
 0.46900000000000E+00 0.10000000000000E+01
 d    1 1.00
 0.12829642058000E+00 0.10000000000000E+01
 f    1 1.00
 0.10930000000000E+01 0.10000000000000E+01
 
   12 0
 s    6 1.00
 0.27032382631000E+05 0.57227335211155E-03
 0.40523871392000E+04 0.44353233492995E-02
 0.92232722710000E+03 0.23020107706038E-01
 0.26124070989000E+03 0.92822490667928E-01
 0.85354641351000E+02 0.29378500009671E+00
 0.31035035245000E+02 0.67401604501641E+00
 s    2 1.00
 0.12260860728000E+02 0.63839937025506E+00
 0.49987076005000E+01 0.39534587125718E+00
 s    1 1.00
 0.11703108158000E+01 0.10000000000000E+01
 s    1 1.00
 0.46474740994000E+00 0.10000000000000E+01
 s    1 1.00
 0.18504536357000E+00 0.10000000000000E+01
 s    1 1.00
 0.70288026270000E-01 0.10000000000000E+01
 p    4 1.00
 0.63274954801000E+02 0.12018332222616E-01
 0.14627049379000E+02 0.83005421790056E-01
 0.44501223456000E+01 0.31991743925964E+00
 0.15275799647000E+01 0.70715542916104E+00
 p    1 1.00
 0.52935117943000E+00 0.10000000000000E+01
 p    1 1.00
 0.17478421270000E+00 0.10000000000000E+01
 p    1 1.00
 0.51112745706000E-01 0.10000000000000E+01
 d    1 1.00
 0.23140000000000E+01 0.10000000000000E+01
 d    1 1.00
 0.64500000000000E+00 0.10000000000000E+01
 d    1 1.00
 0.14696477366000E+00 0.10000000000000E+01
 f    1 1.00
 0.14280000000000E+01 0.10000000000000E+01
 
   13 0
 s    6 1.00
 0.27032382631000E+05 0.57227335211155E-03
 0.40523871392000E+04 0.44353233492995E-02
 0.92232722710000E+03 0.23020107706038E-01
 0.26124070989000E+03 0.92822490667928E-01
 0.85354641351000E+02 0.29378500009671E+00
 0.31035035245000E+02 0.67401604501641E+00
 s    2 1.00
 0.12260860728000E+02 0.63839937025506E+00
 0.49987076005000E+01 0.39534587125718E+00
 s    1 1.00
 0.11703108158000E+01 0.10000000000000E+01
 s    1 1.00
 0.46474740994000E+00 0.10000000000000E+01
 s    1 1.00
 0.18504536357000E+00 0.10000000000000E+01
 s    1 1.00
 0.70288026270000E-01 0.10000000000000E+01
 p    4 1.00
 0.63274954801000E+02 0.12018332222616E-01
 0.14627049379000E+02 0.83005421790056E-01
 0.44501223456000E+01 0.31991743925964E+00
 0.15275799647000E+01 0.70715542916104E+00
 p    1 1.00
 0.52935117943000E+00 0.10000000000000E+01
 p    1 1.00
 0.17478421270000E+00 0.10000000000000E+01
 p    1 1.00
 0.51112745706000E-01 0.10000000000000E+01
 d    1 1.00
 0.23140000000000E+01 0.10000000000000E+01
 d    1 1.00
 0.64500000000000E+00 0.10000000000000E+01
 d    1 1.00
 0.14696477366000E+00 0.10000000000000E+01
 f    1 1.00
 0.14280000000000E+01 0.10000000000000E+01
 
   14 0
 s    6 1.00
 0.19730800647000E+05 0.58626402628763E-03
 0.29578958745000E+04 0.45428820586397E-02
 0.67322133595000E+03 0.23558413450084E-01
 0.19068249494000E+03 0.94709193292923E-01
 0.62295441898000E+02 0.29719784913376E+00
 0.22654161182000E+02 0.66916246895232E+00
 s    2 1.00
 0.89791477428000E+01 0.64596683630063E+00
 0.36863002370000E+01 0.38700574393705E+00
 s    1 1.00
 0.84660076805000E+00 0.10000000000000E+01
 s    1 1.00
 0.33647133771000E+00 0.10000000000000E+01
 s    1 1.00
 0.13647653675000E+00 0.10000000000000E+01
 s    1 1.00
 0.68441605847000E-01 0.10000000000000E+01
 p    4 1.00
 0.49200380510000E+02 0.11448825101764E-01
 0.11346790537000E+02 0.78422337970864E-01
 0.34273972411000E+01 0.30818094738830E+00
 0.11785525134000E+01 0.72027196368413E+00
 p    1 1.00
 0.41642204972000E+00 0.10000000000000E+01
 p    1 1.00
 0.14260826011000E+00 0.10000000000000E+01
 d    1 1.00
 0.16540000000000E+01 0.10000000000000E+01
 d    1 1.00
 0.46900000000000E+00 0.10000000000000E+01
 d    1 1.00
 0.12829642058000E+00 0.10000000000000E+01
 f    1 1.00
 0.10930000000000E+01 0.10000000000000E+01
 
   15 0
 s    3 1.00
 0.34061341000000E+02 0.25439307208879E-01
 0.51235746000000E+01 0.19008594890375E+00
 0.11646626000000E+01 0.85244113011042E+00
 s    1 1.00
 0.32723041000000E+00 0.10000000000000E+01
 s    1 1.00
 0.10307241000000E+00 0.10000000000000E+01
 p    1 1.00
 0.80000000000000E+00 0.10000000000000E+01
 p    1 1.00
 0.95774129632000E-01 0.10000000000000E+01
 
   16 0
 s    3 1.00
 0.34061341000000E+02 0.25439307208879E-01
 0.51235746000000E+01 0.19008594890375E+00
 0.11646626000000E+01 0.85244113011042E+00
 s    1 1.00
 0.32723041000000E+00 0.10000000000000E+01
 s    1 1.00
 0.10307241000000E+00 0.10000000000000E+01
 p    1 1.00
 0.80000000000000E+00 0.10000000000000E+01
 p    1 1.00
 0.95774129632000E-01 0.10000000000000E+01
 
[MO]
 Sym= X
 Ene= -0.954292
 Spin= Alpha
 Occup= -0.954292
         1   -4.419892E-04
         2   -1.044907E-03
         3   -2.249142E-03
         4    2.738959E-02
         5    2.475070E-01
         6   -3.450324E-02
         7    2.525339E-02
         8   -5.697997E-02
         9   -4.072940E-03
        10    9.135685E-03
        11   -4.919558E-02
        12   -3.970467E-03
        13    3.757216E-02
        14   -9.175789E-02
        15   -9.405139E-04
        16   -2.375322E-03
        17    2.594776E-03
        18   -2.194547E-04
        19   -9.960899E-04
        20    5.363744E-05
        21    1.024382E-04
        22    1.390640E-03
        23    1.396756E-03
        24   -2.787396E-03
        25   -1.881149E-03
        26    8.541846E-05
        27    1.608435E-04
        28    7.617166E-04
        29   -5.113969E-05
        30   -7.105769E-04
        31    1.082855E-02
        32   -1.463649E-04
        33   -4.368506E-05
        34   -1.588616E-04
        35   -5.577507E-04
        36    3.636869E-05
        37    1.898711E-04
        38    5.827547E-04
        39   -2.710769E-05
        40    2.326420E-05
        41    1.655464E-04
        42   -2.168603E-05
        43    7.659468E-06
        44    9.482983E-03
        45    2.142570E-02
        46   -3.070144E-02
        47   -6.468307E-02
        48   -2.305715E-01
        49    3.007071E-02
        50   -1.586545E-01
        51   -2.680397E-06
        52   -4.862894E-03
        53   -1.162770E-01
        54   -2.985186E-06
        55   -4.760532E-03
        56    7.619394E-02
        57    3.769119E-05
        58   -1.377447E-03
        59   -5.949991E-03
        60    5.280468E-03
        61    6.695228E-04
        62    8.693023E-08
        63    7.564250E-05
        64   -5.336655E-08
        65   -1.658455E-03
        66    1.509552E-03
        67    1.489031E-04
        68    9.708368E-09
        69    1.576417E-04
        70    2.676179E-07
        71    4.638148E-02
        72   -4.769559E-02
        73    1.314117E-03
        74   -1.758102E-06
        75    2.841386E-04
        76   -1.630273E-05
        77   -1.119686E-03
        78   -1.351178E-08
        79    4.379286E-05
        80    7.650509E-04
        81    7.604168E-09
        82   -2.551770E-05
        83    7.371657E-04
        84    1.052379E-08
        85   -3.323659E-05
        86   -2.040856E-08
        87   -4.420358E-04
        88   -1.045027E-03
        89   -2.249454E-03
        90    2.739589E-02
        91    2.475849E-01
        92   -3.450712E-02
        93    2.525470E-02
        94    5.698407E-02
        95   -4.070133E-03
        96    9.131849E-03
        97    4.919820E-02
        98   -3.966435E-03
        99    3.759529E-02
       100    9.178945E-02
       101   -9.167505E-04
       102   -2.375285E-03
       103    2.594786E-03
       104   -2.195008E-04
       105    9.963577E-04
       106    5.361987E-05
       107   -1.024301E-04
       108    1.391405E-03
       109    1.396231E-03
       110   -2.787636E-03
       111    1.881451E-03
       112    8.517137E-05
       113   -1.607678E-04
       114    7.631501E-04
       115   -5.313342E-05
       116   -7.100167E-04
       117   -1.082527E-02
       118   -1.820535E-04
       119    2.237193E-05
       120   -1.588890E-04
       121    5.577855E-04
       122    3.629031E-05
       123    1.898931E-04
       124   -5.827727E-04
       125   -2.705630E-05
       126    2.327887E-05
       127   -1.655751E-04
       128   -2.163226E-05
       129   -7.619383E-06
       130    1.521327E-03
       131    3.465754E-03
       132   -2.834679E-03
       133   -2.618114E-02
       134   -8.065346E-02
       135    3.163008E-02
       136   -3.010077E-02
       137   -2.117421E-02
       138   -4.128218E-03
       139   -3.771636E-02
       140   -1.731789E-02
       141   -4.051925E-03
       142   -2.521079E-02
       143   -5.068874E-02
       144   -2.185158E-03
       145   -7.080489E-04
       146    5.959749E-04
       147    1.120741E-04
       148    2.123290E-03
       149   -5.785254E-05
       150   -9.114638E-05
       151   -2.964946E-03
       152    1.088310E-03
       153    1.876637E-03
       154    3.047374E-03
       155   -1.205797E-04
       156   -1.668997E-04
       157   -5.171153E-03
       158    6.198734E-03
       159   -1.027581E-03
       160   -1.883079E-02
       161   -1.909510E-04
       162   -8.785168E-05
       163   -2.785500E-04
       164   -3.492971E-04
       165    3.924644E-05
       166    1.722556E-04
       167    4.261938E-04
       168   -3.202239E-05
       169    2.014585E-04
       170    4.243742E-05
       171   -2.063224E-05
       172    6.615818E-06
       173    3.609980E-03
       174    8.228652E-03
       175   -1.489537E-02
       176   -7.169607E-03
       177   -4.651262E-02
       178   -3.646224E-02
       179   -1.795175E-02
       180    3.153203E-06
       181   -4.542385E-03
       182   -1.090083E-02
       183    1.962955E-06
       184   -4.400607E-03
       185    1.381334E-02
       186   -2.592268E-05
       187   -1.055613E-03
       188   -2.476926E-04
       189    2.036367E-04
       190    4.405592E-05
       191    1.314603E-07
       192   -1.997808E-05
       193   -3.560920E-08
       194    1.663803E-04
       195    4.691686E-04
       196   -6.355489E-04
       197    8.404072E-08
       198   -1.011441E-04
       199    9.970211E-08
       200   -1.676152E-02
       201    1.655862E-02
       202    2.028997E-04
       203    1.189540E-06
       204    2.765009E-04
       205    2.139101E-05
       206    2.413107E-05
       207   -1.184860E-08
       208    4.799940E-05
       209   -8.404223E-05
       210    1.461820E-08
       211   -3.771970E-05
       212    5.166700E-05
       213    1.278363E-09
       214   -2.667826E-05
       215   -1.058065E-08
       216    1.521276E-03
       217    3.465640E-03
       218   -2.835367E-03
       219   -2.617540E-02
       220   -8.063614E-02
       221    3.162973E-02
       222   -3.010038E-02
       223    2.116852E-02
       224   -4.129358E-03
       225   -3.771205E-02
       226    1.731242E-02
       227   -4.052721E-03
       228   -2.522762E-02
       229    5.065628E-02
       230   -2.178555E-03
       231   -7.080104E-04
       232    5.959619E-04
       233    1.120486E-04
       234   -2.123008E-03
       235   -5.799948E-05
       236    9.117848E-05
       237   -2.963803E-03
       238    1.087647E-03
       239    1.876156E-03
       240   -3.046513E-03
       241   -1.197739E-04
       242    1.666565E-04
       243   -5.163584E-03
       244    6.190795E-03
       245   -1.027211E-03
       246    1.883621E-02
       247   -1.533359E-04
       248    1.050312E-04
       249   -2.785092E-04
       250    3.492809E-04
       251    3.924455E-05
       252    1.722141E-04
       253   -4.261981E-04
       254   -3.200102E-05
       255    2.014452E-04
       256   -4.241143E-05
       257   -2.065107E-05
       258   -6.606994E-06
       259   -1.133202E-02
       260   -1.586670E-02
       261   -1.338880E-02
       262    2.846174E-03
       263    1.382895E-03
       264   -1.310897E-04
       265    6.528605E-03
       266   -2.941120E-04
       267    4.002805E-05
       268   -1.133382E-02
       269   -1.586940E-02
       270   -1.337933E-02
       271    2.846265E-03
       272   -1.383064E-03
       273   -1.306798E-04
       274    6.524462E-03
       275    2.917529E-04
       276    3.380791E-05
       277    1.898072E-02
       278    3.006438E-02
       279    1.698328E-02
       280    4.527778E-04
       281    2.671470E-03
       282   -1.378871E-04
       283   -8.604027E-03
       284    3.265530E-03
       285   -1.604125E-04
       286    1.897782E-02
       287    3.006087E-02
       288    1.701902E-02
       289    4.525469E-04
       290   -2.671117E-03
       291   -1.387480E-04
       292   -8.594679E-03
       293   -3.263537E-03
       294   -1.582383E-04
       295    3.031772E-03
       296    7.026573E-03
       297   -6.033712E-03
       298   -3.883922E-02
       299   -1.643792E-01
       300    1.207262E-02
       301    1.365042E-01
       302   -3.404210E-07
       303    1.364406E-03
       304    1.262141E-01
       305   -6.750578E-07
       306    1.304178E-03
       307    9.994552E-02
       308   -2.358355E-06
       309    3.196799E-04
       310   -1.159608E-02
       311    1.295135E-02
       312   -1.355266E-03
       313   -4.887447E-08
       314    6.339632E-05
       315    3.856326E-08
       316   -3.353120E-02
       317    3.452446E-02
       318   -9.932618E-04
       319   -2.090657E-07
       320    1.633809E-04
       321    2.103945E-08
       322    1.421379E-02
       323   -4.400495E-03
       324   -9.813299E-03
       325    1.577660E-06
       326    1.870859E-04
       327   -5.758803E-07
       328   -3.099869E-05
       329    2.438228E-08
       330   -7.840485E-06
       331    3.956189E-04
       332   -3.453099E-08
       333   -9.633865E-06
       334   -3.540298E-04
       335    1.818728E-09
       336    2.015298E-05
       337    2.819624E-08
       338    5.764726E-05
       339    7.801863E-05
       340   -1.040888E-03
       341   -1.343212E-02
       342   -8.020614E-03
       343   -2.043578E-02
       344   -2.994069E-01
       345   -4.567463E-02
       346    1.184893E-03
       347   -2.632569E-01
       348   -4.549153E-02
       349    1.116663E-03
       350   -1.999334E-01
       351   -4.390885E-02
       352    6.300323E-04
       353   -1.570618E-02
       354   -8.673652E-03
       355    4.747741E-05
       356    6.979360E-04
       357    1.713317E-04
       358   -8.692677E-04
       359   -2.615011E-03
       360   -5.390592E-06
       361    1.937968E-05
       362    3.090835E-03
       363   -6.666818E-04
       364   -2.424153E-03
       365   -5.876695E-03
       366   -2.337219E-05
       367    6.086694E-05
       368    3.813388E-03
       369   -3.163819E-03
       370   -6.495694E-04
       371   -5.990166E-03
       372   -3.510341E-05
       373   -5.897310E-06
       374    3.099334E-04
       375   -4.015848E-04
       376   -2.956674E-06
       377   -6.451098E-04
       378    8.437649E-04
       379   -1.744534E-06
       380    2.292905E-04
       381   -3.049824E-04
       382    5.711328E-06
       383   -3.425015E-06
       384    5.768280E-05
       385    7.810996E-05
       386   -1.041071E-03
       387   -1.343226E-02
       388   -8.020982E-03
       389   -2.043754E-02
       390   -2.994119E-01
       391    4.567869E-02
       392    1.205976E-03
       393   -2.632615E-01
       394    4.549495E-02
       395    1.134665E-03
       396   -1.999383E-01
       397    4.391028E-02
       398    6.544019E-04
       399   -1.570609E-02
       400    8.673558E-03
       401    4.633811E-05
       402    6.979717E-04
       403    1.712737E-04
       404   -8.692454E-04
       405    2.615010E-03
       406   -5.556639E-06
       407   -1.961954E-05
       408    3.090972E-03
       409   -6.667916E-04
       410   -2.424180E-03
       411    5.876817E-03
       412   -2.363061E-05
       413   -6.199456E-05
       414    3.813517E-03
       415   -3.163958E-03
       416   -6.495582E-04
       417    5.990952E-03
       418   -2.960336E-05
       419   -3.141703E-07
       420    3.099298E-04
       421    4.015990E-04
       422   -3.097191E-06
       423   -6.451004E-04
       424   -8.437832E-04
       425   -1.616994E-06
       426    2.292859E-04
       427    3.049816E-04
       428    5.772312E-06
       429    3.484944E-06
       430    4.510908E-04
       431    1.074583E-03
       432   -1.562769E-03
       433   -5.306515E-03
       434    1.967927E-02
       435    2.530402E-02
       436    7.023420E-03
       437   -2.443407E-07
       438   -3.398257E-03
       439    5.482382E-03
       440    1.286053E-09
       441   -3.176851E-03
       442    2.654931E-03
       443    1.138975E-06
       444   -1.288810E-03
       445    1.055845E-04
       446   -9.425727E-05
       447   -1.132725E-05
       448    3.305770E-08
       449   -1.719289E-05
       450   -3.024616E-09
       451    1.594573E-04
       452    1.684705E-04
       453   -3.279278E-04
       454    7.551437E-08
       455   -8.242008E-05
       456   -5.295101E-09
       457   -9.594246E-04
       458    9.065455E-04
       459    5.287903E-05
       460   -4.253967E-07
       461    1.298354E-04
       462   -9.448494E-07
       463    2.026549E-05
       464   -5.278079E-09
       465    2.322880E-05
       466    2.068158E-05
       467    8.236188E-09
       468   -2.518696E-05
       469   -4.787059E-05
       470   -1.154902E-09
       471   -5.977741E-06
       472    3.290619E-09
       473   -1.884532E-03
       474   -3.307407E-03
       475    7.527449E-04
       476    2.903317E-06
       477   -6.031629E-04
       478   -2.734232E-05
       479    1.729232E-03
       480    1.231639E-03
       481    4.674657E-04
       482   -1.884993E-03
       483   -3.307804E-03
       484    7.480956E-04
       485    2.924016E-06
       486    6.032088E-04
       487   -2.728433E-05
       488    1.729664E-03
       489   -1.229002E-03
       490    4.690735E-04
 Sym= X
 Ene= 0.954292
 Spin= Alpha
 Occup= 0.954292
         1    5.627641E-05
         2    1.466334E-04
         3   -5.857343E-04
         4    2.437128E-03
         5    3.823593E-01
         6    4.817184E-02
         7   -3.307310E-05
         8   -1.032912E-04
         9   -1.004238E-01
        10    2.513333E-03
        11   -1.051213E-03
        12   -1.060370E-01
        13   -1.746591E-01
        14    1.132009E-01
        15   -2.863212E-02
        16   -6.499837E-05
        17    4.098454E-05
        18    2.401383E-05
        19    3.585497E-05
        20    2.436270E-04
        21    7.606663E-04
        22    4.434394E-04
        23   -2.533014E-04
        24   -1.901380E-04
        25   -6.642927E-04
        26   -3.541516E-03
        27   -1.496307E-03
        28    4.087617E-02
        29   -4.803429E-02
        30    7.158113E-03
        31    3.938931E-03
        32   -4.971685E-02
        33   -3.366451E-02
        34    1.627448E-06
        35    1.160290E-05
        36    1.229530E-04
        37    2.232693E-06
        38   -1.597026E-05
        39    2.069550E-04
        40   -4.416144E-06
        41    4.033358E-07
        42   -3.719139E-04
        43   -1.775813E-04
        44    8.752832E-05
        45    2.039399E-04
        46   -1.311309E-04
        47   -6.528627E-03
        48    4.164795E-01
        49   -7.960931E-02
        50   -2.058490E-04
        51    1.450527E-06
        52    1.704353E-02
        53    1.794420E-03
        54   -2.287963E-05
        55    1.338157E-02
        56   -1.339450E-01
        57   -1.043217E-03
        58    9.427633E-03
        59   -1.732213E-05
        60   -2.675012E-05
        61    4.407225E-05
        62    3.035541E-07