[Molden Format]
[Title]
ADC(2) - opt by CAM-B3LYP gaussian                                              
[Atoms] AU
 c     1    6 -.12590385386216E+01 -.22819701624009E+01 -.30156123253150E-01
 c     2    6 -.25547233845863E+01 -.83266058000000E-06 -.28792213416740E-01
 c     3    6 -.12590428849917E+01 0.22819669475044E+01 -.30169993842970E-01
 c     4    6 0.13339759331395E+01 0.22828246941961E+01 -.32722654800530E-01
 c     5    6 0.26864234278208E+01 0.32869423900000E-05 -.32794180934660E-01
 c     6    6 0.13339778039684E+01 -.22828226745513E+01 -.32706516539360E-01
 h     7    1 -.23005849451053E+01 -.40353719055945E+01 -.27139024303910E-01
 h     8    1 -.23005903875166E+01 0.40353685773143E+01 -.27164403325880E-01
 h     9    1 0.23527432406667E+01 0.40554759247724E+01 -.35914685697900E-01
 h    10    1 0.23527525948111E+01 -.40554698422164E+01 -.35883032785170E-01
 n    11    7 -.52784595104117E+01 -.53030440000000E-06 -.22539903328000E-01
 o    12    8 -.63796877956448E+01 0.20272212823250E+01 -.19883023974210E-01
 o    13    8 -.63796922742957E+01 -.20272201130570E+01 -.19923067270970E-01
 n    14    7 0.52516126460355E+01 -.32243452000000E-06 -.88209511610250E-01
 h    15    1 0.62001707317805E+01 0.16133662892433E+01 0.23199721167530E+00
 h    16    1 0.62001633429513E+01 -.16133706190784E+01 0.23200112340840E+00
[GTO]
    1 0
 s    6 1.00
 0.13575349682000E+05 0.60645503603591E-03
 0.20352333680000E+04 0.46979088884982E-02
 0.46322562359000E+03 0.24332477647552E-01
 0.13120019598000E+03 0.97399968307759E-01
 0.42853015891000E+02 0.30195584253780E+00
 0.15584185766000E+02 0.66233609137875E+00
 s    2 1.00
 0.62067138508000E+01 0.65595308539952E+00
 0.25764896527000E+01 0.37585633285142E+00
 s    1 1.00
 0.57696339419000E+00 0.10000000000000E+01
 s    1 1.00
 0.22972831358000E+00 0.10000000000000E+01
 s    1 1.00
 0.95164440028000E-01 0.10000000000000E+01
 s    1 1.00
 0.48475401370000E-01 0.10000000000000E+01
 p    4 1.00
 0.34697232244000E+02 0.11327220003114E-01
 0.79582622826000E+01 0.76169659202087E-01
 0.23780826883000E+01 0.30192252202676E+00
 0.81433208183000E+00 0.72785027349547E+00
 p    1 1.00
 0.28887547253000E+00 0.10000000000000E+01
 p    1 1.00
 0.10056823671000E+00 0.10000000000000E+01
 d    1 1.00
 0.10970000000000E+01 0.10000000000000E+01
 d    1 1.00
 0.31800000000000E+00 0.10000000000000E+01
 d    1 1.00
 0.90985336424000E-01 0.10000000000000E+01
 f    1 1.00
 0.76100000000000E+00 0.10000000000000E+01
 
    2 0
 s    6 1.00
 0.13575349682000E+05 0.60645503603591E-03
 0.20352333680000E+04 0.46979088884982E-02
 0.46322562359000E+03 0.24332477647552E-01
 0.13120019598000E+03 0.97399968307759E-01
 0.42853015891000E+02 0.30195584253780E+00
 0.15584185766000E+02 0.66233609137875E+00
 s    2 1.00
 0.62067138508000E+01 0.65595308539952E+00
 0.25764896527000E+01 0.37585633285142E+00
 s    1 1.00
 0.57696339419000E+00 0.10000000000000E+01
 s    1 1.00
 0.22972831358000E+00 0.10000000000000E+01
 s    1 1.00
 0.95164440028000E-01 0.10000000000000E+01
 s    1 1.00
 0.48475401370000E-01 0.10000000000000E+01
 p    4 1.00
 0.34697232244000E+02 0.11327220003114E-01
 0.79582622826000E+01 0.76169659202087E-01
 0.23780826883000E+01 0.30192252202676E+00
 0.81433208183000E+00 0.72785027349547E+00
 p    1 1.00
 0.28887547253000E+00 0.10000000000000E+01
 p    1 1.00
 0.10056823671000E+00 0.10000000000000E+01
 d    1 1.00
 0.10970000000000E+01 0.10000000000000E+01
 d    1 1.00
 0.31800000000000E+00 0.10000000000000E+01
 d    1 1.00
 0.90985336424000E-01 0.10000000000000E+01
 f    1 1.00
 0.76100000000000E+00 0.10000000000000E+01
 
    3 0
 s    6 1.00
 0.13575349682000E+05 0.60645503603591E-03
 0.20352333680000E+04 0.46979088884982E-02
 0.46322562359000E+03 0.24332477647552E-01
 0.13120019598000E+03 0.97399968307759E-01
 0.42853015891000E+02 0.30195584253780E+00
 0.15584185766000E+02 0.66233609137875E+00
 s    2 1.00
 0.62067138508000E+01 0.65595308539952E+00
 0.25764896527000E+01 0.37585633285142E+00
 s    1 1.00
 0.57696339419000E+00 0.10000000000000E+01
 s    1 1.00
 0.22972831358000E+00 0.10000000000000E+01
 s    1 1.00
 0.95164440028000E-01 0.10000000000000E+01
 s    1 1.00
 0.48475401370000E-01 0.10000000000000E+01
 p    4 1.00
 0.34697232244000E+02 0.11327220003114E-01
 0.79582622826000E+01 0.76169659202087E-01
 0.23780826883000E+01 0.30192252202676E+00
 0.81433208183000E+00 0.72785027349547E+00
 p    1 1.00
 0.28887547253000E+00 0.10000000000000E+01
 p    1 1.00
 0.10056823671000E+00 0.10000000000000E+01
 d    1 1.00
 0.10970000000000E+01 0.10000000000000E+01
 d    1 1.00
 0.31800000000000E+00 0.10000000000000E+01
 d    1 1.00
 0.90985336424000E-01 0.10000000000000E+01
 f    1 1.00
 0.76100000000000E+00 0.10000000000000E+01
 
    4 0
 s    6 1.00
 0.13575349682000E+05 0.60645503603591E-03
 0.20352333680000E+04 0.46979088884982E-02
 0.46322562359000E+03 0.24332477647552E-01
 0.13120019598000E+03 0.97399968307759E-01
 0.42853015891000E+02 0.30195584253780E+00
 0.15584185766000E+02 0.66233609137875E+00
 s    2 1.00
 0.62067138508000E+01 0.65595308539952E+00
 0.25764896527000E+01 0.37585633285142E+00
 s    1 1.00
 0.57696339419000E+00 0.10000000000000E+01
 s    1 1.00
 0.22972831358000E+00 0.10000000000000E+01
 s    1 1.00
 0.95164440028000E-01 0.10000000000000E+01
 s    1 1.00
 0.48475401370000E-01 0.10000000000000E+01
 p    4 1.00
 0.34697232244000E+02 0.11327220003114E-01
 0.79582622826000E+01 0.76169659202087E-01
 0.23780826883000E+01 0.30192252202676E+00
 0.81433208183000E+00 0.72785027349547E+00
 p    1 1.00
 0.28887547253000E+00 0.10000000000000E+01
 p    1 1.00
 0.10056823671000E+00 0.10000000000000E+01
 d    1 1.00
 0.10970000000000E+01 0.10000000000000E+01
 d    1 1.00
 0.31800000000000E+00 0.10000000000000E+01
 d    1 1.00
 0.90985336424000E-01 0.10000000000000E+01
 f    1 1.00
 0.76100000000000E+00 0.10000000000000E+01
 
    5 0
 s    6 1.00
 0.13575349682000E+05 0.60645503603591E-03
 0.20352333680000E+04 0.46979088884982E-02
 0.46322562359000E+03 0.24332477647552E-01
 0.13120019598000E+03 0.97399968307759E-01
 0.42853015891000E+02 0.30195584253780E+00
 0.15584185766000E+02 0.66233609137875E+00
 s    2 1.00
 0.62067138508000E+01 0.65595308539952E+00
 0.25764896527000E+01 0.37585633285142E+00
 s    1 1.00
 0.57696339419000E+00 0.10000000000000E+01
 s    1 1.00
 0.22972831358000E+00 0.10000000000000E+01
 s    1 1.00
 0.95164440028000E-01 0.10000000000000E+01
 s    1 1.00
 0.48475401370000E-01 0.10000000000000E+01
 p    4 1.00
 0.34697232244000E+02 0.11327220003114E-01
 0.79582622826000E+01 0.76169659202087E-01
 0.23780826883000E+01 0.30192252202676E+00
 0.81433208183000E+00 0.72785027349547E+00
 p    1 1.00
 0.28887547253000E+00 0.10000000000000E+01
 p    1 1.00
 0.10056823671000E+00 0.10000000000000E+01
 d    1 1.00
 0.10970000000000E+01 0.10000000000000E+01
 d    1 1.00
 0.31800000000000E+00 0.10000000000000E+01
 d    1 1.00
 0.90985336424000E-01 0.10000000000000E+01
 f    1 1.00
 0.76100000000000E+00 0.10000000000000E+01
 
    6 0
 s    6 1.00
 0.13575349682000E+05 0.60645503603591E-03
 0.20352333680000E+04 0.46979088884982E-02
 0.46322562359000E+03 0.24332477647552E-01
 0.13120019598000E+03 0.97399968307759E-01
 0.42853015891000E+02 0.30195584253780E+00
 0.15584185766000E+02 0.66233609137875E+00
 s    2 1.00
 0.62067138508000E+01 0.65595308539952E+00
 0.25764896527000E+01 0.37585633285142E+00
 s    1 1.00
 0.57696339419000E+00 0.10000000000000E+01
 s    1 1.00
 0.22972831358000E+00 0.10000000000000E+01
 s    1 1.00
 0.95164440028000E-01 0.10000000000000E+01
 s    1 1.00
 0.48475401370000E-01 0.10000000000000E+01
 p    4 1.00
 0.34697232244000E+02 0.11327220003114E-01
 0.79582622826000E+01 0.76169659202087E-01
 0.23780826883000E+01 0.30192252202676E+00
 0.81433208183000E+00 0.72785027349547E+00
 p    1 1.00
 0.28887547253000E+00 0.10000000000000E+01
 p    1 1.00
 0.10056823671000E+00 0.10000000000000E+01
 d    1 1.00
 0.10970000000000E+01 0.10000000000000E+01
 d    1 1.00
 0.31800000000000E+00 0.10000000000000E+01
 d    1 1.00
 0.90985336424000E-01 0.10000000000000E+01
 f    1 1.00
 0.76100000000000E+00 0.10000000000000E+01
 
    7 0
 s    3 1.00
 0.34061341000000E+02 0.25439307208879E-01
 0.51235746000000E+01 0.19008594890375E+00
 0.11646626000000E+01 0.85244113011042E+00
 s    1 1.00
 0.32723041000000E+00 0.10000000000000E+01
 s    1 1.00
 0.10307241000000E+00 0.10000000000000E+01
 p    1 1.00
 0.80000000000000E+00 0.10000000000000E+01
 p    1 1.00
 0.95774129632000E-01 0.10000000000000E+01
 
    8 0
 s    3 1.00
 0.34061341000000E+02 0.25439307208879E-01
 0.51235746000000E+01 0.19008594890375E+00
 0.11646626000000E+01 0.85244113011042E+00
 s    1 1.00
 0.32723041000000E+00 0.10000000000000E+01
 s    1 1.00
 0.10307241000000E+00 0.10000000000000E+01
 p    1 1.00
 0.80000000000000E+00 0.10000000000000E+01
 p    1 1.00
 0.95774129632000E-01 0.10000000000000E+01
 
    9 0
 s    3 1.00
 0.34061341000000E+02 0.25439307208879E-01
 0.51235746000000E+01 0.19008594890375E+00
 0.11646626000000E+01 0.85244113011042E+00
 s    1 1.00
 0.32723041000000E+00 0.10000000000000E+01
 s    1 1.00
 0.10307241000000E+00 0.10000000000000E+01
 p    1 1.00
 0.80000000000000E+00 0.10000000000000E+01
 p    1 1.00
 0.95774129632000E-01 0.10000000000000E+01
 
   10 0
 s    3 1.00
 0.34061341000000E+02 0.25439307208879E-01
 0.51235746000000E+01 0.19008594890375E+00
 0.11646626000000E+01 0.85244113011042E+00
 s    1 1.00
 0.32723041000000E+00 0.10000000000000E+01
 s    1 1.00
 0.10307241000000E+00 0.10000000000000E+01
 p    1 1.00
 0.80000000000000E+00 0.10000000000000E+01
 p    1 1.00
 0.95774129632000E-01 0.10000000000000E+01
 
   11 0
 s    6 1.00
 0.19730800647000E+05 0.58626402628763E-03
 0.29578958745000E+04 0.45428820586397E-02
 0.67322133595000E+03 0.23558413450084E-01
 0.19068249494000E+03 0.94709193292923E-01
 0.62295441898000E+02 0.29719784913376E+00
 0.22654161182000E+02 0.66916246895232E+00
 s    2 1.00
 0.89791477428000E+01 0.64596683630063E+00
 0.36863002370000E+01 0.38700574393705E+00
 s    1 1.00
 0.84660076805000E+00 0.10000000000000E+01
 s    1 1.00
 0.33647133771000E+00 0.10000000000000E+01
 s    1 1.00
 0.13647653675000E+00 0.10000000000000E+01
 s    1 1.00
 0.68441605847000E-01 0.10000000000000E+01
 p    4 1.00
 0.49200380510000E+02 0.11448825101764E-01
 0.11346790537000E+02 0.78422337970864E-01
 0.34273972411000E+01 0.30818094738830E+00
 0.11785525134000E+01 0.72027196368413E+00
 p    1 1.00
 0.41642204972000E+00 0.10000000000000E+01
 p    1 1.00
 0.14260826011000E+00 0.10000000000000E+01
 d    1 1.00
 0.16540000000000E+01 0.10000000000000E+01
 d    1 1.00
 0.46900000000000E+00 0.10000000000000E+01
 d    1 1.00
 0.12829642058000E+00 0.10000000000000E+01
 f    1 1.00
 0.10930000000000E+01 0.10000000000000E+01
 
   12 0
 s    6 1.00
 0.27032382631000E+05 0.57227335211155E-03
 0.40523871392000E+04 0.44353233492995E-02
 0.92232722710000E+03 0.23020107706038E-01
 0.26124070989000E+03 0.92822490667928E-01
 0.85354641351000E+02 0.29378500009671E+00
 0.31035035245000E+02 0.67401604501641E+00
 s    2 1.00
 0.12260860728000E+02 0.63839937025506E+00
 0.49987076005000E+01 0.39534587125718E+00
 s    1 1.00
 0.11703108158000E+01 0.10000000000000E+01
 s    1 1.00
 0.46474740994000E+00 0.10000000000000E+01
 s    1 1.00
 0.18504536357000E+00 0.10000000000000E+01
 s    1 1.00
 0.70288026270000E-01 0.10000000000000E+01
 p    4 1.00
 0.63274954801000E+02 0.12018332222616E-01
 0.14627049379000E+02 0.83005421790056E-01
 0.44501223456000E+01 0.31991743925964E+00
 0.15275799647000E+01 0.70715542916104E+00
 p    1 1.00
 0.52935117943000E+00 0.10000000000000E+01
 p    1 1.00
 0.17478421270000E+00 0.10000000000000E+01
 p    1 1.00
 0.51112745706000E-01 0.10000000000000E+01
 d    1 1.00
 0.23140000000000E+01 0.10000000000000E+01
 d    1 1.00
 0.64500000000000E+00 0.10000000000000E+01
 d    1 1.00
 0.14696477366000E+00 0.10000000000000E+01
 f    1 1.00
 0.14280000000000E+01 0.10000000000000E+01
 
   13 0
 s    6 1.00
 0.27032382631000E+05 0.57227335211155E-03
 0.40523871392000E+04 0.44353233492995E-02
 0.92232722710000E+03 0.23020107706038E-01
 0.26124070989000E+03 0.92822490667928E-01
 0.85354641351000E+02 0.29378500009671E+00
 0.31035035245000E+02 0.67401604501641E+00
 s    2 1.00
 0.12260860728000E+02 0.63839937025506E+00
 0.49987076005000E+01 0.39534587125718E+00
 s    1 1.00
 0.11703108158000E+01 0.10000000000000E+01
 s    1 1.00
 0.46474740994000E+00 0.10000000000000E+01
 s    1 1.00
 0.18504536357000E+00 0.10000000000000E+01
 s    1 1.00
 0.70288026270000E-01 0.10000000000000E+01
 p    4 1.00
 0.63274954801000E+02 0.12018332222616E-01
 0.14627049379000E+02 0.83005421790056E-01
 0.44501223456000E+01 0.31991743925964E+00
 0.15275799647000E+01 0.70715542916104E+00
 p    1 1.00
 0.52935117943000E+00 0.10000000000000E+01
 p    1 1.00
 0.17478421270000E+00 0.10000000000000E+01
 p    1 1.00
 0.51112745706000E-01 0.10000000000000E+01
 d    1 1.00
 0.23140000000000E+01 0.10000000000000E+01
 d    1 1.00
 0.64500000000000E+00 0.10000000000000E+01
 d    1 1.00
 0.14696477366000E+00 0.10000000000000E+01
 f    1 1.00
 0.14280000000000E+01 0.10000000000000E+01
 
   14 0
 s    6 1.00
 0.19730800647000E+05 0.58626402628763E-03
 0.29578958745000E+04 0.45428820586397E-02
 0.67322133595000E+03 0.23558413450084E-01
 0.19068249494000E+03 0.94709193292923E-01
 0.62295441898000E+02 0.29719784913376E+00
 0.22654161182000E+02 0.66916246895232E+00
 s    2 1.00
 0.89791477428000E+01 0.64596683630063E+00
 0.36863002370000E+01 0.38700574393705E+00
 s    1 1.00
 0.84660076805000E+00 0.10000000000000E+01
 s    1 1.00
 0.33647133771000E+00 0.10000000000000E+01
 s    1 1.00
 0.13647653675000E+00 0.10000000000000E+01
 s    1 1.00
 0.68441605847000E-01 0.10000000000000E+01
 p    4 1.00
 0.49200380510000E+02 0.11448825101764E-01
 0.11346790537000E+02 0.78422337970864E-01
 0.34273972411000E+01 0.30818094738830E+00
 0.11785525134000E+01 0.72027196368413E+00
 p    1 1.00
 0.41642204972000E+00 0.10000000000000E+01
 p    1 1.00
 0.14260826011000E+00 0.10000000000000E+01
 d    1 1.00
 0.16540000000000E+01 0.10000000000000E+01
 d    1 1.00
 0.46900000000000E+00 0.10000000000000E+01
 d    1 1.00
 0.12829642058000E+00 0.10000000000000E+01
 f    1 1.00
 0.10930000000000E+01 0.10000000000000E+01
 
   15 0
 s    3 1.00
 0.34061341000000E+02 0.25439307208879E-01
 0.51235746000000E+01 0.19008594890375E+00
 0.11646626000000E+01 0.85244113011042E+00
 s    1 1.00
 0.32723041000000E+00 0.10000000000000E+01
 s    1 1.00
 0.10307241000000E+00 0.10000000000000E+01
 p    1 1.00
 0.80000000000000E+00 0.10000000000000E+01
 p    1 1.00
 0.95774129632000E-01 0.10000000000000E+01
 
   16 0
 s    3 1.00
 0.34061341000000E+02 0.25439307208879E-01
 0.51235746000000E+01 0.19008594890375E+00
 0.11646626000000E+01 0.85244113011042E+00
 s    1 1.00
 0.32723041000000E+00 0.10000000000000E+01
 s    1 1.00
 0.10307241000000E+00 0.10000000000000E+01
 p    1 1.00
 0.80000000000000E+00 0.10000000000000E+01
 p    1 1.00
 0.95774129632000E-01 0.10000000000000E+01
 
[MO]
 Sym= X
 Ene= -0.904025
 Spin= Alpha
 Occup= -0.904025
         1   -2.079859E-04
         2   -4.843305E-04
         3    1.394294E-03
         4   -3.292007E-03
         5   -1.714862E-03
         6   -1.310654E-02
         7    2.202774E-03
         8    1.963136E-04
         9    2.005797E-02
        10   -2.679353E-03
        11    4.650228E-04
        12    1.836004E-02
        13   -3.850101E-02
        14    1.306097E-02
        15    5.941517E-03
        16    1.513496E-05
        17   -2.831740E-05
        18    1.318243E-05
        19   -1.415734E-05
        20   -6.341349E-03
        21    3.645511E-03
        22   -7.626460E-04
        23    4.488903E-04
        24    3.137557E-04
        25   -8.159312E-04
        26   -1.428062E-02
        27    6.927993E-03
        28   -5.296721E-03
        29    5.007768E-03
        30    2.889538E-04
        31    1.346884E-03
        32    2.483735E-03
        33   -9.762314E-03
        34   -2.298505E-05
        35    6.957817E-06
        36   -4.861944E-05
        37    1.031194E-05
        38   -6.405210E-06
        39   -7.462795E-04
        40    2.052573E-05
        41   -2.929682E-06
        42    8.115094E-04
        43   -6.788252E-04
        44    3.373528E-05
        45    7.370237E-05
        46    1.500235E-04
        47   -3.314380E-03
        48   -5.936790E-02
        49    6.511500E-03
        50    1.167817E-04
        51    2.140758E-06
        52    1.934936E-01
        53   -7.458743E-04
        54    1.508164E-05
        55    2.009444E-01
        56   -1.816343E-02
        57   -5.572182E-04
        58    1.933132E-01
        59    6.350296E-05
        60   -6.010853E-05
        61   -3.394430E-06
        62    1.171559E-07
        63   -8.051623E-04
        64    6.390620E-07
        65    4.562611E-04
        66   -7.443910E-04
        67    2.881300E-04
        68    3.354020E-06
        69   -3.396956E-03
        70    1.028775E-06
        71    1.114887E-02
        72   -1.257707E-02
        73    1.428202E-03
        74   -8.865514E-05
        75    4.359580E-03
        76   -1.089289E-05
        77    6.799368E-06
        78    2.312666E-08
        79   -1.068679E-03
        80   -7.078650E-06
        81    3.753344E-08
        82    6.465926E-04
        83   -2.043659E-06
        84   -6.856111E-08
        85    7.871911E-04
        86    7.339194E-08
        87   -2.082772E-04
        88   -4.849394E-04
        89    1.394678E-03
        90   -3.292558E-03
        91    1.317703E-04
        92   -1.310642E-02
        93    2.204887E-03
        94   -1.992351E-04
        95    2.008998E-02
        96   -2.639077E-03
        97   -4.615547E-04
        98    1.839270E-02
        99   -3.851660E-02
       100   -1.359002E-02
       101    5.982455E-03
       102    1.526783E-05
       103   -2.834466E-05
       104    1.307683E-05
       105    1.443111E-05
       106   -6.340797E-03
       107   -3.645691E-03
       108   -7.543209E-04
       109    4.411154E-04
       110    3.132055E-04
       111    8.138714E-04
       112   -1.427856E-02
       113   -6.927650E-03
       114   -5.364845E-03
       115    5.089415E-03
       116    2.754300E-04
       117   -1.264290E-03
       118    2.475580E-03
       119    9.761945E-03
       120   -2.295966E-05
       121   -6.925203E-06
       122   -4.879181E-05
       123    1.041467E-05
       124    6.335808E-06
       125   -7.460830E-04
       126    2.038895E-05
       127    2.955326E-06
       128    8.115441E-04
       129    6.787826E-04
       130    1.302808E-04
       131    2.808770E-04
       132    6.387729E-04
       133   -1.159151E-02
       134    2.586257E-02
       135    1.516551E-02
       136   -1.849880E-03
       137    7.369820E-04
       138   -1.605373E-01
       139   -1.076728E-02
       140    7.033727E-03
       141   -1.630698E-01
       142   -2.323441E-02
       143   -8.488551E-03
       144   -9.822050E-02
       145    1.746414E-04
       146   -2.065349E-04
       147    3.189352E-05
       148   -1.895304E-06
       149   -8.957635E-04
       150    3.231870E-03
       151    7.667054E-04
       152   -8.802085E-04
       153    1.135031E-04
       154    1.922193E-03
       155   -4.310414E-03
       156    5.396011E-03
       157    9.394334E-03
       158   -7.336057E-03
       159   -2.058277E-03
       160   -1.094256E-02
       161    3.621649E-03
       162   -1.175451E-02
       163   -1.950443E-05
       164    1.030771E-05
       165    9.344440E-04
       166   -2.045648E-05
       167    2.020870E-05
       168   -2.570153E-04
       169    4.662441E-05
       170   -3.403794E-05
       171   -9.966729E-04
       172    3.644996E-04
       173   -1.226105E-03
       174   -2.797195E-03
       175    2.813085E-03
       176    2.498679E-02
       177   -2.739999E-02
       178    9.463293E-03
       179    1.018911E-02
       180   -2.286751E-06
       181   -1.261658E-01
       182    4.922886E-04
       183   -1.320356E-05
       184   -1.287318E-01
       185   -3.581656E-02
       186    7.188820E-04
       187   -1.355236E-01
       188    5.668202E-04
       189   -3.204034E-04
       190   -2.464168E-04
       191    2.348839E-07
       192    9.820485E-03
       193    5.320329E-07
       194   -2.071206E-03
       195    4.625758E-03
       196   -2.554553E-03
       197    3.040226E-06
       198    2.440116E-02
       199    4.377548E-07
       200   -6.847281E-03
       201    8.154438E-03
       202   -1.307157E-03
       203   -1.362529E-04
       204    1.793701E-02
       205    1.341671E-06
       206    1.313299E-04
       207    5.715783E-09
       208    4.377257E-04
       209   -9.311237E-05
       210   -5.959022E-08
       211    9.552743E-04
       212   -8.308520E-05
       213    5.192169E-08
       214   -1.542545E-03
       215   -5.387177E-08
       216    1.309402E-04
       217    2.822370E-04
       218    6.368146E-04
       219   -1.160291E-02
       220    2.791598E-02
       221    1.513990E-02
       222   -1.848861E-03
       223   -7.296771E-04
       224   -1.605650E-01
       225   -1.079068E-02
       226   -7.038743E-03
       227   -1.630990E-01
       228   -2.322440E-02
       229    9.235940E-03
       230   -9.822209E-02
       231    1.745143E-04
       232   -2.068654E-04
       233    3.235110E-05
       234    2.325935E-06
       235   -8.950963E-04
       236   -3.231965E-03
       237    7.737102E-04
       238   -8.864336E-04
       239    1.127234E-04
       240   -1.924930E-03
       241   -4.307614E-03
       242   -5.395773E-03
       243    9.351907E-03
       244   -7.293710E-03
       245   -2.058198E-03
       246    1.102152E-02
       247    3.627324E-03
       248    1.176120E-02
       249   -1.963527E-05
       250   -1.038023E-05
       251    9.347068E-04
       252   -2.051752E-05
       253   -2.010306E-05
       254   -2.573193E-04
       255    4.686100E-05
       256    3.402961E-05
       257   -9.967214E-04
       258   -3.644476E-04
       259   -4.849177E-04
       260   -3.256941E-04
       261   -1.947648E-02
       262   -1.181649E-05
       263   -7.006730E-06
       264    8.395600E-04
       265   -6.057688E-03
       266   -4.004338E-04
       267   -5.750290E-03
       268   -4.872169E-04
       269   -3.193132E-04
       270   -1.944894E-02
       271   -1.107568E-05
       272    6.039831E-06
       273    8.408860E-04
       274   -6.141192E-03
       275    3.733795E-04
       276   -5.755329E-03
       277   -5.550227E-04
       278   -2.852810E-03
       279    4.010468E-02
       280   -1.512023E-05
       281    1.295826E-04
       282   -6.489746E-03
       283   -1.765066E-03
       284   -3.243493E-03
       285    9.617617E-04
       286   -5.597426E-04
       287   -2.853629E-03
       288    4.037472E-02
       289   -1.470706E-05
       290   -1.293271E-04
       291   -6.491254E-03
       292   -1.764911E-03
       293    3.277957E-03
       294    9.623006E-04
       295   -6.522689E-05
       296   -1.522160E-04
       297    1.543414E-04
       298    5.182658E-04
       299   -7.525940E-03
       300    9.711000E-04
       301    8.096034E-04
       302   -7.283719E-07
       303    2.322367E-02
       304    4.300068E-04
       305   -8.866945E-08
       306    2.525382E-02
       307   -3.308175E-03
       308    2.540781E-05
       309    8.000128E-03
       310    3.630800E-05
       311   -2.474928E-05
       312   -1.155873E-05
       313    9.761899E-08
       314    4.076351E-03
       315    2.591394E-08
       316    4.442140E-05
       317    2.145044E-05
       318   -6.587184E-05
       319   -1.113578E-07
       320    1.236752E-02
       321    3.693321E-08
       322   -1.039255E-03
       323    3.226790E-03
       324   -2.187536E-03
       325    1.952021E-05
       326    3.019723E-03
       327    2.964470E-06
       328    7.700596E-06
       329    2.366405E-08
       330   -3.755913E-05
       331   -4.606483E-06
       332   -9.627729E-09
       333    6.745188E-04
       334   -5.724951E-06
       335   -2.212092E-08
       336   -6.241280E-04
       337    8.676154E-09
       338   -1.599692E-05
       339   -3.490535E-05
       340    1.549562E-06
       341    6.229814E-04
       342   -6.830114E-03
       343   -1.206550E-03
       344   -5.917464E-04
       345    1.144625E-04
       346   -6.919511E-02
       347   -6.545122E-04
       348    2.551231E-04
       349   -6.427351E-02
       350   -1.824570E-03
       351    5.853878E-04
       352   -5.295091E-02
       353   -2.411583E-04
       354    2.477085E-04
       355   -6.537668E-03
       356    3.992487E-06
       357   -6.347998E-06
       358    2.355512E-06
       359    3.508769E-06
       360    4.810957E-05
       361    3.742300E-04
       362   -1.543859E-05
       363   -1.334845E-05
       364    2.878703E-05
       365    1.808898E-05
       366   -3.624629E-04
       367    1.271438E-03
       368   -8.551137E-05
       369    4.781581E-05
       370    3.769556E-05
       371    8.007040E-05
       372   -2.424804E-04
       373    1.769486E-04
       374    1.278238E-06
       375    1.733967E-06
       376    4.460755E-05
       377   -2.368349E-06
       378    1.233723E-07
       379    7.994972E-05
       380    6.534131E-07
       381   -2.449733E-06
       382   -1.397970E-04
       383    1.067476E-04
       384   -1.596687E-05
       385   -3.486578E-05
       386    1.882596E-06
       387    6.196557E-04
       388   -6.824676E-03
       389   -1.182766E-03
       390   -5.928038E-04
       391   -1.099510E-04
       392   -6.919517E-02
       393   -6.551835E-04
       394   -2.510464E-04
       395   -6.427390E-02
       396   -1.805168E-03
       397   -5.774917E-04
       398   -5.294607E-02
       399   -2.294118E-04
       400   -2.512292E-04
       401   -6.539046E-03
       402    3.952968E-06
       403   -6.287599E-06
       404    2.334632E-06
       405   -3.536609E-06
       406    4.807728E-05
       407   -3.742354E-04
       408   -1.537106E-05
       409   -1.317209E-05
       410    2.854316E-05
       411   -1.773195E-05
       412   -3.624317E-04
       413   -1.271434E-03
       414   -8.607655E-05
       415    4.979556E-05
       416    3.628099E-05
       417   -7.948872E-05
       418   -2.427411E-04
       419   -1.762752E-04
       420    1.269280E-06
       421   -1.713166E-06
       422    4.461146E-05
       423   -2.343247E-06
       424   -1.344996E-07
       425    7.994421E-05
       426    6.403294E-07
       427    2.432953E-06
       428   -1.397968E-04
       429   -1.067511E-04
       430    5.393001E-03
       431    1.282772E-02
       432   -2.005814E-02
       433   -3.179283E-02
       434   -2.146042E-02
       435   -7.859588E-02
       436   -1.968187E-02
       437    8.330551E-06
       438    2.458152E-01
       439   -2.254568E-02
       440    1.779126E-07
       441    2.428289E-01
       442   -2.220488E-02
       443   -1.018458E-04
       444    2.006770E-01
       445   -1.241991E-04
       446   -8.383818E-06
       447    1.325829E-04
       448    2.319186E-07
       449    9.989593E-04
       450    1.821698E-07
       451   -2.782461E-04
       452   -1.750707E-03
       453    2.028953E-03
       454   -3.438856E-06
       455    4.102049E-03
       456    5.894668E-07
       457   -2.336607E-03
       458   -3.729676E-03
       459    6.066284E-03
       460   -4.459555E-06
       461    2.527011E-03
       462    1.237717E-06
       463   -1.683336E-04
       464    3.479015E-08
       465   -9.314608E-04
       466   -9.339818E-05
       467    5.046874E-09
       468    4.601307E-04
       469    3.192415E-04
       470   -5.172276E-08
       471    7.895551E-04
       472   -4.707359E-08
       473    1.120595E-02
       474    2.113477E-02
       475    3.633122E-02
       476   -2.573346E-03
       477   -2.205301E-03
       478    1.244124E-02
       479    1.316803E-03
       480   -4.163454E-03
       481    1.480734E-02
       482    1.120062E-02
       483    2.106486E-02
       484    3.608433E-02
       485   -2.569169E-03
       486    2.198878E-03
       487    1.244466E-02
       488    1.352603E-03
       489    4.123761E-03
       490    1.481637E-02
 Sym= X
 Ene= 0.904025
 Spin= Alpha
 Occup= 0.904025
         1    8.345273E-03
         2    1.739385E-02
         3    2.363680E-02
         4   -5.944730E-01
         5    2.779052E+00
         6    8.178946E+00
         7    1.357744E-02
         8    3.627069E-02
         9    1.922617E-03
        10    6.303812E-03
        11    5.922851E-03
        12    5.281500E-03
        13   -3.105822E+00
        14    2.575804E+00
        15   -5.581174E-02
        16   -3.615626E-04
        17   -9.805071E-04
        18    1.342070E-03
        19   -1.186258E-03
        20    1.904709E-05
        21   -2.196847E-05
        22   -7.889432E-03
        23    3.246699E-03
        24    4.642733E-03
        25    3.914684E-03
        26    4.787215E-04
        27    1.467491E-04
        28    1.424365E-01
        29    3.786315E-01
        30   -5.210680E-01
        31   -1.384537E+00
        32   -2.180743E-02
        33   -1.351542E-02
        34   -6.329284E-04
        35    2.319885E-04
        36   -4.715086E-05
        37    7.800225E-04
        38   -4.482744E-04
        39    8.339097E-05
        40    6.914013E-05
        41    1.370292E-04
        42   -2.013145E-05
        43    1.236974E-05
        44   -3.468704E-06
        45   -7.726069E-06
        46   -2.785508E-06
        47    2.132649E-05
        48   -5.176537E-03
        49   -9.162184E-03
        50   -1.066531E-05
        51   -1.791792E-02
        52    9.298873E-06
        53   -6.735563E-06
        54   -9.786615E-02
        55    1.424511E-05
        56    7.195556E-03
        57    7.196973E+00
        58   -5.752470E-04
        59   -1.504468E-07
        60   -2.024982E-06
        61    2.175429E-06
        62   -1.697239E-04