[Molden Format]
[Title]
ADC(2) - opt by CAM-B3LYP gaussian                                              
[Atoms] AU
 c     1    6 -.12590385386216E+01 -.22819701624009E+01 -.30156123253150E-01
 c     2    6 -.25547233845863E+01 -.83266058000000E-06 -.28792213416740E-01
 c     3    6 -.12590428849917E+01 0.22819669475044E+01 -.30169993842970E-01
 c     4    6 0.13339759331395E+01 0.22828246941961E+01 -.32722654800530E-01
 c     5    6 0.26864234278208E+01 0.32869423900000E-05 -.32794180934660E-01
 c     6    6 0.13339778039684E+01 -.22828226745513E+01 -.32706516539360E-01
 h     7    1 -.23005849451053E+01 -.40353719055945E+01 -.27139024303910E-01
 h     8    1 -.23005903875166E+01 0.40353685773143E+01 -.27164403325880E-01
 h     9    1 0.23527432406667E+01 0.40554759247724E+01 -.35914685697900E-01
 h    10    1 0.23527525948111E+01 -.40554698422164E+01 -.35883032785170E-01
 n    11    7 -.52784595104117E+01 -.53030440000000E-06 -.22539903328000E-01
 o    12    8 -.63796877956448E+01 0.20272212823250E+01 -.19883023974210E-01
 o    13    8 -.63796922742957E+01 -.20272201130570E+01 -.19923067270970E-01
 n    14    7 0.52516126460355E+01 -.32243452000000E-06 -.88209511610250E-01
 h    15    1 0.62001707317805E+01 0.16133662892433E+01 0.23199721167530E+00
 h    16    1 0.62001633429513E+01 -.16133706190784E+01 0.23200112340840E+00
[GTO]
    1 0
 s    6 1.00
 0.13575349682000E+05 0.60645503603591E-03
 0.20352333680000E+04 0.46979088884982E-02
 0.46322562359000E+03 0.24332477647552E-01
 0.13120019598000E+03 0.97399968307759E-01
 0.42853015891000E+02 0.30195584253780E+00
 0.15584185766000E+02 0.66233609137875E+00
 s    2 1.00
 0.62067138508000E+01 0.65595308539952E+00
 0.25764896527000E+01 0.37585633285142E+00
 s    1 1.00
 0.57696339419000E+00 0.10000000000000E+01
 s    1 1.00
 0.22972831358000E+00 0.10000000000000E+01
 s    1 1.00
 0.95164440028000E-01 0.10000000000000E+01
 s    1 1.00
 0.48475401370000E-01 0.10000000000000E+01
 p    4 1.00
 0.34697232244000E+02 0.11327220003114E-01
 0.79582622826000E+01 0.76169659202087E-01
 0.23780826883000E+01 0.30192252202676E+00
 0.81433208183000E+00 0.72785027349547E+00
 p    1 1.00
 0.28887547253000E+00 0.10000000000000E+01
 p    1 1.00
 0.10056823671000E+00 0.10000000000000E+01
 d    1 1.00
 0.10970000000000E+01 0.10000000000000E+01
 d    1 1.00
 0.31800000000000E+00 0.10000000000000E+01
 d    1 1.00
 0.90985336424000E-01 0.10000000000000E+01
 f    1 1.00
 0.76100000000000E+00 0.10000000000000E+01
 
    2 0
 s    6 1.00
 0.13575349682000E+05 0.60645503603591E-03
 0.20352333680000E+04 0.46979088884982E-02
 0.46322562359000E+03 0.24332477647552E-01
 0.13120019598000E+03 0.97399968307759E-01
 0.42853015891000E+02 0.30195584253780E+00
 0.15584185766000E+02 0.66233609137875E+00
 s    2 1.00
 0.62067138508000E+01 0.65595308539952E+00
 0.25764896527000E+01 0.37585633285142E+00
 s    1 1.00
 0.57696339419000E+00 0.10000000000000E+01
 s    1 1.00
 0.22972831358000E+00 0.10000000000000E+01
 s    1 1.00
 0.95164440028000E-01 0.10000000000000E+01
 s    1 1.00
 0.48475401370000E-01 0.10000000000000E+01
 p    4 1.00
 0.34697232244000E+02 0.11327220003114E-01
 0.79582622826000E+01 0.76169659202087E-01
 0.23780826883000E+01 0.30192252202676E+00
 0.81433208183000E+00 0.72785027349547E+00
 p    1 1.00
 0.28887547253000E+00 0.10000000000000E+01
 p    1 1.00
 0.10056823671000E+00 0.10000000000000E+01
 d    1 1.00
 0.10970000000000E+01 0.10000000000000E+01
 d    1 1.00
 0.31800000000000E+00 0.10000000000000E+01
 d    1 1.00
 0.90985336424000E-01 0.10000000000000E+01
 f    1 1.00
 0.76100000000000E+00 0.10000000000000E+01
 
    3 0
 s    6 1.00
 0.13575349682000E+05 0.60645503603591E-03
 0.20352333680000E+04 0.46979088884982E-02
 0.46322562359000E+03 0.24332477647552E-01
 0.13120019598000E+03 0.97399968307759E-01
 0.42853015891000E+02 0.30195584253780E+00
 0.15584185766000E+02 0.66233609137875E+00
 s    2 1.00
 0.62067138508000E+01 0.65595308539952E+00
 0.25764896527000E+01 0.37585633285142E+00
 s    1 1.00
 0.57696339419000E+00 0.10000000000000E+01
 s    1 1.00
 0.22972831358000E+00 0.10000000000000E+01
 s    1 1.00
 0.95164440028000E-01 0.10000000000000E+01
 s    1 1.00
 0.48475401370000E-01 0.10000000000000E+01
 p    4 1.00
 0.34697232244000E+02 0.11327220003114E-01
 0.79582622826000E+01 0.76169659202087E-01
 0.23780826883000E+01 0.30192252202676E+00
 0.81433208183000E+00 0.72785027349547E+00
 p    1 1.00
 0.28887547253000E+00 0.10000000000000E+01
 p    1 1.00
 0.10056823671000E+00 0.10000000000000E+01
 d    1 1.00
 0.10970000000000E+01 0.10000000000000E+01
 d    1 1.00
 0.31800000000000E+00 0.10000000000000E+01
 d    1 1.00
 0.90985336424000E-01 0.10000000000000E+01
 f    1 1.00
 0.76100000000000E+00 0.10000000000000E+01
 
    4 0
 s    6 1.00
 0.13575349682000E+05 0.60645503603591E-03
 0.20352333680000E+04 0.46979088884982E-02
 0.46322562359000E+03 0.24332477647552E-01
 0.13120019598000E+03 0.97399968307759E-01
 0.42853015891000E+02 0.30195584253780E+00
 0.15584185766000E+02 0.66233609137875E+00
 s    2 1.00
 0.62067138508000E+01 0.65595308539952E+00
 0.25764896527000E+01 0.37585633285142E+00
 s    1 1.00
 0.57696339419000E+00 0.10000000000000E+01
 s    1 1.00
 0.22972831358000E+00 0.10000000000000E+01
 s    1 1.00
 0.95164440028000E-01 0.10000000000000E+01
 s    1 1.00
 0.48475401370000E-01 0.10000000000000E+01
 p    4 1.00
 0.34697232244000E+02 0.11327220003114E-01
 0.79582622826000E+01 0.76169659202087E-01
 0.23780826883000E+01 0.30192252202676E+00
 0.81433208183000E+00 0.72785027349547E+00
 p    1 1.00
 0.28887547253000E+00 0.10000000000000E+01
 p    1 1.00
 0.10056823671000E+00 0.10000000000000E+01
 d    1 1.00
 0.10970000000000E+01 0.10000000000000E+01
 d    1 1.00
 0.31800000000000E+00 0.10000000000000E+01
 d    1 1.00
 0.90985336424000E-01 0.10000000000000E+01
 f    1 1.00
 0.76100000000000E+00 0.10000000000000E+01
 
    5 0
 s    6 1.00
 0.13575349682000E+05 0.60645503603591E-03
 0.20352333680000E+04 0.46979088884982E-02
 0.46322562359000E+03 0.24332477647552E-01
 0.13120019598000E+03 0.97399968307759E-01
 0.42853015891000E+02 0.30195584253780E+00
 0.15584185766000E+02 0.66233609137875E+00
 s    2 1.00
 0.62067138508000E+01 0.65595308539952E+00
 0.25764896527000E+01 0.37585633285142E+00
 s    1 1.00
 0.57696339419000E+00 0.10000000000000E+01
 s    1 1.00
 0.22972831358000E+00 0.10000000000000E+01
 s    1 1.00
 0.95164440028000E-01 0.10000000000000E+01
 s    1 1.00
 0.48475401370000E-01 0.10000000000000E+01
 p    4 1.00
 0.34697232244000E+02 0.11327220003114E-01
 0.79582622826000E+01 0.76169659202087E-01
 0.23780826883000E+01 0.30192252202676E+00
 0.81433208183000E+00 0.72785027349547E+00
 p    1 1.00
 0.28887547253000E+00 0.10000000000000E+01
 p    1 1.00
 0.10056823671000E+00 0.10000000000000E+01
 d    1 1.00
 0.10970000000000E+01 0.10000000000000E+01
 d    1 1.00
 0.31800000000000E+00 0.10000000000000E+01
 d    1 1.00
 0.90985336424000E-01 0.10000000000000E+01
 f    1 1.00
 0.76100000000000E+00 0.10000000000000E+01
 
    6 0
 s    6 1.00
 0.13575349682000E+05 0.60645503603591E-03
 0.20352333680000E+04 0.46979088884982E-02
 0.46322562359000E+03 0.24332477647552E-01
 0.13120019598000E+03 0.97399968307759E-01
 0.42853015891000E+02 0.30195584253780E+00
 0.15584185766000E+02 0.66233609137875E+00
 s    2 1.00
 0.62067138508000E+01 0.65595308539952E+00
 0.25764896527000E+01 0.37585633285142E+00
 s    1 1.00
 0.57696339419000E+00 0.10000000000000E+01
 s    1 1.00
 0.22972831358000E+00 0.10000000000000E+01
 s    1 1.00
 0.95164440028000E-01 0.10000000000000E+01
 s    1 1.00
 0.48475401370000E-01 0.10000000000000E+01
 p    4 1.00
 0.34697232244000E+02 0.11327220003114E-01
 0.79582622826000E+01 0.76169659202087E-01
 0.23780826883000E+01 0.30192252202676E+00
 0.81433208183000E+00 0.72785027349547E+00
 p    1 1.00
 0.28887547253000E+00 0.10000000000000E+01
 p    1 1.00
 0.10056823671000E+00 0.10000000000000E+01
 d    1 1.00
 0.10970000000000E+01 0.10000000000000E+01
 d    1 1.00
 0.31800000000000E+00 0.10000000000000E+01
 d    1 1.00
 0.90985336424000E-01 0.10000000000000E+01
 f    1 1.00
 0.76100000000000E+00 0.10000000000000E+01
 
    7 0
 s    3 1.00
 0.34061341000000E+02 0.25439307208879E-01
 0.51235746000000E+01 0.19008594890375E+00
 0.11646626000000E+01 0.85244113011042E+00
 s    1 1.00
 0.32723041000000E+00 0.10000000000000E+01
 s    1 1.00
 0.10307241000000E+00 0.10000000000000E+01
 p    1 1.00
 0.80000000000000E+00 0.10000000000000E+01
 p    1 1.00
 0.95774129632000E-01 0.10000000000000E+01
 
    8 0
 s    3 1.00
 0.34061341000000E+02 0.25439307208879E-01
 0.51235746000000E+01 0.19008594890375E+00
 0.11646626000000E+01 0.85244113011042E+00
 s    1 1.00
 0.32723041000000E+00 0.10000000000000E+01
 s    1 1.00
 0.10307241000000E+00 0.10000000000000E+01
 p    1 1.00
 0.80000000000000E+00 0.10000000000000E+01
 p    1 1.00
 0.95774129632000E-01 0.10000000000000E+01
 
    9 0
 s    3 1.00
 0.34061341000000E+02 0.25439307208879E-01
 0.51235746000000E+01 0.19008594890375E+00
 0.11646626000000E+01 0.85244113011042E+00
 s    1 1.00
 0.32723041000000E+00 0.10000000000000E+01
 s    1 1.00
 0.10307241000000E+00 0.10000000000000E+01
 p    1 1.00
 0.80000000000000E+00 0.10000000000000E+01
 p    1 1.00
 0.95774129632000E-01 0.10000000000000E+01
 
   10 0
 s    3 1.00
 0.34061341000000E+02 0.25439307208879E-01
 0.51235746000000E+01 0.19008594890375E+00
 0.11646626000000E+01 0.85244113011042E+00
 s    1 1.00
 0.32723041000000E+00 0.10000000000000E+01
 s    1 1.00
 0.10307241000000E+00 0.10000000000000E+01
 p    1 1.00
 0.80000000000000E+00 0.10000000000000E+01
 p    1 1.00
 0.95774129632000E-01 0.10000000000000E+01
 
   11 0
 s    6 1.00
 0.19730800647000E+05 0.58626402628763E-03
 0.29578958745000E+04 0.45428820586397E-02
 0.67322133595000E+03 0.23558413450084E-01
 0.19068249494000E+03 0.94709193292923E-01
 0.62295441898000E+02 0.29719784913376E+00
 0.22654161182000E+02 0.66916246895232E+00
 s    2 1.00
 0.89791477428000E+01 0.64596683630063E+00
 0.36863002370000E+01 0.38700574393705E+00
 s    1 1.00
 0.84660076805000E+00 0.10000000000000E+01
 s    1 1.00
 0.33647133771000E+00 0.10000000000000E+01
 s    1 1.00
 0.13647653675000E+00 0.10000000000000E+01
 s    1 1.00
 0.68441605847000E-01 0.10000000000000E+01
 p    4 1.00
 0.49200380510000E+02 0.11448825101764E-01
 0.11346790537000E+02 0.78422337970864E-01
 0.34273972411000E+01 0.30818094738830E+00
 0.11785525134000E+01 0.72027196368413E+00
 p    1 1.00
 0.41642204972000E+00 0.10000000000000E+01
 p    1 1.00
 0.14260826011000E+00 0.10000000000000E+01
 d    1 1.00
 0.16540000000000E+01 0.10000000000000E+01
 d    1 1.00
 0.46900000000000E+00 0.10000000000000E+01
 d    1 1.00
 0.12829642058000E+00 0.10000000000000E+01
 f    1 1.00
 0.10930000000000E+01 0.10000000000000E+01
 
   12 0
 s    6 1.00
 0.27032382631000E+05 0.57227335211155E-03
 0.40523871392000E+04 0.44353233492995E-02
 0.92232722710000E+03 0.23020107706038E-01
 0.26124070989000E+03 0.92822490667928E-01
 0.85354641351000E+02 0.29378500009671E+00
 0.31035035245000E+02 0.67401604501641E+00
 s    2 1.00
 0.12260860728000E+02 0.63839937025506E+00
 0.49987076005000E+01 0.39534587125718E+00
 s    1 1.00
 0.11703108158000E+01 0.10000000000000E+01
 s    1 1.00
 0.46474740994000E+00 0.10000000000000E+01
 s    1 1.00
 0.18504536357000E+00 0.10000000000000E+01
 s    1 1.00
 0.70288026270000E-01 0.10000000000000E+01
 p    4 1.00
 0.63274954801000E+02 0.12018332222616E-01
 0.14627049379000E+02 0.83005421790056E-01
 0.44501223456000E+01 0.31991743925964E+00
 0.15275799647000E+01 0.70715542916104E+00
 p    1 1.00
 0.52935117943000E+00 0.10000000000000E+01
 p    1 1.00
 0.17478421270000E+00 0.10000000000000E+01
 p    1 1.00
 0.51112745706000E-01 0.10000000000000E+01
 d    1 1.00
 0.23140000000000E+01 0.10000000000000E+01
 d    1 1.00
 0.64500000000000E+00 0.10000000000000E+01
 d    1 1.00
 0.14696477366000E+00 0.10000000000000E+01
 f    1 1.00
 0.14280000000000E+01 0.10000000000000E+01
 
   13 0
 s    6 1.00
 0.27032382631000E+05 0.57227335211155E-03
 0.40523871392000E+04 0.44353233492995E-02
 0.92232722710000E+03 0.23020107706038E-01
 0.26124070989000E+03 0.92822490667928E-01
 0.85354641351000E+02 0.29378500009671E+00
 0.31035035245000E+02 0.67401604501641E+00
 s    2 1.00
 0.12260860728000E+02 0.63839937025506E+00
 0.49987076005000E+01 0.39534587125718E+00
 s    1 1.00
 0.11703108158000E+01 0.10000000000000E+01
 s    1 1.00
 0.46474740994000E+00 0.10000000000000E+01
 s    1 1.00
 0.18504536357000E+00 0.10000000000000E+01
 s    1 1.00
 0.70288026270000E-01 0.10000000000000E+01
 p    4 1.00
 0.63274954801000E+02 0.12018332222616E-01
 0.14627049379000E+02 0.83005421790056E-01
 0.44501223456000E+01 0.31991743925964E+00
 0.15275799647000E+01 0.70715542916104E+00
 p    1 1.00
 0.52935117943000E+00 0.10000000000000E+01
 p    1 1.00
 0.17478421270000E+00 0.10000000000000E+01
 p    1 1.00
 0.51112745706000E-01 0.10000000000000E+01
 d    1 1.00
 0.23140000000000E+01 0.10000000000000E+01
 d    1 1.00
 0.64500000000000E+00 0.10000000000000E+01
 d    1 1.00
 0.14696477366000E+00 0.10000000000000E+01
 f    1 1.00
 0.14280000000000E+01 0.10000000000000E+01
 
   14 0
 s    6 1.00
 0.19730800647000E+05 0.58626402628763E-03
 0.29578958745000E+04 0.45428820586397E-02
 0.67322133595000E+03 0.23558413450084E-01
 0.19068249494000E+03 0.94709193292923E-01
 0.62295441898000E+02 0.29719784913376E+00
 0.22654161182000E+02 0.66916246895232E+00
 s    2 1.00
 0.89791477428000E+01 0.64596683630063E+00
 0.36863002370000E+01 0.38700574393705E+00
 s    1 1.00
 0.84660076805000E+00 0.10000000000000E+01
 s    1 1.00
 0.33647133771000E+00 0.10000000000000E+01
 s    1 1.00
 0.13647653675000E+00 0.10000000000000E+01
 s    1 1.00
 0.68441605847000E-01 0.10000000000000E+01
 p    4 1.00
 0.49200380510000E+02 0.11448825101764E-01
 0.11346790537000E+02 0.78422337970864E-01
 0.34273972411000E+01 0.30818094738830E+00
 0.11785525134000E+01 0.72027196368413E+00
 p    1 1.00
 0.41642204972000E+00 0.10000000000000E+01
 p    1 1.00
 0.14260826011000E+00 0.10000000000000E+01
 d    1 1.00
 0.16540000000000E+01 0.10000000000000E+01
 d    1 1.00
 0.46900000000000E+00 0.10000000000000E+01
 d    1 1.00
 0.12829642058000E+00 0.10000000000000E+01
 f    1 1.00
 0.10930000000000E+01 0.10000000000000E+01
 
   15 0
 s    3 1.00
 0.34061341000000E+02 0.25439307208879E-01
 0.51235746000000E+01 0.19008594890375E+00
 0.11646626000000E+01 0.85244113011042E+00
 s    1 1.00
 0.32723041000000E+00 0.10000000000000E+01
 s    1 1.00
 0.10307241000000E+00 0.10000000000000E+01
 p    1 1.00
 0.80000000000000E+00 0.10000000000000E+01
 p    1 1.00
 0.95774129632000E-01 0.10000000000000E+01
 
   16 0
 s    3 1.00
 0.34061341000000E+02 0.25439307208879E-01
 0.51235746000000E+01 0.19008594890375E+00
 0.11646626000000E+01 0.85244113011042E+00
 s    1 1.00
 0.32723041000000E+00 0.10000000000000E+01
 s    1 1.00
 0.10307241000000E+00 0.10000000000000E+01
 p    1 1.00
 0.80000000000000E+00 0.10000000000000E+01
 p    1 1.00
 0.95774129632000E-01 0.10000000000000E+01
 
[MO]
 Sym= X
 Ene= -0.955265
 Spin= Alpha
 Occup= -0.955265
         1   -5.129776E-04
         2   -1.205617E-03
         3   -1.943710E-03
         4    2.746156E-02
         5    2.506133E-01
         6   -3.411413E-02
         7   -2.533710E-02
         8    5.653009E-02
         9   -4.500413E-03
        10   -8.961667E-03
        11    4.864565E-02
        12   -4.391716E-03
        13   -3.911031E-02
        14    9.236734E-02
        15   -1.062076E-03
        16   -2.383455E-03
        17    2.604856E-03
        18   -2.214008E-04
        19   -9.502026E-04
        20   -5.617360E-05
        21   -1.145121E-04
        22    1.399096E-03
        23    1.363261E-03
        24   -2.762356E-03
        25   -1.747717E-03
        26   -8.940706E-05
        27   -1.792834E-04
        28    9.704922E-04
        29   -3.321416E-04
        30   -6.383506E-04
        31    1.064852E-02
        32    1.653265E-04
        33    3.706378E-05
        34    1.580126E-04
        35    5.560457E-04
        36    4.009531E-05
        37   -1.873881E-04
        38   -5.829509E-04
        39   -2.957456E-05
        40   -2.460806E-05
        41   -1.630626E-04
        42   -2.421894E-05
        43    8.738021E-06
        44    9.690997E-03
        45    2.189960E-02
        46   -3.152551E-02
        47   -6.565729E-02
        48   -2.366261E-01
        49    2.859041E-02
        50    1.588636E-01
        51    2.220321E-06
        52   -5.413929E-03
        53    1.172064E-01
        54    2.273863E-06
        55   -5.313437E-03
        56   -7.433504E-02
        57   -4.434253E-05
        58   -1.558185E-03
        59   -5.930580E-03
        60    5.265829E-03
        61    6.647508E-04
        62    6.940855E-08
        63   -8.550808E-05
        64    3.091857E-08
        65   -1.742940E-03
        66    1.637293E-03
        67    1.056474E-04
        68   -7.818887E-08
        69   -1.756335E-04
        70   -2.870736E-07
        71    4.760348E-02
        72   -4.903793E-02
        73    1.434446E-03
        74   -3.423681E-06
        75   -3.117731E-04
        76    1.447315E-05
        77    1.115961E-03
        78    8.265572E-09
        79    4.838924E-05
        80   -7.636060E-04
        81   -3.755028E-09
        82   -2.777802E-05
        83   -7.336127E-04
        84   -7.334401E-09
        85   -3.714296E-05
        86   -9.410201E-09
        87   -5.130128E-04
        88   -1.205706E-03
        89   -1.943966E-03
        90    2.746693E-02
        91    2.507037E-01
        92   -3.411712E-02
        93   -2.533804E-02
        94   -5.653354E-02
        95   -4.498843E-03
        96   -8.957996E-03
        97   -4.864785E-02
        98   -4.389017E-03
        99   -3.913842E-02
       100   -9.240780E-02
       101   -1.043213E-03
       102   -2.383441E-03
       103    2.604880E-03
       104   -2.214389E-04
       105    9.503784E-04
       106   -5.614371E-05
       107    1.145333E-04
       108    1.399789E-03
       109    1.362804E-03
       110   -2.762593E-03
       111    1.747957E-03
       112   -8.914418E-05
       113    1.792706E-04
       114    9.698021E-04
       115   -3.315808E-04
       116   -6.382213E-04
       117   -1.064497E-02
       118    1.965948E-04
       119   -1.821305E-05
       120    1.580334E-04
       121   -5.560749E-04
       122    4.003695E-05
       123   -1.874013E-04
       124    5.829674E-04
       125   -2.953377E-05
       126   -2.462284E-05
       127    1.630853E-04
       128   -2.418143E-05
       129   -8.705855E-06
       130    1.589721E-03
       131    3.620721E-03
       132   -3.054520E-03
       133   -2.675419E-02
       134   -8.370784E-02
       135    3.177327E-02
       136    2.995298E-02
       137    2.058148E-02
       138   -4.448299E-03
       139    3.765100E-02
       140    1.686195E-02
       141   -4.368831E-03
       142    2.509836E-02
       143    5.072056E-02
       144   -2.317252E-03
       145   -7.082839E-04
       146    5.955162E-04
       147    1.127677E-04
       148    2.103569E-03
       149    6.682559E-05
       150    9.552850E-05
       151   -2.990554E-03
       152    1.098779E-03
       153    1.891776E-03
       154    3.014417E-03
       155    1.370232E-04
       156    1.735096E-04
       157   -4.904208E-03
       158    5.987594E-03
       159   -1.083386E-03
       160   -1.923568E-02
       161    2.008544E-04
       162    6.638069E-05
       163    2.791101E-04
       164    3.463990E-04
       165    4.210275E-05
       166   -1.732989E-04
       167   -4.244605E-04
       168   -3.466236E-05
       169   -2.011666E-04
       170   -4.028247E-05
       171   -2.182441E-05
       172    6.513350E-06
       173    3.536973E-03
       174    8.064097E-03
       175   -1.466609E-02
       176   -6.746468E-03
       177   -4.603717E-02
       178   -3.647913E-02
       179    1.747631E-02
       180   -1.576112E-06
       181   -4.678805E-03
       182    1.053502E-02
       183   -3.669518E-07
       184   -4.538947E-03
       185   -1.615910E-02
       186    4.146361E-05
       187   -1.215661E-03
       188   -2.512236E-04
       189    2.099529E-04
       190    4.127074E-05
       191    6.563735E-08
       192    3.533670E-05
       193    2.569925E-08
       194    1.973046E-04
       195    4.660286E-04
       196   -6.633332E-04
       197   -8.071393E-08
       198    1.339606E-04
       199   -9.246255E-08
       200   -1.714264E-02
       201    1.691203E-02
       202    2.306066E-04
       203   -1.527464E-06
       204   -2.745759E-04
       205   -1.904838E-05
       206   -2.387825E-05
       207    1.509822E-08
       208    4.938989E-05
       209    8.179647E-05
       210   -1.127733E-08
       211   -3.727703E-05
       212   -4.976043E-05
       213   -8.979057E-09
       214   -2.898646E-05
       215   -8.132074E-09
       216    1.589757E-03
       217    3.620810E-03
       218   -3.055579E-03
       219   -2.674893E-02
       220   -8.365590E-02
       221    3.177355E-02
       222    2.995245E-02
       223   -2.057806E-02
       224   -4.449199E-03
       225    3.764713E-02
       226   -1.685795E-02
       227   -4.369367E-03
       228    2.512621E-02
       229   -5.067525E-02
       230   -2.312862E-03
       231   -7.082478E-04
       232    5.954951E-04
       233    1.127526E-04
       234   -2.103428E-03
       235    6.693260E-05
       236   -9.554502E-05
       237   -2.989454E-03
       238    1.098212E-03
       239    1.891243E-03
       240   -3.013697E-03
       241    1.362974E-04
       242   -1.733234E-04
       243   -4.899083E-03
       244    5.982750E-03
       245   -1.083668E-03
       246    1.924165E-02
       247    1.679309E-04
       248   -8.158026E-05
       249    2.790686E-04
       250   -3.463843E-04
       251    4.210042E-05
       252   -1.732573E-04
       253    4.244586E-04
       254   -3.463836E-05
       255   -2.011525E-04
       256    4.026473E-05
       257   -2.184528E-05
       258   -6.506501E-06
       259   -1.093682E-02
       260   -1.529046E-02
       261   -1.266229E-02
       262   -2.824491E-03
       263   -1.332050E-03
       264   -1.457568E-04
       265   -6.554189E-03
       266    2.570580E-04
       267    3.674941E-05
       268   -1.093818E-02
       269   -1.529229E-02
       270   -1.265391E-02
       271   -2.824561E-03
       272    1.332166E-03
       273   -1.454436E-04
       274   -6.551104E-03
       275   -2.555269E-04
       276    3.119358E-05
       277    1.864681E-02
       278    2.965400E-02
       279    1.833019E-02
       280   -4.155866E-04
       281   -2.627222E-03
       282   -1.472933E-04
       283    8.598315E-03
       284   -3.350876E-03
       285   -1.402754E-04
       286    1.864508E-02
       287    2.965210E-02
       288    1.836160E-02
       289   -4.154890E-04
       290    2.626986E-03
       291   -1.479811E-04
       292    8.590017E-03
       293    3.349374E-03
       294   -1.383668E-04
       295    2.949366E-03
       296    6.826422E-03
       297   -5.634440E-03
       298   -3.848803E-02
       299   -1.629908E-01
       300    1.264331E-02
       301   -1.361572E-01
       302    5.935017E-07
       303    1.497780E-03
       304   -1.260070E-01
       305    8.423529E-07
       306    1.432434E-03
       307   -9.932791E-02
       308    2.112760E-06
       309    3.399678E-04
       310   -1.163209E-02
       311    1.298593E-02
       312   -1.353844E-03
       313   -5.276698E-08
       314   -7.234127E-05
       315   -2.026764E-07
       316   -3.363979E-02
       317    3.462610E-02
       318   -9.863104E-04
       319   -2.242598E-07
       320   -1.872942E-04
       321   -4.599746E-07
       322    1.408348E-02
       323   -4.084217E-03
       324   -9.999265E-03
       325    1.582812E-06
       326   -2.021822E-04
       327    3.070316E-07
       328    2.182852E-05
       329   -2.341171E-08
       330   -8.527637E-06
       331   -3.849906E-04
       332    3.461423E-08
       333   -1.090628E-05
       334    3.557046E-04
       335   -3.204119E-09
       336    2.234730E-05
       337    3.547324E-08
       338    1.265723E-04
       339    2.474722E-04
       340   -1.310185E-03
       341   -1.403779E-02
       342   -8.709189E-03
       343   -1.994958E-02
       344    2.998698E-01
       345    4.517097E-02
       346    1.361768E-03
       347    2.636474E-01
       348    4.512160E-02
       349    1.279889E-03
       350    1.994932E-01
       351    4.357980E-02
       352    7.330865E-04
       353    1.572593E-02
       354    8.623989E-03
       355    5.461759E-05
       356    7.030115E-04
       357    1.724489E-04
       358   -8.754604E-04
       359   -2.622591E-03
       360    6.353762E-06
       361   -2.204020E-05
       362    3.139258E-03
       363   -6.897587E-04
       364   -2.449500E-03
       365   -5.880599E-03
       366    2.734920E-05
       367   -6.889532E-05
       368    4.033554E-03
       369   -3.274040E-03
       370   -7.595144E-04
       371   -5.913568E-03
       372    4.104525E-05
       373    4.480826E-06
       374   -3.139941E-04
       375    4.013117E-04
       376   -3.394999E-06
       377    6.487244E-04
       378   -8.441450E-04
       379   -1.912776E-06
       380   -2.274571E-04
       381    3.057289E-04
       382    6.467646E-06
       383   -4.033764E-06
       384    1.265983E-04
       385    2.475407E-04
       386   -1.310335E-03
       387   -1.403773E-02
       388   -8.709810E-03
       389   -1.995078E-02
       390    2.998752E-01
       391   -4.517624E-02
       392    1.381070E-03
       393    2.636523E-01
       394   -4.512605E-02
       395    1.296557E-03
       396    1.994983E-01
       397   -4.358218E-02
       398    7.544076E-04
       399    1.572600E-02
       400   -8.623989E-03
       401    5.379468E-05
       402    7.030616E-04
       403    1.723743E-04
       404   -8.754359E-04
       405    2.622586E-03
       406    6.445039E-06
       407    2.222651E-05
       408    3.139410E-03
       409   -6.898976E-04
       410   -2.449513E-03
       411    5.880701E-03
       412    2.745326E-05
       413    6.980656E-05
       414    4.033667E-03
       415   -3.274197E-03
       416   -7.594707E-04
       417    5.914289E-03
       418    3.617219E-05
       419    8.100825E-07
       420   -3.139863E-04
       421   -4.013304E-04
       422   -3.498345E-06
       423    6.487092E-04
       424    8.441681E-04
       425   -1.824711E-06
       426   -2.274524E-04
       427   -3.057268E-04
       428    6.518233E-06
       429    4.066550E-06
       430    4.516795E-04
       431    1.075496E-03
       432   -1.544747E-03
       433   -5.414188E-03
       434    2.076308E-02
       435    2.502389E-02
       436   -6.746762E-03
       437   -1.262704E-07
       438   -3.121651E-03
       439   -5.226368E-03
       440   -1.695874E-07
       441   -2.903809E-03
       442   -2.841218E-03
       443   -1.796011E-06
       444   -1.050452E-03
       445    1.003201E-04
       446   -8.826744E-05
       447   -1.205268E-05
       448    9.412145E-09
       449    1.542351E-05
       450   -2.359859E-09
       451    1.501180E-04
       452    1.705591E-04
       453   -3.206771E-04
       454    5.781053E-08
       455    8.108244E-05
       456    1.805326E-08
       457   -9.694784E-04
       458    8.370897E-04
       459    1.323886E-04
       460   -1.920959E-07
       461   -1.509152E-04
       462    7.525476E-07
       463   -1.894220E-05
       464    2.621605E-09
       465    2.196895E-05
       466   -2.099197E-05
       467   -5.344900E-09
       468   -2.439522E-05
       469    4.640560E-05
       470    1.827648E-09
       471   -5.079226E-06
       472    3.184835E-09
       473   -1.808954E-03
       474   -3.153172E-03
       475    1.118643E-03
       476   -8.979862E-06
       477    5.828494E-04
       478   -9.815624E-06
       479   -1.759135E-03
       480   -1.280204E-03
       481    5.009058E-04
       482   -1.808965E-03
       483   -3.152908E-03
       484    1.113384E-03
       485   -9.077084E-06
       486   -5.828059E-04
       487   -9.802806E-06
       488   -1.759344E-03
       489    1.277752E-03
       490    5.019580E-04
 Sym= X
 Ene= 0.955265
 Spin= Alpha
 Occup= 0.955265
         1   -4.286153E-05
         2   -1.171017E-04
         3    5.244023E-04
         4   -2.032067E-03
         5   -3.792596E-01
         6   -4.377016E-02
         7    4.194375E-05
         8   -1.454944E-05
         9    1.013881E-01
        10    3.207434E-03
        11   -6.548818E-04
        12    1.072575E-01
        13   -1.872503E-01
        14    1.088429E-01
        15    3.106220E-02
        16    6.571930E-05
        17   -3.552445E-05
        18   -3.019485E-05
        19   -2.844118E-05
        20    3.629715E-04
        21    6.585258E-04
        22   -3.068560E-04
        23    1.509266E-04
        24    1.559294E-04
        25    5.904397E-04
        26   -3.239894E-03
        27   -1.686060E-03
        28   -4.454138E-02
        29    5.217452E-02
        30   -7.633148E-03
        31   -1.257697E-03
        32   -5.028990E-02
        33   -3.350334E-02
        34    2.593689E-06
        35    1.272512E-05
        36   -1.243530E-04
        37    5.119108E-06
        38   -1.413148E-05
        39   -1.928657E-04
        40   -8.598907E-06
        41   -2.941053E-06
        42    3.597027E-04
        43    1.929346E-04
        44   -8.204176E-05
        45   -1.870352E-04
        46   -1.247581E-05
        47    8.067967E-03
        48   -4.245669E-01
        49    6.249434E-02
        50   -1.112059E-04
        51    4.491131E-07
        52   -2.104605E-02
        53    1.887520E-03
        54    3.726034E-07
        55   -1.711679E-02
        56   -1.410305E-01
        57   -9.897268E-05
        58   -1.087102E-02
        59    2.978914E-05
        60    2.554563E-05
        61   -5.533476E-05
        62   -2.344773E-07