[Molden Format]
[Title]
ADC(2) - opt by CAM-B3LYP gaussian                                              
[Atoms] AU
 c     1    6 -.12590385386216E+01 -.22819701624009E+01 -.30156123253150E-01
 c     2    6 -.25547233845863E+01 -.83266058000000E-06 -.28792213416740E-01
 c     3    6 -.12590428849917E+01 0.22819669475044E+01 -.30169993842970E-01
 c     4    6 0.13339759331395E+01 0.22828246941961E+01 -.32722654800530E-01
 c     5    6 0.26864234278208E+01 0.32869423900000E-05 -.32794180934660E-01
 c     6    6 0.13339778039684E+01 -.22828226745513E+01 -.32706516539360E-01
 h     7    1 -.23005849451053E+01 -.40353719055945E+01 -.27139024303910E-01
 h     8    1 -.23005903875166E+01 0.40353685773143E+01 -.27164403325880E-01
 h     9    1 0.23527432406667E+01 0.40554759247724E+01 -.35914685697900E-01
 h    10    1 0.23527525948111E+01 -.40554698422164E+01 -.35883032785170E-01
 n    11    7 -.52784595104117E+01 -.53030440000000E-06 -.22539903328000E-01
 o    12    8 -.63796877956448E+01 0.20272212823250E+01 -.19883023974210E-01
 o    13    8 -.63796922742957E+01 -.20272201130570E+01 -.19923067270970E-01
 n    14    7 0.52516126460355E+01 -.32243452000000E-06 -.88209511610250E-01
 h    15    1 0.62001707317805E+01 0.16133662892433E+01 0.23199721167530E+00
 h    16    1 0.62001633429513E+01 -.16133706190784E+01 0.23200112340840E+00
[GTO]
    1 0
 s    6 1.00
 0.13575349682000E+05 0.60645503603591E-03
 0.20352333680000E+04 0.46979088884982E-02
 0.46322562359000E+03 0.24332477647552E-01
 0.13120019598000E+03 0.97399968307759E-01
 0.42853015891000E+02 0.30195584253780E+00
 0.15584185766000E+02 0.66233609137875E+00
 s    2 1.00
 0.62067138508000E+01 0.65595308539952E+00
 0.25764896527000E+01 0.37585633285142E+00
 s    1 1.00
 0.57696339419000E+00 0.10000000000000E+01
 s    1 1.00
 0.22972831358000E+00 0.10000000000000E+01
 s    1 1.00
 0.95164440028000E-01 0.10000000000000E+01
 s    1 1.00
 0.48475401370000E-01 0.10000000000000E+01
 p    4 1.00
 0.34697232244000E+02 0.11327220003114E-01
 0.79582622826000E+01 0.76169659202087E-01
 0.23780826883000E+01 0.30192252202676E+00
 0.81433208183000E+00 0.72785027349547E+00
 p    1 1.00
 0.28887547253000E+00 0.10000000000000E+01
 p    1 1.00
 0.10056823671000E+00 0.10000000000000E+01
 d    1 1.00
 0.10970000000000E+01 0.10000000000000E+01
 d    1 1.00
 0.31800000000000E+00 0.10000000000000E+01
 d    1 1.00
 0.90985336424000E-01 0.10000000000000E+01
 f    1 1.00
 0.76100000000000E+00 0.10000000000000E+01
 
    2 0
 s    6 1.00
 0.13575349682000E+05 0.60645503603591E-03
 0.20352333680000E+04 0.46979088884982E-02
 0.46322562359000E+03 0.24332477647552E-01
 0.13120019598000E+03 0.97399968307759E-01
 0.42853015891000E+02 0.30195584253780E+00
 0.15584185766000E+02 0.66233609137875E+00
 s    2 1.00
 0.62067138508000E+01 0.65595308539952E+00
 0.25764896527000E+01 0.37585633285142E+00
 s    1 1.00
 0.57696339419000E+00 0.10000000000000E+01
 s    1 1.00
 0.22972831358000E+00 0.10000000000000E+01
 s    1 1.00
 0.95164440028000E-01 0.10000000000000E+01
 s    1 1.00
 0.48475401370000E-01 0.10000000000000E+01
 p    4 1.00
 0.34697232244000E+02 0.11327220003114E-01
 0.79582622826000E+01 0.76169659202087E-01
 0.23780826883000E+01 0.30192252202676E+00
 0.81433208183000E+00 0.72785027349547E+00
 p    1 1.00
 0.28887547253000E+00 0.10000000000000E+01
 p    1 1.00
 0.10056823671000E+00 0.10000000000000E+01
 d    1 1.00
 0.10970000000000E+01 0.10000000000000E+01
 d    1 1.00
 0.31800000000000E+00 0.10000000000000E+01
 d    1 1.00
 0.90985336424000E-01 0.10000000000000E+01
 f    1 1.00
 0.76100000000000E+00 0.10000000000000E+01
 
    3 0
 s    6 1.00
 0.13575349682000E+05 0.60645503603591E-03
 0.20352333680000E+04 0.46979088884982E-02
 0.46322562359000E+03 0.24332477647552E-01
 0.13120019598000E+03 0.97399968307759E-01
 0.42853015891000E+02 0.30195584253780E+00
 0.15584185766000E+02 0.66233609137875E+00
 s    2 1.00
 0.62067138508000E+01 0.65595308539952E+00
 0.25764896527000E+01 0.37585633285142E+00
 s    1 1.00
 0.57696339419000E+00 0.10000000000000E+01
 s    1 1.00
 0.22972831358000E+00 0.10000000000000E+01
 s    1 1.00
 0.95164440028000E-01 0.10000000000000E+01
 s    1 1.00
 0.48475401370000E-01 0.10000000000000E+01
 p    4 1.00
 0.34697232244000E+02 0.11327220003114E-01
 0.79582622826000E+01 0.76169659202087E-01
 0.23780826883000E+01 0.30192252202676E+00
 0.81433208183000E+00 0.72785027349547E+00
 p    1 1.00
 0.28887547253000E+00 0.10000000000000E+01
 p    1 1.00
 0.10056823671000E+00 0.10000000000000E+01
 d    1 1.00
 0.10970000000000E+01 0.10000000000000E+01
 d    1 1.00
 0.31800000000000E+00 0.10000000000000E+01
 d    1 1.00
 0.90985336424000E-01 0.10000000000000E+01
 f    1 1.00
 0.76100000000000E+00 0.10000000000000E+01
 
    4 0
 s    6 1.00
 0.13575349682000E+05 0.60645503603591E-03
 0.20352333680000E+04 0.46979088884982E-02
 0.46322562359000E+03 0.24332477647552E-01
 0.13120019598000E+03 0.97399968307759E-01
 0.42853015891000E+02 0.30195584253780E+00
 0.15584185766000E+02 0.66233609137875E+00
 s    2 1.00
 0.62067138508000E+01 0.65595308539952E+00
 0.25764896527000E+01 0.37585633285142E+00
 s    1 1.00
 0.57696339419000E+00 0.10000000000000E+01
 s    1 1.00
 0.22972831358000E+00 0.10000000000000E+01
 s    1 1.00
 0.95164440028000E-01 0.10000000000000E+01
 s    1 1.00
 0.48475401370000E-01 0.10000000000000E+01
 p    4 1.00
 0.34697232244000E+02 0.11327220003114E-01
 0.79582622826000E+01 0.76169659202087E-01
 0.23780826883000E+01 0.30192252202676E+00
 0.81433208183000E+00 0.72785027349547E+00
 p    1 1.00
 0.28887547253000E+00 0.10000000000000E+01
 p    1 1.00
 0.10056823671000E+00 0.10000000000000E+01
 d    1 1.00
 0.10970000000000E+01 0.10000000000000E+01
 d    1 1.00
 0.31800000000000E+00 0.10000000000000E+01
 d    1 1.00
 0.90985336424000E-01 0.10000000000000E+01
 f    1 1.00
 0.76100000000000E+00 0.10000000000000E+01
 
    5 0
 s    6 1.00
 0.13575349682000E+05 0.60645503603591E-03
 0.20352333680000E+04 0.46979088884982E-02
 0.46322562359000E+03 0.24332477647552E-01
 0.13120019598000E+03 0.97399968307759E-01
 0.42853015891000E+02 0.30195584253780E+00
 0.15584185766000E+02 0.66233609137875E+00
 s    2 1.00
 0.62067138508000E+01 0.65595308539952E+00
 0.25764896527000E+01 0.37585633285142E+00
 s    1 1.00
 0.57696339419000E+00 0.10000000000000E+01
 s    1 1.00
 0.22972831358000E+00 0.10000000000000E+01
 s    1 1.00
 0.95164440028000E-01 0.10000000000000E+01
 s    1 1.00
 0.48475401370000E-01 0.10000000000000E+01
 p    4 1.00
 0.34697232244000E+02 0.11327220003114E-01
 0.79582622826000E+01 0.76169659202087E-01
 0.23780826883000E+01 0.30192252202676E+00
 0.81433208183000E+00 0.72785027349547E+00
 p    1 1.00
 0.28887547253000E+00 0.10000000000000E+01
 p    1 1.00
 0.10056823671000E+00 0.10000000000000E+01
 d    1 1.00
 0.10970000000000E+01 0.10000000000000E+01
 d    1 1.00
 0.31800000000000E+00 0.10000000000000E+01
 d    1 1.00
 0.90985336424000E-01 0.10000000000000E+01
 f    1 1.00
 0.76100000000000E+00 0.10000000000000E+01
 
    6 0
 s    6 1.00
 0.13575349682000E+05 0.60645503603591E-03
 0.20352333680000E+04 0.46979088884982E-02
 0.46322562359000E+03 0.24332477647552E-01
 0.13120019598000E+03 0.97399968307759E-01
 0.42853015891000E+02 0.30195584253780E+00
 0.15584185766000E+02 0.66233609137875E+00
 s    2 1.00
 0.62067138508000E+01 0.65595308539952E+00
 0.25764896527000E+01 0.37585633285142E+00
 s    1 1.00
 0.57696339419000E+00 0.10000000000000E+01
 s    1 1.00
 0.22972831358000E+00 0.10000000000000E+01
 s    1 1.00
 0.95164440028000E-01 0.10000000000000E+01
 s    1 1.00
 0.48475401370000E-01 0.10000000000000E+01
 p    4 1.00
 0.34697232244000E+02 0.11327220003114E-01
 0.79582622826000E+01 0.76169659202087E-01
 0.23780826883000E+01 0.30192252202676E+00
 0.81433208183000E+00 0.72785027349547E+00
 p    1 1.00
 0.28887547253000E+00 0.10000000000000E+01
 p    1 1.00
 0.10056823671000E+00 0.10000000000000E+01
 d    1 1.00
 0.10970000000000E+01 0.10000000000000E+01
 d    1 1.00
 0.31800000000000E+00 0.10000000000000E+01
 d    1 1.00
 0.90985336424000E-01 0.10000000000000E+01
 f    1 1.00
 0.76100000000000E+00 0.10000000000000E+01
 
    7 0
 s    3 1.00
 0.34061341000000E+02 0.25439307208879E-01
 0.51235746000000E+01 0.19008594890375E+00
 0.11646626000000E+01 0.85244113011042E+00
 s    1 1.00
 0.32723041000000E+00 0.10000000000000E+01
 s    1 1.00
 0.10307241000000E+00 0.10000000000000E+01
 p    1 1.00
 0.80000000000000E+00 0.10000000000000E+01
 p    1 1.00
 0.95774129632000E-01 0.10000000000000E+01
 
    8 0
 s    3 1.00
 0.34061341000000E+02 0.25439307208879E-01
 0.51235746000000E+01 0.19008594890375E+00
 0.11646626000000E+01 0.85244113011042E+00
 s    1 1.00
 0.32723041000000E+00 0.10000000000000E+01
 s    1 1.00
 0.10307241000000E+00 0.10000000000000E+01
 p    1 1.00
 0.80000000000000E+00 0.10000000000000E+01
 p    1 1.00
 0.95774129632000E-01 0.10000000000000E+01
 
    9 0
 s    3 1.00
 0.34061341000000E+02 0.25439307208879E-01
 0.51235746000000E+01 0.19008594890375E+00
 0.11646626000000E+01 0.85244113011042E+00
 s    1 1.00
 0.32723041000000E+00 0.10000000000000E+01
 s    1 1.00
 0.10307241000000E+00 0.10000000000000E+01
 p    1 1.00
 0.80000000000000E+00 0.10000000000000E+01
 p    1 1.00
 0.95774129632000E-01 0.10000000000000E+01
 
   10 0
 s    3 1.00
 0.34061341000000E+02 0.25439307208879E-01
 0.51235746000000E+01 0.19008594890375E+00
 0.11646626000000E+01 0.85244113011042E+00
 s    1 1.00
 0.32723041000000E+00 0.10000000000000E+01
 s    1 1.00
 0.10307241000000E+00 0.10000000000000E+01
 p    1 1.00
 0.80000000000000E+00 0.10000000000000E+01
 p    1 1.00
 0.95774129632000E-01 0.10000000000000E+01
 
   11 0
 s    6 1.00
 0.19730800647000E+05 0.58626402628763E-03
 0.29578958745000E+04 0.45428820586397E-02
 0.67322133595000E+03 0.23558413450084E-01
 0.19068249494000E+03 0.94709193292923E-01
 0.62295441898000E+02 0.29719784913376E+00
 0.22654161182000E+02 0.66916246895232E+00
 s    2 1.00
 0.89791477428000E+01 0.64596683630063E+00
 0.36863002370000E+01 0.38700574393705E+00
 s    1 1.00
 0.84660076805000E+00 0.10000000000000E+01
 s    1 1.00
 0.33647133771000E+00 0.10000000000000E+01
 s    1 1.00
 0.13647653675000E+00 0.10000000000000E+01
 s    1 1.00
 0.68441605847000E-01 0.10000000000000E+01
 p    4 1.00
 0.49200380510000E+02 0.11448825101764E-01
 0.11346790537000E+02 0.78422337970864E-01
 0.34273972411000E+01 0.30818094738830E+00
 0.11785525134000E+01 0.72027196368413E+00
 p    1 1.00
 0.41642204972000E+00 0.10000000000000E+01
 p    1 1.00
 0.14260826011000E+00 0.10000000000000E+01
 d    1 1.00
 0.16540000000000E+01 0.10000000000000E+01
 d    1 1.00
 0.46900000000000E+00 0.10000000000000E+01
 d    1 1.00
 0.12829642058000E+00 0.10000000000000E+01
 f    1 1.00
 0.10930000000000E+01 0.10000000000000E+01
 
   12 0
 s    6 1.00
 0.27032382631000E+05 0.57227335211155E-03
 0.40523871392000E+04 0.44353233492995E-02
 0.92232722710000E+03 0.23020107706038E-01
 0.26124070989000E+03 0.92822490667928E-01
 0.85354641351000E+02 0.29378500009671E+00
 0.31035035245000E+02 0.67401604501641E+00
 s    2 1.00
 0.12260860728000E+02 0.63839937025506E+00
 0.49987076005000E+01 0.39534587125718E+00
 s    1 1.00
 0.11703108158000E+01 0.10000000000000E+01
 s    1 1.00
 0.46474740994000E+00 0.10000000000000E+01
 s    1 1.00
 0.18504536357000E+00 0.10000000000000E+01
 s    1 1.00
 0.70288026270000E-01 0.10000000000000E+01
 p    4 1.00
 0.63274954801000E+02 0.12018332222616E-01
 0.14627049379000E+02 0.83005421790056E-01
 0.44501223456000E+01 0.31991743925964E+00
 0.15275799647000E+01 0.70715542916104E+00
 p    1 1.00
 0.52935117943000E+00 0.10000000000000E+01
 p    1 1.00
 0.17478421270000E+00 0.10000000000000E+01
 p    1 1.00
 0.51112745706000E-01 0.10000000000000E+01
 d    1 1.00
 0.23140000000000E+01 0.10000000000000E+01
 d    1 1.00
 0.64500000000000E+00 0.10000000000000E+01
 d    1 1.00
 0.14696477366000E+00 0.10000000000000E+01
 f    1 1.00
 0.14280000000000E+01 0.10000000000000E+01
 
   13 0
 s    6 1.00
 0.27032382631000E+05 0.57227335211155E-03
 0.40523871392000E+04 0.44353233492995E-02
 0.92232722710000E+03 0.23020107706038E-01
 0.26124070989000E+03 0.92822490667928E-01
 0.85354641351000E+02 0.29378500009671E+00
 0.31035035245000E+02 0.67401604501641E+00
 s    2 1.00
 0.12260860728000E+02 0.63839937025506E+00
 0.49987076005000E+01 0.39534587125718E+00
 s    1 1.00
 0.11703108158000E+01 0.10000000000000E+01
 s    1 1.00
 0.46474740994000E+00 0.10000000000000E+01
 s    1 1.00
 0.18504536357000E+00 0.10000000000000E+01
 s    1 1.00
 0.70288026270000E-01 0.10000000000000E+01
 p    4 1.00
 0.63274954801000E+02 0.12018332222616E-01
 0.14627049379000E+02 0.83005421790056E-01
 0.44501223456000E+01 0.31991743925964E+00
 0.15275799647000E+01 0.70715542916104E+00
 p    1 1.00
 0.52935117943000E+00 0.10000000000000E+01
 p    1 1.00
 0.17478421270000E+00 0.10000000000000E+01
 p    1 1.00
 0.51112745706000E-01 0.10000000000000E+01
 d    1 1.00
 0.23140000000000E+01 0.10000000000000E+01
 d    1 1.00
 0.64500000000000E+00 0.10000000000000E+01
 d    1 1.00
 0.14696477366000E+00 0.10000000000000E+01
 f    1 1.00
 0.14280000000000E+01 0.10000000000000E+01
 
   14 0
 s    6 1.00
 0.19730800647000E+05 0.58626402628763E-03
 0.29578958745000E+04 0.45428820586397E-02
 0.67322133595000E+03 0.23558413450084E-01
 0.19068249494000E+03 0.94709193292923E-01
 0.62295441898000E+02 0.29719784913376E+00
 0.22654161182000E+02 0.66916246895232E+00
 s    2 1.00
 0.89791477428000E+01 0.64596683630063E+00
 0.36863002370000E+01 0.38700574393705E+00
 s    1 1.00
 0.84660076805000E+00 0.10000000000000E+01
 s    1 1.00
 0.33647133771000E+00 0.10000000000000E+01
 s    1 1.00
 0.13647653675000E+00 0.10000000000000E+01
 s    1 1.00
 0.68441605847000E-01 0.10000000000000E+01
 p    4 1.00
 0.49200380510000E+02 0.11448825101764E-01
 0.11346790537000E+02 0.78422337970864E-01
 0.34273972411000E+01 0.30818094738830E+00
 0.11785525134000E+01 0.72027196368413E+00
 p    1 1.00
 0.41642204972000E+00 0.10000000000000E+01
 p    1 1.00
 0.14260826011000E+00 0.10000000000000E+01
 d    1 1.00
 0.16540000000000E+01 0.10000000000000E+01
 d    1 1.00
 0.46900000000000E+00 0.10000000000000E+01
 d    1 1.00
 0.12829642058000E+00 0.10000000000000E+01
 f    1 1.00
 0.10930000000000E+01 0.10000000000000E+01
 
   15 0
 s    3 1.00
 0.34061341000000E+02 0.25439307208879E-01
 0.51235746000000E+01 0.19008594890375E+00
 0.11646626000000E+01 0.85244113011042E+00
 s    1 1.00
 0.32723041000000E+00 0.10000000000000E+01
 s    1 1.00
 0.10307241000000E+00 0.10000000000000E+01
 p    1 1.00
 0.80000000000000E+00 0.10000000000000E+01
 p    1 1.00
 0.95774129632000E-01 0.10000000000000E+01
 
   16 0
 s    3 1.00
 0.34061341000000E+02 0.25439307208879E-01
 0.51235746000000E+01 0.19008594890375E+00
 0.11646626000000E+01 0.85244113011042E+00
 s    1 1.00
 0.32723041000000E+00 0.10000000000000E+01
 s    1 1.00
 0.10307241000000E+00 0.10000000000000E+01
 p    1 1.00
 0.80000000000000E+00 0.10000000000000E+01
 p    1 1.00
 0.95774129632000E-01 0.10000000000000E+01
 
[MO]
 Sym= X
 Ene= -0.276183
 Spin= Alpha
 Occup= -0.276183
         1   -3.009368E-05
         2   -6.888813E-05
         3    1.847343E-04
         4   -3.288368E-04
         5   -1.020986E-02
         6   -6.902795E-04
         7   -1.414106E-04
         8   -1.885563E-04
         9   -1.889976E-01
        10   -7.962515E-04
        11   -6.639202E-07
        12   -1.895977E-01
        13    4.418077E-03
        14   -6.738245E-03
        15   -1.109799E-01
        16   -9.122551E-06
        17    3.497995E-06
        18    5.624556E-06
        19    6.122140E-07
        20   -4.970193E-03
        21   -5.539376E-04
        22   -1.458267E-04
        23    9.547627E-05
        24    5.035047E-05
        25    1.490199E-05
        26   -9.551743E-03
        27    4.086716E-04
        28    9.350970E-04
        29   -1.063513E-03
        30    1.284162E-04
        31    5.315376E-04
        32   -3.282776E-03
        33    1.045415E-04
        34   -5.777986E-06
        35   -7.572674E-07
        36    1.176313E-03
        37    1.395079E-06
        38   -1.481622E-08
        39   -1.420768E-03
        40    6.356902E-06
        41    1.030797E-06
        42   -1.574216E-04
        43   -5.595043E-07
        44    4.368692E-08
        45    2.283018E-07
        46   -8.121929E-06
        47    3.050410E-05
        48    2.609953E-03
        49    1.843846E-04
        50   -1.764061E-06
        51    1.043071E-04
        52   -7.268139E-06
        53    1.850329E-05
        54    3.243835E-04
        55   -2.511588E-06
        56    1.166373E-03
        57   -1.061444E-02
        58    4.195655E-06
        59   -1.096236E-07
        60    2.209476E-07
        61   -1.113240E-07
        62    1.067126E-05
        63   -9.502558E-08
        64    7.120708E-03
        65   -2.003152E-06
        66    7.826906E-06
        67   -5.823754E-06
        68    1.114287E-04
        69    1.399075E-06
        70    1.609812E-02
        71    6.057653E-05
        72   -5.814085E-06
        73   -5.476245E-05
        74   -1.458545E-03
        75    2.994998E-06
        76    2.093140E-03
        77   -6.359961E-08
        78    2.269203E-07
        79   -2.711056E-08
        80    1.925633E-07
        81    2.083108E-06
        82    1.398338E-08
        83   -1.072354E-07
        84   -2.387553E-06
        85    2.238926E-08
        86    1.018888E-03
        87    2.924832E-05
        88    6.685136E-05
        89   -1.629251E-04
        90    2.439397E-04
        91    5.195172E-03
        92    4.172397E-04
        93    1.395098E-04
        94   -1.841552E-04
        95    1.889945E-01
        96    7.238337E-04
        97    4.182569E-05
        98    1.895930E-01
        99   -5.814971E-03
       100   -4.546593E-03
       101    1.109032E-01
       102    9.059859E-06
       103   -3.293984E-06
       104   -5.765875E-06
       105    2.593717E-07
       106    4.970990E-03
       107   -5.537995E-04
       108    1.254125E-04
       109   -8.894570E-05
       110   -3.646678E-05
       111    3.823436E-06
       112    9.553417E-03
       113    4.113384E-04
       114   -8.962061E-04
       115    9.299615E-04
       116   -3.375544E-05
       117    6.655977E-04
       118    3.268338E-03
       119    1.144124E-04
       120    5.127070E-06
       121   -5.481936E-07
       122   -1.176357E-03
       123   -9.578055E-07
       124    1.306890E-07
       125    1.420948E-03
       126   -5.920881E-06
       127    6.047899E-07
       128    1.573006E-04
       129   -7.027024E-07
       130   -1.364864E-05
       131   -3.300909E-05
       132    1.637361E-04
       133   -9.524195E-04
       134   -1.051324E-02
       135   -4.227120E-04
       136    2.130325E-04
       137    4.899417E-05
       138    2.008320E-01
       139    5.305542E-04
       140    1.766245E-04
       141    2.035929E-01
       142   -7.413588E-03
       143    7.463060E-03
       144    1.307680E-01
       145   -1.631157E-05
       146   -3.576280E-06
       147    1.988785E-05
       148    7.266605E-06
       149   -4.651423E-03
       150   -4.872504E-04
       151   -1.918296E-04
       152    6.038403E-05
       153    1.314456E-04
       154    8.841778E-05
       155   -8.256566E-03
       156   -6.333419E-04
       157    1.771766E-04
       158   -4.381364E-04
       159    2.609598E-04
       160    1.287767E-03
       161    1.159414E-03
       162   -2.895112E-03
       163    6.784324E-06
       164    1.251530E-06
       165   -1.317852E-03
       166   -4.256262E-06
       167    8.179092E-07
       168    1.467065E-03
       169   -4.845864E-06
       170   -2.497013E-06
       171    3.010186E-04
       172   -4.655495E-05
       173    1.617838E-07
       174    2.025523E-07
       175    9.200326E-06
       176   -2.472914E-05
       177   -3.186428E-03
       178   -2.368814E-04
       179   -1.286153E-06
       180   -1.580348E-04
       181    6.952421E-06
       182    2.409448E-05
       183   -1.092500E-04
       184    3.529940E-06
       185    1.195137E-03
       186    1.860910E-02
       187    6.058491E-07
       188    3.597561E-07
       189   -1.403803E-07
       190   -2.193758E-07
       191   -2.528672E-05
       192   -9.581530E-07
       193    7.552029E-03
       194    4.663197E-07
       195   -9.900395E-06
       196    9.434075E-06
       197   -9.362954E-05
       198   -7.726248E-07
       199    1.579313E-02
       200   -5.710998E-05
       201   -1.939806E-05
       202    7.650804E-05
       203   -2.384026E-03
       204    6.565468E-07
       205   -4.817160E-03
       206   -9.328646E-08
       207    5.148138E-06
       208    2.092272E-08
       209    3.305908E-07
       210   -5.131093E-06
       211   -1.271300E-07
       212   -2.054339E-07
       213   -1.775859E-06
       214    9.905924E-08
       215   -1.185586E-03
       216    1.446092E-05
       217    3.497492E-05
       218   -1.885064E-04
       219    1.053390E-03
       220    1.598835E-02
       221    7.212547E-04
       222   -2.163647E-04
       223    5.156256E-05
       224   -2.008091E-01
       225   -5.968239E-04
       226    2.255534E-04
       227   -2.035691E-01
       228    6.232588E-03
       229    9.821349E-03
       230   -1.306754E-01
       231    1.638686E-05
       232    3.163242E-06
       233   -1.955010E-05
       234    7.763604E-06
       235    4.651753E-03
       236   -4.869923E-04
       237    2.122362E-04
       238   -6.386368E-05
       239   -1.483725E-04
       240    1.001161E-04
       241    8.256964E-03
       242   -6.307409E-04
       243   -1.962912E-04
       244    5.579976E-04
       245   -3.617064E-04
       246    1.172954E-03
       247   -1.172205E-03
       248   -2.890658E-03
       249   -7.470650E-06
       250    1.532253E-06
       251    1.317726E-03
       252    4.852866E-06
       253    9.168942E-07
       254   -1.467083E-03
       255    5.170063E-06
       256   -2.972628E-06
       257   -3.008322E-04
       258   -4.646115E-05
       259    3.418384E-05
       260    3.027279E-05
       261   -8.931161E-04
       262   -1.159337E-05
       263   -1.425331E-06
       264   -7.749421E-03
       265    5.060272E-05
       266   -3.443302E-04
       267   -7.262754E-03
       268   -3.038690E-05
       269   -4.833060E-05
       270    2.448854E-04
       271    1.095891E-05
       272    5.317468E-07
       273    7.749144E-03
       274   -1.043859E-04
       275   -1.534628E-04
       276    7.255955E-03
       277   -2.237985E-05
       278   -7.293166E-05
       279   -2.208038E-03
       280    2.465221E-05
       281    1.127572E-05
       282    8.668700E-03
       283    4.282444E-04
       284    1.149717E-04
       285    9.680153E-03
       286    1.781661E-05
       287    8.093331E-05
       288    2.903355E-03
       289   -2.524196E-05
       290    1.263884E-05
       291   -8.667701E-03
       292   -5.131463E-04
       293    3.087172E-04
       294   -9.680140E-03
       295    5.352727E-08
       296    1.745143E-07
       297   -9.077929E-07
       298    6.231631E-06
       299    6.863991E-05
       300   -1.190348E-04
       301   -5.295643E-07
       302   -1.162236E-05
       303    3.546710E-07
       304    2.410706E-06
       305    1.325170E-05
       306   -1.922908E-07
       307    2.151229E-05
       308    4.052039E-04
       309    1.226445E-06
       310    4.618374E-08
       311   -1.908060E-08
       312   -2.710314E-08
       313   -9.910408E-07
       314   -1.383611E-07
       315   -6.404269E-04
       316    4.427582E-07
       317   -6.392575E-07
       318    1.964994E-07
       319    1.216416E-05
       320   -3.844591E-07
       321   -1.482193E-03
       322   -4.420623E-06
       323   -8.499835E-06
       324    1.292046E-05
       325    1.798044E-04
       326    1.984212E-06
       327   -2.032188E-03
       328    1.101026E-09
       329   -7.745275E-07
       330   -4.997768E-09
       331   -6.634639E-09
       332    2.249624E-06
       333   -1.771630E-08
       334    5.157458E-09
       335   -1.210486E-06
       336    2.442151E-08
       337    2.773360E-04
       338    7.997875E-07
       339    2.063750E-06
       340   -4.748087E-06
       341    1.268757E-05
       342   -5.833075E-05
       343   -8.057904E-07
       344   -9.840498E-05
       345   -6.024464E-06
       346   -2.398583E-02
       347   -8.575529E-05
       348   -2.926987E-06
       349   -2.255745E-02
       350   -1.926565E-04
       351   -2.870458E-05
       352   -1.575401E-02
       353   -2.981197E-05
       354   -2.067809E-05
       355    1.282782E-05
       356    6.164540E-08
       357   -1.568368E-07
       358    9.519138E-08
       359    5.389213E-07
       360   -4.715229E-05
       361    1.803178E-04
       362   -3.186023E-06
       363    7.725431E-07
       364    2.413480E-06
       365    4.259885E-06
       366   -1.985932E-04
       367    7.729386E-04
       368   -1.308873E-05
       369    2.115753E-05
       370   -8.068796E-06
       371    1.414352E-05
       372    3.119311E-04
       373   -2.938181E-04
       374    1.828752E-07
       375   -9.767522E-08
       376    2.005793E-05
       377   -2.792334E-07
       378    4.749948E-07
       379    2.720837E-05
       380    3.388059E-08
       381   -3.439498E-07
       382   -5.411891E-05
       383    6.207783E-05
       384   -6.653884E-07
       385   -1.753253E-06
       386    4.498756E-06
       387   -1.537230E-05
       388    1.083489E-04
       389    5.876864E-05
       390    9.566659E-05
       391   -5.226487E-06
       392    2.399065E-02
       393    8.485424E-05
       394   -1.518278E-06
       395    2.256156E-02
       396    1.946969E-04
       397   -1.620596E-05
       398    1.575925E-02
       399    3.528365E-05
       400   -1.465714E-05
       401   -1.265919E-05
       402   -5.158856E-08
       403    1.702345E-07
       404   -1.186459E-07
       405    4.792885E-07
       406    4.716212E-05
       407    1.803643E-04
       408    3.026919E-06
       409   -6.855147E-07
       410   -2.341404E-06
       411    4.469843E-06
       412    1.986403E-04
       413    7.730956E-04
       414    1.284082E-05
       415   -1.953925E-05
       416    6.698432E-06
       417    1.295203E-05
       418   -3.125016E-04
       419   -2.928691E-04
       420   -1.908218E-07
       421   -8.555713E-08
       422   -2.006714E-05
       423    2.720808E-07
       424    4.662187E-07
       425   -2.721537E-05
       426   -1.606647E-08
       427   -3.514317E-07
       428    5.413826E-05
       429    6.209153E-05
       430   -8.511259E-07
       431   -2.094041E-06
       432    4.153478E-06
       433   -5.783130E-06
       434   -8.343259E-06
       435    8.291286E-05
       436    4.752985E-07
       437   -1.101080E-03
       438   -2.380316E-05
       439    4.285324E-06
       440   -1.358064E-03
       441   -2.365515E-05
       442   -4.250523E-05
       443   -1.651388E-03
       444   -1.997937E-05
       445    5.081932E-08
       446   -6.176125E-08
       447    1.094193E-08
       448    2.189510E-05
       449   -5.307502E-08
       450    3.010581E-04
       451   -2.710441E-08
       452    8.907817E-07
       453   -8.636773E-07
       454   -3.177068E-05
       455    7.828212E-08
       456    6.434154E-04
       457    1.382986E-05
       458   -3.854959E-06
       459   -9.974904E-06
       460   -4.304631E-04
       461   -3.931880E-07
       462   -7.954442E-04
       463    1.990689E-08
       464   -4.632894E-06
       465    8.912005E-08
       466   -9.848009E-09
       467   -1.688876E-05
       468   -7.269453E-08
       469   -1.685989E-08
       470    2.310444E-05
       471   -4.687257E-08
       472   -1.333107E-04
       473    7.162353E-05
       474    5.398563E-04
       475    3.023239E-03
       476   -7.486731E-05
       477   -7.361591E-05
       478    3.691785E-04
       479   -1.724924E-04
       480   -6.696773E-04
       481    1.815452E-03
       482   -7.407158E-05
       483   -5.480594E-04
       484   -3.011205E-03
       485    7.605699E-05
       486   -7.441679E-05
       487   -3.713564E-04
       488    1.560733E-04
       489   -6.758932E-04
       490   -1.815604E-03
 Sym= X
 Ene= -0.676980
 Spin= Alpha
 Occup= -0.676980
         1   -1.526059E-04
         2   -3.572925E-04
         3    1.124028E-03
         4   -3.095940E-03
         5   -2.923951E-03
         6   -1.145528E-02
         7    1.339225E-03
         8    1.545340E-04
         9    3.702937E-02
        10   -2.795708E-03
        11    3.694960E-04
        12    3.510003E-02
        13   -3.507832E-02
        14    1.281736E-02
        15    1.237776E-02
        16   -8.981770E-06
        17   -5.630823E-06
        18    1.461259E-05
        19   -4.593973E-06
        20   -6.437381E-03
        21    4.194129E-03
        22   -7.022180E-04
        23    4.139446E-04
        24    2.882735E-04
        25   -6.897473E-04
        26   -1.455030E-02
        27    7.842878E-03
        28   -4.999940E-03
        29    4.751721E-03
        30    2.482188E-04
        31    1.059594E-03
        32    1.619977E-03
        33   -9.054509E-03
        34   -2.220393E-05
        35    5.635613E-06
        36   -1.895760E-04
        37    1.014057E-05
        38   -5.271222E-06
        39   -6.741171E-04
        40    1.964913E-05
        41   -2.289747E-06
        42    9.284599E-04
        43   -7.433984E-04
        44    2.559813E-05
        45    5.610344E-05
        46    1.190203E-04
        47   -2.670469E-03
        48   -5.715881E-02
        49    5.077500E-03
        50    4.698251E-04
        51    1.854945E-06
        52    2.196651E-01
        53   -3.187859E-04
        54    1.753839E-05
        55    2.273998E-01
        56   -1.697354E-02
        57   -4.931772E-04
        58    2.018352E-01
        59    2.991622E-05
        60   -2.711281E-05
        61   -2.803408E-06
        62    1.036179E-07