[Molden Format]
[Title]
ADC(2) - opt by CAM-B3LYP gaussian                                              
[Atoms] AU
 c     1    6 -.12590385386216E+01 -.22819701624009E+01 -.30156123253150E-01
 c     2    6 -.25547233845863E+01 -.83266058000000E-06 -.28792213416740E-01
 c     3    6 -.12590428849917E+01 0.22819669475044E+01 -.30169993842970E-01
 c     4    6 0.13339759331395E+01 0.22828246941961E+01 -.32722654800530E-01
 c     5    6 0.26864234278208E+01 0.32869423900000E-05 -.32794180934660E-01
 c     6    6 0.13339778039684E+01 -.22828226745513E+01 -.32706516539360E-01
 h     7    1 -.23005849451053E+01 -.40353719055945E+01 -.27139024303910E-01
 h     8    1 -.23005903875166E+01 0.40353685773143E+01 -.27164403325880E-01
 h     9    1 0.23527432406667E+01 0.40554759247724E+01 -.35914685697900E-01
 h    10    1 0.23527525948111E+01 -.40554698422164E+01 -.35883032785170E-01
 n    11    7 -.52784595104117E+01 -.53030440000000E-06 -.22539903328000E-01
 o    12    8 -.63796877956448E+01 0.20272212823250E+01 -.19883023974210E-01
 o    13    8 -.63796922742957E+01 -.20272201130570E+01 -.19923067270970E-01
 n    14    7 0.52516126460355E+01 -.32243452000000E-06 -.88209511610250E-01
 h    15    1 0.62001707317805E+01 0.16133662892433E+01 0.23199721167530E+00
 h    16    1 0.62001633429513E+01 -.16133706190784E+01 0.23200112340840E+00
[GTO]
    1 0
 s    6 1.00
 0.13575349682000E+05 0.60645503603591E-03
 0.20352333680000E+04 0.46979088884982E-02
 0.46322562359000E+03 0.24332477647552E-01
 0.13120019598000E+03 0.97399968307759E-01
 0.42853015891000E+02 0.30195584253780E+00
 0.15584185766000E+02 0.66233609137875E+00
 s    2 1.00
 0.62067138508000E+01 0.65595308539952E+00
 0.25764896527000E+01 0.37585633285142E+00
 s    1 1.00
 0.57696339419000E+00 0.10000000000000E+01
 s    1 1.00
 0.22972831358000E+00 0.10000000000000E+01
 s    1 1.00
 0.95164440028000E-01 0.10000000000000E+01
 s    1 1.00
 0.48475401370000E-01 0.10000000000000E+01
 p    4 1.00
 0.34697232244000E+02 0.11327220003114E-01
 0.79582622826000E+01 0.76169659202087E-01
 0.23780826883000E+01 0.30192252202676E+00
 0.81433208183000E+00 0.72785027349547E+00
 p    1 1.00
 0.28887547253000E+00 0.10000000000000E+01
 p    1 1.00
 0.10056823671000E+00 0.10000000000000E+01
 d    1 1.00
 0.10970000000000E+01 0.10000000000000E+01
 d    1 1.00
 0.31800000000000E+00 0.10000000000000E+01
 d    1 1.00
 0.90985336424000E-01 0.10000000000000E+01
 f    1 1.00
 0.76100000000000E+00 0.10000000000000E+01
 
    2 0
 s    6 1.00
 0.13575349682000E+05 0.60645503603591E-03
 0.20352333680000E+04 0.46979088884982E-02
 0.46322562359000E+03 0.24332477647552E-01
 0.13120019598000E+03 0.97399968307759E-01
 0.42853015891000E+02 0.30195584253780E+00
 0.15584185766000E+02 0.66233609137875E+00
 s    2 1.00
 0.62067138508000E+01 0.65595308539952E+00
 0.25764896527000E+01 0.37585633285142E+00
 s    1 1.00
 0.57696339419000E+00 0.10000000000000E+01
 s    1 1.00
 0.22972831358000E+00 0.10000000000000E+01
 s    1 1.00
 0.95164440028000E-01 0.10000000000000E+01
 s    1 1.00
 0.48475401370000E-01 0.10000000000000E+01
 p    4 1.00
 0.34697232244000E+02 0.11327220003114E-01
 0.79582622826000E+01 0.76169659202087E-01
 0.23780826883000E+01 0.30192252202676E+00
 0.81433208183000E+00 0.72785027349547E+00
 p    1 1.00
 0.28887547253000E+00 0.10000000000000E+01
 p    1 1.00
 0.10056823671000E+00 0.10000000000000E+01
 d    1 1.00
 0.10970000000000E+01 0.10000000000000E+01
 d    1 1.00
 0.31800000000000E+00 0.10000000000000E+01
 d    1 1.00
 0.90985336424000E-01 0.10000000000000E+01
 f    1 1.00
 0.76100000000000E+00 0.10000000000000E+01
 
    3 0
 s    6 1.00
 0.13575349682000E+05 0.60645503603591E-03
 0.20352333680000E+04 0.46979088884982E-02
 0.46322562359000E+03 0.24332477647552E-01
 0.13120019598000E+03 0.97399968307759E-01
 0.42853015891000E+02 0.30195584253780E+00
 0.15584185766000E+02 0.66233609137875E+00
 s    2 1.00
 0.62067138508000E+01 0.65595308539952E+00
 0.25764896527000E+01 0.37585633285142E+00
 s    1 1.00
 0.57696339419000E+00 0.10000000000000E+01
 s    1 1.00
 0.22972831358000E+00 0.10000000000000E+01
 s    1 1.00
 0.95164440028000E-01 0.10000000000000E+01
 s    1 1.00
 0.48475401370000E-01 0.10000000000000E+01
 p    4 1.00
 0.34697232244000E+02 0.11327220003114E-01
 0.79582622826000E+01 0.76169659202087E-01
 0.23780826883000E+01 0.30192252202676E+00
 0.81433208183000E+00 0.72785027349547E+00
 p    1 1.00
 0.28887547253000E+00 0.10000000000000E+01
 p    1 1.00
 0.10056823671000E+00 0.10000000000000E+01
 d    1 1.00
 0.10970000000000E+01 0.10000000000000E+01
 d    1 1.00
 0.31800000000000E+00 0.10000000000000E+01
 d    1 1.00
 0.90985336424000E-01 0.10000000000000E+01
 f    1 1.00
 0.76100000000000E+00 0.10000000000000E+01
 
    4 0
 s    6 1.00
 0.13575349682000E+05 0.60645503603591E-03
 0.20352333680000E+04 0.46979088884982E-02
 0.46322562359000E+03 0.24332477647552E-01
 0.13120019598000E+03 0.97399968307759E-01
 0.42853015891000E+02 0.30195584253780E+00
 0.15584185766000E+02 0.66233609137875E+00
 s    2 1.00
 0.62067138508000E+01 0.65595308539952E+00
 0.25764896527000E+01 0.37585633285142E+00
 s    1 1.00
 0.57696339419000E+00 0.10000000000000E+01
 s    1 1.00
 0.22972831358000E+00 0.10000000000000E+01
 s    1 1.00
 0.95164440028000E-01 0.10000000000000E+01
 s    1 1.00
 0.48475401370000E-01 0.10000000000000E+01
 p    4 1.00
 0.34697232244000E+02 0.11327220003114E-01
 0.79582622826000E+01 0.76169659202087E-01
 0.23780826883000E+01 0.30192252202676E+00
 0.81433208183000E+00 0.72785027349547E+00
 p    1 1.00
 0.28887547253000E+00 0.10000000000000E+01
 p    1 1.00
 0.10056823671000E+00 0.10000000000000E+01
 d    1 1.00
 0.10970000000000E+01 0.10000000000000E+01
 d    1 1.00
 0.31800000000000E+00 0.10000000000000E+01
 d    1 1.00
 0.90985336424000E-01 0.10000000000000E+01
 f    1 1.00
 0.76100000000000E+00 0.10000000000000E+01
 
    5 0
 s    6 1.00
 0.13575349682000E+05 0.60645503603591E-03
 0.20352333680000E+04 0.46979088884982E-02
 0.46322562359000E+03 0.24332477647552E-01
 0.13120019598000E+03 0.97399968307759E-01
 0.42853015891000E+02 0.30195584253780E+00
 0.15584185766000E+02 0.66233609137875E+00
 s    2 1.00
 0.62067138508000E+01 0.65595308539952E+00
 0.25764896527000E+01 0.37585633285142E+00
 s    1 1.00
 0.57696339419000E+00 0.10000000000000E+01
 s    1 1.00
 0.22972831358000E+00 0.10000000000000E+01
 s    1 1.00
 0.95164440028000E-01 0.10000000000000E+01
 s    1 1.00
 0.48475401370000E-01 0.10000000000000E+01
 p    4 1.00
 0.34697232244000E+02 0.11327220003114E-01
 0.79582622826000E+01 0.76169659202087E-01
 0.23780826883000E+01 0.30192252202676E+00
 0.81433208183000E+00 0.72785027349547E+00
 p    1 1.00
 0.28887547253000E+00 0.10000000000000E+01
 p    1 1.00
 0.10056823671000E+00 0.10000000000000E+01
 d    1 1.00
 0.10970000000000E+01 0.10000000000000E+01
 d    1 1.00
 0.31800000000000E+00 0.10000000000000E+01
 d    1 1.00
 0.90985336424000E-01 0.10000000000000E+01
 f    1 1.00
 0.76100000000000E+00 0.10000000000000E+01
 
    6 0
 s    6 1.00
 0.13575349682000E+05 0.60645503603591E-03
 0.20352333680000E+04 0.46979088884982E-02
 0.46322562359000E+03 0.24332477647552E-01
 0.13120019598000E+03 0.97399968307759E-01
 0.42853015891000E+02 0.30195584253780E+00
 0.15584185766000E+02 0.66233609137875E+00
 s    2 1.00
 0.62067138508000E+01 0.65595308539952E+00
 0.25764896527000E+01 0.37585633285142E+00
 s    1 1.00
 0.57696339419000E+00 0.10000000000000E+01
 s    1 1.00
 0.22972831358000E+00 0.10000000000000E+01
 s    1 1.00
 0.95164440028000E-01 0.10000000000000E+01
 s    1 1.00
 0.48475401370000E-01 0.10000000000000E+01
 p    4 1.00
 0.34697232244000E+02 0.11327220003114E-01
 0.79582622826000E+01 0.76169659202087E-01
 0.23780826883000E+01 0.30192252202676E+00
 0.81433208183000E+00 0.72785027349547E+00
 p    1 1.00
 0.28887547253000E+00 0.10000000000000E+01
 p    1 1.00
 0.10056823671000E+00 0.10000000000000E+01
 d    1 1.00
 0.10970000000000E+01 0.10000000000000E+01
 d    1 1.00
 0.31800000000000E+00 0.10000000000000E+01
 d    1 1.00
 0.90985336424000E-01 0.10000000000000E+01
 f    1 1.00
 0.76100000000000E+00 0.10000000000000E+01
 
    7 0
 s    3 1.00
 0.34061341000000E+02 0.25439307208879E-01
 0.51235746000000E+01 0.19008594890375E+00
 0.11646626000000E+01 0.85244113011042E+00
 s    1 1.00
 0.32723041000000E+00 0.10000000000000E+01
 s    1 1.00
 0.10307241000000E+00 0.10000000000000E+01
 p    1 1.00
 0.80000000000000E+00 0.10000000000000E+01
 p    1 1.00
 0.95774129632000E-01 0.10000000000000E+01
 
    8 0
 s    3 1.00
 0.34061341000000E+02 0.25439307208879E-01
 0.51235746000000E+01 0.19008594890375E+00
 0.11646626000000E+01 0.85244113011042E+00
 s    1 1.00
 0.32723041000000E+00 0.10000000000000E+01
 s    1 1.00
 0.10307241000000E+00 0.10000000000000E+01
 p    1 1.00
 0.80000000000000E+00 0.10000000000000E+01
 p    1 1.00
 0.95774129632000E-01 0.10000000000000E+01
 
    9 0
 s    3 1.00
 0.34061341000000E+02 0.25439307208879E-01
 0.51235746000000E+01 0.19008594890375E+00
 0.11646626000000E+01 0.85244113011042E+00
 s    1 1.00
 0.32723041000000E+00 0.10000000000000E+01
 s    1 1.00
 0.10307241000000E+00 0.10000000000000E+01
 p    1 1.00
 0.80000000000000E+00 0.10000000000000E+01
 p    1 1.00
 0.95774129632000E-01 0.10000000000000E+01
 
   10 0
 s    3 1.00
 0.34061341000000E+02 0.25439307208879E-01
 0.51235746000000E+01 0.19008594890375E+00
 0.11646626000000E+01 0.85244113011042E+00
 s    1 1.00
 0.32723041000000E+00 0.10000000000000E+01
 s    1 1.00
 0.10307241000000E+00 0.10000000000000E+01
 p    1 1.00
 0.80000000000000E+00 0.10000000000000E+01
 p    1 1.00
 0.95774129632000E-01 0.10000000000000E+01
 
   11 0
 s    6 1.00
 0.19730800647000E+05 0.58626402628763E-03
 0.29578958745000E+04 0.45428820586397E-02
 0.67322133595000E+03 0.23558413450084E-01
 0.19068249494000E+03 0.94709193292923E-01
 0.62295441898000E+02 0.29719784913376E+00
 0.22654161182000E+02 0.66916246895232E+00
 s    2 1.00
 0.89791477428000E+01 0.64596683630063E+00
 0.36863002370000E+01 0.38700574393705E+00
 s    1 1.00
 0.84660076805000E+00 0.10000000000000E+01
 s    1 1.00
 0.33647133771000E+00 0.10000000000000E+01
 s    1 1.00
 0.13647653675000E+00 0.10000000000000E+01
 s    1 1.00
 0.68441605847000E-01 0.10000000000000E+01
 p    4 1.00
 0.49200380510000E+02 0.11448825101764E-01
 0.11346790537000E+02 0.78422337970864E-01
 0.34273972411000E+01 0.30818094738830E+00
 0.11785525134000E+01 0.72027196368413E+00
 p    1 1.00
 0.41642204972000E+00 0.10000000000000E+01
 p    1 1.00
 0.14260826011000E+00 0.10000000000000E+01
 d    1 1.00
 0.16540000000000E+01 0.10000000000000E+01
 d    1 1.00
 0.46900000000000E+00 0.10000000000000E+01
 d    1 1.00
 0.12829642058000E+00 0.10000000000000E+01
 f    1 1.00
 0.10930000000000E+01 0.10000000000000E+01
 
   12 0
 s    6 1.00
 0.27032382631000E+05 0.57227335211155E-03
 0.40523871392000E+04 0.44353233492995E-02
 0.92232722710000E+03 0.23020107706038E-01
 0.26124070989000E+03 0.92822490667928E-01
 0.85354641351000E+02 0.29378500009671E+00
 0.31035035245000E+02 0.67401604501641E+00
 s    2 1.00
 0.12260860728000E+02 0.63839937025506E+00
 0.49987076005000E+01 0.39534587125718E+00
 s    1 1.00
 0.11703108158000E+01 0.10000000000000E+01
 s    1 1.00
 0.46474740994000E+00 0.10000000000000E+01
 s    1 1.00
 0.18504536357000E+00 0.10000000000000E+01
 s    1 1.00
 0.70288026270000E-01 0.10000000000000E+01
 p    4 1.00
 0.63274954801000E+02 0.12018332222616E-01
 0.14627049379000E+02 0.83005421790056E-01
 0.44501223456000E+01 0.31991743925964E+00
 0.15275799647000E+01 0.70715542916104E+00
 p    1 1.00
 0.52935117943000E+00 0.10000000000000E+01
 p    1 1.00
 0.17478421270000E+00 0.10000000000000E+01
 p    1 1.00
 0.51112745706000E-01 0.10000000000000E+01
 d    1 1.00
 0.23140000000000E+01 0.10000000000000E+01
 d    1 1.00
 0.64500000000000E+00 0.10000000000000E+01
 d    1 1.00
 0.14696477366000E+00 0.10000000000000E+01
 f    1 1.00
 0.14280000000000E+01 0.10000000000000E+01
 
   13 0
 s    6 1.00
 0.27032382631000E+05 0.57227335211155E-03
 0.40523871392000E+04 0.44353233492995E-02
 0.92232722710000E+03 0.23020107706038E-01
 0.26124070989000E+03 0.92822490667928E-01
 0.85354641351000E+02 0.29378500009671E+00
 0.31035035245000E+02 0.67401604501641E+00
 s    2 1.00
 0.12260860728000E+02 0.63839937025506E+00
 0.49987076005000E+01 0.39534587125718E+00
 s    1 1.00
 0.11703108158000E+01 0.10000000000000E+01
 s    1 1.00
 0.46474740994000E+00 0.10000000000000E+01
 s    1 1.00
 0.18504536357000E+00 0.10000000000000E+01
 s    1 1.00
 0.70288026270000E-01 0.10000000000000E+01
 p    4 1.00
 0.63274954801000E+02 0.12018332222616E-01
 0.14627049379000E+02 0.83005421790056E-01
 0.44501223456000E+01 0.31991743925964E+00
 0.15275799647000E+01 0.70715542916104E+00
 p    1 1.00
 0.52935117943000E+00 0.10000000000000E+01
 p    1 1.00
 0.17478421270000E+00 0.10000000000000E+01
 p    1 1.00
 0.51112745706000E-01 0.10000000000000E+01
 d    1 1.00
 0.23140000000000E+01 0.10000000000000E+01
 d    1 1.00
 0.64500000000000E+00 0.10000000000000E+01
 d    1 1.00
 0.14696477366000E+00 0.10000000000000E+01
 f    1 1.00
 0.14280000000000E+01 0.10000000000000E+01
 
   14 0
 s    6 1.00
 0.19730800647000E+05 0.58626402628763E-03
 0.29578958745000E+04 0.45428820586397E-02
 0.67322133595000E+03 0.23558413450084E-01
 0.19068249494000E+03 0.94709193292923E-01
 0.62295441898000E+02 0.29719784913376E+00
 0.22654161182000E+02 0.66916246895232E+00
 s    2 1.00
 0.89791477428000E+01 0.64596683630063E+00
 0.36863002370000E+01 0.38700574393705E+00
 s    1 1.00
 0.84660076805000E+00 0.10000000000000E+01
 s    1 1.00
 0.33647133771000E+00 0.10000000000000E+01
 s    1 1.00
 0.13647653675000E+00 0.10000000000000E+01
 s    1 1.00
 0.68441605847000E-01 0.10000000000000E+01
 p    4 1.00
 0.49200380510000E+02 0.11448825101764E-01
 0.11346790537000E+02 0.78422337970864E-01
 0.34273972411000E+01 0.30818094738830E+00
 0.11785525134000E+01 0.72027196368413E+00
 p    1 1.00
 0.41642204972000E+00 0.10000000000000E+01
 p    1 1.00
 0.14260826011000E+00 0.10000000000000E+01
 d    1 1.00
 0.16540000000000E+01 0.10000000000000E+01
 d    1 1.00
 0.46900000000000E+00 0.10000000000000E+01
 d    1 1.00
 0.12829642058000E+00 0.10000000000000E+01
 f    1 1.00
 0.10930000000000E+01 0.10000000000000E+01
 
   15 0
 s    3 1.00
 0.34061341000000E+02 0.25439307208879E-01
 0.51235746000000E+01 0.19008594890375E+00
 0.11646626000000E+01 0.85244113011042E+00
 s    1 1.00
 0.32723041000000E+00 0.10000000000000E+01
 s    1 1.00
 0.10307241000000E+00 0.10000000000000E+01
 p    1 1.00
 0.80000000000000E+00 0.10000000000000E+01
 p    1 1.00
 0.95774129632000E-01 0.10000000000000E+01
 
   16 0
 s    3 1.00
 0.34061341000000E+02 0.25439307208879E-01
 0.51235746000000E+01 0.19008594890375E+00
 0.11646626000000E+01 0.85244113011042E+00
 s    1 1.00
 0.32723041000000E+00 0.10000000000000E+01
 s    1 1.00
 0.10307241000000E+00 0.10000000000000E+01
 p    1 1.00
 0.80000000000000E+00 0.10000000000000E+01
 p    1 1.00
 0.95774129632000E-01 0.10000000000000E+01
 
[MO]
 Sym= X
 Ene= -0.064818
 Spin= Alpha
 Occup= -0.064818
         1   -3.284114E-04
         2   -7.600775E-04
         3    1.955681E-03
         4   -3.541040E-03
         5    1.348388E-03
         6   -1.621817E-02
         7    4.152776E-03
         8    2.844305E-04
         9   -2.266100E-02
        10   -2.210111E-03
        11    6.653761E-04
        12   -2.367762E-02
        13   -4.416428E-02
        14    1.274796E-02
        15   -1.014371E-02
        16    7.281180E-05
        17   -8.159697E-05
        18    8.785178E-06
        19   -3.646292E-05
        20   -5.667512E-03
        21    2.056624E-03
        22   -8.568794E-04
        23    5.028413E-04
        24    3.540381E-04
        25   -1.066590E-03
        26   -1.263307E-02
        27    4.219453E-03
        28   -5.651910E-03
        29    5.283811E-03
        30    3.680994E-04
        31    1.953017E-03
        32    4.414751E-03
        33   -1.080855E-02
        34   -2.329236E-05
        35    9.694771E-06
        36    2.979989E-04
        37    1.001377E-05
        38   -8.722179E-06
        39   -8.702234E-04
        40    2.123620E-05
        41   -4.284721E-06
        42    4.704159E-04
        43   -4.744825E-04
        44    5.120947E-05
        45    1.114440E-04
        46    2.151106E-04
        47   -4.652411E-03
        48   -6.062811E-02
        49    9.551655E-03
        50   -7.510214E-04
        51    2.688211E-06
        52    1.163377E-01
        53   -1.734131E-03
        54    8.052764E-06
        55    1.225801E-01
        56   -1.980070E-02
        57   -6.745030E-04
        58    1.591481E-01
        59    1.408844E-04
        60   -1.362862E-04
        61   -4.598117E-06
        62    1.419938E-07
        63   -1.595301E-03
        64    6.600596E-07
        65    6.620398E-04
        66   -1.030403E-03
        67    3.683636E-04
        68    1.987602E-06
        69   -4.463549E-03
        70    9.266991E-07
        71    1.484883E-02
        72   -1.636749E-02
        73    1.518662E-03
        74   -9.471549E-05
        75    1.674481E-03
        76   -1.189642E-05
        77    2.119690E-06
        78   -3.289992E-08
        79   -4.967259E-04
        80   -7.701066E-06
        81    6.529359E-08
        82    3.472494E-04
        83    4.857203E-06
        84   -2.115372E-08
        85    3.191784E-04
        86    6.378237E-08
        87   -3.282789E-04
        88   -7.597191E-04
        89    1.953475E-03
        90   -3.541444E-03
        91    3.724708E-03
        92   -1.623889E-02
        93    4.157214E-03
        94   -2.910561E-04
        95   -2.262837E-02
        96   -2.171464E-03
        97   -6.724268E-04
        98   -2.364458E-02
        99   -4.407688E-02
       100   -1.344362E-02
       101   -1.009127E-02
       102    7.291550E-05
       103   -8.166058E-05
       104    8.745084E-06
       105    3.691861E-05
       106   -5.666952E-03
       107   -2.056741E-03
       108   -8.479607E-04
       109    4.952207E-04
       110    3.527399E-04
       111    1.066790E-03
       112   -1.263123E-02
       113   -4.219678E-03
       114   -5.703429E-03
       115    5.353592E-03
       116    3.498362E-04
       117   -1.870913E-03
       118    4.406591E-03
       119    1.079775E-02
       120   -2.323674E-05
       121   -9.683779E-06
       122    2.978260E-04
       123    1.007437E-05
       124    8.610621E-06
       125   -8.700327E-04
       126    2.110100E-05
       127    4.381532E-06
       128    4.704571E-04
       129    4.744709E-04
       130    2.250618E-04
       131    4.925655E-04
       132    6.025653E-04
       133   -1.491187E-02
       134    2.235723E-02
       135    1.882061E-02
       136   -3.850503E-03
       137    1.355155E-03
       138   -1.621815E-01
       139   -1.460963E-02
       140    9.104108E-03
       141   -1.645088E-01
       142   -2.590825E-02
       143   -1.153033E-02
       144   -9.463167E-02
       145    2.933603E-04
       146   -3.414102E-04
       147    4.804991E-05
       148   -1.534248E-06
       149    4.031899E-04
       150    2.812356E-03
       151    9.701518E-04
       152   -1.155391E-03
       153    1.852389E-04
       154    2.428689E-03
       155   -1.870322E-03
       156    4.481894E-03
       157    1.146111E-02
       158   -9.067523E-03
       159   -2.393584E-03
       160   -1.340880E-02
       161    4.473486E-03
       162   -1.478447E-02
       163   -2.536478E-05
       164    1.820653E-05
       165    9.734793E-04
       166   -3.033729E-05
       167    1.978846E-05
       168   -4.070296E-04
       169    6.436772E-05
       170   -4.421508E-05
       171   -8.990299E-04
       172    2.268456E-04
       173   -1.613653E-03
       174   -3.676442E-03
       175    3.886642E-03
       176    2.954589E-02
       177   -4.414533E-02
       178    9.354612E-03
       179    1.551400E-02
       180   -3.936808E-06
       181   -9.183586E-02
       182    2.056281E-03
       183   -1.821426E-05
       184   -9.521709E-02
       185   -4.877219E-02
       186    6.860394E-04
       187   -1.332261E-01
       188    8.327573E-04
       189   -5.160309E-04
       190   -3.167264E-04
       191    3.099322E-07
       192    1.129056E-02
       193    4.892232E-07
       194   -2.585909E-03
       195    5.701826E-03
       196   -3.115917E-03
       197    4.625402E-06
       198    2.720035E-02
       199    1.170161E-06
       200   -9.508399E-03
       201    1.082729E-02
       202   -1.318894E-03
       203   -1.498866E-04
       204    1.819506E-02
       205    7.947753E-06
       206    1.772917E-04
       207   -1.849367E-08
       208    1.454807E-04
       209   -1.192835E-04
       210   -6.515820E-08
       211    1.318167E-03
       212   -1.185783E-04
       213    8.997005E-08
       214   -1.513350E-03
       215   -8.161535E-08
       216    2.257456E-04
       217    4.939784E-04
       218    6.014954E-04
       219   -1.493338E-02
       220    2.473398E-02
       221    1.876762E-02
       222   -3.848156E-03
       223   -1.345094E-03
       224   -1.622092E-01
       225   -1.463680E-02
       226   -9.112344E-03
       227   -1.645373E-01
       228   -2.609220E-02
       229    1.233464E-02
       230   -9.461003E-02
       231    2.932889E-04
       232   -3.417619E-04
       233    4.847294E-05
       234    2.169567E-06
       235    4.039104E-04
       236   -2.812488E-03
       237    9.776384E-04
       238   -1.162878E-03
       239    1.852400E-04
       240   -2.431946E-03
       241   -1.867501E-03
       242   -4.481037E-03
       243    1.141952E-02
       244   -9.025632E-03
       245   -2.393893E-03
       246    1.346080E-02
       247    4.482596E-03
       248    1.479933E-02
       249   -2.544380E-05
       250   -1.828241E-05
       251    9.737053E-04
       252   -3.047445E-05
       253   -1.966826E-05
       254   -4.073116E-04
       255    6.461089E-05
       256    4.419668E-05
       257   -8.990511E-04
       258   -2.267680E-04
       259   -9.943574E-04
       260   -1.036131E-03
       261   -2.511904E-02
       262   -1.454741E-05
       263   -7.306918E-05
       264   -7.021112E-04
       265   -7.265918E-03
       266   -9.470128E-04
       267   -6.182136E-03
       268   -9.992568E-04
       269   -1.030668E-03
       270   -2.502852E-02
       271   -1.391966E-05
       272    7.209537E-05
       273   -7.006607E-04
       274   -7.337148E-03
       275    9.167843E-04
       276   -6.178922E-03
       277   -1.078987E-03
       278   -4.139274E-03
       279    5.025451E-02
       280   -2.949744E-05
       281    2.234156E-04
       282   -6.366604E-03
       283   -3.440983E-03
       284   -3.852915E-03
       285    3.906071E-03
       286   -1.085098E-03
       287   -4.137582E-03
       288    5.052570E-02
       289   -2.882188E-05
       290   -2.228215E-04
       291   -6.368040E-03
       292   -3.445762E-03
       293    3.888983E-03
       294    3.911116E-03
       295   -1.364502E-04
       296   -3.205917E-04
       297    3.764376E-04
       298    1.109014E-03
       299   -1.010588E-02
       300   -1.151904E-03
       301    1.893729E-03
       302   -1.690176E-06
       303    2.837041E-02
       304    1.342861E-03
       305   -1.852765E-06
       306    3.001479E-02
       307   -4.128174E-03
       308    3.417214E-05
       309    5.737740E-03
       310    7.205910E-05
       311   -7.399409E-05
       312    1.934989E-06
       313    3.310813E-07
       314    2.560090E-03
       315    1.006311E-07
       316    1.335176E-04
       317   -8.855654E-05
       318   -4.496109E-05
       319    6.401473E-07
       320    8.003390E-03
       321    2.844352E-07
       322   -1.098373E-03
       323    3.858227E-03
       324   -2.759854E-03
       325    2.293818E-05
       326    1.071903E-03
       327    1.675304E-06
       328    8.616544E-06
       329    6.866844E-08
       330   -7.468849E-05
       331   -3.429191E-06
       332   -8.727302E-08
       333    4.515900E-04
       334   -8.131116E-06
       335   -4.855350E-09
       336   -3.513848E-04
       337   -3.072909E-09
       338   -3.324251E-05
       339   -7.599940E-05
       340    5.633606E-05
       341    9.052664E-04
       342   -8.377300E-03
       343   -1.291597E-03
       344   -1.515740E-03
       345    1.846723E-04
       346   -4.145618E-02
       347   -1.503845E-03
       348    3.284392E-04
       349   -3.870580E-02
       350   -2.643153E-03
       351    7.694048E-04
       352   -3.451641E-02
       353   -3.823006E-04
       354    2.144773E-04
       355   -4.850982E-03
       356    5.823278E-06
       357   -1.281086E-05
       358    6.987580E-06
       359    1.060530E-05
       360    1.228364E-04
       361    8.867975E-05
       362   -2.029167E-05
       363   -2.671957E-05
       364    4.701125E-05
       365    3.201852E-05
       366    1.907573E-05
       367    3.910359E-04
       368   -9.755571E-05
       369    3.517765E-05
       370    6.237806E-05
       371    7.555837E-05
       372    3.155172E-04
       373    3.539976E-05
       374    2.461645E-06
       375    2.593148E-06
       376    1.388459E-06
       377   -4.984740E-06
       378    6.883172E-07
       379    5.178186E-05
       380    1.682096E-06
       381   -4.167390E-06
       382   -5.364468E-05
       383    3.258649E-05
       384   -3.322286E-05
       385   -7.597827E-05
       386    5.657209E-05
       387    9.024122E-04
       388   -8.374861E-03
       389   -1.271464E-03
       390   -1.528816E-03
       391   -1.700378E-04
       392   -4.146047E-02
       393   -1.515516E-03
       394   -3.160376E-04
       395   -3.870980E-02
       396   -2.631200E-03
       397   -7.555230E-04
       398   -3.451729E-02
       399   -3.743596E-04
       400   -2.155152E-04
       401   -4.853208E-03
       402    5.679962E-06
       403   -1.261839E-05
       404    6.938427E-06
       405   -1.062337E-05
       406    1.227920E-04
       407   -8.872136E-05
       408   -2.046695E-05
       409   -2.638668E-05
       410    4.685363E-05
       411   -3.181989E-05
       412    1.898992E-05
       413   -3.911365E-04
       414   -9.948587E-05
       415    3.830009E-05
       416    6.118578E-05
       417   -7.438157E-05
       418    3.151782E-04
       419   -3.536535E-05
       420    2.440683E-06
       421   -2.542469E-06
       422    1.398682E-06
       423   -4.950129E-06
       424   -7.389465E-07
       425    5.177814E-05
       426    1.675609E-06
       427    4.150027E-06
       428   -5.365467E-05
       429   -3.260036E-05
       430    6.714990E-03
       431    1.596229E-02
       432   -2.491112E-02
       433   -3.967780E-02
       434   -2.153228E-02
       435   -8.568591E-02
       436   -2.673049E-02
       437    1.159636E-05
       438    3.070763E-01
       439   -3.025463E-02
       440    1.574670E-06
       441    3.020441E-01
       442   -3.238284E-02
       443   -1.177608E-04
       444    2.392753E-01
       445   -1.366239E-04
       446   -8.350367E-05
       447    2.201276E-04
       448    3.330634E-07
       449    3.675190E-04
       450    2.503740E-07
       451   -2.067926E-04
       452   -2.446350E-03
       453    2.653143E-03
       454   -4.122576E-06
       455    2.654532E-03
       456    6.821029E-07
       457   -1.771024E-03
       458   -5.706399E-03
       459    7.477424E-03
       460   -6.601979E-06
       461    2.271545E-03
       462    1.299952E-06
       463   -1.956359E-04
       464    5.458446E-08
       465   -1.271819E-03
       466   -1.291843E-04
       467    4.276895E-09
       468    7.690237E-04
       469    3.916574E-04
       470   -7.750963E-08
       471    9.373004E-04
       472   -5.224598E-08
       473    1.263185E-02
       474    2.491788E-02
       475    4.378953E-02
       476   -3.314025E-03
       477   -2.694494E-03
       478    1.517656E-02
       479    1.112628E-04
       480   -4.807697E-03
       481    1.541514E-02
       482    1.262396E-02
       483    2.483062E-02
       484    4.349159E-02
       485   -3.308669E-03
       486    2.686574E-03
       487    1.518067E-02
       488    1.541243E-04
       489    4.759703E-03
       490    1.542873E-02
 Sym= X
 Ene= -0.874215
 Spin= Alpha
 Occup= -0.874215
         1   -1.531815E-05
         2   -3.507492E-05
         3    8.698253E-05
         4   -1.056437E-04
         5   -2.778409E-03
         6   -4.178335E-04
         7   -8.521750E-05
         8   -1.205602E-04
         9   -8.484820E-02
        10   -2.883072E-04
        11   -5.063314E-05
        12   -8.502990E-02
        13    7.242641E-04
        14   -1.812459E-03
        15   -5.905663E-02
        16   -4.294103E-06
        17    2.394971E-06
        18    1.899131E-06
        19    2.022611E-06
        20   -1.999431E-03
        21   -2.903075E-04
        22   -4.621375E-05
        23    3.202499E-05
        24    1.418876E-05
        25    1.035328E-05
        26   -2.728461E-03
        27   -1.390159E-04
        28   -3.896694E-05
        29    3.497587E-05
        30    3.991071E-06
        31    7.217835E-05
        32    1.501947E-03
        33   -2.840324E-03
        34   -2.627635E-06
        35   -3.120358E-07
        36    5.910847E-04
        37    5.385788E-07
        38   -1.305207E-07
        39   -6.956048E-04
        40    2.986764E-06
        41    5.491607E-07
        42   -9.741848E-05
        43    5.318129E-05
        44    3.741623E-07
        45    9.141133E-07
        46   -5.847101E-06
        47    1.413189E-05
        48    1.182792E-03
        49    1.127098E-04
        50    3.694199E-06
        51    6.646917E-05
        52    9.814986E-07
        53    1.134475E-05
        54    1.152887E-04
        55    3.697369E-06
        56    4.890069E-04
        57   -2.431463E-03
        58    1.493575E-05
        59   -2.397398E-07
        60    2.399742E-07
        61   -2.343810E-10
        62    7.062256E-06