[Molden Format]
[Title]
ADC(2) - opt by CAM-B3LYP gaussian                                              
[Atoms] AU
 c     1    6 -.12590385386216E+01 -.22819701624009E+01 -.30156123253150E-01
 c     2    6 -.25547233845863E+01 -.83266058000000E-06 -.28792213416740E-01
 c     3    6 -.12590428849917E+01 0.22819669475044E+01 -.30169993842970E-01
 c     4    6 0.13339759331395E+01 0.22828246941961E+01 -.32722654800530E-01
 c     5    6 0.26864234278208E+01 0.32869423900000E-05 -.32794180934660E-01
 c     6    6 0.13339778039684E+01 -.22828226745513E+01 -.32706516539360E-01
 h     7    1 -.23005849451053E+01 -.40353719055945E+01 -.27139024303910E-01
 h     8    1 -.23005903875166E+01 0.40353685773143E+01 -.27164403325880E-01
 h     9    1 0.23527432406667E+01 0.40554759247724E+01 -.35914685697900E-01
 h    10    1 0.23527525948111E+01 -.40554698422164E+01 -.35883032785170E-01
 n    11    7 -.52784595104117E+01 -.53030440000000E-06 -.22539903328000E-01
 o    12    8 -.63796877956448E+01 0.20272212823250E+01 -.19883023974210E-01
 o    13    8 -.63796922742957E+01 -.20272201130570E+01 -.19923067270970E-01
 n    14    7 0.52516126460355E+01 -.32243452000000E-06 -.88209511610250E-01
 h    15    1 0.62001707317805E+01 0.16133662892433E+01 0.23199721167530E+00
 h    16    1 0.62001633429513E+01 -.16133706190784E+01 0.23200112340840E+00
[GTO]
    1 0
 s    6 1.00
 0.13575349682000E+05 0.60645503603591E-03
 0.20352333680000E+04 0.46979088884982E-02
 0.46322562359000E+03 0.24332477647552E-01
 0.13120019598000E+03 0.97399968307759E-01
 0.42853015891000E+02 0.30195584253780E+00
 0.15584185766000E+02 0.66233609137875E+00
 s    2 1.00
 0.62067138508000E+01 0.65595308539952E+00
 0.25764896527000E+01 0.37585633285142E+00
 s    1 1.00
 0.57696339419000E+00 0.10000000000000E+01
 s    1 1.00
 0.22972831358000E+00 0.10000000000000E+01
 s    1 1.00
 0.95164440028000E-01 0.10000000000000E+01
 s    1 1.00
 0.48475401370000E-01 0.10000000000000E+01
 p    4 1.00
 0.34697232244000E+02 0.11327220003114E-01
 0.79582622826000E+01 0.76169659202087E-01
 0.23780826883000E+01 0.30192252202676E+00
 0.81433208183000E+00 0.72785027349547E+00
 p    1 1.00
 0.28887547253000E+00 0.10000000000000E+01
 p    1 1.00
 0.10056823671000E+00 0.10000000000000E+01
 d    1 1.00
 0.10970000000000E+01 0.10000000000000E+01
 d    1 1.00
 0.31800000000000E+00 0.10000000000000E+01
 d    1 1.00
 0.90985336424000E-01 0.10000000000000E+01
 f    1 1.00
 0.76100000000000E+00 0.10000000000000E+01
 
    2 0
 s    6 1.00
 0.13575349682000E+05 0.60645503603591E-03
 0.20352333680000E+04 0.46979088884982E-02
 0.46322562359000E+03 0.24332477647552E-01
 0.13120019598000E+03 0.97399968307759E-01
 0.42853015891000E+02 0.30195584253780E+00
 0.15584185766000E+02 0.66233609137875E+00
 s    2 1.00
 0.62067138508000E+01 0.65595308539952E+00
 0.25764896527000E+01 0.37585633285142E+00
 s    1 1.00
 0.57696339419000E+00 0.10000000000000E+01
 s    1 1.00
 0.22972831358000E+00 0.10000000000000E+01
 s    1 1.00
 0.95164440028000E-01 0.10000000000000E+01
 s    1 1.00
 0.48475401370000E-01 0.10000000000000E+01
 p    4 1.00
 0.34697232244000E+02 0.11327220003114E-01
 0.79582622826000E+01 0.76169659202087E-01
 0.23780826883000E+01 0.30192252202676E+00
 0.81433208183000E+00 0.72785027349547E+00
 p    1 1.00
 0.28887547253000E+00 0.10000000000000E+01
 p    1 1.00
 0.10056823671000E+00 0.10000000000000E+01
 d    1 1.00
 0.10970000000000E+01 0.10000000000000E+01
 d    1 1.00
 0.31800000000000E+00 0.10000000000000E+01
 d    1 1.00
 0.90985336424000E-01 0.10000000000000E+01
 f    1 1.00
 0.76100000000000E+00 0.10000000000000E+01
 
    3 0
 s    6 1.00
 0.13575349682000E+05 0.60645503603591E-03
 0.20352333680000E+04 0.46979088884982E-02
 0.46322562359000E+03 0.24332477647552E-01
 0.13120019598000E+03 0.97399968307759E-01
 0.42853015891000E+02 0.30195584253780E+00
 0.15584185766000E+02 0.66233609137875E+00
 s    2 1.00
 0.62067138508000E+01 0.65595308539952E+00
 0.25764896527000E+01 0.37585633285142E+00
 s    1 1.00
 0.57696339419000E+00 0.10000000000000E+01
 s    1 1.00
 0.22972831358000E+00 0.10000000000000E+01
 s    1 1.00
 0.95164440028000E-01 0.10000000000000E+01
 s    1 1.00
 0.48475401370000E-01 0.10000000000000E+01
 p    4 1.00
 0.34697232244000E+02 0.11327220003114E-01
 0.79582622826000E+01 0.76169659202087E-01
 0.23780826883000E+01 0.30192252202676E+00
 0.81433208183000E+00 0.72785027349547E+00
 p    1 1.00
 0.28887547253000E+00 0.10000000000000E+01
 p    1 1.00
 0.10056823671000E+00 0.10000000000000E+01
 d    1 1.00
 0.10970000000000E+01 0.10000000000000E+01
 d    1 1.00
 0.31800000000000E+00 0.10000000000000E+01
 d    1 1.00
 0.90985336424000E-01 0.10000000000000E+01
 f    1 1.00
 0.76100000000000E+00 0.10000000000000E+01
 
    4 0
 s    6 1.00
 0.13575349682000E+05 0.60645503603591E-03
 0.20352333680000E+04 0.46979088884982E-02
 0.46322562359000E+03 0.24332477647552E-01
 0.13120019598000E+03 0.97399968307759E-01
 0.42853015891000E+02 0.30195584253780E+00
 0.15584185766000E+02 0.66233609137875E+00
 s    2 1.00
 0.62067138508000E+01 0.65595308539952E+00
 0.25764896527000E+01 0.37585633285142E+00
 s    1 1.00
 0.57696339419000E+00 0.10000000000000E+01
 s    1 1.00
 0.22972831358000E+00 0.10000000000000E+01
 s    1 1.00
 0.95164440028000E-01 0.10000000000000E+01
 s    1 1.00
 0.48475401370000E-01 0.10000000000000E+01
 p    4 1.00
 0.34697232244000E+02 0.11327220003114E-01
 0.79582622826000E+01 0.76169659202087E-01
 0.23780826883000E+01 0.30192252202676E+00
 0.81433208183000E+00 0.72785027349547E+00
 p    1 1.00
 0.28887547253000E+00 0.10000000000000E+01
 p    1 1.00
 0.10056823671000E+00 0.10000000000000E+01
 d    1 1.00
 0.10970000000000E+01 0.10000000000000E+01
 d    1 1.00
 0.31800000000000E+00 0.10000000000000E+01
 d    1 1.00
 0.90985336424000E-01 0.10000000000000E+01
 f    1 1.00
 0.76100000000000E+00 0.10000000000000E+01
 
    5 0
 s    6 1.00
 0.13575349682000E+05 0.60645503603591E-03
 0.20352333680000E+04 0.46979088884982E-02
 0.46322562359000E+03 0.24332477647552E-01
 0.13120019598000E+03 0.97399968307759E-01
 0.42853015891000E+02 0.30195584253780E+00
 0.15584185766000E+02 0.66233609137875E+00
 s    2 1.00
 0.62067138508000E+01 0.65595308539952E+00
 0.25764896527000E+01 0.37585633285142E+00
 s    1 1.00
 0.57696339419000E+00 0.10000000000000E+01
 s    1 1.00
 0.22972831358000E+00 0.10000000000000E+01
 s    1 1.00
 0.95164440028000E-01 0.10000000000000E+01
 s    1 1.00
 0.48475401370000E-01 0.10000000000000E+01
 p    4 1.00
 0.34697232244000E+02 0.11327220003114E-01
 0.79582622826000E+01 0.76169659202087E-01
 0.23780826883000E+01 0.30192252202676E+00
 0.81433208183000E+00 0.72785027349547E+00
 p    1 1.00
 0.28887547253000E+00 0.10000000000000E+01
 p    1 1.00
 0.10056823671000E+00 0.10000000000000E+01
 d    1 1.00
 0.10970000000000E+01 0.10000000000000E+01
 d    1 1.00
 0.31800000000000E+00 0.10000000000000E+01
 d    1 1.00
 0.90985336424000E-01 0.10000000000000E+01
 f    1 1.00
 0.76100000000000E+00 0.10000000000000E+01
 
    6 0
 s    6 1.00
 0.13575349682000E+05 0.60645503603591E-03
 0.20352333680000E+04 0.46979088884982E-02
 0.46322562359000E+03 0.24332477647552E-01
 0.13120019598000E+03 0.97399968307759E-01
 0.42853015891000E+02 0.30195584253780E+00
 0.15584185766000E+02 0.66233609137875E+00
 s    2 1.00
 0.62067138508000E+01 0.65595308539952E+00
 0.25764896527000E+01 0.37585633285142E+00
 s    1 1.00
 0.57696339419000E+00 0.10000000000000E+01
 s    1 1.00
 0.22972831358000E+00 0.10000000000000E+01
 s    1 1.00
 0.95164440028000E-01 0.10000000000000E+01
 s    1 1.00
 0.48475401370000E-01 0.10000000000000E+01
 p    4 1.00
 0.34697232244000E+02 0.11327220003114E-01
 0.79582622826000E+01 0.76169659202087E-01
 0.23780826883000E+01 0.30192252202676E+00
 0.81433208183000E+00 0.72785027349547E+00
 p    1 1.00
 0.28887547253000E+00 0.10000000000000E+01
 p    1 1.00
 0.10056823671000E+00 0.10000000000000E+01
 d    1 1.00
 0.10970000000000E+01 0.10000000000000E+01
 d    1 1.00
 0.31800000000000E+00 0.10000000000000E+01
 d    1 1.00
 0.90985336424000E-01 0.10000000000000E+01
 f    1 1.00
 0.76100000000000E+00 0.10000000000000E+01
 
    7 0
 s    3 1.00
 0.34061341000000E+02 0.25439307208879E-01
 0.51235746000000E+01 0.19008594890375E+00
 0.11646626000000E+01 0.85244113011042E+00
 s    1 1.00
 0.32723041000000E+00 0.10000000000000E+01
 s    1 1.00
 0.10307241000000E+00 0.10000000000000E+01
 p    1 1.00
 0.80000000000000E+00 0.10000000000000E+01
 p    1 1.00
 0.95774129632000E-01 0.10000000000000E+01
 
    8 0
 s    3 1.00
 0.34061341000000E+02 0.25439307208879E-01
 0.51235746000000E+01 0.19008594890375E+00
 0.11646626000000E+01 0.85244113011042E+00
 s    1 1.00
 0.32723041000000E+00 0.10000000000000E+01
 s    1 1.00
 0.10307241000000E+00 0.10000000000000E+01
 p    1 1.00
 0.80000000000000E+00 0.10000000000000E+01
 p    1 1.00
 0.95774129632000E-01 0.10000000000000E+01
 
    9 0
 s    3 1.00
 0.34061341000000E+02 0.25439307208879E-01
 0.51235746000000E+01 0.19008594890375E+00
 0.11646626000000E+01 0.85244113011042E+00
 s    1 1.00
 0.32723041000000E+00 0.10000000000000E+01
 s    1 1.00
 0.10307241000000E+00 0.10000000000000E+01
 p    1 1.00
 0.80000000000000E+00 0.10000000000000E+01
 p    1 1.00
 0.95774129632000E-01 0.10000000000000E+01
 
   10 0
 s    3 1.00
 0.34061341000000E+02 0.25439307208879E-01
 0.51235746000000E+01 0.19008594890375E+00
 0.11646626000000E+01 0.85244113011042E+00
 s    1 1.00
 0.32723041000000E+00 0.10000000000000E+01
 s    1 1.00
 0.10307241000000E+00 0.10000000000000E+01
 p    1 1.00
 0.80000000000000E+00 0.10000000000000E+01
 p    1 1.00
 0.95774129632000E-01 0.10000000000000E+01
 
   11 0
 s    6 1.00
 0.19730800647000E+05 0.58626402628763E-03
 0.29578958745000E+04 0.45428820586397E-02
 0.67322133595000E+03 0.23558413450084E-01
 0.19068249494000E+03 0.94709193292923E-01
 0.62295441898000E+02 0.29719784913376E+00
 0.22654161182000E+02 0.66916246895232E+00
 s    2 1.00
 0.89791477428000E+01 0.64596683630063E+00
 0.36863002370000E+01 0.38700574393705E+00
 s    1 1.00
 0.84660076805000E+00 0.10000000000000E+01
 s    1 1.00
 0.33647133771000E+00 0.10000000000000E+01
 s    1 1.00
 0.13647653675000E+00 0.10000000000000E+01
 s    1 1.00
 0.68441605847000E-01 0.10000000000000E+01
 p    4 1.00
 0.49200380510000E+02 0.11448825101764E-01
 0.11346790537000E+02 0.78422337970864E-01
 0.34273972411000E+01 0.30818094738830E+00
 0.11785525134000E+01 0.72027196368413E+00
 p    1 1.00
 0.41642204972000E+00 0.10000000000000E+01
 p    1 1.00
 0.14260826011000E+00 0.10000000000000E+01
 d    1 1.00
 0.16540000000000E+01 0.10000000000000E+01
 d    1 1.00
 0.46900000000000E+00 0.10000000000000E+01
 d    1 1.00
 0.12829642058000E+00 0.10000000000000E+01
 f    1 1.00
 0.10930000000000E+01 0.10000000000000E+01
 
   12 0
 s    6 1.00
 0.27032382631000E+05 0.57227335211155E-03
 0.40523871392000E+04 0.44353233492995E-02
 0.92232722710000E+03 0.23020107706038E-01
 0.26124070989000E+03 0.92822490667928E-01
 0.85354641351000E+02 0.29378500009671E+00
 0.31035035245000E+02 0.67401604501641E+00
 s    2 1.00
 0.12260860728000E+02 0.63839937025506E+00
 0.49987076005000E+01 0.39534587125718E+00
 s    1 1.00
 0.11703108158000E+01 0.10000000000000E+01
 s    1 1.00
 0.46474740994000E+00 0.10000000000000E+01
 s    1 1.00
 0.18504536357000E+00 0.10000000000000E+01
 s    1 1.00
 0.70288026270000E-01 0.10000000000000E+01
 p    4 1.00
 0.63274954801000E+02 0.12018332222616E-01
 0.14627049379000E+02 0.83005421790056E-01
 0.44501223456000E+01 0.31991743925964E+00
 0.15275799647000E+01 0.70715542916104E+00
 p    1 1.00
 0.52935117943000E+00 0.10000000000000E+01
 p    1 1.00
 0.17478421270000E+00 0.10000000000000E+01
 p    1 1.00
 0.51112745706000E-01 0.10000000000000E+01
 d    1 1.00
 0.23140000000000E+01 0.10000000000000E+01
 d    1 1.00
 0.64500000000000E+00 0.10000000000000E+01
 d    1 1.00
 0.14696477366000E+00 0.10000000000000E+01
 f    1 1.00
 0.14280000000000E+01 0.10000000000000E+01
 
   13 0
 s    6 1.00
 0.27032382631000E+05 0.57227335211155E-03
 0.40523871392000E+04 0.44353233492995E-02
 0.92232722710000E+03 0.23020107706038E-01
 0.26124070989000E+03 0.92822490667928E-01
 0.85354641351000E+02 0.29378500009671E+00
 0.31035035245000E+02 0.67401604501641E+00
 s    2 1.00
 0.12260860728000E+02 0.63839937025506E+00
 0.49987076005000E+01 0.39534587125718E+00
 s    1 1.00
 0.11703108158000E+01 0.10000000000000E+01
 s    1 1.00
 0.46474740994000E+00 0.10000000000000E+01
 s    1 1.00
 0.18504536357000E+00 0.10000000000000E+01
 s    1 1.00
 0.70288026270000E-01 0.10000000000000E+01
 p    4 1.00
 0.63274954801000E+02 0.12018332222616E-01
 0.14627049379000E+02 0.83005421790056E-01
 0.44501223456000E+01 0.31991743925964E+00
 0.15275799647000E+01 0.70715542916104E+00
 p    1 1.00
 0.52935117943000E+00 0.10000000000000E+01
 p    1 1.00
 0.17478421270000E+00 0.10000000000000E+01
 p    1 1.00
 0.51112745706000E-01 0.10000000000000E+01
 d    1 1.00
 0.23140000000000E+01 0.10000000000000E+01
 d    1 1.00
 0.64500000000000E+00 0.10000000000000E+01
 d    1 1.00
 0.14696477366000E+00 0.10000000000000E+01
 f    1 1.00
 0.14280000000000E+01 0.10000000000000E+01
 
   14 0
 s    6 1.00
 0.19730800647000E+05 0.58626402628763E-03
 0.29578958745000E+04 0.45428820586397E-02
 0.67322133595000E+03 0.23558413450084E-01
 0.19068249494000E+03 0.94709193292923E-01
 0.62295441898000E+02 0.29719784913376E+00
 0.22654161182000E+02 0.66916246895232E+00
 s    2 1.00
 0.89791477428000E+01 0.64596683630063E+00
 0.36863002370000E+01 0.38700574393705E+00
 s    1 1.00
 0.84660076805000E+00 0.10000000000000E+01
 s    1 1.00
 0.33647133771000E+00 0.10000000000000E+01
 s    1 1.00
 0.13647653675000E+00 0.10000000000000E+01
 s    1 1.00
 0.68441605847000E-01 0.10000000000000E+01
 p    4 1.00
 0.49200380510000E+02 0.11448825101764E-01
 0.11346790537000E+02 0.78422337970864E-01
 0.34273972411000E+01 0.30818094738830E+00
 0.11785525134000E+01 0.72027196368413E+00
 p    1 1.00
 0.41642204972000E+00 0.10000000000000E+01
 p    1 1.00
 0.14260826011000E+00 0.10000000000000E+01
 d    1 1.00
 0.16540000000000E+01 0.10000000000000E+01
 d    1 1.00
 0.46900000000000E+00 0.10000000000000E+01
 d    1 1.00
 0.12829642058000E+00 0.10000000000000E+01
 f    1 1.00
 0.10930000000000E+01 0.10000000000000E+01
 
   15 0
 s    3 1.00
 0.34061341000000E+02 0.25439307208879E-01
 0.51235746000000E+01 0.19008594890375E+00
 0.11646626000000E+01 0.85244113011042E+00
 s    1 1.00
 0.32723041000000E+00 0.10000000000000E+01
 s    1 1.00
 0.10307241000000E+00 0.10000000000000E+01
 p    1 1.00
 0.80000000000000E+00 0.10000000000000E+01
 p    1 1.00
 0.95774129632000E-01 0.10000000000000E+01
 
   16 0
 s    3 1.00
 0.34061341000000E+02 0.25439307208879E-01
 0.51235746000000E+01 0.19008594890375E+00
 0.11646626000000E+01 0.85244113011042E+00
 s    1 1.00
 0.32723041000000E+00 0.10000000000000E+01
 s    1 1.00
 0.10307241000000E+00 0.10000000000000E+01
 p    1 1.00
 0.80000000000000E+00 0.10000000000000E+01
 p    1 1.00
 0.95774129632000E-01 0.10000000000000E+01
 
[MO]
 Sym= X
 Ene= -0.243452
 Spin= Alpha
 Occup= -0.243452
         1   -1.483566E-04
         2   -3.472243E-04
         3    1.082383E-03
         4   -2.960000E-03
         5   -3.452901E-03
         6   -1.097911E-02
         7    1.536614E-03
         8    2.696365E-04
         9    4.389779E-02
        10   -2.477636E-03
        11    4.598459E-04
        12    4.185988E-02
        13   -3.440350E-02
        14    1.285033E-02
        15    1.477623E-02
        16   -3.476125E-06
        17   -1.049524E-05
        18    1.397137E-05
        19   -6.225354E-06
        20   -6.414800E-03
        21    4.391453E-03
        22   -6.691738E-04
        23    3.936351E-04
        24    2.755387E-04
        25   -6.611917E-04
        26   -1.453151E-02
        27    8.166685E-03
        28   -4.922847E-03
        29    4.664365E-03
        30    2.584817E-04
        31    9.914849E-04
        32    1.332095E-03
        33   -8.944430E-03
        34   -2.056913E-05
        35    6.312801E-06
        36   -2.485109E-04
        37    9.931722E-06
        38   -5.815510E-06
        39   -6.368127E-04
        40    1.766466E-05
        41   -2.654001E-06
        42    9.702250E-04
        43   -7.628478E-04
        44    5.117444E-05
        45    1.138421E-04
        46    2.628584E-05
        47   -2.683617E-03
        48   -5.678102E-02
        49    4.655920E-03
        50    5.880995E-04
        51    1.792885E-06
        52    2.288412E-01
        53   -1.795932E-04
        54    1.848560E-05
        55    2.366054E-01
        56   -1.661130E-02
        57   -4.622404E-04
        58    2.047988E-01
        59    3.362745E-05
        60   -3.133124E-05
        61   -2.296210E-06
        62    1.015558E-07
        63   -3.069873E-04
        64    5.996654E-07
        65    3.491351E-04
        66   -5.909557E-04
        67    2.418207E-04
        68    3.989260E-06
        69   -2.616639E-03
        70    1.049162E-06
        71    8.931081E-03
        72   -1.025727E-02
        73    1.326185E-03
        74   -8.071399E-05
        75    5.698201E-03
        76   -1.018285E-05
        77    9.519500E-06
        78    5.301460E-08
        79   -1.348796E-03
        80   -7.026861E-06
        81    2.204276E-08
        82    7.888009E-04
        83   -5.744888E-06
        84   -9.316930E-08
        85    1.020799E-03
        86    7.601868E-08
        87   -1.488776E-04
        88   -3.483604E-04
        89    1.084407E-03
        90   -2.961916E-03
        91   -1.998524E-03
        92   -1.096805E-02
        93    1.537460E-03
        94   -2.705043E-04
        95    4.392810E-02
        96   -2.439105E-03
        97   -4.506644E-04
        98    4.189096E-02
        99   -3.447391E-02
       100   -1.325681E-02
       101    1.480854E-02
       102   -3.335830E-06
       103   -1.050166E-05
       104    1.383749E-05
       105    6.393508E-06
       106   -6.414274E-03
       107   -4.391660E-03
       108   -6.617482E-04
       109    3.862046E-04
       110    2.755436E-04
       111    6.579257E-04
       112   -1.452942E-02
       113   -8.166031E-03
       114   -4.996824E-03
       115    4.748477E-03
       116    2.483471E-04
       117   -9.118830E-04
       118    1.323702E-03
       119    8.949927E-03
       120   -2.056931E-05
       121   -6.268555E-06
       122   -2.486754E-04
       123    1.005808E-05
       124    5.772189E-06
       125   -6.366216E-04
       126    1.753854E-05
       127    2.637960E-06
       128    9.702547E-04
       129    7.627893E-04
       130    7.849973E-05
       131    1.656391E-04
       132    6.362981E-04
       133   -9.522215E-03
       134    2.658341E-02
       135    1.256704E-02
       136   -1.149822E-03
       137    4.705865E-04
       138   -1.511445E-01
       139   -8.668153E-03
       140    5.765512E-03
       141   -1.537370E-01
       142   -2.158462E-02
       143   -6.314547E-03
       144   -9.515002E-02
       145    1.236231E-04
       146   -1.464528E-04
       147    2.282972E-05
       148    2.592985E-06
       149   -1.575313E-03
       150    3.275426E-03
       151    6.483596E-04
       152   -7.257153E-04
       153    7.735576E-05
       154    1.598012E-03
       155   -5.477579E-03
       156    5.581748E-03
       157    7.968908E-03
       158   -6.149222E-03
       159   -1.819687E-03
       160   -9.231900E-03
       161    3.065158E-03
       162   -9.788555E-03
       163   -1.622578E-05
       164    7.166526E-06
       165    8.567875E-04
       166   -1.546574E-05
       167    1.819619E-05
       168   -1.516938E-04
       169    3.723491E-05
       170   -2.781110E-05
       171   -9.978073E-04
       172    4.192923E-04
       173   -9.598278E-04
       174   -2.192636E-03
       175    2.073028E-03
       176    2.164429E-02
       177   -1.640304E-02
       178    9.500066E-03
       179    7.545389E-03
       180   -1.377745E-06
       181   -1.369133E-01
       182    3.676677E-05
       183   -1.042943E-05
       184   -1.390328E-01
       185   -2.779600E-02
       186    6.925170E-04
       187   -1.313714E-01
       188    4.366036E-04
       189   -2.338047E-04
       190   -2.027989E-04
       191    1.876592E-07
       192    8.635980E-03
       193    5.344651E-07
       194   -1.691572E-03
       195    3.865198E-03
       196   -2.173627E-03
       197    2.191616E-06
       198    2.187294E-02
       199    5.037790E-08
       200   -5.393700E-03
       201    6.673779E-03
       202   -1.280079E-03
       203   -1.225113E-04
       204    1.701851E-02
       205   -1.928863E-06
       206    1.051151E-04
       207    1.576893E-08
       208    5.504154E-04
       209   -7.668541E-05
       210   -5.432300E-08
       211    7.432532E-04
       212   -6.434135E-05
       213    3.316675E-08
       214   -1.481713E-03
       215   -3.753453E-08
       216    7.910460E-05
       217    1.668813E-04
       218    6.342582E-04
       219   -9.529175E-03
       220    2.834127E-02
       221    1.255630E-02
       222   -1.149436E-03
       223   -4.649932E-04
       224   -1.511710E-01
       225   -8.687632E-03
       226   -5.768985E-03
       227   -1.537653E-01
       228   -2.147434E-02
       229    6.985463E-03
       230   -9.516463E-02
       231    1.234707E-04
       232   -1.467545E-04
       233    2.328382E-05
       234   -2.288006E-06
       235   -1.574707E-03
       236   -3.275496E-03
       237    6.545480E-04
       238   -7.309388E-04
       239    7.639086E-05
       240   -1.600461E-03
       241   -5.474880E-03
       242   -5.581855E-03
       243    7.927077E-03
       244   -6.108179E-03
       245   -1.818898E-03
       246    9.321172E-03
       247    3.069344E-03
       248    9.790398E-03
       249   -1.636744E-05
       250   -7.235925E-06
       251    8.570584E-04
       252   -1.549375E-05
       253   -1.810269E-05
       254   -1.519971E-04
       255    3.745297E-05
       256    2.781070E-05
       257   -9.978674E-04
       258   -4.192554E-04
       259   -3.547973E-04
       260   -1.721032E-04
       261   -1.589662E-02
       262   -1.433366E-05
       263    4.392348E-06
       264    1.690133E-03
       265   -5.186993E-03
       266   -1.235974E-04
       267   -5.375818E-03
       268   -3.556376E-04
       269   -1.657234E-04
       270   -1.590515E-02
       271   -1.357439E-05
       272   -5.294238E-06
       273    1.691335E-03
       274   -5.274138E-03
       275    9.939911E-05
       276   -5.385525E-03
       277   -3.415304E-04
       278   -2.194364E-03
       279    3.312644E-02
       280   -1.079177E-05
       281    8.983335E-05
       282   -6.220779E-03
       283   -8.030625E-04
       284   -2.777668E-03
       285   -5.491519E-04
       286   -3.452954E-04
       287   -2.196452E-03
       288    3.338042E-02
       289   -1.052161E-05
       290   -8.976378E-05
       291   -6.222269E-03
       292   -7.993210E-04
       293    2.809690E-03
       294   -5.514495E-04
       295   -4.027354E-05
       296   -9.363591E-05
       297    8.770626E-05
       298    2.874138E-04
       299   -5.982293E-03
       300    1.917064E-03
       301    3.143543E-04
       302   -1.827354E-07
       303    1.903228E-02
       304    3.628067E-05
       305    8.774958E-07
       306    2.120944E-02
       307   -2.737297E-03
       308    1.896097E-05
       309    8.764745E-03
       310    9.288511E-06
       311    9.065195E-06
       312   -1.835371E-05
       313   -3.276075E-08
       314    4.760210E-03
       315   -1.598219E-08
       316   -2.006535E-05
       317    9.523832E-05
       318   -7.517297E-05
       319   -5.151238E-07
       320    1.430394E-02
       321   -1.001825E-07
       322   -9.695500E-04
       323    2.782721E-03
       324   -1.813171E-03
       325    1.671872E-05
       326    3.969784E-03
       327    3.630301E-06
       328    7.399576E-06
       329   -1.718012E-09
       330   -1.334115E-05
       331   -5.202713E-06
       332    3.293407E-08
       333    7.709082E-04
       334   -4.724860E-06
       335   -3.062911E-08
       336   -7.530092E-04
       337    1.465813E-08
       338   -1.194741E-05
       339   -2.583570E-05
       340   -6.203577E-06
       341    4.814016E-04
       342   -5.746832E-03
       343   -1.076116E-03
       344    1.209892E-04
       345    1.804750E-04
       346   -8.203363E-02
       347   -2.454196E-06
       348    3.019078E-04
       349   -7.608487E-02
       350   -1.211087E-03
       351    5.233195E-04
       352   -6.112266E-02
       353   -1.460075E-04
       354    2.561455E-04
       355   -7.205288E-03
       356    4.635678E-06
       357   -4.609496E-06
       358   -2.618193E-08
       359   -2.264553E-06
       360    1.837715E-06
       361    5.231951E-04
       362   -7.888812E-06
       363   -1.099415E-05
       364    1.888296E-05
       365    4.392658E-06
       366   -5.689140E-04
       367    1.723832E-03
       368   -7.546475E-05
       369    5.255784E-05
       370    2.290691E-05
       371    7.885656E-05
       372   -5.438686E-04
       373    2.522814E-04
       374    4.941515E-07
       375    2.172481E-06
       376    6.779901E-05
       377   -6.565755E-07
       378   -1.392786E-06
       379    9.246129E-05
       380   -6.398327E-09
       381   -1.521903E-06
       382   -1.834232E-04
       383    1.449836E-04
       384   -1.191090E-05
       385   -2.578264E-05
       386   -5.841754E-06
       387    4.779594E-04
       388   -5.740364E-03
       389   -1.051505E-03
       390    1.265250E-04
       391   -1.816194E-04
       392   -8.203137E-02
       393    2.899118E-06
       394   -3.024994E-04
       395   -7.608328E-02
       396   -1.188614E-03
       397   -5.190687E-04
       398   -6.111472E-02
       399   -1.327444E-04
       400   -2.608646E-04
       401   -7.206095E-03
       402    4.654336E-06
       403   -4.622824E-06
       404   -3.151155E-08
       405    2.233333E-06
       406    1.813274E-06
       407   -5.231808E-04
       408   -7.692283E-06
       409   -1.090833E-05
       410    1.860061E-05
       411   -3.965124E-06
       412   -5.688196E-04
       413   -1.723769E-03
       414   -7.525321E-05
       415    5.384017E-05
       416    2.141304E-05
       417   -7.865656E-05
       418   -5.440566E-04
       419   -2.512712E-04
       420    4.921063E-07
       421   -2.168590E-06
       422    6.779925E-05
       423   -6.373815E-07
       424    1.403545E-06
       425    9.245509E-05
       426   -2.284835E-08
       427    1.505924E-06
       428   -1.834173E-04
       429   -1.449813E-04
       430    4.495455E-03
       431    1.069773E-02
       432   -1.675678E-02
       433   -2.645870E-02
       434   -2.060779E-02
       435   -7.211972E-02
       436   -1.578292E-02
       437    6.461440E-06
       438    2.052109E-01
       439   -1.813781E-02
       440   -4.658408E-07
       441    2.033495E-01
       442   -1.625925E-02
       443   -8.885005E-05
       444    1.732236E-01
       445   -1.045889E-04
       446    2.114583E-05
       447    8.344309E-05
       448    1.744517E-07
       449    1.260029E-03
       450    1.417768E-07
       451   -2.935835E-04
       452   -1.341738E-03
       453    1.635322E-03
       454   -2.954928E-06
       455    4.620016E-03
       456    5.211807E-07
       457   -2.569486E-03
       458   -2.569690E-03
       459    5.139175E-03
       460   -3.452352E-06
       461    2.514311E-03
       462    1.167789E-06
       463   -1.489022E-04
       464    2.391466E-08
       465   -7.249326E-04
       466   -7.188122E-05
       467    5.191159E-09
       468    2.895386E-04
       469    2.716544E-04
       470   -3.727605E-08
       471    6.830606E-04
       472   -4.226546E-08
       473    9.938910E-03
       474    1.823892E-02
       475    3.114673E-02
       476   -2.101104E-03
       477   -1.855351E-03
       478    1.056764E-02
       479    1.898780E-03
       480   -3.711381E-03
       481    1.389462E-02
       482    9.934982E-03
       483    1.818050E-02
       484    3.093559E-02
       485   -2.097682E-03
       486    1.849927E-03
       487    1.057058E-02
       488    1.929313E-03
       489    3.677270E-03
       490    1.390097E-02
 Sym= X
 Ene= -0.271237
 Spin= Alpha
 Occup= -0.271237
         1   -3.009368E-05
         2   -6.888813E-05
         3    1.847343E-04
         4   -3.288368E-04
         5   -1.020986E-02
         6   -6.902795E-04
         7   -1.414106E-04
         8   -1.885563E-04
         9   -1.889976E-01
        10   -7.962515E-04
        11   -6.639202E-07
        12   -1.895977E-01
        13    4.418077E-03
        14   -6.738245E-03
        15   -1.109799E-01
        16   -9.122551E-06
        17    3.497995E-06
        18    5.624556E-06
        19    6.122140E-07
        20   -4.970193E-03
        21   -5.539376E-04
        22   -1.458267E-04
        23    9.547627E-05
        24    5.035047E-05
        25    1.490199E-05
        26   -9.551743E-03
        27    4.086716E-04
        28    9.350970E-04
        29   -1.063513E-03
        30    1.284162E-04
        31    5.315376E-04
        32   -3.282776E-03
        33    1.045415E-04
        34   -5.777986E-06
        35   -7.572674E-07
        36    1.176313E-03
        37    1.395079E-06
        38   -1.481622E-08
        39   -1.420768E-03
        40    6.356902E-06
        41    1.030797E-06
        42   -1.574216E-04
        43   -5.595043E-07
        44    4.368692E-08
        45    2.283018E-07
        46   -8.121929E-06
        47    3.050410E-05
        48    2.609953E-03
        49    1.843846E-04
        50   -1.764061E-06
        51    1.043071E-04
        52   -7.268139E-06
        53    1.850329E-05
        54    3.243835E-04
        55   -2.511588E-06
        56    1.166373E-03
        57   -1.061444E-02
        58    4.195655E-06
        59   -1.096236E-07
        60    2.209476E-07
        61   -1.113240E-07
        62    1.067126E-05