[Molden Format]
[Title]
ADC(2) - opt by CAM-B3LYP gaussian                                              
[Atoms] AU
 c     1    6 -.12590385386216E+01 -.22819701624009E+01 -.30156123253150E-01
 c     2    6 -.25547233845863E+01 -.83266058000000E-06 -.28792213416740E-01
 c     3    6 -.12590428849917E+01 0.22819669475044E+01 -.30169993842970E-01
 c     4    6 0.13339759331395E+01 0.22828246941961E+01 -.32722654800530E-01
 c     5    6 0.26864234278208E+01 0.32869423900000E-05 -.32794180934660E-01
 c     6    6 0.13339778039684E+01 -.22828226745513E+01 -.32706516539360E-01
 h     7    1 -.23005849451053E+01 -.40353719055945E+01 -.27139024303910E-01
 h     8    1 -.23005903875166E+01 0.40353685773143E+01 -.27164403325880E-01
 h     9    1 0.23527432406667E+01 0.40554759247724E+01 -.35914685697900E-01
 h    10    1 0.23527525948111E+01 -.40554698422164E+01 -.35883032785170E-01
 n    11    7 -.52784595104117E+01 -.53030440000000E-06 -.22539903328000E-01
 o    12    8 -.63796877956448E+01 0.20272212823250E+01 -.19883023974210E-01
 o    13    8 -.63796922742957E+01 -.20272201130570E+01 -.19923067270970E-01
 n    14    7 0.52516126460355E+01 -.32243452000000E-06 -.88209511610250E-01
 h    15    1 0.62001707317805E+01 0.16133662892433E+01 0.23199721167530E+00
 h    16    1 0.62001633429513E+01 -.16133706190784E+01 0.23200112340840E+00
[GTO]
    1 0
 s    6 1.00
 0.13575349682000E+05 0.60645503603591E-03
 0.20352333680000E+04 0.46979088884982E-02
 0.46322562359000E+03 0.24332477647552E-01
 0.13120019598000E+03 0.97399968307759E-01
 0.42853015891000E+02 0.30195584253780E+00
 0.15584185766000E+02 0.66233609137875E+00
 s    2 1.00
 0.62067138508000E+01 0.65595308539952E+00
 0.25764896527000E+01 0.37585633285142E+00
 s    1 1.00
 0.57696339419000E+00 0.10000000000000E+01
 s    1 1.00
 0.22972831358000E+00 0.10000000000000E+01
 s    1 1.00
 0.95164440028000E-01 0.10000000000000E+01
 s    1 1.00
 0.48475401370000E-01 0.10000000000000E+01
 p    4 1.00
 0.34697232244000E+02 0.11327220003114E-01
 0.79582622826000E+01 0.76169659202087E-01
 0.23780826883000E+01 0.30192252202676E+00
 0.81433208183000E+00 0.72785027349547E+00
 p    1 1.00
 0.28887547253000E+00 0.10000000000000E+01
 p    1 1.00
 0.10056823671000E+00 0.10000000000000E+01
 d    1 1.00
 0.10970000000000E+01 0.10000000000000E+01
 d    1 1.00
 0.31800000000000E+00 0.10000000000000E+01
 d    1 1.00
 0.90985336424000E-01 0.10000000000000E+01
 f    1 1.00
 0.76100000000000E+00 0.10000000000000E+01
 
    2 0
 s    6 1.00
 0.13575349682000E+05 0.60645503603591E-03
 0.20352333680000E+04 0.46979088884982E-02
 0.46322562359000E+03 0.24332477647552E-01
 0.13120019598000E+03 0.97399968307759E-01
 0.42853015891000E+02 0.30195584253780E+00
 0.15584185766000E+02 0.66233609137875E+00
 s    2 1.00
 0.62067138508000E+01 0.65595308539952E+00
 0.25764896527000E+01 0.37585633285142E+00
 s    1 1.00
 0.57696339419000E+00 0.10000000000000E+01
 s    1 1.00
 0.22972831358000E+00 0.10000000000000E+01
 s    1 1.00
 0.95164440028000E-01 0.10000000000000E+01
 s    1 1.00
 0.48475401370000E-01 0.10000000000000E+01
 p    4 1.00
 0.34697232244000E+02 0.11327220003114E-01
 0.79582622826000E+01 0.76169659202087E-01
 0.23780826883000E+01 0.30192252202676E+00
 0.81433208183000E+00 0.72785027349547E+00
 p    1 1.00
 0.28887547253000E+00 0.10000000000000E+01
 p    1 1.00
 0.10056823671000E+00 0.10000000000000E+01
 d    1 1.00
 0.10970000000000E+01 0.10000000000000E+01
 d    1 1.00
 0.31800000000000E+00 0.10000000000000E+01
 d    1 1.00
 0.90985336424000E-01 0.10000000000000E+01
 f    1 1.00
 0.76100000000000E+00 0.10000000000000E+01
 
    3 0
 s    6 1.00
 0.13575349682000E+05 0.60645503603591E-03
 0.20352333680000E+04 0.46979088884982E-02
 0.46322562359000E+03 0.24332477647552E-01
 0.13120019598000E+03 0.97399968307759E-01
 0.42853015891000E+02 0.30195584253780E+00
 0.15584185766000E+02 0.66233609137875E+00
 s    2 1.00
 0.62067138508000E+01 0.65595308539952E+00
 0.25764896527000E+01 0.37585633285142E+00
 s    1 1.00
 0.57696339419000E+00 0.10000000000000E+01
 s    1 1.00
 0.22972831358000E+00 0.10000000000000E+01
 s    1 1.00
 0.95164440028000E-01 0.10000000000000E+01
 s    1 1.00
 0.48475401370000E-01 0.10000000000000E+01
 p    4 1.00
 0.34697232244000E+02 0.11327220003114E-01
 0.79582622826000E+01 0.76169659202087E-01
 0.23780826883000E+01 0.30192252202676E+00
 0.81433208183000E+00 0.72785027349547E+00
 p    1 1.00
 0.28887547253000E+00 0.10000000000000E+01
 p    1 1.00
 0.10056823671000E+00 0.10000000000000E+01
 d    1 1.00
 0.10970000000000E+01 0.10000000000000E+01
 d    1 1.00
 0.31800000000000E+00 0.10000000000000E+01
 d    1 1.00
 0.90985336424000E-01 0.10000000000000E+01
 f    1 1.00
 0.76100000000000E+00 0.10000000000000E+01
 
    4 0
 s    6 1.00
 0.13575349682000E+05 0.60645503603591E-03
 0.20352333680000E+04 0.46979088884982E-02
 0.46322562359000E+03 0.24332477647552E-01
 0.13120019598000E+03 0.97399968307759E-01
 0.42853015891000E+02 0.30195584253780E+00
 0.15584185766000E+02 0.66233609137875E+00
 s    2 1.00
 0.62067138508000E+01 0.65595308539952E+00
 0.25764896527000E+01 0.37585633285142E+00
 s    1 1.00
 0.57696339419000E+00 0.10000000000000E+01
 s    1 1.00
 0.22972831358000E+00 0.10000000000000E+01
 s    1 1.00
 0.95164440028000E-01 0.10000000000000E+01
 s    1 1.00
 0.48475401370000E-01 0.10000000000000E+01
 p    4 1.00
 0.34697232244000E+02 0.11327220003114E-01
 0.79582622826000E+01 0.76169659202087E-01
 0.23780826883000E+01 0.30192252202676E+00
 0.81433208183000E+00 0.72785027349547E+00
 p    1 1.00
 0.28887547253000E+00 0.10000000000000E+01
 p    1 1.00
 0.10056823671000E+00 0.10000000000000E+01
 d    1 1.00
 0.10970000000000E+01 0.10000000000000E+01
 d    1 1.00
 0.31800000000000E+00 0.10000000000000E+01
 d    1 1.00
 0.90985336424000E-01 0.10000000000000E+01
 f    1 1.00
 0.76100000000000E+00 0.10000000000000E+01
 
    5 0
 s    6 1.00
 0.13575349682000E+05 0.60645503603591E-03
 0.20352333680000E+04 0.46979088884982E-02
 0.46322562359000E+03 0.24332477647552E-01
 0.13120019598000E+03 0.97399968307759E-01
 0.42853015891000E+02 0.30195584253780E+00
 0.15584185766000E+02 0.66233609137875E+00
 s    2 1.00
 0.62067138508000E+01 0.65595308539952E+00
 0.25764896527000E+01 0.37585633285142E+00
 s    1 1.00
 0.57696339419000E+00 0.10000000000000E+01
 s    1 1.00
 0.22972831358000E+00 0.10000000000000E+01
 s    1 1.00
 0.95164440028000E-01 0.10000000000000E+01
 s    1 1.00
 0.48475401370000E-01 0.10000000000000E+01
 p    4 1.00
 0.34697232244000E+02 0.11327220003114E-01
 0.79582622826000E+01 0.76169659202087E-01
 0.23780826883000E+01 0.30192252202676E+00
 0.81433208183000E+00 0.72785027349547E+00
 p    1 1.00
 0.28887547253000E+00 0.10000000000000E+01
 p    1 1.00
 0.10056823671000E+00 0.10000000000000E+01
 d    1 1.00
 0.10970000000000E+01 0.10000000000000E+01
 d    1 1.00
 0.31800000000000E+00 0.10000000000000E+01
 d    1 1.00
 0.90985336424000E-01 0.10000000000000E+01
 f    1 1.00
 0.76100000000000E+00 0.10000000000000E+01
 
    6 0
 s    6 1.00
 0.13575349682000E+05 0.60645503603591E-03
 0.20352333680000E+04 0.46979088884982E-02
 0.46322562359000E+03 0.24332477647552E-01
 0.13120019598000E+03 0.97399968307759E-01
 0.42853015891000E+02 0.30195584253780E+00
 0.15584185766000E+02 0.66233609137875E+00
 s    2 1.00
 0.62067138508000E+01 0.65595308539952E+00
 0.25764896527000E+01 0.37585633285142E+00
 s    1 1.00
 0.57696339419000E+00 0.10000000000000E+01
 s    1 1.00
 0.22972831358000E+00 0.10000000000000E+01
 s    1 1.00
 0.95164440028000E-01 0.10000000000000E+01
 s    1 1.00
 0.48475401370000E-01 0.10000000000000E+01
 p    4 1.00
 0.34697232244000E+02 0.11327220003114E-01
 0.79582622826000E+01 0.76169659202087E-01
 0.23780826883000E+01 0.30192252202676E+00
 0.81433208183000E+00 0.72785027349547E+00
 p    1 1.00
 0.28887547253000E+00 0.10000000000000E+01
 p    1 1.00
 0.10056823671000E+00 0.10000000000000E+01
 d    1 1.00
 0.10970000000000E+01 0.10000000000000E+01
 d    1 1.00
 0.31800000000000E+00 0.10000000000000E+01
 d    1 1.00
 0.90985336424000E-01 0.10000000000000E+01
 f    1 1.00
 0.76100000000000E+00 0.10000000000000E+01
 
    7 0
 s    3 1.00
 0.34061341000000E+02 0.25439307208879E-01
 0.51235746000000E+01 0.19008594890375E+00
 0.11646626000000E+01 0.85244113011042E+00
 s    1 1.00
 0.32723041000000E+00 0.10000000000000E+01
 s    1 1.00
 0.10307241000000E+00 0.10000000000000E+01
 p    1 1.00
 0.80000000000000E+00 0.10000000000000E+01
 p    1 1.00
 0.95774129632000E-01 0.10000000000000E+01
 
    8 0
 s    3 1.00
 0.34061341000000E+02 0.25439307208879E-01
 0.51235746000000E+01 0.19008594890375E+00
 0.11646626000000E+01 0.85244113011042E+00
 s    1 1.00
 0.32723041000000E+00 0.10000000000000E+01
 s    1 1.00
 0.10307241000000E+00 0.10000000000000E+01
 p    1 1.00
 0.80000000000000E+00 0.10000000000000E+01
 p    1 1.00
 0.95774129632000E-01 0.10000000000000E+01
 
    9 0
 s    3 1.00
 0.34061341000000E+02 0.25439307208879E-01
 0.51235746000000E+01 0.19008594890375E+00
 0.11646626000000E+01 0.85244113011042E+00
 s    1 1.00
 0.32723041000000E+00 0.10000000000000E+01
 s    1 1.00
 0.10307241000000E+00 0.10000000000000E+01
 p    1 1.00
 0.80000000000000E+00 0.10000000000000E+01
 p    1 1.00
 0.95774129632000E-01 0.10000000000000E+01
 
   10 0
 s    3 1.00
 0.34061341000000E+02 0.25439307208879E-01
 0.51235746000000E+01 0.19008594890375E+00
 0.11646626000000E+01 0.85244113011042E+00
 s    1 1.00
 0.32723041000000E+00 0.10000000000000E+01
 s    1 1.00
 0.10307241000000E+00 0.10000000000000E+01
 p    1 1.00
 0.80000000000000E+00 0.10000000000000E+01
 p    1 1.00
 0.95774129632000E-01 0.10000000000000E+01
 
   11 0
 s    6 1.00
 0.19730800647000E+05 0.58626402628763E-03
 0.29578958745000E+04 0.45428820586397E-02
 0.67322133595000E+03 0.23558413450084E-01
 0.19068249494000E+03 0.94709193292923E-01
 0.62295441898000E+02 0.29719784913376E+00
 0.22654161182000E+02 0.66916246895232E+00
 s    2 1.00
 0.89791477428000E+01 0.64596683630063E+00
 0.36863002370000E+01 0.38700574393705E+00
 s    1 1.00
 0.84660076805000E+00 0.10000000000000E+01
 s    1 1.00
 0.33647133771000E+00 0.10000000000000E+01
 s    1 1.00
 0.13647653675000E+00 0.10000000000000E+01
 s    1 1.00
 0.68441605847000E-01 0.10000000000000E+01
 p    4 1.00
 0.49200380510000E+02 0.11448825101764E-01
 0.11346790537000E+02 0.78422337970864E-01
 0.34273972411000E+01 0.30818094738830E+00
 0.11785525134000E+01 0.72027196368413E+00
 p    1 1.00
 0.41642204972000E+00 0.10000000000000E+01
 p    1 1.00
 0.14260826011000E+00 0.10000000000000E+01
 d    1 1.00
 0.16540000000000E+01 0.10000000000000E+01
 d    1 1.00
 0.46900000000000E+00 0.10000000000000E+01
 d    1 1.00
 0.12829642058000E+00 0.10000000000000E+01
 f    1 1.00
 0.10930000000000E+01 0.10000000000000E+01
 
   12 0
 s    6 1.00
 0.27032382631000E+05 0.57227335211155E-03
 0.40523871392000E+04 0.44353233492995E-02
 0.92232722710000E+03 0.23020107706038E-01
 0.26124070989000E+03 0.92822490667928E-01
 0.85354641351000E+02 0.29378500009671E+00
 0.31035035245000E+02 0.67401604501641E+00
 s    2 1.00
 0.12260860728000E+02 0.63839937025506E+00
 0.49987076005000E+01 0.39534587125718E+00
 s    1 1.00
 0.11703108158000E+01 0.10000000000000E+01
 s    1 1.00
 0.46474740994000E+00 0.10000000000000E+01
 s    1 1.00
 0.18504536357000E+00 0.10000000000000E+01
 s    1 1.00
 0.70288026270000E-01 0.10000000000000E+01
 p    4 1.00
 0.63274954801000E+02 0.12018332222616E-01
 0.14627049379000E+02 0.83005421790056E-01
 0.44501223456000E+01 0.31991743925964E+00
 0.15275799647000E+01 0.70715542916104E+00
 p    1 1.00
 0.52935117943000E+00 0.10000000000000E+01
 p    1 1.00
 0.17478421270000E+00 0.10000000000000E+01
 p    1 1.00
 0.51112745706000E-01 0.10000000000000E+01
 d    1 1.00
 0.23140000000000E+01 0.10000000000000E+01
 d    1 1.00
 0.64500000000000E+00 0.10000000000000E+01
 d    1 1.00
 0.14696477366000E+00 0.10000000000000E+01
 f    1 1.00
 0.14280000000000E+01 0.10000000000000E+01
 
   13 0
 s    6 1.00
 0.27032382631000E+05 0.57227335211155E-03
 0.40523871392000E+04 0.44353233492995E-02
 0.92232722710000E+03 0.23020107706038E-01
 0.26124070989000E+03 0.92822490667928E-01
 0.85354641351000E+02 0.29378500009671E+00
 0.31035035245000E+02 0.67401604501641E+00
 s    2 1.00
 0.12260860728000E+02 0.63839937025506E+00
 0.49987076005000E+01 0.39534587125718E+00
 s    1 1.00
 0.11703108158000E+01 0.10000000000000E+01
 s    1 1.00
 0.46474740994000E+00 0.10000000000000E+01
 s    1 1.00
 0.18504536357000E+00 0.10000000000000E+01
 s    1 1.00
 0.70288026270000E-01 0.10000000000000E+01
 p    4 1.00
 0.63274954801000E+02 0.12018332222616E-01
 0.14627049379000E+02 0.83005421790056E-01
 0.44501223456000E+01 0.31991743925964E+00
 0.15275799647000E+01 0.70715542916104E+00
 p    1 1.00
 0.52935117943000E+00 0.10000000000000E+01
 p    1 1.00
 0.17478421270000E+00 0.10000000000000E+01
 p    1 1.00
 0.51112745706000E-01 0.10000000000000E+01
 d    1 1.00
 0.23140000000000E+01 0.10000000000000E+01
 d    1 1.00
 0.64500000000000E+00 0.10000000000000E+01
 d    1 1.00
 0.14696477366000E+00 0.10000000000000E+01
 f    1 1.00
 0.14280000000000E+01 0.10000000000000E+01
 
   14 0
 s    6 1.00
 0.19730800647000E+05 0.58626402628763E-03
 0.29578958745000E+04 0.45428820586397E-02
 0.67322133595000E+03 0.23558413450084E-01
 0.19068249494000E+03 0.94709193292923E-01
 0.62295441898000E+02 0.29719784913376E+00
 0.22654161182000E+02 0.66916246895232E+00
 s    2 1.00
 0.89791477428000E+01 0.64596683630063E+00
 0.36863002370000E+01 0.38700574393705E+00
 s    1 1.00
 0.84660076805000E+00 0.10000000000000E+01
 s    1 1.00
 0.33647133771000E+00 0.10000000000000E+01
 s    1 1.00
 0.13647653675000E+00 0.10000000000000E+01
 s    1 1.00
 0.68441605847000E-01 0.10000000000000E+01
 p    4 1.00
 0.49200380510000E+02 0.11448825101764E-01
 0.11346790537000E+02 0.78422337970864E-01
 0.34273972411000E+01 0.30818094738830E+00
 0.11785525134000E+01 0.72027196368413E+00
 p    1 1.00
 0.41642204972000E+00 0.10000000000000E+01
 p    1 1.00
 0.14260826011000E+00 0.10000000000000E+01
 d    1 1.00
 0.16540000000000E+01 0.10000000000000E+01
 d    1 1.00
 0.46900000000000E+00 0.10000000000000E+01
 d    1 1.00
 0.12829642058000E+00 0.10000000000000E+01
 f    1 1.00
 0.10930000000000E+01 0.10000000000000E+01
 
   15 0
 s    3 1.00
 0.34061341000000E+02 0.25439307208879E-01
 0.51235746000000E+01 0.19008594890375E+00
 0.11646626000000E+01 0.85244113011042E+00
 s    1 1.00
 0.32723041000000E+00 0.10000000000000E+01
 s    1 1.00
 0.10307241000000E+00 0.10000000000000E+01
 p    1 1.00
 0.80000000000000E+00 0.10000000000000E+01
 p    1 1.00
 0.95774129632000E-01 0.10000000000000E+01
 
   16 0
 s    3 1.00
 0.34061341000000E+02 0.25439307208879E-01
 0.51235746000000E+01 0.19008594890375E+00
 0.11646626000000E+01 0.85244113011042E+00
 s    1 1.00
 0.32723041000000E+00 0.10000000000000E+01
 s    1 1.00
 0.10307241000000E+00 0.10000000000000E+01
 p    1 1.00
 0.80000000000000E+00 0.10000000000000E+01
 p    1 1.00
 0.95774129632000E-01 0.10000000000000E+01
 
[MO]
 Sym= X
 Ene= -0.199824
 Spin= Alpha
 Occup= -0.199824
         1   -2.398389E-04
         2   -5.573421E-04
         3    1.546738E-03
         4   -3.384523E-03
         5   -9.698415E-04
         6   -1.400157E-02
         7    2.707711E-03
         8    2.200318E-04
         9    9.632273E-03
        10   -2.587728E-03
        11    5.191250E-04
        12    8.087787E-03
        13   -4.026636E-02
        14    1.310481E-02
        15    2.000869E-03
        16    2.960422E-05
        17   -4.181700E-05
        18    1.221278E-05
        19   -1.983040E-05
        20   -6.232991E-03
        21    3.284733E-03
        22   -7.931564E-04
        23    4.664724E-04
        24    3.266840E-04
        25   -8.857977E-04
        26   -1.400429E-02
        27    6.319627E-03
        28   -5.434273E-03
        29    5.122968E-03
        30    3.113058E-04
        31    1.510002E-03
        32    2.986571E-03
        33   -1.011312E-02
        34   -2.327539E-05
        35    7.702524E-06
        36    3.703641E-05
        37    1.033388E-05
        38   -7.040437E-06
        39   -7.840183E-04
        40    2.089333E-05
        41   -3.293583E-06
        42    7.343288E-04
        43   -6.343815E-04
        44    3.839038E-05
        45    8.376450E-05
        46    1.675895E-04
        47   -3.677638E-03
        48   -6.023370E-02
        49    7.327373E-03
        50   -9.771465E-05
        51    2.296690E-06
        52    1.761277E-01
        53   -9.983258E-04
        54    1.347591E-05
        55    1.833476E-01
        56   -1.873928E-02
        57   -5.915425E-04
        58    1.866255E-01
        59    8.331764E-05
        60   -7.959258E-05
        61   -3.725059E-06
        62    1.244170E-07
        63   -1.008949E-03
        64    6.502282E-07
        65    5.116295E-04
        66   -8.223740E-04
        67    3.107446E-04
        68    3.045795E-06
        69   -3.693550E-03
        70    1.012995E-06
        71    1.217183E-02
        72   -1.363580E-02
        73    1.463972E-03
        74   -9.098609E-05
        75    3.733125E-03
        76   -1.124361E-05
        77    5.700125E-06
        78    9.423601E-09
        79   -9.365418E-04
        80   -7.299178E-06
        81    4.477919E-08
        82    5.782484E-04
        83   -3.483424E-07
        84   -5.742228E-08
        85    6.782543E-04
        86    7.168799E-08
        87   -2.400277E-04
        88   -5.577164E-04
        89    1.546482E-03
        90   -3.385042E-03
        91    1.025571E-03
        92   -1.400663E-02
        93    2.710421E-03
        94   -2.239006E-04
        95    9.664735E-03
        96   -2.547482E-03
        97   -5.182377E-04
        98    8.120851E-03
        99   -4.025651E-02
       100   -1.368018E-02
       101    2.045045E-03
       102    2.973108E-05
       103   -4.185355E-05
       104    1.212247E-05
       105    2.015192E-05
       106   -6.232432E-03
       107   -3.284899E-03
       108   -7.846063E-04
       109    4.586635E-04
       110    3.259428E-04
       111    8.842799E-04
       112   -1.400226E-02
       113   -6.319422E-03
       114   -5.498906E-03
       115    5.202427E-03
       116    2.964787E-04
       117   -1.426761E-03
       118    2.978339E-03
       119    1.011015E-02
       120   -2.324226E-05
       121   -7.674977E-06
       122    3.686231E-05
       123    1.042709E-05
       124    6.959916E-06
       125   -7.838214E-04
       126    2.075567E-05
       127    3.337146E-06
       128    7.343654E-04
       129    6.343463E-04
       130    1.550397E-04
       131    3.360807E-04
       132    6.357252E-04
       133   -1.252429E-02
       134    2.523254E-02
       135    1.621473E-02
       136   -2.364107E-03
       137    8.974130E-04
       138   -1.624404E-01
       139   -1.182206E-02
       140    7.613547E-03
       141   -1.649455E-01
       142   -2.411498E-02
       143   -9.323236E-03
       144   -9.824341E-02
       145    2.057601E-04
       146   -2.419642E-04
       147    3.620410E-05
       148   -1.823254E-06
       149   -5.814114E-04
       150    3.157742E-03
       151    8.243848E-04
       152   -9.567655E-04
       153    1.323807E-04
       154    2.065915E-03
       155   -3.744366E-03
       156    5.219160E-03
       157    9.995235E-03
       158   -7.834497E-03
       159   -2.160739E-03
       160   -1.165711E-02
       161    3.866985E-03
       162   -1.261667E-02
       163   -2.114188E-05
       164    1.236594E-05
       165    9.528413E-04
       166   -2.310157E-05
       167    2.029245E-05
       168   -2.966754E-04
       169    5.146637E-05
       170   -3.688310E-05
       171   -9.816953E-04
       172    3.336966E-04
       173   -1.333796E-03
       174   -3.041664E-03
       175    3.105974E-03
       176    2.635202E-02
       177   -3.181505E-02
       178    9.524400E-03
       179    1.160680E-02
       180   -2.717956E-06
       181   -1.188121E-01
       182    8.854060E-04
       183   -1.457127E-05
       184   -1.216044E-01
       185   -3.936852E-02
       186    7.174161E-04
       187   -1.362146E-01
       188    6.381628E-04
       189   -3.719851E-04
       190   -2.661776E-04
       191    2.557146E-07
       192    1.027712E-02
       193    5.263513E-07
       194   -2.218354E-03
       195    4.936147E-03
       196   -2.717793E-03
       197    3.462328E-06
       198    2.532373E-02
       199    6.237780E-07
       200   -7.572119E-03
       201    8.894362E-03
       202   -1.322243E-03
       203   -1.409084E-04
       204    1.816812E-02
       205    2.995276E-06
       206    1.439707E-04
       207   -2.452236E-10
       208    3.692002E-04
       209   -1.004808E-04
       210   -6.152824E-08
       211    1.054320E-03
       212   -9.267611E-05
       213    6.185725E-08
       214   -1.549654E-03
       215   -6.126552E-08
       216    1.557113E-04
       217    3.374665E-04
       218    6.339694E-04
       219   -1.253831E-02
       220    2.738540E-02
       221    1.618207E-02
       222   -2.362749E-03
       223   -8.893554E-04
       224   -1.624684E-01
       225   -1.184661E-02
       226   -7.619410E-03
       227   -1.649748E-01
       228   -2.415306E-02
       229    1.009172E-02
       230   -9.823925E-02
       231    2.056456E-04
       232   -2.423030E-04
       233    3.665736E-05
       234    2.308745E-06
       235   -5.807247E-04
       236   -3.157847E-03
       237    8.315745E-04
       238   -9.633623E-04
       239    1.317878E-04
       240   -2.068807E-03
       241   -3.741535E-03
       242   -5.218766E-03
       243    9.952624E-03
       244   -7.791868E-03
       245   -2.160755E-03
       246    1.173011E-02
       247    3.873566E-03
       248    1.262545E-02
       249   -2.126106E-05
       250   -1.243997E-05
       251    9.530974E-04
       252   -2.318209E-05
       253   -2.018221E-05
       254   -2.969768E-04
       255    5.170680E-05
       256    3.687219E-05
       257   -9.817375E-04
       258   -3.336377E-04
       259   -6.159898E-04
       260   -5.052165E-04
       261   -2.105956E-02
       262   -1.260493E-05
       263   -2.348350E-05
       264    4.643876E-04
       265   -6.414241E-03
       266   -5.399456E-04
       267   -5.911108E-03
       268   -6.189564E-04
       269   -4.990041E-04
       270   -2.101612E-02
       271   -1.188531E-05
       272    2.250588E-05
       273    4.657569E-04
       274   -6.495473E-03
       275    5.118508E-04
       276   -5.914144E-03
       277   -6.903557E-04
       278   -3.198960E-03
       279    4.299954E-02
       280   -1.883266E-05
       281    1.540995E-04
       282   -6.519576E-03
       283   -2.197838E-03
       284   -3.425086E-03
       285    1.702155E-03
       286   -6.954652E-04
       287   -3.199163E-03
       288    4.327238E-02
       289   -1.835045E-05
       290   -1.537575E-04
       291   -6.521081E-03
       292   -2.198907E-03
       293    3.460269E-03
       294    1.703818E-03
       295   -8.352779E-05
       296   -1.954619E-04
       297    2.109525E-04
       298    6.698473E-04
       299   -8.236929E-03
       300    4.527348E-04
       301    1.086464E-03
       302   -9.740890E-07
       303    2.471847E-02
       304    6.607858E-04
       305   -5.277397E-07
       306    2.667168E-02
       307   -3.542683E-03
       308    2.782164E-05
       309    7.512579E-03
       310    4.552750E-05
       311   -3.721332E-05
       312   -8.314171E-06
       313    1.565256E-07
       314    3.737626E-03
       315    4.471678E-08
       316    6.696868E-05
       317   -5.678289E-06
       318   -6.129039E-05
       319    7.429775E-08
       320    1.139851E-02
       321    9.876263E-08
       322   -1.063617E-03
       323    3.413697E-03
       324   -2.350080E-03
       325    2.055106E-05
       326    2.563951E-03
       327    2.671810E-06
       328    7.999835E-06
       329    3.506456E-08
       330   -4.713266E-05
       331   -4.356903E-06
       332   -2.900637E-08
       333    6.254178E-04
       334   -6.376002E-06
       335   -1.803768E-08
       336   -5.621827E-04
       337    5.838176E-09
       338   -2.043008E-05
       339   -4.543910E-05
       340    1.517430E-05
       341    6.989081E-04
       342   -7.278064E-03
       343   -1.238911E-03
       344   -8.267983E-04
       345    1.329700E-04
       346   -6.294831E-02
       347   -8.716010E-04
       348    2.757119E-04
       349   -5.852027E-02
       350   -2.044914E-03
       351    6.365523E-04
       352   -4.886432E-02
       353   -2.784668E-04
       354    2.417593E-04
       355   -6.179521E-03
       356    4.484472E-06
       357   -8.012633E-06
       358    3.528162E-06
       359    5.304390E-06
       360    6.712147E-05
       361    3.067765E-04
       362   -1.678795E-05
       363   -1.679444E-05
       364    3.358239E-05
       365    2.171784E-05
       366   -2.710540E-04
       367    1.064562E-03
       368   -8.929962E-05
       369    4.512136E-05
       370    4.417826E-05
       371    7.969498E-05
       372   -1.061177E-04
       373    1.434318E-04
       374    1.584126E-06
       375    1.963552E-06
       376    3.428618E-05
       377   -3.040375E-06
       378    2.648671E-07
       379    7.369649E-05
       380    9.150468E-07
       381   -2.899249E-06
       382   -1.196962E-04
       383    8.931798E-05
       384   -2.040234E-05
       385   -4.540375E-05
       386    1.548634E-05
       387    6.956686E-04
       388   -7.273320E-03
       389   -1.215813E-03
       390   -8.308513E-04
       391   -1.259017E-04
       392   -6.294942E-02
       393   -8.750112E-04
       394   -2.695292E-04
       395   -5.852156E-02
       396   -2.027182E-03
       397   -6.270957E-04
       398   -4.886085E-02
       399   -2.675563E-04
       400   -2.446960E-04
       401   -6.181123E-03
       402    4.418799E-06
       403   -7.918863E-06
       404    3.500064E-06
       405   -5.330062E-06
       406    6.708586E-05
       407   -3.067910E-04
       408   -1.678012E-05
       409   -1.657756E-05
       410    3.335767E-05
       411   -2.139683E-05
       412   -2.710516E-04
       413   -1.064584E-03
       414   -9.020916E-05
       415    4.740342E-05
       416    4.280574E-05
       417   -7.896005E-05
       418   -1.064002E-04
       419   -1.429109E-04
       420    1.572102E-06
       421   -1.935136E-06
       422    3.429169E-05
       423   -3.012677E-06
       424   -2.859113E-07
       425    7.369137E-05
       426    9.034800E-07
       427    2.882168E-06
       428   -1.196985E-04
       429   -8.932410E-05
       430    5.771626E-03
       431    1.372586E-02
       432   -2.145049E-02
       433   -3.404765E-02
       434   -2.167808E-02
       435   -8.108897E-02
       436   -2.161616E-02
       437    9.219418E-06
       438    2.633226E-01
       439   -2.467068E-02
       440    5.265578E-07
       441    2.598002E-01
       442   -2.494007E-02
       443   -1.067477E-04
       444    2.121341E-01
       445   -1.284421E-04
       446   -2.712349E-05
       447    1.555656E-04
       448    2.592047E-07
       449    8.513947E-04
       450    2.008095E-07
       451   -2.630858E-04
       452   -1.939822E-03
       453    2.202908E-03
       454   -3.640726E-06
       455    3.780642E-03
       456    6.179680E-07
       457   -2.217857E-03
       458   -4.255468E-03
       459    6.473325E-03
       460   -5.033306E-06
       461    2.487074E-03
       462    1.264701E-06
       463   -1.766834E-04
       464    4.003145E-08
       465   -1.024686E-03
       466   -1.031579E-04
       467    4.902580E-09
       468    5.411513E-04
       469    3.402036E-04
       470   -5.861041E-08
       471    8.336097E-04
       472   -4.879681E-08
       473    1.166451E-02
       474    2.227136E-02
       475    3.852230E-02
       476   -2.781308E-03
       477   -2.347361E-03
       478    1.323659E-02
       479    1.029577E-03
       480   -4.362263E-03
       481    1.509619E-02
       482    1.165850E-02
       483    2.219649E-02
       484    3.826044E-02
       485   -2.776799E-03
       486    2.340506E-03
       487    1.324022E-02
       488    1.067465E-03
       489    4.320138E-03
       490    1.510644E-02
 Sym= X
 Ene= -0.752506
 Spin= Alpha
 Occup= -0.752506
         1    2.384126E-05
         2    5.457011E-05
         3   -1.502858E-04
         4    2.949569E-04
         5    9.437792E-03
         6    5.097832E-04
         7    1.046460E-04
         8    1.356679E-04
         9    1.560645E-01
        10    6.960845E-04
        11   -2.753095E-05
        12    1.566090E-01
        13   -4.350649E-03
        14    6.240538E-03
        15    8.649067E-02
        16    7.422124E-06
        17   -2.428473E-06
        18   -4.993651E-06
        19    4.694470E-07
        20    4.233483E-03
        21    4.341936E-04
        22    1.311567E-04
        23   -8.488530E-05
        24   -4.627138E-05
        25   -1.026180E-05
        26    8.757400E-03
        27   -5.173563E-04
        28   -1.028076E-03
        29    1.164050E-03
        30   -1.359734E-04
        31   -5.317694E-04
        32    4.370734E-03
        33   -1.696967E-03
        34    4.752378E-06
        35    6.408934E-07
        36   -9.361984E-04
        37   -1.200922E-06
        38   -5.686534E-08
        39    1.140971E-03
        40   -5.175062E-06
        41   -8.029834E-07
        42    1.150706E-04
        43    3.026906E-05
        44    1.617093E-07
        45    2.642383E-07
        46    5.478935E-06
        47   -2.494470E-05
        48   -2.148982E-03
        49   -1.355576E-04
        50    3.959250E-06
        51   -7.517436E-05
        52    8.369399E-06
        53   -1.358437E-05
        54   -2.847840E-04
        55    4.765497E-06
        56   -9.824449E-04
        57    1.006674E-02
        58    3.816527E-06
        59   -1.576230E-08
        60   -1.039124E-07
        61    1.196747E-07
        62   -7.544628E-06