[Molden Format]
[Title]
ADC(2) - opt by CAM-B3LYP gaussian                                              
[Atoms] AU
 c     1    6 -.12590385386216E+01 -.22819701624009E+01 -.30156123253150E-01
 c     2    6 -.25547233845863E+01 -.83266058000000E-06 -.28792213416740E-01
 c     3    6 -.12590428849917E+01 0.22819669475044E+01 -.30169993842970E-01
 c     4    6 0.13339759331395E+01 0.22828246941961E+01 -.32722654800530E-01
 c     5    6 0.26864234278208E+01 0.32869423900000E-05 -.32794180934660E-01
 c     6    6 0.13339778039684E+01 -.22828226745513E+01 -.32706516539360E-01
 h     7    1 -.23005849451053E+01 -.40353719055945E+01 -.27139024303910E-01
 h     8    1 -.23005903875166E+01 0.40353685773143E+01 -.27164403325880E-01
 h     9    1 0.23527432406667E+01 0.40554759247724E+01 -.35914685697900E-01
 h    10    1 0.23527525948111E+01 -.40554698422164E+01 -.35883032785170E-01
 n    11    7 -.52784595104117E+01 -.53030440000000E-06 -.22539903328000E-01
 o    12    8 -.63796877956448E+01 0.20272212823250E+01 -.19883023974210E-01
 o    13    8 -.63796922742957E+01 -.20272201130570E+01 -.19923067270970E-01
 n    14    7 0.52516126460355E+01 -.32243452000000E-06 -.88209511610250E-01
 h    15    1 0.62001707317805E+01 0.16133662892433E+01 0.23199721167530E+00
 h    16    1 0.62001633429513E+01 -.16133706190784E+01 0.23200112340840E+00
[GTO]
    1 0
 s    6 1.00
 0.13575349682000E+05 0.60645503603591E-03
 0.20352333680000E+04 0.46979088884982E-02
 0.46322562359000E+03 0.24332477647552E-01
 0.13120019598000E+03 0.97399968307759E-01
 0.42853015891000E+02 0.30195584253780E+00
 0.15584185766000E+02 0.66233609137875E+00
 s    2 1.00
 0.62067138508000E+01 0.65595308539952E+00
 0.25764896527000E+01 0.37585633285142E+00
 s    1 1.00
 0.57696339419000E+00 0.10000000000000E+01
 s    1 1.00
 0.22972831358000E+00 0.10000000000000E+01
 s    1 1.00
 0.95164440028000E-01 0.10000000000000E+01
 s    1 1.00
 0.48475401370000E-01 0.10000000000000E+01
 p    4 1.00
 0.34697232244000E+02 0.11327220003114E-01
 0.79582622826000E+01 0.76169659202087E-01
 0.23780826883000E+01 0.30192252202676E+00
 0.81433208183000E+00 0.72785027349547E+00
 p    1 1.00
 0.28887547253000E+00 0.10000000000000E+01
 p    1 1.00
 0.10056823671000E+00 0.10000000000000E+01
 d    1 1.00
 0.10970000000000E+01 0.10000000000000E+01
 d    1 1.00
 0.31800000000000E+00 0.10000000000000E+01
 d    1 1.00
 0.90985336424000E-01 0.10000000000000E+01
 f    1 1.00
 0.76100000000000E+00 0.10000000000000E+01
 
    2 0
 s    6 1.00
 0.13575349682000E+05 0.60645503603591E-03
 0.20352333680000E+04 0.46979088884982E-02
 0.46322562359000E+03 0.24332477647552E-01
 0.13120019598000E+03 0.97399968307759E-01
 0.42853015891000E+02 0.30195584253780E+00
 0.15584185766000E+02 0.66233609137875E+00
 s    2 1.00
 0.62067138508000E+01 0.65595308539952E+00
 0.25764896527000E+01 0.37585633285142E+00
 s    1 1.00
 0.57696339419000E+00 0.10000000000000E+01
 s    1 1.00
 0.22972831358000E+00 0.10000000000000E+01
 s    1 1.00
 0.95164440028000E-01 0.10000000000000E+01
 s    1 1.00
 0.48475401370000E-01 0.10000000000000E+01
 p    4 1.00
 0.34697232244000E+02 0.11327220003114E-01
 0.79582622826000E+01 0.76169659202087E-01
 0.23780826883000E+01 0.30192252202676E+00
 0.81433208183000E+00 0.72785027349547E+00
 p    1 1.00
 0.28887547253000E+00 0.10000000000000E+01
 p    1 1.00
 0.10056823671000E+00 0.10000000000000E+01
 d    1 1.00
 0.10970000000000E+01 0.10000000000000E+01
 d    1 1.00
 0.31800000000000E+00 0.10000000000000E+01
 d    1 1.00
 0.90985336424000E-01 0.10000000000000E+01
 f    1 1.00
 0.76100000000000E+00 0.10000000000000E+01
 
    3 0
 s    6 1.00
 0.13575349682000E+05 0.60645503603591E-03
 0.20352333680000E+04 0.46979088884982E-02
 0.46322562359000E+03 0.24332477647552E-01
 0.13120019598000E+03 0.97399968307759E-01
 0.42853015891000E+02 0.30195584253780E+00
 0.15584185766000E+02 0.66233609137875E+00
 s    2 1.00
 0.62067138508000E+01 0.65595308539952E+00
 0.25764896527000E+01 0.37585633285142E+00
 s    1 1.00
 0.57696339419000E+00 0.10000000000000E+01
 s    1 1.00
 0.22972831358000E+00 0.10000000000000E+01
 s    1 1.00
 0.95164440028000E-01 0.10000000000000E+01
 s    1 1.00
 0.48475401370000E-01 0.10000000000000E+01
 p    4 1.00
 0.34697232244000E+02 0.11327220003114E-01
 0.79582622826000E+01 0.76169659202087E-01
 0.23780826883000E+01 0.30192252202676E+00
 0.81433208183000E+00 0.72785027349547E+00
 p    1 1.00
 0.28887547253000E+00 0.10000000000000E+01
 p    1 1.00
 0.10056823671000E+00 0.10000000000000E+01
 d    1 1.00
 0.10970000000000E+01 0.10000000000000E+01
 d    1 1.00
 0.31800000000000E+00 0.10000000000000E+01
 d    1 1.00
 0.90985336424000E-01 0.10000000000000E+01
 f    1 1.00
 0.76100000000000E+00 0.10000000000000E+01
 
    4 0
 s    6 1.00
 0.13575349682000E+05 0.60645503603591E-03
 0.20352333680000E+04 0.46979088884982E-02
 0.46322562359000E+03 0.24332477647552E-01
 0.13120019598000E+03 0.97399968307759E-01
 0.42853015891000E+02 0.30195584253780E+00
 0.15584185766000E+02 0.66233609137875E+00
 s    2 1.00
 0.62067138508000E+01 0.65595308539952E+00
 0.25764896527000E+01 0.37585633285142E+00
 s    1 1.00
 0.57696339419000E+00 0.10000000000000E+01
 s    1 1.00
 0.22972831358000E+00 0.10000000000000E+01
 s    1 1.00
 0.95164440028000E-01 0.10000000000000E+01
 s    1 1.00
 0.48475401370000E-01 0.10000000000000E+01
 p    4 1.00
 0.34697232244000E+02 0.11327220003114E-01
 0.79582622826000E+01 0.76169659202087E-01
 0.23780826883000E+01 0.30192252202676E+00
 0.81433208183000E+00 0.72785027349547E+00
 p    1 1.00
 0.28887547253000E+00 0.10000000000000E+01
 p    1 1.00
 0.10056823671000E+00 0.10000000000000E+01
 d    1 1.00
 0.10970000000000E+01 0.10000000000000E+01
 d    1 1.00
 0.31800000000000E+00 0.10000000000000E+01
 d    1 1.00
 0.90985336424000E-01 0.10000000000000E+01
 f    1 1.00
 0.76100000000000E+00 0.10000000000000E+01
 
    5 0
 s    6 1.00
 0.13575349682000E+05 0.60645503603591E-03
 0.20352333680000E+04 0.46979088884982E-02
 0.46322562359000E+03 0.24332477647552E-01
 0.13120019598000E+03 0.97399968307759E-01
 0.42853015891000E+02 0.30195584253780E+00
 0.15584185766000E+02 0.66233609137875E+00
 s    2 1.00
 0.62067138508000E+01 0.65595308539952E+00
 0.25764896527000E+01 0.37585633285142E+00
 s    1 1.00
 0.57696339419000E+00 0.10000000000000E+01
 s    1 1.00
 0.22972831358000E+00 0.10000000000000E+01
 s    1 1.00
 0.95164440028000E-01 0.10000000000000E+01
 s    1 1.00
 0.48475401370000E-01 0.10000000000000E+01
 p    4 1.00
 0.34697232244000E+02 0.11327220003114E-01
 0.79582622826000E+01 0.76169659202087E-01
 0.23780826883000E+01 0.30192252202676E+00
 0.81433208183000E+00 0.72785027349547E+00
 p    1 1.00
 0.28887547253000E+00 0.10000000000000E+01
 p    1 1.00
 0.10056823671000E+00 0.10000000000000E+01
 d    1 1.00
 0.10970000000000E+01 0.10000000000000E+01
 d    1 1.00
 0.31800000000000E+00 0.10000000000000E+01
 d    1 1.00
 0.90985336424000E-01 0.10000000000000E+01
 f    1 1.00
 0.76100000000000E+00 0.10000000000000E+01
 
    6 0
 s    6 1.00
 0.13575349682000E+05 0.60645503603591E-03
 0.20352333680000E+04 0.46979088884982E-02
 0.46322562359000E+03 0.24332477647552E-01
 0.13120019598000E+03 0.97399968307759E-01
 0.42853015891000E+02 0.30195584253780E+00
 0.15584185766000E+02 0.66233609137875E+00
 s    2 1.00
 0.62067138508000E+01 0.65595308539952E+00
 0.25764896527000E+01 0.37585633285142E+00
 s    1 1.00
 0.57696339419000E+00 0.10000000000000E+01
 s    1 1.00
 0.22972831358000E+00 0.10000000000000E+01
 s    1 1.00
 0.95164440028000E-01 0.10000000000000E+01
 s    1 1.00
 0.48475401370000E-01 0.10000000000000E+01
 p    4 1.00
 0.34697232244000E+02 0.11327220003114E-01
 0.79582622826000E+01 0.76169659202087E-01
 0.23780826883000E+01 0.30192252202676E+00
 0.81433208183000E+00 0.72785027349547E+00
 p    1 1.00
 0.28887547253000E+00 0.10000000000000E+01
 p    1 1.00
 0.10056823671000E+00 0.10000000000000E+01
 d    1 1.00
 0.10970000000000E+01 0.10000000000000E+01
 d    1 1.00
 0.31800000000000E+00 0.10000000000000E+01
 d    1 1.00
 0.90985336424000E-01 0.10000000000000E+01
 f    1 1.00
 0.76100000000000E+00 0.10000000000000E+01
 
    7 0
 s    3 1.00
 0.34061341000000E+02 0.25439307208879E-01
 0.51235746000000E+01 0.19008594890375E+00
 0.11646626000000E+01 0.85244113011042E+00
 s    1 1.00
 0.32723041000000E+00 0.10000000000000E+01
 s    1 1.00
 0.10307241000000E+00 0.10000000000000E+01
 p    1 1.00
 0.80000000000000E+00 0.10000000000000E+01
 p    1 1.00
 0.95774129632000E-01 0.10000000000000E+01
 
    8 0
 s    3 1.00
 0.34061341000000E+02 0.25439307208879E-01
 0.51235746000000E+01 0.19008594890375E+00
 0.11646626000000E+01 0.85244113011042E+00
 s    1 1.00
 0.32723041000000E+00 0.10000000000000E+01
 s    1 1.00
 0.10307241000000E+00 0.10000000000000E+01
 p    1 1.00
 0.80000000000000E+00 0.10000000000000E+01
 p    1 1.00
 0.95774129632000E-01 0.10000000000000E+01
 
    9 0
 s    3 1.00
 0.34061341000000E+02 0.25439307208879E-01
 0.51235746000000E+01 0.19008594890375E+00
 0.11646626000000E+01 0.85244113011042E+00
 s    1 1.00
 0.32723041000000E+00 0.10000000000000E+01
 s    1 1.00
 0.10307241000000E+00 0.10000000000000E+01
 p    1 1.00
 0.80000000000000E+00 0.10000000000000E+01
 p    1 1.00
 0.95774129632000E-01 0.10000000000000E+01
 
   10 0
 s    3 1.00
 0.34061341000000E+02 0.25439307208879E-01
 0.51235746000000E+01 0.19008594890375E+00
 0.11646626000000E+01 0.85244113011042E+00
 s    1 1.00
 0.32723041000000E+00 0.10000000000000E+01
 s    1 1.00
 0.10307241000000E+00 0.10000000000000E+01
 p    1 1.00
 0.80000000000000E+00 0.10000000000000E+01
 p    1 1.00
 0.95774129632000E-01 0.10000000000000E+01
 
   11 0
 s    6 1.00
 0.19730800647000E+05 0.58626402628763E-03
 0.29578958745000E+04 0.45428820586397E-02
 0.67322133595000E+03 0.23558413450084E-01
 0.19068249494000E+03 0.94709193292923E-01
 0.62295441898000E+02 0.29719784913376E+00
 0.22654161182000E+02 0.66916246895232E+00
 s    2 1.00
 0.89791477428000E+01 0.64596683630063E+00
 0.36863002370000E+01 0.38700574393705E+00
 s    1 1.00
 0.84660076805000E+00 0.10000000000000E+01
 s    1 1.00
 0.33647133771000E+00 0.10000000000000E+01
 s    1 1.00
 0.13647653675000E+00 0.10000000000000E+01
 s    1 1.00
 0.68441605847000E-01 0.10000000000000E+01
 p    4 1.00
 0.49200380510000E+02 0.11448825101764E-01
 0.11346790537000E+02 0.78422337970864E-01
 0.34273972411000E+01 0.30818094738830E+00
 0.11785525134000E+01 0.72027196368413E+00
 p    1 1.00
 0.41642204972000E+00 0.10000000000000E+01
 p    1 1.00
 0.14260826011000E+00 0.10000000000000E+01
 d    1 1.00
 0.16540000000000E+01 0.10000000000000E+01
 d    1 1.00
 0.46900000000000E+00 0.10000000000000E+01
 d    1 1.00
 0.12829642058000E+00 0.10000000000000E+01
 f    1 1.00
 0.10930000000000E+01 0.10000000000000E+01
 
   12 0
 s    6 1.00
 0.27032382631000E+05 0.57227335211155E-03
 0.40523871392000E+04 0.44353233492995E-02
 0.92232722710000E+03 0.23020107706038E-01
 0.26124070989000E+03 0.92822490667928E-01
 0.85354641351000E+02 0.29378500009671E+00
 0.31035035245000E+02 0.67401604501641E+00
 s    2 1.00
 0.12260860728000E+02 0.63839937025506E+00
 0.49987076005000E+01 0.39534587125718E+00
 s    1 1.00
 0.11703108158000E+01 0.10000000000000E+01
 s    1 1.00
 0.46474740994000E+00 0.10000000000000E+01
 s    1 1.00
 0.18504536357000E+00 0.10000000000000E+01
 s    1 1.00
 0.70288026270000E-01 0.10000000000000E+01
 p    4 1.00
 0.63274954801000E+02 0.12018332222616E-01
 0.14627049379000E+02 0.83005421790056E-01
 0.44501223456000E+01 0.31991743925964E+00
 0.15275799647000E+01 0.70715542916104E+00
 p    1 1.00
 0.52935117943000E+00 0.10000000000000E+01
 p    1 1.00
 0.17478421270000E+00 0.10000000000000E+01
 p    1 1.00
 0.51112745706000E-01 0.10000000000000E+01
 d    1 1.00
 0.23140000000000E+01 0.10000000000000E+01
 d    1 1.00
 0.64500000000000E+00 0.10000000000000E+01
 d    1 1.00
 0.14696477366000E+00 0.10000000000000E+01
 f    1 1.00
 0.14280000000000E+01 0.10000000000000E+01
 
   13 0
 s    6 1.00
 0.27032382631000E+05 0.57227335211155E-03
 0.40523871392000E+04 0.44353233492995E-02
 0.92232722710000E+03 0.23020107706038E-01
 0.26124070989000E+03 0.92822490667928E-01
 0.85354641351000E+02 0.29378500009671E+00
 0.31035035245000E+02 0.67401604501641E+00
 s    2 1.00
 0.12260860728000E+02 0.63839937025506E+00
 0.49987076005000E+01 0.39534587125718E+00
 s    1 1.00
 0.11703108158000E+01 0.10000000000000E+01
 s    1 1.00
 0.46474740994000E+00 0.10000000000000E+01
 s    1 1.00
 0.18504536357000E+00 0.10000000000000E+01
 s    1 1.00
 0.70288026270000E-01 0.10000000000000E+01
 p    4 1.00
 0.63274954801000E+02 0.12018332222616E-01
 0.14627049379000E+02 0.83005421790056E-01
 0.44501223456000E+01 0.31991743925964E+00
 0.15275799647000E+01 0.70715542916104E+00
 p    1 1.00
 0.52935117943000E+00 0.10000000000000E+01
 p    1 1.00
 0.17478421270000E+00 0.10000000000000E+01
 p    1 1.00
 0.51112745706000E-01 0.10000000000000E+01
 d    1 1.00
 0.23140000000000E+01 0.10000000000000E+01
 d    1 1.00
 0.64500000000000E+00 0.10000000000000E+01
 d    1 1.00
 0.14696477366000E+00 0.10000000000000E+01
 f    1 1.00
 0.14280000000000E+01 0.10000000000000E+01
 
   14 0
 s    6 1.00
 0.19730800647000E+05 0.58626402628763E-03
 0.29578958745000E+04 0.45428820586397E-02
 0.67322133595000E+03 0.23558413450084E-01
 0.19068249494000E+03 0.94709193292923E-01
 0.62295441898000E+02 0.29719784913376E+00
 0.22654161182000E+02 0.66916246895232E+00
 s    2 1.00
 0.89791477428000E+01 0.64596683630063E+00
 0.36863002370000E+01 0.38700574393705E+00
 s    1 1.00
 0.84660076805000E+00 0.10000000000000E+01
 s    1 1.00
 0.33647133771000E+00 0.10000000000000E+01
 s    1 1.00
 0.13647653675000E+00 0.10000000000000E+01
 s    1 1.00
 0.68441605847000E-01 0.10000000000000E+01
 p    4 1.00
 0.49200380510000E+02 0.11448825101764E-01
 0.11346790537000E+02 0.78422337970864E-01
 0.34273972411000E+01 0.30818094738830E+00
 0.11785525134000E+01 0.72027196368413E+00
 p    1 1.00
 0.41642204972000E+00 0.10000000000000E+01
 p    1 1.00
 0.14260826011000E+00 0.10000000000000E+01
 d    1 1.00
 0.16540000000000E+01 0.10000000000000E+01
 d    1 1.00
 0.46900000000000E+00 0.10000000000000E+01
 d    1 1.00
 0.12829642058000E+00 0.10000000000000E+01
 f    1 1.00
 0.10930000000000E+01 0.10000000000000E+01
 
   15 0
 s    3 1.00
 0.34061341000000E+02 0.25439307208879E-01
 0.51235746000000E+01 0.19008594890375E+00
 0.11646626000000E+01 0.85244113011042E+00
 s    1 1.00
 0.32723041000000E+00 0.10000000000000E+01
 s    1 1.00
 0.10307241000000E+00 0.10000000000000E+01
 p    1 1.00
 0.80000000000000E+00 0.10000000000000E+01
 p    1 1.00
 0.95774129632000E-01 0.10000000000000E+01
 
   16 0
 s    3 1.00
 0.34061341000000E+02 0.25439307208879E-01
 0.51235746000000E+01 0.19008594890375E+00
 0.11646626000000E+01 0.85244113011042E+00
 s    1 1.00
 0.32723041000000E+00 0.10000000000000E+01
 s    1 1.00
 0.10307241000000E+00 0.10000000000000E+01
 p    1 1.00
 0.80000000000000E+00 0.10000000000000E+01
 p    1 1.00
 0.95774129632000E-01 0.10000000000000E+01
 
[MO]
 Sym= X
 Ene= -0.337955
 Spin= Alpha
 Occup= -0.337955
         1    4.438479E-04
         2    1.018621E-03
         3   -2.190367E-03
         4    1.735094E-03
         5   -9.289658E-03
         6    1.367649E-02
         7   -6.854356E-03
         8   -3.373705E-04
         9    1.306515E-01
        10   -7.329281E-04
        11   -7.724147E-04
        12    1.289613E-01
        13    2.907422E-02
        14   -2.730404E-03
        15    4.965504E-02
        16   -1.884538E-04
        17    1.781801E-04
        18    1.027375E-05
        19    7.525278E-05
        20   -3.403747E-04
        21    4.031474E-03
        22    5.186188E-04
        23   -3.004223E-04
        24   -2.181966E-04
        25    1.033221E-03
        26   -1.181800E-03
        27    6.668594E-03
        28    2.646463E-03
        29   -2.311279E-03
        30   -3.351839E-04
        31   -2.319679E-03
        32   -6.873976E-03
        33    6.127806E-03
        34    7.544682E-06
        35   -1.072453E-05
        36   -1.092687E-03
        37   -1.992788E-06
        38    9.225939E-06
        39    6.087951E-04
        40   -8.129465E-06
        41    5.162529E-06
        42    8.571983E-04
        43   -4.585139E-04
        44   -6.541936E-05
        45   -1.415356E-04
        46   -2.506297E-04
        47    5.218085E-03
        48    2.097627E-02
        49   -1.156504E-02
        50    2.737092E-03
        51   -2.359046E-06
        52    1.910643E-01
        53    3.367977E-03
        54    1.813282E-05
        55    1.927944E-01
        56    1.041369E-02
        57    5.335481E-04
        58    5.386868E-02
        59   -2.651721E-04
        60    2.603601E-04
        61    4.812053E-06
        62   -1.127493E-07
        63    2.752421E-03
        64   -2.495249E-07
        65   -7.872334E-04
        66    1.125656E-03
        67   -3.384223E-04
        68    3.404484E-06
        69    4.375106E-03
        70    3.209925E-08
        71   -1.499569E-02
        72    1.569232E-02
        73   -6.966270E-04
        74    4.466388E-05
        75    7.327195E-03
        76    6.314313E-06
        77    1.299813E-05
        78    1.722595E-07
        79   -1.520776E-03
        80    4.008424E-06
        81   -9.934167E-08
        82    7.710054E-04
        83   -2.144725E-05
        84   -1.317687E-07
        85    1.269329E-03
        86    9.720516E-09
        87    4.425782E-04
        88    1.015707E-03
        89   -2.182211E-03
        90    1.734786E-03
        91   -1.150800E-02
        92    1.374301E-02
        93   -6.862383E-03
        94    3.500298E-04
        95    1.306404E-01
        96   -7.392291E-04
        97    8.050054E-04
        98    1.289508E-01
        99    2.874984E-02
       100    3.413370E-03
       101    4.960664E-02
       102   -1.883987E-04
       103    1.783039E-04
       104    1.009477E-05
       105   -7.591173E-05
       106   -3.405590E-04
       107   -4.031622E-03
       108    5.143464E-04
       109   -2.986946E-04
       110   -2.156518E-04
       111   -1.039845E-03
       112   -1.181674E-03
       113   -6.666876E-03
       114    2.612904E-03
       115   -2.296712E-03
       116   -3.161917E-04
       117    2.297659E-03
       118   -6.871631E-03
       119   -6.094407E-03
       120    7.440937E-06
       121    1.078425E-05
       122   -1.092636E-03
       123   -1.887612E-06
       124   -9.071535E-06
       125    6.087577E-04
       126   -8.095452E-06
       127   -5.397048E-06
       128    8.571675E-04
       129    4.584274E-04
       130   -3.397890E-04
       131   -7.560176E-04
       132   -6.681593E-05
       133    1.391021E-02
       134    3.805397E-03
       135   -1.599946E-02
       136    6.915192E-03
       137   -2.183956E-03
       138    5.109189E-02
       139    1.534133E-02
       140   -8.618190E-03
       141    5.116000E-02
       142    1.517098E-02
       143    1.213480E-02
       144    1.659058E-02
       145   -4.288779E-04
       146    4.895643E-04
       147   -6.068638E-05
       148   -6.114407E-07
       149   -3.891084E-03
       150    4.163952E-04
       151   -8.684380E-04
       152    1.129865E-03
       153   -2.614268E-04
       154   -2.165879E-03
       155   -6.559052E-03
       156    1.377413E-03
       157   -9.280768E-03
       158    7.622549E-03
       159    1.658219E-03
       160    1.099815E-02
       161   -3.753666E-03
       162    1.302969E-02
       163    2.427874E-05
       164   -2.816027E-05
       165   -3.914588E-04
       166    3.738580E-05
       167   -4.429181E-06
       168    5.523105E-04
       169   -6.995915E-05
       170    4.221014E-05
       171   -2.711334E-05
       172    3.353709E-04
       173    1.587364E-03
       174    3.605742E-03
       175   -4.230609E-03
       176   -2.169002E-02
       177    6.128343E-02
       178   -2.355375E-03
       179   -1.990919E-02
       180    5.920770E-06
       181   -7.356975E-02
       182   -5.133585E-03
       183    1.976694E-05
       184   -7.023415E-02
       185    5.158832E-02
       186   -1.004345E-04
       187    3.136530E-02
       188   -1.010859E-03
       189    7.160306E-04
       190    2.948285E-04
       191   -3.066632E-07
       192   -7.497523E-03
       193   -1.525820E-08
       194    2.234631E-03
       195   -4.756251E-03
       196    2.521620E-03
       197   -5.928801E-06
       198   -1.590434E-02
       199   -2.463193E-06
       200    1.045086E-02
       201   -1.086160E-02
       202    4.107416E-04
       203    8.243371E-05
       204   -5.945907E-03
       205   -2.147288E-05
       206   -1.842345E-04
       207    7.565589E-08
       208    8.079883E-04
       209    1.101398E-04
       210    3.479221E-08
       211   -1.431316E-03
       212    1.370367E-04
       213   -1.362952E-07
       214    3.472854E-04
       215    1.039543E-07
       216   -3.400551E-04
       217   -7.565748E-04
       218   -6.909284E-05
       219    1.394577E-02
       220    2.186772E-03
       221   -1.590478E-02
       222    6.910662E-03
       223    2.173071E-03
       224    5.110003E-02
       225    1.536003E-02
       226    8.629904E-03
       227    5.116623E-02
       228    1.578735E-02
       229   -1.252993E-02
       230    1.651685E-02
       231   -4.290195E-04
       232    4.897263E-04
       233   -6.070677E-05
       234   -1.649912E-07
       235   -3.891444E-03
       236   -4.162490E-04
       237   -8.719764E-04
       238    1.135673E-03
       239   -2.636969E-04
       240    2.168317E-03
       241   -6.559922E-03
       242   -1.379458E-03
       243   -9.271348E-03
       244    7.611911E-03
       245    1.659437E-03
       246   -1.093463E-02
       247   -3.766253E-03
       248   -1.305769E-02
       249    2.415062E-05
       250    2.819167E-05
       251   -3.914164E-04
       252    3.764625E-05
       253    4.352533E-06
       254    5.523268E-04
       255   -7.004771E-05
       256   -4.217563E-05
       257   -2.718661E-05
       258   -3.354674E-04
       259    1.764847E-03
       260    2.361059E-03
       261    2.357542E-02
       262    1.209270E-05
       263    2.129036E-04
       264    4.682004E-03
       265    5.587077E-03
       266    1.859288E-03
       267    3.020712E-03
       268    1.773805E-03
       269    2.362166E-03
       270    2.336649E-02
       271    1.224212E-05
       272   -2.126054E-04
       273    4.681228E-03
       274    5.571739E-03
       275   -1.841429E-03
       276    2.995801E-03
       277    1.831235E-03
       278    4.921654E-03
       279   -4.385538E-02
       280    5.021664E-05
       281   -3.365629E-04
       282    1.460083E-03
       283    5.854358E-03
       284    2.871775E-03
       285   -9.674276E-03
       286    1.837024E-03
       287    4.913868E-03
       288   -4.393613E-02
       289    4.926097E-05
       290    3.354090E-04
       291    1.460284E-03
       292    5.870064E-03
       293   -2.886740E-03
       294   -9.688818E-03
       295    2.460048E-04
       296    5.810019E-04
       297   -7.531104E-04
       298   -2.033944E-03
       299    1.038549E-02
       300    6.500333E-03
       301   -3.692234E-03
       302    3.278529E-06
       303   -2.306258E-02
       304   -3.037058E-03
       305    5.657154E-06
       306   -2.241075E-02
       307    3.562508E-03
       308   -3.523535E-05
       309    4.938105E-03
       310   -1.245026E-04
       311    1.642803E-04
       312   -3.977765E-05
       313   -7.731990E-07
       314    3.676586E-03
       315   -2.459326E-07
       316   -2.971225E-04
       317    3.450693E-04
       318   -4.794671E-05
       319   -2.367363E-06
       320    1.040070E-02
       321   -8.006906E-07
       322    4.855030E-04
       323   -2.937288E-03
       324    2.451785E-03
       325   -1.648599E-05
       326    5.356059E-03
       327    3.269100E-06
       328   -5.123123E-06
       329   -1.504329E-07
       330    1.292600E-04
       331   -2.443050E-06
       332    2.506300E-07
       333    5.190797E-04
       334    9.316440E-06
       335   -4.880308E-08
       336   -6.925001E-04
       337    3.503104E-08
       338    5.962419E-05
       339    1.411593E-04
       340   -1.753471E-04
       341   -1.079087E-03
       342    6.889760E-03
       343    6.160508E-04
       344    3.118805E-03
       345   -2.568291E-04
       346   -6.879652E-02
       347    2.898376E-03
       348   -3.069126E-04
       349   -6.327037E-02
       350    3.134330E-03
       351   -7.546331E-04
       352   -4.373105E-02
       353    5.194586E-04
       354    3.535404E-05
       355   -3.517809E-03
       356   -6.984852E-06
       357    2.244526E-05
       358   -1.546041E-05
       359   -2.365748E-05
       360   -2.523019E-04
       361    8.047474E-04
       362    1.990199E-05
       363    4.649878E-05
       364   -6.640077E-05
       365   -4.963522E-05
       366   -1.114548E-03
       367    2.447591E-03
       368    6.286986E-05
       369    2.669277E-05
       370   -8.956264E-05
       371   -8.460334E-06
       372   -1.712151E-03
       373    4.013618E-04
       374   -4.143013E-06
       375   -3.238066E-06
       376    1.252378E-04
       377    9.029070E-06
       378   -1.838803E-06
       379    6.709478E-05
       380   -3.470634E-06
       381    6.183125E-06
       382   -2.351189E-04
       383    2.062746E-04
       384    5.964883E-05
       385    1.412069E-04
       386   -1.751325E-04
       387   -1.079642E-03
       388    6.897780E-03
       389    6.209179E-04
       390    3.157476E-03
       391    2.232230E-04
       392   -6.878300E-02
       393    2.933684E-03
       394    2.791716E-04
       395   -6.325874E-02
       396    3.152569E-03
       397    7.332692E-04
       398   -4.371417E-02
       399    5.282530E-04
       400   -4.227518E-05
       401   -3.514709E-03
       402   -6.642195E-06
       403    2.200638E-05
       404   -1.536418E-05
       405    2.363423E-05
       406   -2.522538E-04
       407   -8.046303E-04
       408    2.065784E-05
       409    4.594868E-05
       410   -6.660652E-05
       411    5.003896E-05
       412   -1.114184E-03
       413   -2.447258E-03
       414    6.738894E-05
       415    2.247941E-05
       416   -8.986834E-05
       417    6.394325E-06
       418   -1.711827E-03
       419   -3.995142E-04
       420   -4.102133E-06
       421    3.136741E-06
       422    1.252165E-04
       423    8.991546E-06
       424    1.968090E-06
       425    6.709066E-05
       426   -3.487958E-06
       427   -6.176470E-06
       428   -2.350863E-04
       429   -2.062405E-04
       430   -5.760442E-03
       431   -1.367013E-02
       432    2.122082E-02
       433    3.425131E-02
       434    6.357627E-03
       435    4.507855E-02
       436    2.812291E-02
       437   -1.280487E-05
       438   -2.657696E-01
       439    3.104878E-02
       440   -4.509917E-06
       441   -2.583853E-01
       442    3.883372E-02
       443    7.989110E-05
       444   -1.805294E-01
       445    7.513218E-05
       446    2.422124E-04
       447   -3.173446E-04
       448   -3.891290E-07
       449    1.730595E-03
       450   -2.697605E-07
       451   -1.486577E-04
       452    2.720755E-03
       453   -2.572097E-03
       454    3.164757E-06
       455    3.449784E-03
       456   -4.640662E-07
       457   -1.138369E-03
       458    7.375686E-03
       459   -6.237317E-03
       460    8.113106E-06
       461    9.395600E-05
       462   -5.521247E-07
       463    1.352311E-04
       464   -7.312753E-08
       465    1.352573E-03
       466    1.409170E-04
       467    1.016956E-09
       468   -1.117528E-03
       469   -3.223485E-04
       470    9.709392E-08
       471   -6.971383E-04
       472    2.995507E-08
       473   -7.752092E-03
       474   -1.811275E-02
       475   -3.418521E-02
       476    3.099442E-03
       477    2.191483E-03
       478   -1.228515E-02
       479    3.472631E-03
       480    3.245646E-03
       481   -6.168769E-03
       482   -7.742418E-03
       483   -1.803738E-02
       484   -3.395172E-02
       485    3.094487E-03
       486   -2.184868E-03
       487   -1.228832E-02
       488    3.439866E-03
       489   -3.207810E-03
       490   -6.185901E-03
 Sym= X
 Ene= -0.613715
 Spin= Alpha
 Occup= -0.613715
         1    9.442094E-04
         2    2.164378E-03
         3   -4.404254E-03
         4    5.552054E-04
         5   -4.791172E-02
         6   -6.698599E-03
         7    9.193911E-03
         8    4.604386E-03
         9   -1.833398E-01
        10    9.858271E-03
        11    4.016329E-03
        12   -1.839307E-01
        13    1.497067E-02
        14   -2.003266E-02
        15   -1.065278E-01
        16    3.139326E-04
        17   -3.574788E-04
        18    4.354625E-05
        19   -1.603900E-04
        20   -4.848774E-03
        21   -5.317765E-04
        22    1.694159E-03
        23   -1.205683E-03
        24   -4.884758E-04
        25   -4.253918E-04
        26   -9.452426E-03
        27    4.359431E-04
        28    7.327269E-04
        29   -1.593517E-03
        30    8.607896E-04
        31    2.683313E-03
        32   -3.552650E-03
        33    4.472174E-04
        34    8.790475E-06
        35   -1.557815E-05
        36    1.133553E-03
        37    1.170403E-05
        38    3.887720E-05
        39   -1.371201E-03
        40   -2.349769E-05
        41   -1.797692E-05
        42   -1.496202E-04
        43   -7.035075E-06
        44   -1.625589E-08
        45    8.675026E-08
        46   -7.540656E-06
        47    2.962613E-05
        48    2.541893E-03
        49    1.753991E-04
        50   -2.522531E-06
        51    2.434302E-03
        52   -1.018771E-05
        53    1.751896E-05
        54    4.693299E-03
        55   -5.768960E-06
        56    1.138732E-03
        57   -4.548056E-02
        58   -7.069445E-07
        59   -7.250117E-08
        60    1.876237E-07
        61   -1.151225E-07
        62    1.894520E-04