[Molden Format]
[Title]
ADC(2) - opt by CAM-B3LYP gaussian                                              
[Atoms] AU
 c     1    6 -.12590385386216E+01 -.22819701624009E+01 -.30156123253150E-01
 c     2    6 -.25547233845863E+01 -.83266058000000E-06 -.28792213416740E-01
 c     3    6 -.12590428849917E+01 0.22819669475044E+01 -.30169993842970E-01
 c     4    6 0.13339759331395E+01 0.22828246941961E+01 -.32722654800530E-01
 c     5    6 0.26864234278208E+01 0.32869423900000E-05 -.32794180934660E-01
 c     6    6 0.13339778039684E+01 -.22828226745513E+01 -.32706516539360E-01
 h     7    1 -.23005849451053E+01 -.40353719055945E+01 -.27139024303910E-01
 h     8    1 -.23005903875166E+01 0.40353685773143E+01 -.27164403325880E-01
 h     9    1 0.23527432406667E+01 0.40554759247724E+01 -.35914685697900E-01
 h    10    1 0.23527525948111E+01 -.40554698422164E+01 -.35883032785170E-01
 n    11    7 -.52784595104117E+01 -.53030440000000E-06 -.22539903328000E-01
 o    12    8 -.63796877956448E+01 0.20272212823250E+01 -.19883023974210E-01
 o    13    8 -.63796922742957E+01 -.20272201130570E+01 -.19923067270970E-01
 n    14    7 0.52516126460355E+01 -.32243452000000E-06 -.88209511610250E-01
 h    15    1 0.62001707317805E+01 0.16133662892433E+01 0.23199721167530E+00
 h    16    1 0.62001633429513E+01 -.16133706190784E+01 0.23200112340840E+00
[GTO]
    1 0
 s    6 1.00
 0.13575349682000E+05 0.60645503603591E-03
 0.20352333680000E+04 0.46979088884982E-02
 0.46322562359000E+03 0.24332477647552E-01
 0.13120019598000E+03 0.97399968307759E-01
 0.42853015891000E+02 0.30195584253780E+00
 0.15584185766000E+02 0.66233609137875E+00
 s    2 1.00
 0.62067138508000E+01 0.65595308539952E+00
 0.25764896527000E+01 0.37585633285142E+00
 s    1 1.00
 0.57696339419000E+00 0.10000000000000E+01
 s    1 1.00
 0.22972831358000E+00 0.10000000000000E+01
 s    1 1.00
 0.95164440028000E-01 0.10000000000000E+01
 s    1 1.00
 0.48475401370000E-01 0.10000000000000E+01
 p    4 1.00
 0.34697232244000E+02 0.11327220003114E-01
 0.79582622826000E+01 0.76169659202087E-01
 0.23780826883000E+01 0.30192252202676E+00
 0.81433208183000E+00 0.72785027349547E+00
 p    1 1.00
 0.28887547253000E+00 0.10000000000000E+01
 p    1 1.00
 0.10056823671000E+00 0.10000000000000E+01
 d    1 1.00
 0.10970000000000E+01 0.10000000000000E+01
 d    1 1.00
 0.31800000000000E+00 0.10000000000000E+01
 d    1 1.00
 0.90985336424000E-01 0.10000000000000E+01
 f    1 1.00
 0.76100000000000E+00 0.10000000000000E+01
 
    2 0
 s    6 1.00
 0.13575349682000E+05 0.60645503603591E-03
 0.20352333680000E+04 0.46979088884982E-02
 0.46322562359000E+03 0.24332477647552E-01
 0.13120019598000E+03 0.97399968307759E-01
 0.42853015891000E+02 0.30195584253780E+00
 0.15584185766000E+02 0.66233609137875E+00
 s    2 1.00
 0.62067138508000E+01 0.65595308539952E+00
 0.25764896527000E+01 0.37585633285142E+00
 s    1 1.00
 0.57696339419000E+00 0.10000000000000E+01
 s    1 1.00
 0.22972831358000E+00 0.10000000000000E+01
 s    1 1.00
 0.95164440028000E-01 0.10000000000000E+01
 s    1 1.00
 0.48475401370000E-01 0.10000000000000E+01
 p    4 1.00
 0.34697232244000E+02 0.11327220003114E-01
 0.79582622826000E+01 0.76169659202087E-01
 0.23780826883000E+01 0.30192252202676E+00
 0.81433208183000E+00 0.72785027349547E+00
 p    1 1.00
 0.28887547253000E+00 0.10000000000000E+01
 p    1 1.00
 0.10056823671000E+00 0.10000000000000E+01
 d    1 1.00
 0.10970000000000E+01 0.10000000000000E+01
 d    1 1.00
 0.31800000000000E+00 0.10000000000000E+01
 d    1 1.00
 0.90985336424000E-01 0.10000000000000E+01
 f    1 1.00
 0.76100000000000E+00 0.10000000000000E+01
 
    3 0
 s    6 1.00
 0.13575349682000E+05 0.60645503603591E-03
 0.20352333680000E+04 0.46979088884982E-02
 0.46322562359000E+03 0.24332477647552E-01
 0.13120019598000E+03 0.97399968307759E-01
 0.42853015891000E+02 0.30195584253780E+00
 0.15584185766000E+02 0.66233609137875E+00
 s    2 1.00
 0.62067138508000E+01 0.65595308539952E+00
 0.25764896527000E+01 0.37585633285142E+00
 s    1 1.00
 0.57696339419000E+00 0.10000000000000E+01
 s    1 1.00
 0.22972831358000E+00 0.10000000000000E+01
 s    1 1.00
 0.95164440028000E-01 0.10000000000000E+01
 s    1 1.00
 0.48475401370000E-01 0.10000000000000E+01
 p    4 1.00
 0.34697232244000E+02 0.11327220003114E-01
 0.79582622826000E+01 0.76169659202087E-01
 0.23780826883000E+01 0.30192252202676E+00
 0.81433208183000E+00 0.72785027349547E+00
 p    1 1.00
 0.28887547253000E+00 0.10000000000000E+01
 p    1 1.00
 0.10056823671000E+00 0.10000000000000E+01
 d    1 1.00
 0.10970000000000E+01 0.10000000000000E+01
 d    1 1.00
 0.31800000000000E+00 0.10000000000000E+01
 d    1 1.00
 0.90985336424000E-01 0.10000000000000E+01
 f    1 1.00
 0.76100000000000E+00 0.10000000000000E+01
 
    4 0
 s    6 1.00
 0.13575349682000E+05 0.60645503603591E-03
 0.20352333680000E+04 0.46979088884982E-02
 0.46322562359000E+03 0.24332477647552E-01
 0.13120019598000E+03 0.97399968307759E-01
 0.42853015891000E+02 0.30195584253780E+00
 0.15584185766000E+02 0.66233609137875E+00
 s    2 1.00
 0.62067138508000E+01 0.65595308539952E+00
 0.25764896527000E+01 0.37585633285142E+00
 s    1 1.00
 0.57696339419000E+00 0.10000000000000E+01
 s    1 1.00
 0.22972831358000E+00 0.10000000000000E+01
 s    1 1.00
 0.95164440028000E-01 0.10000000000000E+01
 s    1 1.00
 0.48475401370000E-01 0.10000000000000E+01
 p    4 1.00
 0.34697232244000E+02 0.11327220003114E-01
 0.79582622826000E+01 0.76169659202087E-01
 0.23780826883000E+01 0.30192252202676E+00
 0.81433208183000E+00 0.72785027349547E+00
 p    1 1.00
 0.28887547253000E+00 0.10000000000000E+01
 p    1 1.00
 0.10056823671000E+00 0.10000000000000E+01
 d    1 1.00
 0.10970000000000E+01 0.10000000000000E+01
 d    1 1.00
 0.31800000000000E+00 0.10000000000000E+01
 d    1 1.00
 0.90985336424000E-01 0.10000000000000E+01
 f    1 1.00
 0.76100000000000E+00 0.10000000000000E+01
 
    5 0
 s    6 1.00
 0.13575349682000E+05 0.60645503603591E-03
 0.20352333680000E+04 0.46979088884982E-02
 0.46322562359000E+03 0.24332477647552E-01
 0.13120019598000E+03 0.97399968307759E-01
 0.42853015891000E+02 0.30195584253780E+00
 0.15584185766000E+02 0.66233609137875E+00
 s    2 1.00
 0.62067138508000E+01 0.65595308539952E+00
 0.25764896527000E+01 0.37585633285142E+00
 s    1 1.00
 0.57696339419000E+00 0.10000000000000E+01
 s    1 1.00
 0.22972831358000E+00 0.10000000000000E+01
 s    1 1.00
 0.95164440028000E-01 0.10000000000000E+01
 s    1 1.00
 0.48475401370000E-01 0.10000000000000E+01
 p    4 1.00
 0.34697232244000E+02 0.11327220003114E-01
 0.79582622826000E+01 0.76169659202087E-01
 0.23780826883000E+01 0.30192252202676E+00
 0.81433208183000E+00 0.72785027349547E+00
 p    1 1.00
 0.28887547253000E+00 0.10000000000000E+01
 p    1 1.00
 0.10056823671000E+00 0.10000000000000E+01
 d    1 1.00
 0.10970000000000E+01 0.10000000000000E+01
 d    1 1.00
 0.31800000000000E+00 0.10000000000000E+01
 d    1 1.00
 0.90985336424000E-01 0.10000000000000E+01
 f    1 1.00
 0.76100000000000E+00 0.10000000000000E+01
 
    6 0
 s    6 1.00
 0.13575349682000E+05 0.60645503603591E-03
 0.20352333680000E+04 0.46979088884982E-02
 0.46322562359000E+03 0.24332477647552E-01
 0.13120019598000E+03 0.97399968307759E-01
 0.42853015891000E+02 0.30195584253780E+00
 0.15584185766000E+02 0.66233609137875E+00
 s    2 1.00
 0.62067138508000E+01 0.65595308539952E+00
 0.25764896527000E+01 0.37585633285142E+00
 s    1 1.00
 0.57696339419000E+00 0.10000000000000E+01
 s    1 1.00
 0.22972831358000E+00 0.10000000000000E+01
 s    1 1.00
 0.95164440028000E-01 0.10000000000000E+01
 s    1 1.00
 0.48475401370000E-01 0.10000000000000E+01
 p    4 1.00
 0.34697232244000E+02 0.11327220003114E-01
 0.79582622826000E+01 0.76169659202087E-01
 0.23780826883000E+01 0.30192252202676E+00
 0.81433208183000E+00 0.72785027349547E+00
 p    1 1.00
 0.28887547253000E+00 0.10000000000000E+01
 p    1 1.00
 0.10056823671000E+00 0.10000000000000E+01
 d    1 1.00
 0.10970000000000E+01 0.10000000000000E+01
 d    1 1.00
 0.31800000000000E+00 0.10000000000000E+01
 d    1 1.00
 0.90985336424000E-01 0.10000000000000E+01
 f    1 1.00
 0.76100000000000E+00 0.10000000000000E+01
 
    7 0
 s    3 1.00
 0.34061341000000E+02 0.25439307208879E-01
 0.51235746000000E+01 0.19008594890375E+00
 0.11646626000000E+01 0.85244113011042E+00
 s    1 1.00
 0.32723041000000E+00 0.10000000000000E+01
 s    1 1.00
 0.10307241000000E+00 0.10000000000000E+01
 p    1 1.00
 0.80000000000000E+00 0.10000000000000E+01
 p    1 1.00
 0.95774129632000E-01 0.10000000000000E+01
 
    8 0
 s    3 1.00
 0.34061341000000E+02 0.25439307208879E-01
 0.51235746000000E+01 0.19008594890375E+00
 0.11646626000000E+01 0.85244113011042E+00
 s    1 1.00
 0.32723041000000E+00 0.10000000000000E+01
 s    1 1.00
 0.10307241000000E+00 0.10000000000000E+01
 p    1 1.00
 0.80000000000000E+00 0.10000000000000E+01
 p    1 1.00
 0.95774129632000E-01 0.10000000000000E+01
 
    9 0
 s    3 1.00
 0.34061341000000E+02 0.25439307208879E-01
 0.51235746000000E+01 0.19008594890375E+00
 0.11646626000000E+01 0.85244113011042E+00
 s    1 1.00
 0.32723041000000E+00 0.10000000000000E+01
 s    1 1.00
 0.10307241000000E+00 0.10000000000000E+01
 p    1 1.00
 0.80000000000000E+00 0.10000000000000E+01
 p    1 1.00
 0.95774129632000E-01 0.10000000000000E+01
 
   10 0
 s    3 1.00
 0.34061341000000E+02 0.25439307208879E-01
 0.51235746000000E+01 0.19008594890375E+00
 0.11646626000000E+01 0.85244113011042E+00
 s    1 1.00
 0.32723041000000E+00 0.10000000000000E+01
 s    1 1.00
 0.10307241000000E+00 0.10000000000000E+01
 p    1 1.00
 0.80000000000000E+00 0.10000000000000E+01
 p    1 1.00
 0.95774129632000E-01 0.10000000000000E+01
 
   11 0
 s    6 1.00
 0.19730800647000E+05 0.58626402628763E-03
 0.29578958745000E+04 0.45428820586397E-02
 0.67322133595000E+03 0.23558413450084E-01
 0.19068249494000E+03 0.94709193292923E-01
 0.62295441898000E+02 0.29719784913376E+00
 0.22654161182000E+02 0.66916246895232E+00
 s    2 1.00
 0.89791477428000E+01 0.64596683630063E+00
 0.36863002370000E+01 0.38700574393705E+00
 s    1 1.00
 0.84660076805000E+00 0.10000000000000E+01
 s    1 1.00
 0.33647133771000E+00 0.10000000000000E+01
 s    1 1.00
 0.13647653675000E+00 0.10000000000000E+01
 s    1 1.00
 0.68441605847000E-01 0.10000000000000E+01
 p    4 1.00
 0.49200380510000E+02 0.11448825101764E-01
 0.11346790537000E+02 0.78422337970864E-01
 0.34273972411000E+01 0.30818094738830E+00
 0.11785525134000E+01 0.72027196368413E+00
 p    1 1.00
 0.41642204972000E+00 0.10000000000000E+01
 p    1 1.00
 0.14260826011000E+00 0.10000000000000E+01
 d    1 1.00
 0.16540000000000E+01 0.10000000000000E+01
 d    1 1.00
 0.46900000000000E+00 0.10000000000000E+01
 d    1 1.00
 0.12829642058000E+00 0.10000000000000E+01
 f    1 1.00
 0.10930000000000E+01 0.10000000000000E+01
 
   12 0
 s    6 1.00
 0.27032382631000E+05 0.57227335211155E-03
 0.40523871392000E+04 0.44353233492995E-02
 0.92232722710000E+03 0.23020107706038E-01
 0.26124070989000E+03 0.92822490667928E-01
 0.85354641351000E+02 0.29378500009671E+00
 0.31035035245000E+02 0.67401604501641E+00
 s    2 1.00
 0.12260860728000E+02 0.63839937025506E+00
 0.49987076005000E+01 0.39534587125718E+00
 s    1 1.00
 0.11703108158000E+01 0.10000000000000E+01
 s    1 1.00
 0.46474740994000E+00 0.10000000000000E+01
 s    1 1.00
 0.18504536357000E+00 0.10000000000000E+01
 s    1 1.00
 0.70288026270000E-01 0.10000000000000E+01
 p    4 1.00
 0.63274954801000E+02 0.12018332222616E-01
 0.14627049379000E+02 0.83005421790056E-01
 0.44501223456000E+01 0.31991743925964E+00
 0.15275799647000E+01 0.70715542916104E+00
 p    1 1.00
 0.52935117943000E+00 0.10000000000000E+01
 p    1 1.00
 0.17478421270000E+00 0.10000000000000E+01
 p    1 1.00
 0.51112745706000E-01 0.10000000000000E+01
 d    1 1.00
 0.23140000000000E+01 0.10000000000000E+01
 d    1 1.00
 0.64500000000000E+00 0.10000000000000E+01
 d    1 1.00
 0.14696477366000E+00 0.10000000000000E+01
 f    1 1.00
 0.14280000000000E+01 0.10000000000000E+01
 
   13 0
 s    6 1.00
 0.27032382631000E+05 0.57227335211155E-03
 0.40523871392000E+04 0.44353233492995E-02
 0.92232722710000E+03 0.23020107706038E-01
 0.26124070989000E+03 0.92822490667928E-01
 0.85354641351000E+02 0.29378500009671E+00
 0.31035035245000E+02 0.67401604501641E+00
 s    2 1.00
 0.12260860728000E+02 0.63839937025506E+00
 0.49987076005000E+01 0.39534587125718E+00
 s    1 1.00
 0.11703108158000E+01 0.10000000000000E+01
 s    1 1.00
 0.46474740994000E+00 0.10000000000000E+01
 s    1 1.00
 0.18504536357000E+00 0.10000000000000E+01
 s    1 1.00
 0.70288026270000E-01 0.10000000000000E+01
 p    4 1.00
 0.63274954801000E+02 0.12018332222616E-01
 0.14627049379000E+02 0.83005421790056E-01
 0.44501223456000E+01 0.31991743925964E+00
 0.15275799647000E+01 0.70715542916104E+00
 p    1 1.00
 0.52935117943000E+00 0.10000000000000E+01
 p    1 1.00
 0.17478421270000E+00 0.10000000000000E+01
 p    1 1.00
 0.51112745706000E-01 0.10000000000000E+01
 d    1 1.00
 0.23140000000000E+01 0.10000000000000E+01
 d    1 1.00
 0.64500000000000E+00 0.10000000000000E+01
 d    1 1.00
 0.14696477366000E+00 0.10000000000000E+01
 f    1 1.00
 0.14280000000000E+01 0.10000000000000E+01
 
   14 0
 s    6 1.00
 0.19730800647000E+05 0.58626402628763E-03
 0.29578958745000E+04 0.45428820586397E-02
 0.67322133595000E+03 0.23558413450084E-01
 0.19068249494000E+03 0.94709193292923E-01
 0.62295441898000E+02 0.29719784913376E+00
 0.22654161182000E+02 0.66916246895232E+00
 s    2 1.00
 0.89791477428000E+01 0.64596683630063E+00
 0.36863002370000E+01 0.38700574393705E+00
 s    1 1.00
 0.84660076805000E+00 0.10000000000000E+01
 s    1 1.00
 0.33647133771000E+00 0.10000000000000E+01
 s    1 1.00
 0.13647653675000E+00 0.10000000000000E+01
 s    1 1.00
 0.68441605847000E-01 0.10000000000000E+01
 p    4 1.00
 0.49200380510000E+02 0.11448825101764E-01
 0.11346790537000E+02 0.78422337970864E-01
 0.34273972411000E+01 0.30818094738830E+00
 0.11785525134000E+01 0.72027196368413E+00
 p    1 1.00
 0.41642204972000E+00 0.10000000000000E+01
 p    1 1.00
 0.14260826011000E+00 0.10000000000000E+01
 d    1 1.00
 0.16540000000000E+01 0.10000000000000E+01
 d    1 1.00
 0.46900000000000E+00 0.10000000000000E+01
 d    1 1.00
 0.12829642058000E+00 0.10000000000000E+01
 f    1 1.00
 0.10930000000000E+01 0.10000000000000E+01
 
   15 0
 s    3 1.00
 0.34061341000000E+02 0.25439307208879E-01
 0.51235746000000E+01 0.19008594890375E+00
 0.11646626000000E+01 0.85244113011042E+00
 s    1 1.00
 0.32723041000000E+00 0.10000000000000E+01
 s    1 1.00
 0.10307241000000E+00 0.10000000000000E+01
 p    1 1.00
 0.80000000000000E+00 0.10000000000000E+01
 p    1 1.00
 0.95774129632000E-01 0.10000000000000E+01
 
   16 0
 s    3 1.00
 0.34061341000000E+02 0.25439307208879E-01
 0.51235746000000E+01 0.19008594890375E+00
 0.11646626000000E+01 0.85244113011042E+00
 s    1 1.00
 0.32723041000000E+00 0.10000000000000E+01
 s    1 1.00
 0.10307241000000E+00 0.10000000000000E+01
 p    1 1.00
 0.80000000000000E+00 0.10000000000000E+01
 p    1 1.00
 0.95774129632000E-01 0.10000000000000E+01
 
[MO]
 Sym= X
 Ene= -0.943319
 Spin= Alpha
 Occup= -0.943319
         1   -2.105138E-04
         2   -4.901265E-04
         3    1.406478E-03
         4   -3.299926E-03
         5   -1.657146E-03
         6   -1.317913E-02
         7    2.242613E-03
         8    1.982048E-04
         9    1.924946E-02
        10   -2.672785E-03
        11    4.693405E-04
        12    1.756313E-02
        13   -3.864689E-02
        14    1.306719E-02
        15    5.635569E-03
        16    1.626627E-05
        17   -2.937593E-05
        18    1.310966E-05
        19   -1.460266E-05
        20   -6.334261E-03
        21    3.618166E-03
        22   -7.651882E-04
        23    4.503573E-04
        24    3.148309E-04
        25   -8.215531E-04
        26   -1.426214E-02
        27    6.882049E-03
        28   -5.308581E-03
        29    5.017823E-03
        30    2.907584E-04
        31    1.359890E-03
        32    2.523470E-03
        33   -9.791757E-03
        34   -2.301261E-05
        35    7.017369E-06
        36   -4.195194E-05
        37    1.031586E-05
        38   -6.456107E-06
        39   -7.493818E-04
        40    2.055879E-05
        41   -2.958681E-06
        42    8.056662E-04
        43   -6.755058E-04
        44    3.410544E-05
        45    7.450264E-05
        46    1.514252E-04
        47   -3.343412E-03
        48   -5.944813E-02
        49    6.576503E-03
        50    1.000841E-04
        51    2.153374E-06
        52    1.921812E-01
        53   -7.657160E-04
        54    1.495969E-05
        55    1.996156E-01
        56   -1.821222E-02
        57   -5.600137E-04
        58    1.928332E-01
        59    6.506138E-05
        60   -6.164045E-05
        61   -3.420935E-06
        62    1.177471E-07
        63   -8.212226E-04
        64    6.400696E-07
        65    4.606756E-04
        66   -7.506304E-04
        67    2.899548E-04
        68    3.330709E-06
        69   -3.420807E-03
        70    1.027766E-06
        71    1.123101E-02
        72   -1.266231E-02
        73    1.431297E-03
        74   -8.885587E-05
        75    4.311675E-03
        76   -1.092257E-05
        77    6.715126E-06
        78    2.206330E-08
        79   -1.058607E-03
        80   -7.097361E-06
        81    3.810638E-08
        82    6.414030E-04
        83   -1.911926E-06
        84   -6.770741E-08
        85    7.788670E-04
        86    7.327483E-08
        87   -2.107972E-04
        88   -4.907172E-04
        89    1.406812E-03
        90   -3.300474E-03
        91    2.014814E-04
        92   -1.317941E-02
        93    2.244772E-03
        94   -2.012008E-04
        95    1.928151E-02
        96   -2.632502E-03
        97   -4.660728E-04
        98    1.759583E-02
        99   -3.866051E-02
       100   -1.359997E-02
       101    5.676768E-03
       102    1.639870E-05
       103   -2.940392E-05
       104    1.300523E-05
       105    1.488021E-05
       106   -6.333709E-03
       107   -3.618344E-03
       108   -7.568438E-04
       109    4.425781E-04
       110    3.142657E-04
       111    8.195351E-04
       112   -1.426008E-02
       113   -6.881717E-03
       114   -5.376447E-03
       115    5.099317E-03
       116    2.771301E-04
       117   -1.277228E-03
       118    2.515307E-03
       119    9.791186E-03
       120   -2.298662E-05
       121   -6.985142E-06
       122   -4.212447E-05
       123    1.041787E-05
       124    6.385824E-06
       125   -7.491852E-04
       126    2.042192E-05
       127    2.985728E-06
       128    8.057011E-04
       129    6.754638E-04
       130    1.322390E-04
       131    2.852410E-04
       132    6.386722E-04
       133   -1.166672E-02
       134    2.581899E-02
       135    1.525057E-02
       136   -1.890367E-03
       137    7.496477E-04
       138   -1.607201E-01
       139   -1.085182E-02
       140    7.080440E-03
       141   -1.632510E-01
       142   -2.330805E-02
       143   -8.555446E-03
       144   -9.824335E-02
       145    1.771049E-04
       146   -2.093414E-04
       147    3.223642E-05
       148   -1.890093E-06
       149   -8.714480E-04
       150    3.226783E-03
       151    7.713666E-04
       152   -8.863658E-04
       153    1.149991E-04
       154    1.933810E-03
       155   -4.267208E-03
       156    5.383380E-03
       157    9.443196E-03
       158   -7.376489E-03
       159   -2.066707E-03
       160   -1.100062E-02
       161    3.641553E-03
       162   -1.182425E-02
       163   -1.963627E-05
       164    1.047039E-05
       165    9.360787E-04
       166   -2.066708E-05
       167    2.021956E-05
       168   -2.601624E-04
       169    4.701190E-05
       170   -3.426706E-05
       171   -9.957189E-04
       172    3.621763E-04
       173   -1.234763E-03
       174   -2.816854E-03
       175    2.836522E-03
       176    2.509859E-02
       177   -2.775008E-02
       178    9.470086E-03
       179    1.030182E-02
       180   -2.320859E-06
       181   -1.256196E-01
       182    5.230425E-04
       183   -1.331303E-05
       184   -1.282037E-01
       185   -3.610116E-02
       186    7.189219E-04
       187   -1.356066E-01
       188    5.725037E-04
       189   -3.244935E-04
       190   -2.480102E-04
       191    2.365583E-07
       192    9.858192E-03
       193    5.317040E-07
       194   -2.083122E-03
       195    4.650949E-03
       196   -2.567827E-03
       197    3.073786E-06
       198    2.447832E-02
       199    4.523515E-07
       200   -6.905260E-03
       201    8.213873E-03
       202   -1.308614E-03
       203   -1.366451E-04
       204    1.795887E-02
       205    1.470878E-06
       206    1.323436E-04
       207    5.252274E-09
       208    4.324771E-04
       209   -9.370680E-05
       210   -5.975409E-08
       211    9.632010E-04
       212   -8.385074E-05
       213    5.270742E-08
       214   -1.543430E-03
       215   -5.445975E-08
       216    1.328995E-04
       217    2.866034E-04
       218    6.367293E-04
       219   -1.167832E-02
       220    2.788060E-02
       221    1.522439E-02
       222   -1.889321E-03
       223   -7.422824E-04
       224   -1.607478E-01
       225   -1.087532E-02
       226   -7.085523E-03
       227   -1.632802E-01
       228   -2.330178E-02
       229    9.304640E-03
       230   -9.824449E-02
       231    1.769788E-04
       232   -2.096725E-04
       233    3.269376E-05
       234    2.325094E-06
       235   -8.707791E-04
       236   -3.226879E-03
       237    7.783874E-04
       238   -8.926213E-04
       239    1.142339E-04
       240   -1.936560E-03
       241   -4.264405E-03
       242   -5.383130E-03
       243    9.400746E-03
       244   -7.334111E-03
       245   -2.066635E-03
       246    1.107913E-02
       247    3.647299E-03
       248    1.183110E-02
       249   -1.976623E-05
       250   -1.054304E-05
       251    9.363410E-04
       252   -2.072966E-05
       253   -2.011354E-05
       254   -2.604663E-04
       255    4.724884E-05
       256    3.425852E-05
       257   -9.957670E-04
       258   -3.621238E-04
       259   -4.952403E-04
       260   -3.397600E-04
       261   -1.960408E-02
       262   -1.188049E-05
       263   -8.292800E-06
       264    8.104907E-04
       265   -6.086785E-03
       266   -4.113963E-04
       267   -5.764061E-03
       268   -4.975921E-04
       269   -3.333908E-04
       270   -1.957529E-02
       271   -1.114117E-05
       272    7.324859E-06
       273    8.118204E-04
       274   -6.170129E-03
       275    3.842551E-04
       276   -5.768945E-03
       277   -5.656926E-04
       278   -2.880408E-03
       279    4.033897E-02
       280   -1.541290E-05
       281    1.315218E-04
       282   -6.493463E-03
       283   -1.799184E-03
       284   -3.258346E-03
       285    1.019691E-03
       286   -5.704439E-04
       287   -2.881180E-03
       288    4.060929E-02
       289   -1.499426E-05
       290   -1.312595E-04
       291   -6.494972E-03
       292   -1.799124E-03
       293    3.292873E-03
       294    1.020317E-03
       295   -6.666766E-05
       296   -1.556202E-04
       297    1.587881E-04
       298    5.301946E-04
       299   -7.582984E-03
       300    9.308953E-04
       301    8.313618E-04
       302   -7.476848E-07
       303    2.334519E-02
       304    4.480911E-04
       305   -1.229194E-07
       306    2.536978E-02
       307   -3.327167E-03
       308    2.560144E-05
       309    7.963833E-03
       310    3.703456E-05
       311   -2.572631E-05
       312   -1.130825E-05
       313    1.022324E-07
       314    4.050817E-03
       315    2.738541E-08
       316    4.618877E-05
       317    1.934002E-05
       318   -6.552879E-05
       319   -9.690754E-08
       320    1.229462E-02
       321    4.176150E-08
       322   -1.041377E-03
       323    3.242054E-03
       324   -2.200677E-03
       325    1.960476E-05
       326    2.984838E-03
       327    2.942290E-06
       328    7.725577E-06
       329    2.455793E-08
       330   -3.831356E-05
       331   -4.588013E-06
       332   -1.114060E-08
       333    6.708355E-04
       334   -5.776936E-06
       335   -2.180733E-08
       336   -6.194324E-04
       337    8.456759E-09
       338   -1.634597E-05
       339   -3.573407E-05
       340    2.612111E-06
       341    6.290344E-04
       342   -6.866502E-03
       343   -1.209332E-03
       344   -6.101985E-04
       345    1.159300E-04
       346   -6.872293E-02
       347   -6.715773E-04
       348    2.567830E-04
       349   -6.383876E-02
       350   -1.842140E-03
       351    5.895022E-04
       352   -5.264366E-02
       353   -2.441187E-04
       354    2.472978E-04
       355   -6.511148E-03
       356    4.031699E-06
       357   -6.479139E-06
       358    2.447439E-06
       359    3.649512E-06
       360    4.960210E-05
       361    3.690515E-04
       362   -1.554710E-05
       363   -1.361997E-05
       364    2.916707E-05
       365    1.837577E-05
       366   -3.554142E-04
       367    1.255582E-03
       368   -8.582505E-05
       369    4.761600E-05
       370    3.820905E-05
       371    8.005830E-05
       372   -2.319012E-04
       373    1.743735E-04
       374    1.302360E-06
       375    1.752238E-06
       376    4.381244E-05
       377   -2.421250E-06
       378    1.344300E-07
       379    7.947935E-05
       380    6.739509E-07
       381   -2.485303E-06
       382   -1.382599E-04
       383    1.054116E-04
       384   -1.631609E-05
       385   -3.569482E-05
       386    2.943580E-06
       387    6.257148E-04
       388   -6.861117E-03
       389   -1.185596E-03
       390   -6.114897E-04
       391   -1.112182E-04
       392   -6.872307E-02
       393   -6.724623E-04
       394   -2.525412E-04
       395   -6.383922E-02
       396   -1.822864E-03
       397   -5.814828E-04
       398   -5.263893E-02
       399   -2.324348E-04
       400   -2.507737E-04
       401   -6.512544E-03
       402    3.990133E-06
       403   -6.416125E-06
       404    2.425992E-06
       405   -3.677189E-06
       406    4.956954E-05
       407   -3.690576E-04
       408   -1.548421E-05
       409   -1.344041E-05
       410    2.892463E-05
       411   -1.802147E-05
       412   -3.553852E-04
       413   -1.255580E-03
       414   -8.641720E-05
       415    4.961974E-05
       416    3.679746E-05
       417   -7.946455E-05
       418   -2.321637E-04
       419   -1.737118E-04
       420    1.293161E-06
       421   -1.730839E-06
       422    4.381648E-05
       423   -2.395939E-06
       424   -1.463329E-07
       425    7.947387E-05
       426    6.609825E-07
       427    2.468497E-06
       428   -1.382598E-04
       429   -1.054153E-04
       430    5.423676E-03
       431    1.290049E-02
       432   -2.017099E-02
       433   -3.197544E-02
       434   -2.148199E-02
       435   -7.880710E-02
       436   -1.983689E-02
       437    8.401636E-06
       438    2.472328E-01
       439   -2.271619E-02
       440    2.051320E-07
       441    2.442041E-01
       442   -2.242289E-02
       443   -1.022498E-04
       444    2.016133E-01
       445   -1.245565E-04
       446   -9.846606E-06
       447    1.344031E-04
       448    2.340956E-07
       449    9.876690E-04
       450    1.836621E-07
       451   -2.771238E-04
       452   -1.765827E-03
       453    2.042950E-03
       454   -3.455332E-06
       455    4.077871E-03
       456    5.918153E-07
       457   -2.327851E-03
       458   -3.771468E-03
       459    6.099319E-03
       460   -4.505243E-06
       461    2.524439E-03
       462    1.240086E-06
       463   -1.690207E-04
       464    3.520623E-08
       465   -9.389287E-04
       466   -9.417910E-05
       467    5.036707E-09
       468    4.665459E-04
       469    3.209442E-04
       470   -5.227083E-08
       471    7.931590E-04
       472   -4.721803E-08
       473    1.124411E-02
       474    2.122791E-02
       475    3.650983E-02
       476   -2.590111E-03
       477   -2.216849E-03
       478    1.250592E-02
       479    1.294692E-03
       480   -4.179846E-03
       481    1.483303E-02
       482    1.123872E-02
       483    2.115760E-02
       484    3.626173E-02
       485   -2.585907E-03
       486    2.210391E-03
       487    1.250936E-02
       488    1.330663E-03
       489    4.139955E-03
       490    1.484216E-02
 Sym= X
 Ene= 0.943319
 Spin= Alpha
 Occup= 0.943319
         1    4.063067E-03
         2    8.507661E-03
         3    5.388463E-03
         4   -2.421536E-01
         5   -7.056496E+00
         6   -4.869603E-01
         7    1.561248E-02
         8    3.735531E-02
         9   -1.283773E-02
        10    1.021242E-01
        11    1.340220E-02
        12   -1.500538E-02
        13    3.879987E+00
        14   -4.245544E+00
        15    4.398020E-03
        16   -8.537867E-04
        17   -1.293320E-04
        18    9.831186E-04
        19    1.167539E-03
        20    3.495827E-04
        21   -1.368967E-05
        22    2.222411E-02
        23   -2.710056E-02
        24    4.876458E-03
        25    1.271061E-02
        26    9.593108E-04
        27    1.312190E-04
        28    1.331438E+00
        29   -1.264599E+00
        30   -6.683940E-02
        31    1.372549E+00
        32   -1.120018E-02
        33    1.615188E-02
        34    1.433211E-04
        35   -4.882543E-05
        36    2.749999E-05
        37    8.176545E-04
        38    3.569692E-04
        39   -3.779416E-06
        40   -1.009940E-03
        41   -2.914630E-04
        42   -3.311569E-05
        43   -9.764773E-06
        44    1.139174E-06
        45    2.754988E-06
        46   -1.822823E-06
        47   -1.074898E-08
        48    5.341881E-03
        49    4.760900E-03
        50    9.088095E-06
        51    1.130472E-02
        52    2.029013E-05
        53   -1.352029E-05
        54   -8.811197E-02
        55    1.377627E-05
        56   -2.863521E-03
        57   -9.275805E+00
        58    2.536312E-04
        59    5.969984E-07
        60    4.934588E-07
        61   -1.090457E-06
        62   -1.750109E-03