[Molden Format]
[Title]
ADC(2) - opt by CAM-B3LYP gaussian                                              
[Atoms] AU
 c     1    6 -.12590385386216E+01 -.22819701624009E+01 -.30156123253150E-01
 c     2    6 -.25547233845863E+01 -.83266058000000E-06 -.28792213416740E-01
 c     3    6 -.12590428849917E+01 0.22819669475044E+01 -.30169993842970E-01
 c     4    6 0.13339759331395E+01 0.22828246941961E+01 -.32722654800530E-01
 c     5    6 0.26864234278208E+01 0.32869423900000E-05 -.32794180934660E-01
 c     6    6 0.13339778039684E+01 -.22828226745513E+01 -.32706516539360E-01
 h     7    1 -.23005849451053E+01 -.40353719055945E+01 -.27139024303910E-01
 h     8    1 -.23005903875166E+01 0.40353685773143E+01 -.27164403325880E-01
 h     9    1 0.23527432406667E+01 0.40554759247724E+01 -.35914685697900E-01
 h    10    1 0.23527525948111E+01 -.40554698422164E+01 -.35883032785170E-01
 n    11    7 -.52784595104117E+01 -.53030440000000E-06 -.22539903328000E-01
 o    12    8 -.63796877956448E+01 0.20272212823250E+01 -.19883023974210E-01
 o    13    8 -.63796922742957E+01 -.20272201130570E+01 -.19923067270970E-01
 n    14    7 0.52516126460355E+01 -.32243452000000E-06 -.88209511610250E-01
 h    15    1 0.62001707317805E+01 0.16133662892433E+01 0.23199721167530E+00
 h    16    1 0.62001633429513E+01 -.16133706190784E+01 0.23200112340840E+00
[GTO]
    1 0
 s    6 1.00
 0.13575349682000E+05 0.60645503603591E-03
 0.20352333680000E+04 0.46979088884982E-02
 0.46322562359000E+03 0.24332477647552E-01
 0.13120019598000E+03 0.97399968307759E-01
 0.42853015891000E+02 0.30195584253780E+00
 0.15584185766000E+02 0.66233609137875E+00
 s    2 1.00
 0.62067138508000E+01 0.65595308539952E+00
 0.25764896527000E+01 0.37585633285142E+00
 s    1 1.00
 0.57696339419000E+00 0.10000000000000E+01
 s    1 1.00
 0.22972831358000E+00 0.10000000000000E+01
 s    1 1.00
 0.95164440028000E-01 0.10000000000000E+01
 s    1 1.00
 0.48475401370000E-01 0.10000000000000E+01
 p    4 1.00
 0.34697232244000E+02 0.11327220003114E-01
 0.79582622826000E+01 0.76169659202087E-01
 0.23780826883000E+01 0.30192252202676E+00
 0.81433208183000E+00 0.72785027349547E+00
 p    1 1.00
 0.28887547253000E+00 0.10000000000000E+01
 p    1 1.00
 0.10056823671000E+00 0.10000000000000E+01
 d    1 1.00
 0.10970000000000E+01 0.10000000000000E+01
 d    1 1.00
 0.31800000000000E+00 0.10000000000000E+01
 d    1 1.00
 0.90985336424000E-01 0.10000000000000E+01
 f    1 1.00
 0.76100000000000E+00 0.10000000000000E+01
 
    2 0
 s    6 1.00
 0.13575349682000E+05 0.60645503603591E-03
 0.20352333680000E+04 0.46979088884982E-02
 0.46322562359000E+03 0.24332477647552E-01
 0.13120019598000E+03 0.97399968307759E-01
 0.42853015891000E+02 0.30195584253780E+00
 0.15584185766000E+02 0.66233609137875E+00
 s    2 1.00
 0.62067138508000E+01 0.65595308539952E+00
 0.25764896527000E+01 0.37585633285142E+00
 s    1 1.00
 0.57696339419000E+00 0.10000000000000E+01
 s    1 1.00
 0.22972831358000E+00 0.10000000000000E+01
 s    1 1.00
 0.95164440028000E-01 0.10000000000000E+01
 s    1 1.00
 0.48475401370000E-01 0.10000000000000E+01
 p    4 1.00
 0.34697232244000E+02 0.11327220003114E-01
 0.79582622826000E+01 0.76169659202087E-01
 0.23780826883000E+01 0.30192252202676E+00
 0.81433208183000E+00 0.72785027349547E+00
 p    1 1.00
 0.28887547253000E+00 0.10000000000000E+01
 p    1 1.00
 0.10056823671000E+00 0.10000000000000E+01
 d    1 1.00
 0.10970000000000E+01 0.10000000000000E+01
 d    1 1.00
 0.31800000000000E+00 0.10000000000000E+01
 d    1 1.00
 0.90985336424000E-01 0.10000000000000E+01
 f    1 1.00
 0.76100000000000E+00 0.10000000000000E+01
 
    3 0
 s    6 1.00
 0.13575349682000E+05 0.60645503603591E-03
 0.20352333680000E+04 0.46979088884982E-02
 0.46322562359000E+03 0.24332477647552E-01
 0.13120019598000E+03 0.97399968307759E-01
 0.42853015891000E+02 0.30195584253780E+00
 0.15584185766000E+02 0.66233609137875E+00
 s    2 1.00
 0.62067138508000E+01 0.65595308539952E+00
 0.25764896527000E+01 0.37585633285142E+00
 s    1 1.00
 0.57696339419000E+00 0.10000000000000E+01
 s    1 1.00
 0.22972831358000E+00 0.10000000000000E+01
 s    1 1.00
 0.95164440028000E-01 0.10000000000000E+01
 s    1 1.00
 0.48475401370000E-01 0.10000000000000E+01
 p    4 1.00
 0.34697232244000E+02 0.11327220003114E-01
 0.79582622826000E+01 0.76169659202087E-01
 0.23780826883000E+01 0.30192252202676E+00
 0.81433208183000E+00 0.72785027349547E+00
 p    1 1.00
 0.28887547253000E+00 0.10000000000000E+01
 p    1 1.00
 0.10056823671000E+00 0.10000000000000E+01
 d    1 1.00
 0.10970000000000E+01 0.10000000000000E+01
 d    1 1.00
 0.31800000000000E+00 0.10000000000000E+01
 d    1 1.00
 0.90985336424000E-01 0.10000000000000E+01
 f    1 1.00
 0.76100000000000E+00 0.10000000000000E+01
 
    4 0
 s    6 1.00
 0.13575349682000E+05 0.60645503603591E-03
 0.20352333680000E+04 0.46979088884982E-02
 0.46322562359000E+03 0.24332477647552E-01
 0.13120019598000E+03 0.97399968307759E-01
 0.42853015891000E+02 0.30195584253780E+00
 0.15584185766000E+02 0.66233609137875E+00
 s    2 1.00
 0.62067138508000E+01 0.65595308539952E+00
 0.25764896527000E+01 0.37585633285142E+00
 s    1 1.00
 0.57696339419000E+00 0.10000000000000E+01
 s    1 1.00
 0.22972831358000E+00 0.10000000000000E+01
 s    1 1.00
 0.95164440028000E-01 0.10000000000000E+01
 s    1 1.00
 0.48475401370000E-01 0.10000000000000E+01
 p    4 1.00
 0.34697232244000E+02 0.11327220003114E-01
 0.79582622826000E+01 0.76169659202087E-01
 0.23780826883000E+01 0.30192252202676E+00
 0.81433208183000E+00 0.72785027349547E+00
 p    1 1.00
 0.28887547253000E+00 0.10000000000000E+01
 p    1 1.00
 0.10056823671000E+00 0.10000000000000E+01
 d    1 1.00
 0.10970000000000E+01 0.10000000000000E+01
 d    1 1.00
 0.31800000000000E+00 0.10000000000000E+01
 d    1 1.00
 0.90985336424000E-01 0.10000000000000E+01
 f    1 1.00
 0.76100000000000E+00 0.10000000000000E+01
 
    5 0
 s    6 1.00
 0.13575349682000E+05 0.60645503603591E-03
 0.20352333680000E+04 0.46979088884982E-02
 0.46322562359000E+03 0.24332477647552E-01
 0.13120019598000E+03 0.97399968307759E-01
 0.42853015891000E+02 0.30195584253780E+00
 0.15584185766000E+02 0.66233609137875E+00
 s    2 1.00
 0.62067138508000E+01 0.65595308539952E+00
 0.25764896527000E+01 0.37585633285142E+00
 s    1 1.00
 0.57696339419000E+00 0.10000000000000E+01
 s    1 1.00
 0.22972831358000E+00 0.10000000000000E+01
 s    1 1.00
 0.95164440028000E-01 0.10000000000000E+01
 s    1 1.00
 0.48475401370000E-01 0.10000000000000E+01
 p    4 1.00
 0.34697232244000E+02 0.11327220003114E-01
 0.79582622826000E+01 0.76169659202087E-01
 0.23780826883000E+01 0.30192252202676E+00
 0.81433208183000E+00 0.72785027349547E+00
 p    1 1.00
 0.28887547253000E+00 0.10000000000000E+01
 p    1 1.00
 0.10056823671000E+00 0.10000000000000E+01
 d    1 1.00
 0.10970000000000E+01 0.10000000000000E+01
 d    1 1.00
 0.31800000000000E+00 0.10000000000000E+01
 d    1 1.00
 0.90985336424000E-01 0.10000000000000E+01
 f    1 1.00
 0.76100000000000E+00 0.10000000000000E+01
 
    6 0
 s    6 1.00
 0.13575349682000E+05 0.60645503603591E-03
 0.20352333680000E+04 0.46979088884982E-02
 0.46322562359000E+03 0.24332477647552E-01
 0.13120019598000E+03 0.97399968307759E-01
 0.42853015891000E+02 0.30195584253780E+00
 0.15584185766000E+02 0.66233609137875E+00
 s    2 1.00
 0.62067138508000E+01 0.65595308539952E+00
 0.25764896527000E+01 0.37585633285142E+00
 s    1 1.00
 0.57696339419000E+00 0.10000000000000E+01
 s    1 1.00
 0.22972831358000E+00 0.10000000000000E+01
 s    1 1.00
 0.95164440028000E-01 0.10000000000000E+01
 s    1 1.00
 0.48475401370000E-01 0.10000000000000E+01
 p    4 1.00
 0.34697232244000E+02 0.11327220003114E-01
 0.79582622826000E+01 0.76169659202087E-01
 0.23780826883000E+01 0.30192252202676E+00
 0.81433208183000E+00 0.72785027349547E+00
 p    1 1.00
 0.28887547253000E+00 0.10000000000000E+01
 p    1 1.00
 0.10056823671000E+00 0.10000000000000E+01
 d    1 1.00
 0.10970000000000E+01 0.10000000000000E+01
 d    1 1.00
 0.31800000000000E+00 0.10000000000000E+01
 d    1 1.00
 0.90985336424000E-01 0.10000000000000E+01
 f    1 1.00
 0.76100000000000E+00 0.10000000000000E+01
 
    7 0
 s    3 1.00
 0.34061341000000E+02 0.25439307208879E-01
 0.51235746000000E+01 0.19008594890375E+00
 0.11646626000000E+01 0.85244113011042E+00
 s    1 1.00
 0.32723041000000E+00 0.10000000000000E+01
 s    1 1.00
 0.10307241000000E+00 0.10000000000000E+01
 p    1 1.00
 0.80000000000000E+00 0.10000000000000E+01
 p    1 1.00
 0.95774129632000E-01 0.10000000000000E+01
 
    8 0
 s    3 1.00
 0.34061341000000E+02 0.25439307208879E-01
 0.51235746000000E+01 0.19008594890375E+00
 0.11646626000000E+01 0.85244113011042E+00
 s    1 1.00
 0.32723041000000E+00 0.10000000000000E+01
 s    1 1.00
 0.10307241000000E+00 0.10000000000000E+01
 p    1 1.00
 0.80000000000000E+00 0.10000000000000E+01
 p    1 1.00
 0.95774129632000E-01 0.10000000000000E+01
 
    9 0
 s    3 1.00
 0.34061341000000E+02 0.25439307208879E-01
 0.51235746000000E+01 0.19008594890375E+00
 0.11646626000000E+01 0.85244113011042E+00
 s    1 1.00
 0.32723041000000E+00 0.10000000000000E+01
 s    1 1.00
 0.10307241000000E+00 0.10000000000000E+01
 p    1 1.00
 0.80000000000000E+00 0.10000000000000E+01
 p    1 1.00
 0.95774129632000E-01 0.10000000000000E+01
 
   10 0
 s    3 1.00
 0.34061341000000E+02 0.25439307208879E-01
 0.51235746000000E+01 0.19008594890375E+00
 0.11646626000000E+01 0.85244113011042E+00
 s    1 1.00
 0.32723041000000E+00 0.10000000000000E+01
 s    1 1.00
 0.10307241000000E+00 0.10000000000000E+01
 p    1 1.00
 0.80000000000000E+00 0.10000000000000E+01
 p    1 1.00
 0.95774129632000E-01 0.10000000000000E+01
 
   11 0
 s    6 1.00
 0.19730800647000E+05 0.58626402628763E-03
 0.29578958745000E+04 0.45428820586397E-02
 0.67322133595000E+03 0.23558413450084E-01
 0.19068249494000E+03 0.94709193292923E-01
 0.62295441898000E+02 0.29719784913376E+00
 0.22654161182000E+02 0.66916246895232E+00
 s    2 1.00
 0.89791477428000E+01 0.64596683630063E+00
 0.36863002370000E+01 0.38700574393705E+00
 s    1 1.00
 0.84660076805000E+00 0.10000000000000E+01
 s    1 1.00
 0.33647133771000E+00 0.10000000000000E+01
 s    1 1.00
 0.13647653675000E+00 0.10000000000000E+01
 s    1 1.00
 0.68441605847000E-01 0.10000000000000E+01
 p    4 1.00
 0.49200380510000E+02 0.11448825101764E-01
 0.11346790537000E+02 0.78422337970864E-01
 0.34273972411000E+01 0.30818094738830E+00
 0.11785525134000E+01 0.72027196368413E+00
 p    1 1.00
 0.41642204972000E+00 0.10000000000000E+01
 p    1 1.00
 0.14260826011000E+00 0.10000000000000E+01
 d    1 1.00
 0.16540000000000E+01 0.10000000000000E+01
 d    1 1.00
 0.46900000000000E+00 0.10000000000000E+01
 d    1 1.00
 0.12829642058000E+00 0.10000000000000E+01
 f    1 1.00
 0.10930000000000E+01 0.10000000000000E+01
 
   12 0
 s    6 1.00
 0.27032382631000E+05 0.57227335211155E-03
 0.40523871392000E+04 0.44353233492995E-02
 0.92232722710000E+03 0.23020107706038E-01
 0.26124070989000E+03 0.92822490667928E-01
 0.85354641351000E+02 0.29378500009671E+00
 0.31035035245000E+02 0.67401604501641E+00
 s    2 1.00
 0.12260860728000E+02 0.63839937025506E+00
 0.49987076005000E+01 0.39534587125718E+00
 s    1 1.00
 0.11703108158000E+01 0.10000000000000E+01
 s    1 1.00
 0.46474740994000E+00 0.10000000000000E+01
 s    1 1.00
 0.18504536357000E+00 0.10000000000000E+01
 s    1 1.00
 0.70288026270000E-01 0.10000000000000E+01
 p    4 1.00
 0.63274954801000E+02 0.12018332222616E-01
 0.14627049379000E+02 0.83005421790056E-01
 0.44501223456000E+01 0.31991743925964E+00
 0.15275799647000E+01 0.70715542916104E+00
 p    1 1.00
 0.52935117943000E+00 0.10000000000000E+01
 p    1 1.00
 0.17478421270000E+00 0.10000000000000E+01
 p    1 1.00
 0.51112745706000E-01 0.10000000000000E+01
 d    1 1.00
 0.23140000000000E+01 0.10000000000000E+01
 d    1 1.00
 0.64500000000000E+00 0.10000000000000E+01
 d    1 1.00
 0.14696477366000E+00 0.10000000000000E+01
 f    1 1.00
 0.14280000000000E+01 0.10000000000000E+01
 
   13 0
 s    6 1.00
 0.27032382631000E+05 0.57227335211155E-03
 0.40523871392000E+04 0.44353233492995E-02
 0.92232722710000E+03 0.23020107706038E-01
 0.26124070989000E+03 0.92822490667928E-01
 0.85354641351000E+02 0.29378500009671E+00
 0.31035035245000E+02 0.67401604501641E+00
 s    2 1.00
 0.12260860728000E+02 0.63839937025506E+00
 0.49987076005000E+01 0.39534587125718E+00
 s    1 1.00
 0.11703108158000E+01 0.10000000000000E+01
 s    1 1.00
 0.46474740994000E+00 0.10000000000000E+01
 s    1 1.00
 0.18504536357000E+00 0.10000000000000E+01
 s    1 1.00
 0.70288026270000E-01 0.10000000000000E+01
 p    4 1.00
 0.63274954801000E+02 0.12018332222616E-01
 0.14627049379000E+02 0.83005421790056E-01
 0.44501223456000E+01 0.31991743925964E+00
 0.15275799647000E+01 0.70715542916104E+00
 p    1 1.00
 0.52935117943000E+00 0.10000000000000E+01
 p    1 1.00
 0.17478421270000E+00 0.10000000000000E+01
 p    1 1.00
 0.51112745706000E-01 0.10000000000000E+01
 d    1 1.00
 0.23140000000000E+01 0.10000000000000E+01
 d    1 1.00
 0.64500000000000E+00 0.10000000000000E+01
 d    1 1.00
 0.14696477366000E+00 0.10000000000000E+01
 f    1 1.00
 0.14280000000000E+01 0.10000000000000E+01
 
   14 0
 s    6 1.00
 0.19730800647000E+05 0.58626402628763E-03
 0.29578958745000E+04 0.45428820586397E-02
 0.67322133595000E+03 0.23558413450084E-01
 0.19068249494000E+03 0.94709193292923E-01
 0.62295441898000E+02 0.29719784913376E+00
 0.22654161182000E+02 0.66916246895232E+00
 s    2 1.00
 0.89791477428000E+01 0.64596683630063E+00
 0.36863002370000E+01 0.38700574393705E+00
 s    1 1.00
 0.84660076805000E+00 0.10000000000000E+01
 s    1 1.00
 0.33647133771000E+00 0.10000000000000E+01
 s    1 1.00
 0.13647653675000E+00 0.10000000000000E+01
 s    1 1.00
 0.68441605847000E-01 0.10000000000000E+01
 p    4 1.00
 0.49200380510000E+02 0.11448825101764E-01
 0.11346790537000E+02 0.78422337970864E-01
 0.34273972411000E+01 0.30818094738830E+00
 0.11785525134000E+01 0.72027196368413E+00
 p    1 1.00
 0.41642204972000E+00 0.10000000000000E+01
 p    1 1.00
 0.14260826011000E+00 0.10000000000000E+01
 d    1 1.00
 0.16540000000000E+01 0.10000000000000E+01
 d    1 1.00
 0.46900000000000E+00 0.10000000000000E+01
 d    1 1.00
 0.12829642058000E+00 0.10000000000000E+01
 f    1 1.00
 0.10930000000000E+01 0.10000000000000E+01
 
   15 0
 s    3 1.00
 0.34061341000000E+02 0.25439307208879E-01
 0.51235746000000E+01 0.19008594890375E+00
 0.11646626000000E+01 0.85244113011042E+00
 s    1 1.00
 0.32723041000000E+00 0.10000000000000E+01
 s    1 1.00
 0.10307241000000E+00 0.10000000000000E+01
 p    1 1.00
 0.80000000000000E+00 0.10000000000000E+01
 p    1 1.00
 0.95774129632000E-01 0.10000000000000E+01
 
   16 0
 s    3 1.00
 0.34061341000000E+02 0.25439307208879E-01
 0.51235746000000E+01 0.19008594890375E+00
 0.11646626000000E+01 0.85244113011042E+00
 s    1 1.00
 0.32723041000000E+00 0.10000000000000E+01
 s    1 1.00
 0.10307241000000E+00 0.10000000000000E+01
 p    1 1.00
 0.80000000000000E+00 0.10000000000000E+01
 p    1 1.00
 0.95774129632000E-01 0.10000000000000E+01
 
[MO]
 Sym= X
 Ene= -0.946954
 Spin= Alpha
 Occup= -0.946954
         1   -2.236354E-04
         2   -5.202070E-04
         3    1.469488E-03
         4   -3.339466E-03
         5   -1.353740E-03
         6   -1.355169E-02
         7    2.450035E-03
         8    2.079973E-04
         9    1.500154E-02
        10   -2.636782E-03
        11    4.916867E-04
        12    1.337698E-02
        13   -3.938845E-02
        14    1.309204E-02
        15    4.029092E-03
        16    2.218456E-05
        17   -3.490516E-05
        18    1.272060E-05
        19   -1.692746E-05
        20   -6.293371E-03
        21    3.472737E-03
        22   -7.780561E-04
        23    4.577777E-04
        24    3.202785E-04
        25   -8.505251E-04
        26   -1.415686E-02
        27    6.637233E-03
        28   -5.367582E-03
        29    5.067540E-03
        30    3.000421E-04
        31    1.427235E-03
        32    2.730183E-03
        33   -9.940237E-03
        34   -2.314342E-05
        35    7.325256E-06
        36   -6.989975E-06
        37    1.033030E-05
        38   -6.718982E-06
        39   -7.651936E-04
        40    2.071986E-05
        41   -3.108880E-06
        42    7.745716E-04
        43   -6.577128E-04
        44    3.602484E-05
        45    7.865189E-05
        46    1.586801E-04
        47   -3.493553E-03
        48   -5.983334E-02
        49    6.913224E-03
        50    1.253095E-05
        51    2.218205E-06
        52    1.851906E-01
        53   -8.692311E-04
        54    1.431182E-05
        55    1.925346E-01
        56   -1.845709E-02
        57   -5.743303E-04
        58    1.902043E-01
        59    7.318882E-05
        60   -6.963103E-05
        61   -3.557790E-06
        62    1.207753E-07
        63   -9.048910E-04
        64    6.449703E-07
        65    4.835344E-04
        66   -7.828797E-04
        67    2.993454E-04
        68    3.206592E-06
        69   -3.543763E-03
        70    1.021867E-06
        71    1.165479E-02
        72   -1.310145E-02
        73    1.446667E-03
        74   -8.985512E-05
        75    4.058105E-03
        76   -1.107162E-05
        77    6.269733E-06
        78    1.647831E-08
        79   -1.005201E-03
        80   -7.191203E-06
        81    4.108600E-08
        82    6.138302E-04
        83   -1.220527E-06
        84   -6.319397E-08
        85    7.347880E-04
        86    7.261783E-08
        87   -2.238770E-04
        88   -5.207022E-04
        89    1.469560E-03
        90   -3.340001E-03
        91    5.666418E-04
        92   -1.355409E-02
        93    2.452440E-03
        94   -2.113818E-04
        95    1.503379E-02
        96   -2.596491E-03
        97   -4.894714E-04
        98    1.340987E-02
        99   -3.939168E-02
       100   -1.364402E-02
       101    4.071636E-03
       102    2.231461E-05
       103   -3.493696E-05
       104    1.262235E-05
       105    1.722466E-05
       106   -6.292815E-03
       107   -3.472910E-03
       108   -7.696154E-04
       109    4.499804E-04
       110    3.196350E-04
       111    8.487274E-04
       112   -1.415481E-02
       113   -6.636956E-03
       114   -5.434059E-03
       115    5.148184E-03
       116    2.858742E-04
       117   -1.344265E-03
       118    2.721985E-03
       119    9.938606E-03
       120   -2.311425E-05
       121   -7.295083E-06
       122   -7.163309E-06
       123    1.042848E-05
       124    6.644120E-06
       125   -7.649967E-04
       126    2.058255E-05
       127    3.143260E-06
       128    7.746073E-04
       129    6.576737E-04
       130    1.424215E-04
       131    3.079393E-04
       132    6.377669E-04
       133   -1.205389E-02
       134    2.557539E-02
       135    1.568720E-02
       136   -2.101396E-03
       137    8.155705E-04
       138   -1.615828E-01
       139   -1.128839E-02
       140    7.321017E-03
       141   -1.641039E-01
       142   -2.368008E-02
       143   -8.900901E-03
       144   -9.830491E-02
       145    1.899088E-04
       146   -2.239229E-04
       147    3.401412E-05
       148   -1.861670E-06
       149   -7.435209E-04
       150    3.198222E-03
       151    7.953344E-04
       152   -9.181049E-04
       153    1.227704E-04
       154    1.993538E-03
       155   -4.038286E-03
       156    5.314010E-03
       157    9.693639E-03
       158   -7.583986E-03
       159   -2.109653E-03
       160   -1.129830E-02
       161    3.743690E-03
       162   -1.218266E-02
       163   -2.031548E-05
       164    1.131659E-05
       165    9.440901E-04
       166   -2.175839E-05
       167    2.026451E-05
       168   -2.764989E-04
       169    4.901447E-05
       170   -3.544731E-05
       171   -9.901308E-04
       172    3.497880E-04
       173   -1.279404E-03
       174   -2.918199E-03
       175    2.957654E-03
       176    2.566952E-02
       177   -2.956806E-02
       178    9.500077E-03
       179    1.088632E-02
       180   -2.498209E-06
       181   -1.226829E-01
       182    6.838807E-04
       183   -1.387871E-05
       184   -1.253608E-01
       185   -3.757106E-02
       186    7.187052E-04
       187   -1.359608E-01
       188    6.019463E-04
       189   -3.457334E-04
       190   -2.562129E-04
       191    2.451919E-07
       192    1.004993E-02
       193    5.296660E-07
       194   -2.144328E-03
       195    4.780192E-03
       196   -2.635864E-03
       197    3.247818E-06
       198    2.486813E-02
       199    5.285690E-07
       200   -7.204973E-03
       201    8.520444E-03
       202   -1.315470E-03
       203   -1.386191E-04
       204    1.806281E-02
       205    2.147038E-06
       206    1.375768E-04
       207    2.820423E-09
       208    4.047192E-04
       209   -9.676608E-05
       210   -6.057739E-08
       211    1.004166E-03
       212   -8.781250E-05
       213    5.679339E-08
       214   -1.547154E-03
       215   -5.750851E-08
       216    1.430873E-04
       217    3.093129E-04
       218    6.359056E-04
       219   -1.206657E-02
       220    2.767871E-02
       221    1.565814E-02
       222   -2.100211E-03
       223   -8.078940E-04
       224   -1.616106E-01
       225   -1.131237E-02
       226   -7.326448E-03
       227   -1.641331E-01
       228   -2.369345E-02
       229    9.659110E-03
       230   -9.830371E-02
       231    1.897877E-04
       232   -2.242577E-04
       233    3.446993E-05
       234    2.319308E-06
       235   -7.428436E-04
       236   -3.198322E-03
       237    8.024344E-04
       238   -9.245154E-04
       239    1.220810E-04
       240   -1.996353E-03
       241   -4.035469E-03
       242   -5.313696E-03
       243    9.651091E-03
       244   -7.541471E-03
       245   -2.109620E-03
       246    1.137442E-02
       247    3.749810E-03
       248    1.219037E-02
       249   -2.044076E-05
       250   -1.138990E-05
       251    9.443498E-04
       252   -2.182896E-05
       253   -2.015656E-05
       254   -2.768019E-04
       255    4.925311E-05
       256    3.543771E-05
       257   -9.901763E-04
       258   -3.497326E-04
       259   -5.490370E-04
       260   -4.132625E-04
       261   -2.026107E-02
       262   -1.220883E-05
       263   -1.502678E-05
       264    6.576905E-04
       265   -6.235646E-03
       266   -4.685955E-04
       267   -5.832806E-03
       268   -5.516626E-04
       269   -4.069588E-04
       270   -2.022578E-02
       271   -1.147777E-05
       272    1.405395E-05
       273    6.590385E-04
       274   -6.318106E-03
       275    4.410149E-04
       276   -5.836875E-03
       277   -6.212670E-04
       278   -3.023316E-03
       279    4.154275E-02
       280   -1.693735E-05
       281    1.416051E-04
       282   -6.509097E-03
       283   -1.976897E-03
       284   -3.334245E-03
       285    1.322630E-03
       286   -6.261799E-04
       287   -3.023836E-03
       288    4.181435E-02
       289   -1.649029E-05
       290   -1.413073E-04
       291   -6.510605E-03
       292   -1.977337E-03
       293    3.369085E-03
       294    1.323716E-03
       295   -7.417769E-05
       296   -1.733657E-04
       297    1.819940E-04
       298    5.923865E-04
       299   -7.877401E-03
       300    7.196751E-04
       301    9.448814E-04
       302   -8.484398E-07
       303    2.396811E-02
       304    5.425858E-04
       305   -3.023134E-07
       306    2.596235E-02
       307   -3.424715E-03
       308    2.660092E-05
       309    7.768936E-03
       310    4.081974E-05
       311   -3.083065E-05
       312   -9.989094E-06
       313    1.263459E-07
       314    3.914625E-03
       315    3.507957E-08
       316    5.542225E-05
       317    8.270161E-06
       318   -6.369241E-05
       319   -2.113209E-08
       320    1.190538E-02
       321    6.703656E-08
       322   -1.051881E-03
       323    3.320115E-03
       324   -2.268234E-03
       325    2.003621E-05
       326    2.800274E-03
       327    2.824322E-06
       328    7.851900E-06
       329    2.922727E-08
       330   -4.224402E-05
       331   -4.488515E-06
       332   -1.906130E-08
       333    6.511377E-04
       334   -6.045914E-06
       335   -2.015121E-08
       336   -5.944614E-04
       337    7.302143E-09
       338   -1.816529E-05
       339   -4.005534E-05
       340    8.178225E-06
       341    6.603793E-04
       342   -7.053106E-03
       343   -1.223192E-03
       344   -7.065246E-04
       345    1.235506E-04
       346   -6.620808E-02
       347   -7.605994E-04
       348    2.653285E-04
       349   -6.152290E-02
       350   -1.933114E-03
       351    6.107125E-04
       352   -5.100256E-02
       353   -2.594862E-04
       354    2.449994E-04
       355   -6.368331E-03
       356    4.234782E-06
       357   -7.162465E-06
       358    2.927683E-06
       359    4.384833E-06
       360    5.739345E-05
       361    3.416977E-04
       362   -1.610648E-05
       363   -1.503465E-05
       364    3.114112E-05
       365    1.986766E-05
       366   -3.182691E-04
       367    1.171755E-03
       368   -8.741789E-05
       369    4.654082E-05
       370    4.087707E-05
       371    7.994751E-05
       372   -1.763301E-04
       373    1.607770E-04
       374    1.427985E-06
       375    1.846938E-06
       376    3.962018E-05
       377   -2.697010E-06
       378    1.922919E-07
       379    7.696759E-05
       380    7.811675E-07
       381   -2.670219E-06
       382   -1.301236E-04
       383    9.834888E-05
       384   -1.813633E-05
       385   -4.001779E-05
       386    8.501294E-06
       387    6.570930E-04
       388   -7.048002E-03
       389   -1.199723E-03
       390   -7.090399E-04
       391   -1.177920E-04
       392   -6.620865E-02
       393   -7.626034E-04
       394   -2.602243E-04
       395   -6.152372E-02
       396   -1.914509E-03
       397   -6.020514E-04
       398   -5.099838E-02
       399   -2.481376E-04
       400   -2.482386E-04
       401   -6.369819E-03
       402    4.182511E-06
       403   -7.085788E-06
       404    2.903277E-06
       405   -4.411640E-06
       406    5.735952E-05
       407   -3.417075E-04
       408   -1.606794E-05
       409   -1.483844E-05
       410    3.090638E-05
       411   -1.952789E-05
       412   -3.182519E-04
       413   -1.171764E-03
       414   -8.815099E-05
       415    4.866909E-05
       416    3.948190E-05
       417   -7.929085E-05
       418   -1.766016E-04
       419   -1.601772E-04
       420    1.417529E-06
       421   -1.822417E-06
       422    3.962488E-05
       423   -2.670627E-06
       424   -2.082514E-07
       425    7.696227E-05
       426    7.688119E-07
       427    2.653281E-06
       428   -1.301246E-04
       429   -9.835366E-05
       430    5.581199E-03
       431    1.327417E-02
       432   -2.075038E-02
       433   -3.291336E-02
       434   -2.158231E-02
       435   -7.986723E-02
       436   -2.063745E-02
       437    8.769138E-06
       438    2.545147E-01
       439   -2.359617E-02
       440    3.476375E-07
       441    2.512654E-01
       442   -2.355193E-02
       443   -1.043062E-04
       444    2.063998E-01
       445   -1.263557E-04
       446   -1.750565E-05
       447    1.438613E-04
       448    2.453644E-07
       449    9.279243E-04
       450    1.913726E-07
       451   -2.710792E-04
       452   -1.844005E-03
       453    2.115084E-03
       454   -3.539617E-06
       455    3.948766E-03
       456    6.037705E-07
       457   -2.280587E-03
       458   -3.988220E-03
       459    6.268807E-03
       460   -4.741972E-06
       461    2.509470E-03
       462    1.251766E-06
       463   -1.725208E-04
       464    3.736564E-08
       465   -9.775035E-04
       466   -9.821528E-05
       467    4.980450E-09
       468    4.998849E-04
       469    3.296763E-04
       470   -5.511171E-08
       471    8.115737E-04
       472   -4.794693E-08
       473    1.143737E-02
       474    2.170341E-02
       475    3.742414E-02
       476   -2.676425E-03
       477   -2.276048E-03
       478    1.283741E-02
       479    1.178069E-03
       480   -4.263266E-03
       481    1.495889E-02
       482    1.143170E-02
       483    2.163103E-02
       484    3.716978E-02
       485   -2.672083E-03
       486    2.269411E-03
       487    1.284093E-02
       488    1.214912E-03
       489    4.222361E-03
       490    1.496852E-02
 Sym= X
 Ene= 0.946954
 Spin= Alpha
 Occup= 0.946954
         1   -6.245346E-03
         2   -1.422784E-02
         3    3.284043E-02
         4   -4.662746E-02
         5   -1.874373E+00
         6    2.489146E+00
         7   -1.389476E-02
         8   -5.178326E-03
         9   -1.354179E-04
        10   -1.462294E-01
        11   -2.842016E-02
        12    5.280241E-03
        13   -3.453899E-01
        14    1.400789E-01
        15   -3.537770E-02
        16    1.123036E-03
        17    5.527516E-04
        18   -1.675787E-03
        19   -9.024008E-04
        20   -1.682862E-04
        21   -1.438295E-04
        22   -2.733644E-02
        23    2.784122E-02
        24   -5.047839E-04
        25    6.676777E-03
        26    1.486705E-03
        27   -5.586079E-04
        28   -6.927771E-01
        29    5.305820E-01
        30    1.621951E-01
        31   -9.526611E-01
        32   -3.617615E-02
        33    3.803166E-02
        34   -4.160896E-04
        35   -1.812802E-04
        36    1.328734E-05
        37   -3.617991E-04
        38   -6.376173E-05
        39    4.708460E-05
        40    9.200419E-04
        41    3.069746E-04
        42   -6.491143E-05
        43    4.757005E-05
        44   -5.097862E-03
        45   -1.121947E-02
        46    3.071070E-03
        47    1.594217E-01
        48   -4.452061E+00
        49   -2.286565E+00
        50    2.263455E-03
        51   -2.277888E-07
        52   -4.541182E-03
        53   -6.223382E-02
        54   -6.961292E-06
        55   -4.723890E-04
        56   -2.057514E+00
        57    7.708865E-04
        58   -1.273880E-01
        59   -7.027143E-04
        60    2.912149E-03
        61   -2.209435E-03
        62   -1.766092E-07