[Molden Format]
[Title]
ADC(2) - opt by CAM-B3LYP gaussian                                              
[Atoms] AU
 c     1    6 -.12590385386216E+01 -.22819701624009E+01 -.30156123253150E-01
 c     2    6 -.25547233845863E+01 -.83266058000000E-06 -.28792213416740E-01
 c     3    6 -.12590428849917E+01 0.22819669475044E+01 -.30169993842970E-01
 c     4    6 0.13339759331395E+01 0.22828246941961E+01 -.32722654800530E-01
 c     5    6 0.26864234278208E+01 0.32869423900000E-05 -.32794180934660E-01
 c     6    6 0.13339778039684E+01 -.22828226745513E+01 -.32706516539360E-01
 h     7    1 -.23005849451053E+01 -.40353719055945E+01 -.27139024303910E-01
 h     8    1 -.23005903875166E+01 0.40353685773143E+01 -.27164403325880E-01
 h     9    1 0.23527432406667E+01 0.40554759247724E+01 -.35914685697900E-01
 h    10    1 0.23527525948111E+01 -.40554698422164E+01 -.35883032785170E-01
 n    11    7 -.52784595104117E+01 -.53030440000000E-06 -.22539903328000E-01
 o    12    8 -.63796877956448E+01 0.20272212823250E+01 -.19883023974210E-01
 o    13    8 -.63796922742957E+01 -.20272201130570E+01 -.19923067270970E-01
 n    14    7 0.52516126460355E+01 -.32243452000000E-06 -.88209511610250E-01
 h    15    1 0.62001707317805E+01 0.16133662892433E+01 0.23199721167530E+00
 h    16    1 0.62001633429513E+01 -.16133706190784E+01 0.23200112340840E+00
[GTO]
    1 0
 s    6 1.00
 0.13575349682000E+05 0.60645503603591E-03
 0.20352333680000E+04 0.46979088884982E-02
 0.46322562359000E+03 0.24332477647552E-01
 0.13120019598000E+03 0.97399968307759E-01
 0.42853015891000E+02 0.30195584253780E+00
 0.15584185766000E+02 0.66233609137875E+00
 s    2 1.00
 0.62067138508000E+01 0.65595308539952E+00
 0.25764896527000E+01 0.37585633285142E+00
 s    1 1.00
 0.57696339419000E+00 0.10000000000000E+01
 s    1 1.00
 0.22972831358000E+00 0.10000000000000E+01
 s    1 1.00
 0.95164440028000E-01 0.10000000000000E+01
 s    1 1.00
 0.48475401370000E-01 0.10000000000000E+01
 p    4 1.00
 0.34697232244000E+02 0.11327220003114E-01
 0.79582622826000E+01 0.76169659202087E-01
 0.23780826883000E+01 0.30192252202676E+00
 0.81433208183000E+00 0.72785027349547E+00
 p    1 1.00
 0.28887547253000E+00 0.10000000000000E+01
 p    1 1.00
 0.10056823671000E+00 0.10000000000000E+01
 d    1 1.00
 0.10970000000000E+01 0.10000000000000E+01
 d    1 1.00
 0.31800000000000E+00 0.10000000000000E+01
 d    1 1.00
 0.90985336424000E-01 0.10000000000000E+01
 f    1 1.00
 0.76100000000000E+00 0.10000000000000E+01
 
    2 0
 s    6 1.00
 0.13575349682000E+05 0.60645503603591E-03
 0.20352333680000E+04 0.46979088884982E-02
 0.46322562359000E+03 0.24332477647552E-01
 0.13120019598000E+03 0.97399968307759E-01
 0.42853015891000E+02 0.30195584253780E+00
 0.15584185766000E+02 0.66233609137875E+00
 s    2 1.00
 0.62067138508000E+01 0.65595308539952E+00
 0.25764896527000E+01 0.37585633285142E+00
 s    1 1.00
 0.57696339419000E+00 0.10000000000000E+01
 s    1 1.00
 0.22972831358000E+00 0.10000000000000E+01
 s    1 1.00
 0.95164440028000E-01 0.10000000000000E+01
 s    1 1.00
 0.48475401370000E-01 0.10000000000000E+01
 p    4 1.00
 0.34697232244000E+02 0.11327220003114E-01
 0.79582622826000E+01 0.76169659202087E-01
 0.23780826883000E+01 0.30192252202676E+00
 0.81433208183000E+00 0.72785027349547E+00
 p    1 1.00
 0.28887547253000E+00 0.10000000000000E+01
 p    1 1.00
 0.10056823671000E+00 0.10000000000000E+01
 d    1 1.00
 0.10970000000000E+01 0.10000000000000E+01
 d    1 1.00
 0.31800000000000E+00 0.10000000000000E+01
 d    1 1.00
 0.90985336424000E-01 0.10000000000000E+01
 f    1 1.00
 0.76100000000000E+00 0.10000000000000E+01
 
    3 0
 s    6 1.00
 0.13575349682000E+05 0.60645503603591E-03
 0.20352333680000E+04 0.46979088884982E-02
 0.46322562359000E+03 0.24332477647552E-01
 0.13120019598000E+03 0.97399968307759E-01
 0.42853015891000E+02 0.30195584253780E+00
 0.15584185766000E+02 0.66233609137875E+00
 s    2 1.00
 0.62067138508000E+01 0.65595308539952E+00
 0.25764896527000E+01 0.37585633285142E+00
 s    1 1.00
 0.57696339419000E+00 0.10000000000000E+01
 s    1 1.00
 0.22972831358000E+00 0.10000000000000E+01
 s    1 1.00
 0.95164440028000E-01 0.10000000000000E+01
 s    1 1.00
 0.48475401370000E-01 0.10000000000000E+01
 p    4 1.00
 0.34697232244000E+02 0.11327220003114E-01
 0.79582622826000E+01 0.76169659202087E-01
 0.23780826883000E+01 0.30192252202676E+00
 0.81433208183000E+00 0.72785027349547E+00
 p    1 1.00
 0.28887547253000E+00 0.10000000000000E+01
 p    1 1.00
 0.10056823671000E+00 0.10000000000000E+01
 d    1 1.00
 0.10970000000000E+01 0.10000000000000E+01
 d    1 1.00
 0.31800000000000E+00 0.10000000000000E+01
 d    1 1.00
 0.90985336424000E-01 0.10000000000000E+01
 f    1 1.00
 0.76100000000000E+00 0.10000000000000E+01
 
    4 0
 s    6 1.00
 0.13575349682000E+05 0.60645503603591E-03
 0.20352333680000E+04 0.46979088884982E-02
 0.46322562359000E+03 0.24332477647552E-01
 0.13120019598000E+03 0.97399968307759E-01
 0.42853015891000E+02 0.30195584253780E+00
 0.15584185766000E+02 0.66233609137875E+00
 s    2 1.00
 0.62067138508000E+01 0.65595308539952E+00
 0.25764896527000E+01 0.37585633285142E+00
 s    1 1.00
 0.57696339419000E+00 0.10000000000000E+01
 s    1 1.00
 0.22972831358000E+00 0.10000000000000E+01
 s    1 1.00
 0.95164440028000E-01 0.10000000000000E+01
 s    1 1.00
 0.48475401370000E-01 0.10000000000000E+01
 p    4 1.00
 0.34697232244000E+02 0.11327220003114E-01
 0.79582622826000E+01 0.76169659202087E-01
 0.23780826883000E+01 0.30192252202676E+00
 0.81433208183000E+00 0.72785027349547E+00
 p    1 1.00
 0.28887547253000E+00 0.10000000000000E+01
 p    1 1.00
 0.10056823671000E+00 0.10000000000000E+01
 d    1 1.00
 0.10970000000000E+01 0.10000000000000E+01
 d    1 1.00
 0.31800000000000E+00 0.10000000000000E+01
 d    1 1.00
 0.90985336424000E-01 0.10000000000000E+01
 f    1 1.00
 0.76100000000000E+00 0.10000000000000E+01
 
    5 0
 s    6 1.00
 0.13575349682000E+05 0.60645503603591E-03
 0.20352333680000E+04 0.46979088884982E-02
 0.46322562359000E+03 0.24332477647552E-01
 0.13120019598000E+03 0.97399968307759E-01
 0.42853015891000E+02 0.30195584253780E+00
 0.15584185766000E+02 0.66233609137875E+00
 s    2 1.00
 0.62067138508000E+01 0.65595308539952E+00
 0.25764896527000E+01 0.37585633285142E+00
 s    1 1.00
 0.57696339419000E+00 0.10000000000000E+01
 s    1 1.00
 0.22972831358000E+00 0.10000000000000E+01
 s    1 1.00
 0.95164440028000E-01 0.10000000000000E+01
 s    1 1.00
 0.48475401370000E-01 0.10000000000000E+01
 p    4 1.00
 0.34697232244000E+02 0.11327220003114E-01
 0.79582622826000E+01 0.76169659202087E-01
 0.23780826883000E+01 0.30192252202676E+00
 0.81433208183000E+00 0.72785027349547E+00
 p    1 1.00
 0.28887547253000E+00 0.10000000000000E+01
 p    1 1.00
 0.10056823671000E+00 0.10000000000000E+01
 d    1 1.00
 0.10970000000000E+01 0.10000000000000E+01
 d    1 1.00
 0.31800000000000E+00 0.10000000000000E+01
 d    1 1.00
 0.90985336424000E-01 0.10000000000000E+01
 f    1 1.00
 0.76100000000000E+00 0.10000000000000E+01
 
    6 0
 s    6 1.00
 0.13575349682000E+05 0.60645503603591E-03
 0.20352333680000E+04 0.46979088884982E-02
 0.46322562359000E+03 0.24332477647552E-01
 0.13120019598000E+03 0.97399968307759E-01
 0.42853015891000E+02 0.30195584253780E+00
 0.15584185766000E+02 0.66233609137875E+00
 s    2 1.00
 0.62067138508000E+01 0.65595308539952E+00
 0.25764896527000E+01 0.37585633285142E+00
 s    1 1.00
 0.57696339419000E+00 0.10000000000000E+01
 s    1 1.00
 0.22972831358000E+00 0.10000000000000E+01
 s    1 1.00
 0.95164440028000E-01 0.10000000000000E+01
 s    1 1.00
 0.48475401370000E-01 0.10000000000000E+01
 p    4 1.00
 0.34697232244000E+02 0.11327220003114E-01
 0.79582622826000E+01 0.76169659202087E-01
 0.23780826883000E+01 0.30192252202676E+00
 0.81433208183000E+00 0.72785027349547E+00
 p    1 1.00
 0.28887547253000E+00 0.10000000000000E+01
 p    1 1.00
 0.10056823671000E+00 0.10000000000000E+01
 d    1 1.00
 0.10970000000000E+01 0.10000000000000E+01
 d    1 1.00
 0.31800000000000E+00 0.10000000000000E+01
 d    1 1.00
 0.90985336424000E-01 0.10000000000000E+01
 f    1 1.00
 0.76100000000000E+00 0.10000000000000E+01
 
    7 0
 s    3 1.00
 0.34061341000000E+02 0.25439307208879E-01
 0.51235746000000E+01 0.19008594890375E+00
 0.11646626000000E+01 0.85244113011042E+00
 s    1 1.00
 0.32723041000000E+00 0.10000000000000E+01
 s    1 1.00
 0.10307241000000E+00 0.10000000000000E+01
 p    1 1.00
 0.80000000000000E+00 0.10000000000000E+01
 p    1 1.00
 0.95774129632000E-01 0.10000000000000E+01
 
    8 0
 s    3 1.00
 0.34061341000000E+02 0.25439307208879E-01
 0.51235746000000E+01 0.19008594890375E+00
 0.11646626000000E+01 0.85244113011042E+00
 s    1 1.00
 0.32723041000000E+00 0.10000000000000E+01
 s    1 1.00
 0.10307241000000E+00 0.10000000000000E+01
 p    1 1.00
 0.80000000000000E+00 0.10000000000000E+01
 p    1 1.00
 0.95774129632000E-01 0.10000000000000E+01
 
    9 0
 s    3 1.00
 0.34061341000000E+02 0.25439307208879E-01
 0.51235746000000E+01 0.19008594890375E+00
 0.11646626000000E+01 0.85244113011042E+00
 s    1 1.00
 0.32723041000000E+00 0.10000000000000E+01
 s    1 1.00
 0.10307241000000E+00 0.10000000000000E+01
 p    1 1.00
 0.80000000000000E+00 0.10000000000000E+01
 p    1 1.00
 0.95774129632000E-01 0.10000000000000E+01
 
   10 0
 s    3 1.00
 0.34061341000000E+02 0.25439307208879E-01
 0.51235746000000E+01 0.19008594890375E+00
 0.11646626000000E+01 0.85244113011042E+00
 s    1 1.00
 0.32723041000000E+00 0.10000000000000E+01
 s    1 1.00
 0.10307241000000E+00 0.10000000000000E+01
 p    1 1.00
 0.80000000000000E+00 0.10000000000000E+01
 p    1 1.00
 0.95774129632000E-01 0.10000000000000E+01
 
   11 0
 s    6 1.00
 0.19730800647000E+05 0.58626402628763E-03
 0.29578958745000E+04 0.45428820586397E-02
 0.67322133595000E+03 0.23558413450084E-01
 0.19068249494000E+03 0.94709193292923E-01
 0.62295441898000E+02 0.29719784913376E+00
 0.22654161182000E+02 0.66916246895232E+00
 s    2 1.00
 0.89791477428000E+01 0.64596683630063E+00
 0.36863002370000E+01 0.38700574393705E+00
 s    1 1.00
 0.84660076805000E+00 0.10000000000000E+01
 s    1 1.00
 0.33647133771000E+00 0.10000000000000E+01
 s    1 1.00
 0.13647653675000E+00 0.10000000000000E+01
 s    1 1.00
 0.68441605847000E-01 0.10000000000000E+01
 p    4 1.00
 0.49200380510000E+02 0.11448825101764E-01
 0.11346790537000E+02 0.78422337970864E-01
 0.34273972411000E+01 0.30818094738830E+00
 0.11785525134000E+01 0.72027196368413E+00
 p    1 1.00
 0.41642204972000E+00 0.10000000000000E+01
 p    1 1.00
 0.14260826011000E+00 0.10000000000000E+01
 d    1 1.00
 0.16540000000000E+01 0.10000000000000E+01
 d    1 1.00
 0.46900000000000E+00 0.10000000000000E+01
 d    1 1.00
 0.12829642058000E+00 0.10000000000000E+01
 f    1 1.00
 0.10930000000000E+01 0.10000000000000E+01
 
   12 0
 s    6 1.00
 0.27032382631000E+05 0.57227335211155E-03
 0.40523871392000E+04 0.44353233492995E-02
 0.92232722710000E+03 0.23020107706038E-01
 0.26124070989000E+03 0.92822490667928E-01
 0.85354641351000E+02 0.29378500009671E+00
 0.31035035245000E+02 0.67401604501641E+00
 s    2 1.00
 0.12260860728000E+02 0.63839937025506E+00
 0.49987076005000E+01 0.39534587125718E+00
 s    1 1.00
 0.11703108158000E+01 0.10000000000000E+01
 s    1 1.00
 0.46474740994000E+00 0.10000000000000E+01
 s    1 1.00
 0.18504536357000E+00 0.10000000000000E+01
 s    1 1.00
 0.70288026270000E-01 0.10000000000000E+01
 p    4 1.00
 0.63274954801000E+02 0.12018332222616E-01
 0.14627049379000E+02 0.83005421790056E-01
 0.44501223456000E+01 0.31991743925964E+00
 0.15275799647000E+01 0.70715542916104E+00
 p    1 1.00
 0.52935117943000E+00 0.10000000000000E+01
 p    1 1.00
 0.17478421270000E+00 0.10000000000000E+01
 p    1 1.00
 0.51112745706000E-01 0.10000000000000E+01
 d    1 1.00
 0.23140000000000E+01 0.10000000000000E+01
 d    1 1.00
 0.64500000000000E+00 0.10000000000000E+01
 d    1 1.00
 0.14696477366000E+00 0.10000000000000E+01
 f    1 1.00
 0.14280000000000E+01 0.10000000000000E+01
 
   13 0
 s    6 1.00
 0.27032382631000E+05 0.57227335211155E-03
 0.40523871392000E+04 0.44353233492995E-02
 0.92232722710000E+03 0.23020107706038E-01
 0.26124070989000E+03 0.92822490667928E-01
 0.85354641351000E+02 0.29378500009671E+00
 0.31035035245000E+02 0.67401604501641E+00
 s    2 1.00
 0.12260860728000E+02 0.63839937025506E+00
 0.49987076005000E+01 0.39534587125718E+00
 s    1 1.00
 0.11703108158000E+01 0.10000000000000E+01
 s    1 1.00
 0.46474740994000E+00 0.10000000000000E+01
 s    1 1.00
 0.18504536357000E+00 0.10000000000000E+01
 s    1 1.00
 0.70288026270000E-01 0.10000000000000E+01
 p    4 1.00
 0.63274954801000E+02 0.12018332222616E-01
 0.14627049379000E+02 0.83005421790056E-01
 0.44501223456000E+01 0.31991743925964E+00
 0.15275799647000E+01 0.70715542916104E+00
 p    1 1.00
 0.52935117943000E+00 0.10000000000000E+01
 p    1 1.00
 0.17478421270000E+00 0.10000000000000E+01
 p    1 1.00
 0.51112745706000E-01 0.10000000000000E+01
 d    1 1.00
 0.23140000000000E+01 0.10000000000000E+01
 d    1 1.00
 0.64500000000000E+00 0.10000000000000E+01
 d    1 1.00
 0.14696477366000E+00 0.10000000000000E+01
 f    1 1.00
 0.14280000000000E+01 0.10000000000000E+01
 
   14 0
 s    6 1.00
 0.19730800647000E+05 0.58626402628763E-03
 0.29578958745000E+04 0.45428820586397E-02
 0.67322133595000E+03 0.23558413450084E-01
 0.19068249494000E+03 0.94709193292923E-01
 0.62295441898000E+02 0.29719784913376E+00
 0.22654161182000E+02 0.66916246895232E+00
 s    2 1.00
 0.89791477428000E+01 0.64596683630063E+00
 0.36863002370000E+01 0.38700574393705E+00
 s    1 1.00
 0.84660076805000E+00 0.10000000000000E+01
 s    1 1.00
 0.33647133771000E+00 0.10000000000000E+01
 s    1 1.00
 0.13647653675000E+00 0.10000000000000E+01
 s    1 1.00
 0.68441605847000E-01 0.10000000000000E+01
 p    4 1.00
 0.49200380510000E+02 0.11448825101764E-01
 0.11346790537000E+02 0.78422337970864E-01
 0.34273972411000E+01 0.30818094738830E+00
 0.11785525134000E+01 0.72027196368413E+00
 p    1 1.00
 0.41642204972000E+00 0.10000000000000E+01
 p    1 1.00
 0.14260826011000E+00 0.10000000000000E+01
 d    1 1.00
 0.16540000000000E+01 0.10000000000000E+01
 d    1 1.00
 0.46900000000000E+00 0.10000000000000E+01
 d    1 1.00
 0.12829642058000E+00 0.10000000000000E+01
 f    1 1.00
 0.10930000000000E+01 0.10000000000000E+01
 
   15 0
 s    3 1.00
 0.34061341000000E+02 0.25439307208879E-01
 0.51235746000000E+01 0.19008594890375E+00
 0.11646626000000E+01 0.85244113011042E+00
 s    1 1.00
 0.32723041000000E+00 0.10000000000000E+01
 s    1 1.00
 0.10307241000000E+00 0.10000000000000E+01
 p    1 1.00
 0.80000000000000E+00 0.10000000000000E+01
 p    1 1.00
 0.95774129632000E-01 0.10000000000000E+01
 
   16 0
 s    3 1.00
 0.34061341000000E+02 0.25439307208879E-01
 0.51235746000000E+01 0.19008594890375E+00
 0.11646626000000E+01 0.85244113011042E+00
 s    1 1.00
 0.32723041000000E+00 0.10000000000000E+01
 s    1 1.00
 0.10307241000000E+00 0.10000000000000E+01
 p    1 1.00
 0.80000000000000E+00 0.10000000000000E+01
 p    1 1.00
 0.95774129632000E-01 0.10000000000000E+01
 
[MO]
 Sym= X
 Ene= -0.958654
 Spin= Alpha
 Occup= -0.958654
         1   -5.303205E-03
         2   -1.215585E-02
         3    2.497407E-02
         4   -4.790887E-03
         5    2.059489E-01
         6    3.292441E-02
         7   -5.083405E-02
         8   -2.606418E-02
         9    9.961137E-05
        10   -5.797467E-02
        11   -2.185715E-02
        12    9.133794E-05
        13   -5.741005E-02
        14    7.276116E-02
        15   -1.029183E-04
        16   -1.758814E-03
        17    1.965976E-03
        18   -2.071621E-04
        19    8.761202E-04
        20    1.197596E-06
        21   -3.079662E-06
        22   -1.001533E-02
        23    7.081865E-03
        24    2.933469E-03
        25    2.394491E-03
        26    9.285242E-06
        27   -6.100223E-06
        28    1.247631E-03
        29    2.729492E-03
        30   -3.977123E-03
        31   -1.170466E-02
        32    7.571211E-05
        33   -9.722949E-06
        34   -7.842096E-05
        35    8.086974E-05
        36   -4.040320E-07
        37   -5.634828E-05
        38   -2.118528E-04
        39   -7.544213E-08
        40    1.615610E-04
        41    1.033546E-04
        42    6.175080E-07
        43    6.845660E-07
        44    8.928405E-08
        45    2.070008E-07
        46   -4.092740E-07
        47   -4.919252E-07
        48   -6.345823E-05
        49   -6.470176E-07
        50    1.508934E-06
        51   -1.272675E-02
        52    1.434326E-05
        53    3.631168E-07
        54   -2.384107E-02
        55    1.502866E-05
        56   -1.778276E-05
        57    1.902190E-01
        58    1.755428E-05
        59   -6.064016E-08
        60    5.402090E-08
        61    6.619268E-09
        62   -9.774576E-04
        63    1.446874E-07
        64    9.613856E-07
        65    1.552003E-07
        66   -1.229811E-07
        67   -3.221919E-08
        68    4.574127E-03
        69    1.740647E-07
        70   -7.225744E-06
        71   -5.042658E-06
        72    4.139687E-06
        73    9.029711E-07
        74    3.787520E-02
        75   -1.004382E-07
        76   -2.083137E-04
        77    7.750325E-09
        78   -5.756738E-04
        79   -1.450258E-07
        80   -7.343748E-09
        81    6.237297E-04
        82    8.064139E-08
        83   -3.054404E-09
        84    1.486177E-04
        85    1.139311E-07
        86   -7.900129E-07
        87    5.303407E-03
        88    1.215630E-02
        89   -2.497487E-02
        90    4.788967E-03
        91   -2.059117E-01
        92   -3.292120E-02
        93    5.083284E-02
        94   -2.606541E-02
        95   -8.118529E-05
        96    5.797343E-02
        97   -2.185867E-02
        98   -7.354053E-05
        99    5.741808E-02
       100    7.271192E-02
       101    1.157116E-04
       102    1.758767E-03
       103   -1.965935E-03
       104    2.071685E-04
       105    8.761295E-04
       106   -1.371190E-06
       107   -3.689625E-06
       108    1.001521E-02
       109   -7.081797E-03
       110   -2.933412E-03
       111    2.394698E-03
       112   -9.574643E-06
       113   -6.321150E-06
       114   -1.250148E-03
       115   -2.725368E-03
       116    3.975515E-03
       117   -1.170219E-02
       118   -6.786041E-05
       119   -7.854088E-06
       120    7.842215E-05
       121    8.085073E-05
       122    2.640509E-07
       123    5.635357E-05
       124   -2.118387E-04
       125    1.349931E-07
       126   -1.615679E-04
       127    1.033661E-04
       128   -4.892545E-07
       129    7.534905E-07
       130   -3.044475E-03
       131   -6.905251E-03
       132    1.332502E-02
       133   -9.681833E-03
       134    7.250697E-02
       135    1.189312E-02
       136   -3.777656E-02
       137    1.598290E-02
       138    3.881642E-05
       139   -5.153022E-03
       140    5.143424E-03
       141    5.952702E-05
       142    1.848765E-02
       143   -1.085602E-02
       144   -3.143142E-04
       145    9.284950E-04
       146   -8.253720E-04
       147   -1.031230E-04
       148    1.250546E-03
       149   -1.214551E-06
       150   -1.587583E-06
       151   -4.670638E-03
       152    3.048270E-03
       153    1.622367E-03
       154    1.190969E-03
       155    2.769244E-05
       156   -1.281281E-05
       157   -9.224719E-03
       158    1.048704E-02
       159   -1.262318E-03
       160   -1.800837E-04
       161   -7.236127E-05
       162    2.748515E-05
       163   -2.585412E-05
       164    2.759629E-05
       165   -1.113413E-06
       166   -3.662387E-05
       167    9.356814E-06
       168    5.974870E-07
       169    7.131082E-05
       170   -4.638113E-05
       171    8.963130E-07
       172   -1.276634E-06
       173    1.638985E-07
       174    3.609104E-07
       175   -3.615280E-07
       176   -9.162147E-07
       177    5.739731E-05
       178   -3.398756E-06
       179   -1.638433E-06
       180   -3.816873E-02
       181   -7.578024E-06
       182    1.527631E-06
       183   -4.060034E-02
       184   -6.956740E-06
       185   -1.520179E-05
       186   -5.405429E-02
       187    4.315220E-06
       188   -7.247193E-08
       189    7.263708E-08
       190   -1.651569E-10
       191    8.342815E-04
       192   -5.887123E-07
       193    1.217208E-05
       194    6.845407E-07
       195   -9.829387E-07
       196    2.983980E-07
       197    4.910315E-03
       198   -1.040793E-06
       199   -3.248254E-05
       200    5.262524E-06
       201   -4.725213E-06
       202   -5.373109E-07
       203    8.592655E-03
       204   -1.141401E-06
       205    2.721316E-04
       206   -5.065881E-09
       207   -2.726626E-04
       208    7.918086E-08
       209    6.288236E-09
       210    1.972671E-04
       211   -1.263881E-07
       212    5.083567E-10
       213    1.685482E-04
       214    2.015580E-08
       215    1.706729E-06
       216    3.044386E-03
       217    6.905050E-03
       218   -1.332539E-02
       219    9.689824E-03
       220   -7.253569E-02
       221   -1.189572E-02
       222    3.777832E-02
       223    1.598302E-02
       224   -3.425770E-05
       225    5.156602E-03
       226    5.145820E-03
       227   -5.384958E-05
       228   -1.847752E-02
       229   -1.089959E-02
       230    2.972568E-04
       231   -9.285810E-04
       232    8.254911E-04
       233    1.030899E-04
       234    1.250504E-03
       235    5.805980E-07
       236   -1.753200E-06
       237    4.670758E-03
       238   -3.048164E-03
       239   -1.622594E-03
       240    1.191429E-03
       241   -2.849673E-05
       242   -1.307123E-05
       243    9.225668E-03
       244   -1.048983E-02
       245    1.264162E-03
       246   -1.803583E-04
       247    7.688037E-05
       248    2.492223E-05
       249    2.585981E-05
       250    2.758746E-05
       251    1.089792E-06
       252    3.664101E-05
       253    9.381677E-06
       254   -5.527315E-07
       255   -7.133559E-05
       256   -4.639414E-05
       257   -9.093784E-07
       258   -1.350175E-06
       259    2.772464E-02
       260    3.980133E-02
       261    3.598600E-02
       262    2.736722E-03
       263    3.963911E-03
       264   -6.117400E-06
       265    5.758994E-03
       266    7.477051E-04
       267    3.871401E-05
       268   -2.772477E-02
       269   -3.980118E-02
       270   -3.595806E-02
       271   -2.736753E-03
       272    3.963894E-03
       273    7.300142E-06
       274   -5.757512E-03
       275    7.423064E-04
       276   -3.533852E-05
       277    2.641901E-03
       278    3.928270E-03
       279   -1.805251E-02
       280   -9.451187E-04
       281    5.430844E-05
       282    4.208321E-06
       283    1.949058E-03
       284   -6.767043E-05
       285    4.055901E-05
       286   -2.641134E-03
       287   -3.927121E-03
       288    1.802993E-02
       289    9.451129E-04
       290    5.440173E-05
       291   -3.974489E-06
       292   -1.944055E-03
       293   -7.129384E-05
       294   -4.521274E-05
       295    1.098992E-09
       296    2.976724E-09
       297   -2.406312E-08
       298    6.678887E-07
       299    1.153620E-06
       300   -3.643724E-06
       301   -1.408315E-06
       302   -4.670928E-02
       303   -6.544603E-08
       304   -1.568108E-06
       305   -3.501180E-02
       306    7.754114E-07
       307    1.533010E-07
       308    5.878350E-03
       309    3.220938E-06
       310   -8.442852E-08
       311    1.124886E-07
       312   -2.806010E-08
       313    9.787184E-03
       314    4.226610E-07
       315   -2.375803E-05
       316   -3.350446E-07
       317    2.875055E-07
       318    4.753910E-08
       319    2.640532E-02
       320    7.358347E-07
       321   -6.592664E-05
       322    2.186879E-07
       323   -1.151038E-06
       324    9.323499E-07
       325   -7.191533E-03
       326   -2.791604E-06
       327    3.694719E-05
       328   -8.810299E-09
       329    2.116057E-03
       330   -4.220071E-09
       331    6.039882E-09
       332   -3.035752E-03
       333    1.378404E-08
       334    5.780374E-09
       335    1.967642E-04
       336   -8.122223E-09
       337    8.981452E-06
       338    2.583627E-04
       339    7.331451E-04
       340   -6.166912E-04
       341    7.723116E-03
       342   -4.857940E-03
       343    1.892002E-02
       344    2.508857E-01
       345    2.324710E-01
       346   -6.146392E-04
       347    2.280468E-01
       348    2.035113E-01
       349   -5.576535E-04
       350    1.732781E-01
       351    1.461398E-01
       352   -4.395205E-04
       353    2.919051E-02
       354    1.475485E-02
       355   -6.549833E-05
       356    2.098988E-03
       357   -2.838286E-03
       358    7.392981E-04
       359    2.332239E-04
       360   -3.705746E-06
       361   -3.842859E-07
       362    6.348469E-03
       363   -7.332792E-03
       364    9.843227E-04
       365   -6.696842E-04
       366   -1.423327E-05
       367    2.762669E-06
       368    7.338475E-03
       369   -6.557194E-03
       370   -7.812814E-04
       371   -1.126889E-03
       372   -1.689863E-05
       373    9.371751E-06
       374    2.748812E-04
       375    7.870237E-04
       376   -7.512898E-07
       377   -5.129341E-04
       378   -8.559120E-04
       379   -2.226395E-07
       380    1.441423E-04
       381   -1.999911E-04
       382    1.230601E-06
       383    1.832476E-06
       384   -2.583283E-04
       385   -7.330673E-04
       386    6.166357E-04
       387   -7.724088E-03
       388    4.863455E-03
       389   -1.891604E-02
       390   -2.508797E-01
       391    2.324710E-01
       392    6.092054E-04
       393   -2.280414E-01
       394    2.035112E-01
       395    5.527761E-04
       396   -1.732731E-01
       397    1.461389E-01
       398    4.273381E-04
       399   -2.918959E-02
       400    1.475491E-02
       401    6.485205E-05
       402   -2.098984E-03
       403    2.838307E-03
       404   -7.393230E-04
       405    2.332902E-04
       406    3.758972E-06
       407   -3.717780E-07
       408   -6.348403E-03
       409    7.332820E-03
       410   -9.844170E-04
       411   -6.696049E-04
       412    1.455809E-05
       413    2.246100E-06
       414   -7.338419E-03
       415    6.557234E-03
       416    7.811845E-04
       417   -1.127246E-03
       418    2.100064E-05
       419    6.268149E-06
       420   -2.748921E-04
       421    7.870140E-04
       422    8.079681E-07
       423    5.129564E-04
       424   -8.558948E-04
       425    1.674593E-07
       426   -1.441500E-04
       427   -1.999953E-04
       428   -1.251462E-06
       429    1.872784E-06
       430   -4.832396E-07
       431   -1.146638E-06
       432    1.799489E-06
       433    1.999774E-06
       434    2.910962E-06
       435    8.336975E-06
       436    2.257182E-06
       437    1.423064E-02
       438   -2.220345E-05
       439    3.258369E-06
       440    1.104792E-02
       441   -2.146573E-05
       442    8.004320E-06
       443    6.583322E-03
       444   -1.482695E-05
       445    2.317629E-08
       446   -1.087147E-09
       447   -2.208915E-08
       448    7.624346E-04
       449    1.527574E-07
       450    1.604726E-04
       451   -2.649537E-07
       452    5.127985E-07
       453   -2.478448E-07
       454    2.029871E-03
       455    3.953486E-07
       456    2.212956E-04
       457   -1.364181E-06
       458    2.387985E-06
       459   -1.023805E-06
       460   -1.371785E-03
       461    6.533924E-07
       462   -1.305645E-04
       463    1.036425E-08
       464    1.163142E-04
       465    1.129919E-07
       466    1.771301E-08
       467   -1.207623E-04
       468   -9.680590E-08
       469   -3.161811E-08
       470   -3.528958E-05
       471   -5.478859E-08
       472    3.188159E-05
       473    7.670739E-03
       474    1.167459E-02
       475    1.101886E-02
       476   -6.667335E-04
       477   -7.375063E-04
       478   -2.335795E-04
       479   -1.131487E-03
       480   -1.153937E-03
       481   -3.376969E-04
       482   -7.672101E-03
       483   -1.168100E-02
       484   -1.103883E-02
       485    6.674717E-04
       486   -7.379995E-04
       487    2.312283E-04
       488    1.135099E-03
       489   -1.154606E-03
       490    3.359101E-04
 Sym= X
 Ene= 0.958654
 Spin= Alpha
 Occup= 0.958654
         1   -4.260737E-05
         2   -1.175716E-04
         3    5.260636E-04
         4   -2.066230E-03
         5   -3.966238E-01
         6   -4.526500E-02
         7    1.914212E-05
         8   -2.139915E-05
         9    1.000198E-01
        10    3.499811E-03
        11   -7.121414E-04
        12    1.053751E-01
        13   -1.934430E-01
        14    1.150601E-01
        15    3.810280E-02
        16    6.864874E-05
        17   -3.766916E-05
        18   -3.097958E-05
        19   -3.117758E-05
        20    2.699126E-04
        21    7.985092E-04
        22   -2.917977E-04
        23    1.414212E-04
        24    1.503765E-04
        25    6.408128E-04
        26   -3.451110E-03
        27   -1.358896E-03
        28   -4.601266E-02
        29    5.421995E-02
        30   -8.207293E-03
        31   -1.309162E-03
        32   -5.093092E-02
        33   -3.157108E-02
        34    3.800316E-06
        35    1.337851E-05
        36   -1.228080E-04
        37    4.753439E-06
        38   -1.510854E-05
        39   -2.053838E-04
        40   -9.852098E-06
        41   -2.840621E-06
        42    3.701480E-04
        43    1.930309E-04
        44   -8.625951E-05
        45   -1.975227E-04
        46    6.863799E-06
        47    8.336872E-03
        48   -4.442901E-01
        49    6.570818E-02
        50   -1.093750E-04
        51    5.492977E-07
        52   -1.724009E-02
        53    2.045369E-03
        54   -4.061942E-07
        55   -1.176551E-02
        56   -1.469977E-01
        57   -9.262031E-05
        58   -1.200884E-02
        59    2.906433E-05
        60    2.644755E-05
        61   -5.551189E-05
        62   -2.409988E-07