[Molden Format]
[Title]
ADC(2) - opt by CAM-B3LYP gaussian                                              
[Atoms] AU
 c     1    6 -.12590385386216E+01 -.22819701624009E+01 -.30156123253150E-01
 c     2    6 -.25547233845863E+01 -.83266058000000E-06 -.28792213416740E-01
 c     3    6 -.12590428849917E+01 0.22819669475044E+01 -.30169993842970E-01
 c     4    6 0.13339759331395E+01 0.22828246941961E+01 -.32722654800530E-01
 c     5    6 0.26864234278208E+01 0.32869423900000E-05 -.32794180934660E-01
 c     6    6 0.13339778039684E+01 -.22828226745513E+01 -.32706516539360E-01
 h     7    1 -.23005849451053E+01 -.40353719055945E+01 -.27139024303910E-01
 h     8    1 -.23005903875166E+01 0.40353685773143E+01 -.27164403325880E-01
 h     9    1 0.23527432406667E+01 0.40554759247724E+01 -.35914685697900E-01
 h    10    1 0.23527525948111E+01 -.40554698422164E+01 -.35883032785170E-01
 n    11    7 -.52784595104117E+01 -.53030440000000E-06 -.22539903328000E-01
 o    12    8 -.63796877956448E+01 0.20272212823250E+01 -.19883023974210E-01
 o    13    8 -.63796922742957E+01 -.20272201130570E+01 -.19923067270970E-01
 n    14    7 0.52516126460355E+01 -.32243452000000E-06 -.88209511610250E-01
 h    15    1 0.62001707317805E+01 0.16133662892433E+01 0.23199721167530E+00
 h    16    1 0.62001633429513E+01 -.16133706190784E+01 0.23200112340840E+00
[GTO]
    1 0
 s    6 1.00
 0.13575349682000E+05 0.60645503603591E-03
 0.20352333680000E+04 0.46979088884982E-02
 0.46322562359000E+03 0.24332477647552E-01
 0.13120019598000E+03 0.97399968307759E-01
 0.42853015891000E+02 0.30195584253780E+00
 0.15584185766000E+02 0.66233609137875E+00
 s    2 1.00
 0.62067138508000E+01 0.65595308539952E+00
 0.25764896527000E+01 0.37585633285142E+00
 s    1 1.00
 0.57696339419000E+00 0.10000000000000E+01
 s    1 1.00
 0.22972831358000E+00 0.10000000000000E+01
 s    1 1.00
 0.95164440028000E-01 0.10000000000000E+01
 s    1 1.00
 0.48475401370000E-01 0.10000000000000E+01
 p    4 1.00
 0.34697232244000E+02 0.11327220003114E-01
 0.79582622826000E+01 0.76169659202087E-01
 0.23780826883000E+01 0.30192252202676E+00
 0.81433208183000E+00 0.72785027349547E+00
 p    1 1.00
 0.28887547253000E+00 0.10000000000000E+01
 p    1 1.00
 0.10056823671000E+00 0.10000000000000E+01
 d    1 1.00
 0.10970000000000E+01 0.10000000000000E+01
 d    1 1.00
 0.31800000000000E+00 0.10000000000000E+01
 d    1 1.00
 0.90985336424000E-01 0.10000000000000E+01
 f    1 1.00
 0.76100000000000E+00 0.10000000000000E+01
 
    2 0
 s    6 1.00
 0.13575349682000E+05 0.60645503603591E-03
 0.20352333680000E+04 0.46979088884982E-02
 0.46322562359000E+03 0.24332477647552E-01
 0.13120019598000E+03 0.97399968307759E-01
 0.42853015891000E+02 0.30195584253780E+00
 0.15584185766000E+02 0.66233609137875E+00
 s    2 1.00
 0.62067138508000E+01 0.65595308539952E+00
 0.25764896527000E+01 0.37585633285142E+00
 s    1 1.00
 0.57696339419000E+00 0.10000000000000E+01
 s    1 1.00
 0.22972831358000E+00 0.10000000000000E+01
 s    1 1.00
 0.95164440028000E-01 0.10000000000000E+01
 s    1 1.00
 0.48475401370000E-01 0.10000000000000E+01
 p    4 1.00
 0.34697232244000E+02 0.11327220003114E-01
 0.79582622826000E+01 0.76169659202087E-01
 0.23780826883000E+01 0.30192252202676E+00
 0.81433208183000E+00 0.72785027349547E+00
 p    1 1.00
 0.28887547253000E+00 0.10000000000000E+01
 p    1 1.00
 0.10056823671000E+00 0.10000000000000E+01
 d    1 1.00
 0.10970000000000E+01 0.10000000000000E+01
 d    1 1.00
 0.31800000000000E+00 0.10000000000000E+01
 d    1 1.00
 0.90985336424000E-01 0.10000000000000E+01
 f    1 1.00
 0.76100000000000E+00 0.10000000000000E+01
 
    3 0
 s    6 1.00
 0.13575349682000E+05 0.60645503603591E-03
 0.20352333680000E+04 0.46979088884982E-02
 0.46322562359000E+03 0.24332477647552E-01
 0.13120019598000E+03 0.97399968307759E-01
 0.42853015891000E+02 0.30195584253780E+00
 0.15584185766000E+02 0.66233609137875E+00
 s    2 1.00
 0.62067138508000E+01 0.65595308539952E+00
 0.25764896527000E+01 0.37585633285142E+00
 s    1 1.00
 0.57696339419000E+00 0.10000000000000E+01
 s    1 1.00
 0.22972831358000E+00 0.10000000000000E+01
 s    1 1.00
 0.95164440028000E-01 0.10000000000000E+01
 s    1 1.00
 0.48475401370000E-01 0.10000000000000E+01
 p    4 1.00
 0.34697232244000E+02 0.11327220003114E-01
 0.79582622826000E+01 0.76169659202087E-01
 0.23780826883000E+01 0.30192252202676E+00
 0.81433208183000E+00 0.72785027349547E+00
 p    1 1.00
 0.28887547253000E+00 0.10000000000000E+01
 p    1 1.00
 0.10056823671000E+00 0.10000000000000E+01
 d    1 1.00
 0.10970000000000E+01 0.10000000000000E+01
 d    1 1.00
 0.31800000000000E+00 0.10000000000000E+01
 d    1 1.00
 0.90985336424000E-01 0.10000000000000E+01
 f    1 1.00
 0.76100000000000E+00 0.10000000000000E+01
 
    4 0
 s    6 1.00
 0.13575349682000E+05 0.60645503603591E-03
 0.20352333680000E+04 0.46979088884982E-02
 0.46322562359000E+03 0.24332477647552E-01
 0.13120019598000E+03 0.97399968307759E-01
 0.42853015891000E+02 0.30195584253780E+00
 0.15584185766000E+02 0.66233609137875E+00
 s    2 1.00
 0.62067138508000E+01 0.65595308539952E+00
 0.25764896527000E+01 0.37585633285142E+00
 s    1 1.00
 0.57696339419000E+00 0.10000000000000E+01
 s    1 1.00
 0.22972831358000E+00 0.10000000000000E+01
 s    1 1.00
 0.95164440028000E-01 0.10000000000000E+01
 s    1 1.00
 0.48475401370000E-01 0.10000000000000E+01
 p    4 1.00
 0.34697232244000E+02 0.11327220003114E-01
 0.79582622826000E+01 0.76169659202087E-01
 0.23780826883000E+01 0.30192252202676E+00
 0.81433208183000E+00 0.72785027349547E+00
 p    1 1.00
 0.28887547253000E+00 0.10000000000000E+01
 p    1 1.00
 0.10056823671000E+00 0.10000000000000E+01
 d    1 1.00
 0.10970000000000E+01 0.10000000000000E+01
 d    1 1.00
 0.31800000000000E+00 0.10000000000000E+01
 d    1 1.00
 0.90985336424000E-01 0.10000000000000E+01
 f    1 1.00
 0.76100000000000E+00 0.10000000000000E+01
 
    5 0
 s    6 1.00
 0.13575349682000E+05 0.60645503603591E-03
 0.20352333680000E+04 0.46979088884982E-02
 0.46322562359000E+03 0.24332477647552E-01
 0.13120019598000E+03 0.97399968307759E-01
 0.42853015891000E+02 0.30195584253780E+00
 0.15584185766000E+02 0.66233609137875E+00
 s    2 1.00
 0.62067138508000E+01 0.65595308539952E+00
 0.25764896527000E+01 0.37585633285142E+00
 s    1 1.00
 0.57696339419000E+00 0.10000000000000E+01
 s    1 1.00
 0.22972831358000E+00 0.10000000000000E+01
 s    1 1.00
 0.95164440028000E-01 0.10000000000000E+01
 s    1 1.00
 0.48475401370000E-01 0.10000000000000E+01
 p    4 1.00
 0.34697232244000E+02 0.11327220003114E-01
 0.79582622826000E+01 0.76169659202087E-01
 0.23780826883000E+01 0.30192252202676E+00
 0.81433208183000E+00 0.72785027349547E+00
 p    1 1.00
 0.28887547253000E+00 0.10000000000000E+01
 p    1 1.00
 0.10056823671000E+00 0.10000000000000E+01
 d    1 1.00
 0.10970000000000E+01 0.10000000000000E+01
 d    1 1.00
 0.31800000000000E+00 0.10000000000000E+01
 d    1 1.00
 0.90985336424000E-01 0.10000000000000E+01
 f    1 1.00
 0.76100000000000E+00 0.10000000000000E+01
 
    6 0
 s    6 1.00
 0.13575349682000E+05 0.60645503603591E-03
 0.20352333680000E+04 0.46979088884982E-02
 0.46322562359000E+03 0.24332477647552E-01
 0.13120019598000E+03 0.97399968307759E-01
 0.42853015891000E+02 0.30195584253780E+00
 0.15584185766000E+02 0.66233609137875E+00
 s    2 1.00
 0.62067138508000E+01 0.65595308539952E+00
 0.25764896527000E+01 0.37585633285142E+00
 s    1 1.00
 0.57696339419000E+00 0.10000000000000E+01
 s    1 1.00
 0.22972831358000E+00 0.10000000000000E+01
 s    1 1.00
 0.95164440028000E-01 0.10000000000000E+01
 s    1 1.00
 0.48475401370000E-01 0.10000000000000E+01
 p    4 1.00
 0.34697232244000E+02 0.11327220003114E-01
 0.79582622826000E+01 0.76169659202087E-01
 0.23780826883000E+01 0.30192252202676E+00
 0.81433208183000E+00 0.72785027349547E+00
 p    1 1.00
 0.28887547253000E+00 0.10000000000000E+01
 p    1 1.00
 0.10056823671000E+00 0.10000000000000E+01
 d    1 1.00
 0.10970000000000E+01 0.10000000000000E+01
 d    1 1.00
 0.31800000000000E+00 0.10000000000000E+01
 d    1 1.00
 0.90985336424000E-01 0.10000000000000E+01
 f    1 1.00
 0.76100000000000E+00 0.10000000000000E+01
 
    7 0
 s    3 1.00
 0.34061341000000E+02 0.25439307208879E-01
 0.51235746000000E+01 0.19008594890375E+00
 0.11646626000000E+01 0.85244113011042E+00
 s    1 1.00
 0.32723041000000E+00 0.10000000000000E+01
 s    1 1.00
 0.10307241000000E+00 0.10000000000000E+01
 p    1 1.00
 0.80000000000000E+00 0.10000000000000E+01
 p    1 1.00
 0.95774129632000E-01 0.10000000000000E+01
 
    8 0
 s    3 1.00
 0.34061341000000E+02 0.25439307208879E-01
 0.51235746000000E+01 0.19008594890375E+00
 0.11646626000000E+01 0.85244113011042E+00
 s    1 1.00
 0.32723041000000E+00 0.10000000000000E+01
 s    1 1.00
 0.10307241000000E+00 0.10000000000000E+01
 p    1 1.00
 0.80000000000000E+00 0.10000000000000E+01
 p    1 1.00
 0.95774129632000E-01 0.10000000000000E+01
 
    9 0
 s    3 1.00
 0.34061341000000E+02 0.25439307208879E-01
 0.51235746000000E+01 0.19008594890375E+00
 0.11646626000000E+01 0.85244113011042E+00
 s    1 1.00
 0.32723041000000E+00 0.10000000000000E+01
 s    1 1.00
 0.10307241000000E+00 0.10000000000000E+01
 p    1 1.00
 0.80000000000000E+00 0.10000000000000E+01
 p    1 1.00
 0.95774129632000E-01 0.10000000000000E+01
 
   10 0
 s    3 1.00
 0.34061341000000E+02 0.25439307208879E-01
 0.51235746000000E+01 0.19008594890375E+00
 0.11646626000000E+01 0.85244113011042E+00
 s    1 1.00
 0.32723041000000E+00 0.10000000000000E+01
 s    1 1.00
 0.10307241000000E+00 0.10000000000000E+01
 p    1 1.00
 0.80000000000000E+00 0.10000000000000E+01
 p    1 1.00
 0.95774129632000E-01 0.10000000000000E+01
 
   11 0
 s    6 1.00
 0.19730800647000E+05 0.58626402628763E-03
 0.29578958745000E+04 0.45428820586397E-02
 0.67322133595000E+03 0.23558413450084E-01
 0.19068249494000E+03 0.94709193292923E-01
 0.62295441898000E+02 0.29719784913376E+00
 0.22654161182000E+02 0.66916246895232E+00
 s    2 1.00
 0.89791477428000E+01 0.64596683630063E+00
 0.36863002370000E+01 0.38700574393705E+00
 s    1 1.00
 0.84660076805000E+00 0.10000000000000E+01
 s    1 1.00
 0.33647133771000E+00 0.10000000000000E+01
 s    1 1.00
 0.13647653675000E+00 0.10000000000000E+01
 s    1 1.00
 0.68441605847000E-01 0.10000000000000E+01
 p    4 1.00
 0.49200380510000E+02 0.11448825101764E-01
 0.11346790537000E+02 0.78422337970864E-01
 0.34273972411000E+01 0.30818094738830E+00
 0.11785525134000E+01 0.72027196368413E+00
 p    1 1.00
 0.41642204972000E+00 0.10000000000000E+01
 p    1 1.00
 0.14260826011000E+00 0.10000000000000E+01
 d    1 1.00
 0.16540000000000E+01 0.10000000000000E+01
 d    1 1.00
 0.46900000000000E+00 0.10000000000000E+01
 d    1 1.00
 0.12829642058000E+00 0.10000000000000E+01
 f    1 1.00
 0.10930000000000E+01 0.10000000000000E+01
 
   12 0
 s    6 1.00
 0.27032382631000E+05 0.57227335211155E-03
 0.40523871392000E+04 0.44353233492995E-02
 0.92232722710000E+03 0.23020107706038E-01
 0.26124070989000E+03 0.92822490667928E-01
 0.85354641351000E+02 0.29378500009671E+00
 0.31035035245000E+02 0.67401604501641E+00
 s    2 1.00
 0.12260860728000E+02 0.63839937025506E+00
 0.49987076005000E+01 0.39534587125718E+00
 s    1 1.00
 0.11703108158000E+01 0.10000000000000E+01
 s    1 1.00
 0.46474740994000E+00 0.10000000000000E+01
 s    1 1.00
 0.18504536357000E+00 0.10000000000000E+01
 s    1 1.00
 0.70288026270000E-01 0.10000000000000E+01
 p    4 1.00
 0.63274954801000E+02 0.12018332222616E-01
 0.14627049379000E+02 0.83005421790056E-01
 0.44501223456000E+01 0.31991743925964E+00
 0.15275799647000E+01 0.70715542916104E+00
 p    1 1.00
 0.52935117943000E+00 0.10000000000000E+01
 p    1 1.00
 0.17478421270000E+00 0.10000000000000E+01
 p    1 1.00
 0.51112745706000E-01 0.10000000000000E+01
 d    1 1.00
 0.23140000000000E+01 0.10000000000000E+01
 d    1 1.00
 0.64500000000000E+00 0.10000000000000E+01
 d    1 1.00
 0.14696477366000E+00 0.10000000000000E+01
 f    1 1.00
 0.14280000000000E+01 0.10000000000000E+01
 
   13 0
 s    6 1.00
 0.27032382631000E+05 0.57227335211155E-03
 0.40523871392000E+04 0.44353233492995E-02
 0.92232722710000E+03 0.23020107706038E-01
 0.26124070989000E+03 0.92822490667928E-01
 0.85354641351000E+02 0.29378500009671E+00
 0.31035035245000E+02 0.67401604501641E+00
 s    2 1.00
 0.12260860728000E+02 0.63839937025506E+00
 0.49987076005000E+01 0.39534587125718E+00
 s    1 1.00
 0.11703108158000E+01 0.10000000000000E+01
 s    1 1.00
 0.46474740994000E+00 0.10000000000000E+01
 s    1 1.00
 0.18504536357000E+00 0.10000000000000E+01
 s    1 1.00
 0.70288026270000E-01 0.10000000000000E+01
 p    4 1.00
 0.63274954801000E+02 0.12018332222616E-01
 0.14627049379000E+02 0.83005421790056E-01
 0.44501223456000E+01 0.31991743925964E+00
 0.15275799647000E+01 0.70715542916104E+00
 p    1 1.00
 0.52935117943000E+00 0.10000000000000E+01
 p    1 1.00
 0.17478421270000E+00 0.10000000000000E+01
 p    1 1.00
 0.51112745706000E-01 0.10000000000000E+01
 d    1 1.00
 0.23140000000000E+01 0.10000000000000E+01
 d    1 1.00
 0.64500000000000E+00 0.10000000000000E+01
 d    1 1.00
 0.14696477366000E+00 0.10000000000000E+01
 f    1 1.00
 0.14280000000000E+01 0.10000000000000E+01
 
   14 0
 s    6 1.00
 0.19730800647000E+05 0.58626402628763E-03
 0.29578958745000E+04 0.45428820586397E-02
 0.67322133595000E+03 0.23558413450084E-01
 0.19068249494000E+03 0.94709193292923E-01
 0.62295441898000E+02 0.29719784913376E+00
 0.22654161182000E+02 0.66916246895232E+00
 s    2 1.00
 0.89791477428000E+01 0.64596683630063E+00
 0.36863002370000E+01 0.38700574393705E+00
 s    1 1.00
 0.84660076805000E+00 0.10000000000000E+01
 s    1 1.00
 0.33647133771000E+00 0.10000000000000E+01
 s    1 1.00
 0.13647653675000E+00 0.10000000000000E+01
 s    1 1.00
 0.68441605847000E-01 0.10000000000000E+01
 p    4 1.00
 0.49200380510000E+02 0.11448825101764E-01
 0.11346790537000E+02 0.78422337970864E-01
 0.34273972411000E+01 0.30818094738830E+00
 0.11785525134000E+01 0.72027196368413E+00
 p    1 1.00
 0.41642204972000E+00 0.10000000000000E+01
 p    1 1.00
 0.14260826011000E+00 0.10000000000000E+01
 d    1 1.00
 0.16540000000000E+01 0.10000000000000E+01
 d    1 1.00
 0.46900000000000E+00 0.10000000000000E+01
 d    1 1.00
 0.12829642058000E+00 0.10000000000000E+01
 f    1 1.00
 0.10930000000000E+01 0.10000000000000E+01
 
   15 0
 s    3 1.00
 0.34061341000000E+02 0.25439307208879E-01
 0.51235746000000E+01 0.19008594890375E+00
 0.11646626000000E+01 0.85244113011042E+00
 s    1 1.00
 0.32723041000000E+00 0.10000000000000E+01
 s    1 1.00
 0.10307241000000E+00 0.10000000000000E+01
 p    1 1.00
 0.80000000000000E+00 0.10000000000000E+01
 p    1 1.00
 0.95774129632000E-01 0.10000000000000E+01
 
   16 0
 s    3 1.00
 0.34061341000000E+02 0.25439307208879E-01
 0.51235746000000E+01 0.19008594890375E+00
 0.11646626000000E+01 0.85244113011042E+00
 s    1 1.00
 0.32723041000000E+00 0.10000000000000E+01
 s    1 1.00
 0.10307241000000E+00 0.10000000000000E+01
 p    1 1.00
 0.80000000000000E+00 0.10000000000000E+01
 p    1 1.00
 0.95774129632000E-01 0.10000000000000E+01
 
[MO]
 Sym= X
 Ene= -0.089081
 Spin= Alpha
 Occup= -0.089081
         1    4.321023E-04
         2    9.911717E-04
         3   -2.106490E-03
         4    1.514571E-03
         5   -9.471230E-03
         6    1.284281E-02
         7   -6.744051E-03
         8   -3.257504E-04
         9    1.329192E-01
        10   -9.264471E-04
        11   -7.447143E-04
        12    1.310984E-01
        13    2.655259E-02
        14   -1.828305E-03
        15    5.039844E-02
        16   -1.886209E-04
        17    1.773514E-04
        18    1.126950E-05
        19    7.474799E-05
        20   -7.892622E-04
        21    4.314628E-03
        22    4.682944E-04
        23   -2.707698E-04
        24   -1.975245E-04
        25    9.825101E-04
        26   -2.195405E-03
        27    7.200209E-03
        28    2.290698E-03
        29   -1.973674E-03
        30   -3.170243E-04
        31   -2.239988E-03
        32   -6.744009E-03
        33    5.480281E-03
        34    5.975069E-06
        35   -1.030462E-05
        36   -1.103261E-03
        37   -1.279493E-06
        38    8.835148E-06
        39    5.602135E-04
        40   -6.736903E-06
        41    4.989953E-06
        42    9.199667E-04
        43   -5.093279E-04
        44   -6.347123E-05
        45   -1.372703E-04
        46   -2.417025E-04
        47    5.018776E-03
        48    1.693188E-02
        49   -1.118207E-02
        50    2.763227E-03
        51   -2.223695E-06
        52    2.059434E-01
        53    3.337477E-03
        54    1.931376E-05
        55    2.082096E-01
        56    9.202470E-03
        57    4.977909E-04
        58    6.783739E-02
        59   -2.624343E-04
        60    2.578299E-04
        61    4.604449E-06
        62   -1.052350E-07
        63    2.713718E-03
        64   -2.061445E-07
        65   -7.602471E-04
        66    1.080589E-03
        67   -3.203418E-04
        68    3.663005E-06
        69    4.164465E-03
        70    1.047723E-07
        71   -1.430853E-02
        72    1.490911E-02
        73   -6.005880E-04
        74    3.871160E-05
        75    7.682210E-03
        76    5.588375E-06
        77    1.356210E-05
        78    1.750156E-07
        79   -1.606000E-03
        80    3.536059E-06
        81   -9.734796E-08
        82    8.215937E-04
        83   -2.173153E-05
        84   -1.374600E-07
        85    1.333082E-03
        86    1.495357E-08
        87    4.308038E-04
        88    9.881956E-04
        89   -2.098254E-03
        90    1.514222E-03
        91   -1.157401E-02
        92    1.290976E-02
        93   -6.751981E-03
        94    3.382868E-04
        95    1.329103E-01
        96   -9.299526E-04
        97    7.777626E-04
        98    1.310901E-01
        99    2.622500E-02
       100    2.478475E-03
       101    5.035261E-02
       102   -1.885560E-04
       103    1.774741E-04
       104    1.108191E-05
       105   -7.539196E-05
       106   -7.894088E-04
       107   -4.314790E-03
       108    4.645804E-04
       109   -2.695786E-04
       110   -1.950018E-04
       111   -9.893229E-04
       112   -2.195133E-03
       113   -7.198456E-03
       114    2.252121E-03
       115   -1.953261E-03
       116   -2.988603E-04
       117    2.223641E-03
       118   -6.742223E-03
       119   -5.446690E-03
       120    5.872433E-06
       121    1.036702E-05
       122   -1.103222E-03
       123   -1.166394E-06
       124   -8.684622E-06
       125    5.601896E-04
       126   -6.712302E-06
       127   -5.224200E-06
       128    9.199382E-04
       129    5.092378E-04
       130   -3.328358E-04
       131   -7.411804E-04
       132   -2.226041E-05
       133    1.318477E-02
       134    5.651957E-03
       135   -1.503595E-02
       136    6.830141E-03
       137   -2.146335E-03
       138    4.011856E-02
       139    1.468330E-02
       140   -8.179151E-03
       141    4.000873E-02
       142    1.363370E-02
       143    1.161630E-02
       144    9.780857E-03
       145   -4.193830E-04
       146    4.782200E-04
       147   -5.883700E-05
       148   -7.489394E-07
       149   -3.979638E-03
       150    6.467602E-04
       151   -8.201165E-04
       152    1.075259E-03
       153   -2.551427E-04
       154   -2.044659E-03
       155   -6.905578E-03
       156    1.766500E-03
       157   -8.679793E-03
       158    7.155701E-03
       159    1.524092E-03
       160    1.029936E-02
       161   -3.523132E-03
       162    1.228700E-02
       163    2.306378E-05
       164   -2.761849E-05
       165   -3.282016E-04
       166    3.618955E-05
       167   -3.034738E-06
       168    5.378212E-04
       169   -6.713286E-05
       170    4.008883E-05
       171   -9.749257E-05
       172    3.632392E-04
       173    1.511388E-03
       174    3.432311E-03
       175   -4.060148E-03
       176   -2.007197E-02
       177    5.975447E-02
       178   -1.704229E-03
       179   -1.932178E-02
       180    5.798441E-06
       181   -8.293777E-02
       182   -5.132500E-03
       183    1.896627E-05
       184   -7.976108E-02
       185    4.940309E-02
       186   -5.045634E-05
       187    2.202477E-02
       188   -9.775486E-04
       189    6.981477E-04
       190    2.794010E-04
       191   -2.921254E-07
       192   -6.854863E-03
       193    2.211632E-08
       194    2.103365E-03
       195   -4.461551E-03
       196    2.358186E-03
       197   -5.753453E-06
       198   -1.428968E-02
       199   -2.448476E-06
       200    1.003695E-02
       201   -1.035831E-02
       202    3.213580E-04
       203    7.337595E-05
       204   -4.721398E-03
       205   -2.151888E-05
       206   -1.761895E-04
       207    7.655352E-08
       208    8.441069E-04
       209    1.043019E-04
       210    3.082255E-08
       211   -1.373395E-03
       212    1.320811E-04
       213   -1.335299E-07
       214    2.409068E-04
       215    1.008400E-07
       216   -3.330572E-04
       217   -7.416455E-04
       218   -2.469015E-05
       219    1.321976E-02
       220    4.167375E-03
       221   -1.494245E-02
       222    6.825653E-03
       223    2.135895E-03
       224    4.012480E-02
       225    1.470048E-02
       226    8.190589E-03
       227    4.001295E-02
       228    1.425482E-02
       229   -1.196137E-02
       230    9.706532E-03
       231   -4.195345E-04
       232    4.783598E-04
       233   -5.882530E-05
       234   -2.240758E-09
       235   -3.979953E-03
       236   -6.466198E-04
       237   -8.231847E-04
       238    1.080667E-03
       239   -2.574825E-04
       240    2.046920E-03
       241   -6.906257E-03
       242   -1.768541E-03
       243   -8.673299E-03
       244    7.147976E-03
       245    1.525323E-03
       246   -1.022986E-02
       247   -3.535401E-03
       248   -1.231471E-02
       249    2.292561E-05
       250    2.764499E-05
       251   -3.281403E-04
       252    3.644740E-05
       253    2.965029E-06
       254    5.378162E-04
       255   -6.720534E-05
       256   -4.005468E-05
       257   -9.756973E-05
       258   -3.633327E-04
       259    1.742239E-03
       260    2.353567E-03
       261    2.235783E-02
       262    1.133952E-05
       263    2.138031E-04
       264    4.771774E-03
       265    5.196954E-03
       266    1.843249E-03
       267    2.635448E-03
       268    1.751093E-03
       269    2.355131E-03
       270    2.214947E-02
       271    1.154209E-05
       272   -2.135711E-04
       273    4.771086E-03
       274    5.175634E-03
       275   -1.827178E-03
       276    2.610020E-03
       277    1.804123E-03
       278    4.752916E-03
       279   -4.131751E-02
       280    4.948020E-05
       281   -3.296378E-04
       282    1.012524E-03
       283    5.768339E-03
       284    2.662107E-03
       285   -9.669834E-03
       286    1.809618E-03
       287    4.745022E-03
       288   -4.137977E-02
       289    4.854739E-05
       290    3.284943E-04
       291    1.012620E-03
       292    5.784159E-03
       293   -2.674741E-03
       294   -9.684433E-03
       295    2.430201E-04
       296    5.740820E-04
       297   -7.471669E-04
       298   -2.010747E-03
       299    9.923348E-03
       300    6.611267E-03
       301   -3.659368E-03
       302    3.248678E-06
       303   -2.157770E-02
       304   -3.026642E-03
       305    5.687924E-06
       306   -2.077860E-02
       307    3.352803E-03
       308   -3.367628E-05
       309    5.533914E-03
       310   -1.227599E-04
       311    1.636120E-04
       312   -4.085208E-05
       313   -7.713822E-07
       314    3.987765E-03
       315   -2.457165E-07
       316   -2.959378E-04
       317    3.488380E-04
       318   -5.290019E-05
       319   -2.390696E-06
       320    1.133988E-02
       321   -8.033283E-07
       322    4.154786E-04
       323   -2.729224E-03
       324    2.313746E-03
       325   -1.521893E-05
       326    5.603802E-03
       327    3.499296E-06
       328   -4.614244E-06
       329   -1.497504E-07
       330    1.274602E-04
       331   -2.783498E-06
       332    2.515918E-07
       333    5.699866E-04
       334    8.974156E-06
       335   -5.068052E-08
       336   -7.409925E-04
       337    3.587137E-08
       338    5.888756E-05
       339    1.396244E-04
       340   -1.763852E-04
       341   -1.042267E-03
       342    6.453754E-03
       343    5.350970E-04
       344    3.097531E-03
       345   -2.504472E-04
       346   -7.412051E-02
       347    2.871239E-03
       348   -2.909509E-04
       349   -6.821154E-02
       350    3.026323E-03
       351   -7.183383E-04
       352   -4.774685E-02
       353    5.058712E-04
       354    5.303301E-05
       355   -4.001315E-03
       356   -6.749339E-06
       357    2.214499E-05
       358   -1.539565E-05
       359   -2.356513E-05
       360   -2.505641E-04
       361    8.363723E-04
       362    1.894477E-05
       363    4.586282E-05
       364   -6.480759E-05
       365   -4.868587E-05
       366   -1.147371E-03
       367    2.553162E-03
       368    5.725814E-05
       369    3.023539E-05
       370   -8.749353E-05
       371   -2.875839E-06
       372   -1.740433E-03
       373    4.164516E-04
       374   -4.080087E-06
       375   -3.137120E-06
       376    1.291992E-04
       377    8.921331E-06
       378   -1.842145E-06
       379    7.316515E-05
       380   -3.447319E-06
       381    6.051033E-06
       382   -2.465041E-04
       383    2.151432E-04
       384    5.891448E-05
       385    1.396750E-04
       386   -1.761458E-04
       387   -1.043060E-03
       388    6.462209E-03
       389    5.416712E-04
       390    3.136381E-03
       391    2.169391E-04
       392   -7.410690E-02
       393    2.906731E-03
       394    2.633155E-04
       395   -6.819986E-02
       396    3.046048E-03
       397    6.973908E-04
       398   -4.772951E-02
       399    5.155506E-04
       400   -6.024742E-05
       401   -3.998292E-03
       402   -6.407225E-06
       403    2.170749E-05
       404   -1.530027E-05
       405    2.353977E-05
       406   -2.505180E-04
       407   -8.362548E-04
       408    1.971033E-05
       409    4.532154E-05
       410   -6.503187E-05
       411    4.911740E-05
       412   -1.147002E-03
       413   -2.552826E-03
       414    6.176697E-05
       415    2.613390E-05
       416   -8.790087E-05
       417    8.372826E-07
       418   -1.740125E-03
       419   -4.145445E-04
       420   -4.039570E-06
       421    3.036597E-06
       422    1.291781E-04
       423    8.885330E-06
       424    1.971494E-06
       425    7.316061E-05
       426   -3.465678E-06
       427   -6.045515E-06
       428   -2.464712E-04
       429   -2.151091E-04
       430   -5.418271E-03
       431   -1.285604E-02
       432    1.994685E-02
       433    3.223606E-02
       434    4.887636E-03
       435    3.983752E-02
       436    2.692061E-02
       437   -1.230189E-05
       438   -2.501943E-01
       439    2.966391E-02
       440   -4.526895E-06
       441   -2.429720E-01
       442    3.752378E-02
       443    7.324021E-05
       444   -1.675757E-01
       445    6.687567E-05
       446    2.432067E-04
       447   -3.100824E-04
       448   -3.753397E-07
       449    1.812282E-03
       450   -2.586943E-07
       451   -1.692290E-04
       452    2.615244E-03
       453   -2.446015E-03
       454    2.943245E-06
       455    3.761289E-03
       456   -4.255829E-07
       457   -1.310399E-03
       458    7.161242E-03
       459   -5.850843E-03
       460    7.852078E-06
       461    2.725638E-04
       462   -4.685573E-07
       463    1.242592E-04
       464   -7.115553E-08
       465    1.295814E-03
       466    1.352604E-04
       467    1.379092E-09
       468   -1.092430E-03
       469   -3.019716E-04
       470    9.408606E-08
       471   -6.460866E-04
       472    2.683539E-08
       473   -7.013510E-03
       474   -1.674261E-02
       475   -3.184986E-02
       476    2.938466E-03
       477    2.050490E-03
       478   -1.148922E-02
       479    3.588104E-03
       480    2.973625E-03
       481   -5.166161E-03
       482   -7.004149E-03
       483   -1.667167E-02
       484   -3.163223E-02
       485    2.933772E-03
       486   -2.044284E-03
       487   -1.149217E-02
       488    3.557646E-03
       489   -2.938337E-03
       490   -5.182769E-03
 Sym= X
 Ene= -0.814271
 Spin= Alpha
 Occup= -0.814271
         1   -1.832405E-04
         2   -4.275810E-04
         3    1.274302E-03
         4   -3.209591E-03
         5   -2.267826E-03
         6   -1.238274E-02
         7    1.814803E-03
         8    1.777253E-04
         9    2.781151E-02
        10   -2.737675E-03
        11    4.225546E-04
        12    2.600496E-02
        13   -3.702375E-02
        14    1.297680E-02
        15    8.878591E-03
        16    4.205666E-06
        17   -1.806483E-05
        18    1.385916E-05
        19   -9.839951E-06
        20   -6.397874E-03
        21    3.902241E-03
        22   -7.367334E-04
        23    4.339209E-04
        24    3.028125E-04
        25   -7.602435E-04
        26   -1.443219E-02
        27    7.357845E-03
        28   -5.172607E-03
        29    4.901578E-03
        30    2.710285E-04
        31    1.219059E-03
        32    2.096239E-03
        33   -9.460479E-03
        34   -2.267676E-05
        35    6.371066E-06
        36   -1.127770E-04
        37    1.025501E-05
        38   -5.902872E-06
        39   -7.150008E-04
        40    2.016905E-05
        41   -2.644810E-06
        42    8.663071E-04
        43   -7.095501E-04
        44    3.010582E-05
        45    6.585412E-05
        46    1.362386E-04
        47   -3.028483E-03
        48   -5.848457E-02
        49    5.873035E-03
        50    2.774624E-04
        51    2.015217E-06
        52    2.057805E-01
        53   -5.532958E-04
        54    1.622877E-05
        55    2.133755E-01
        56   -1.765957E-02
        57   -5.292463E-04
        58    1.975788E-01
        59    4.836820E-05
        60   -4.523547E-05
        61   -3.132731E-06
        62    1.112414E-07