[Molden Format]
[Title]
ADC(2) - opt by CAM-B3LYP gaussian                                              
[Atoms] AU
 c     1    6 -.12590385386216E+01 -.22819701624009E+01 -.30156123253150E-01
 c     2    6 -.25547233845863E+01 -.83266058000000E-06 -.28792213416740E-01
 c     3    6 -.12590428849917E+01 0.22819669475044E+01 -.30169993842970E-01
 c     4    6 0.13339759331395E+01 0.22828246941961E+01 -.32722654800530E-01
 c     5    6 0.26864234278208E+01 0.32869423900000E-05 -.32794180934660E-01
 c     6    6 0.13339778039684E+01 -.22828226745513E+01 -.32706516539360E-01
 h     7    1 -.23005849451053E+01 -.40353719055945E+01 -.27139024303910E-01
 h     8    1 -.23005903875166E+01 0.40353685773143E+01 -.27164403325880E-01
 h     9    1 0.23527432406667E+01 0.40554759247724E+01 -.35914685697900E-01
 h    10    1 0.23527525948111E+01 -.40554698422164E+01 -.35883032785170E-01
 n    11    7 -.52784595104117E+01 -.53030440000000E-06 -.22539903328000E-01
 o    12    8 -.63796877956448E+01 0.20272212823250E+01 -.19883023974210E-01
 o    13    8 -.63796922742957E+01 -.20272201130570E+01 -.19923067270970E-01
 n    14    7 0.52516126460355E+01 -.32243452000000E-06 -.88209511610250E-01
 h    15    1 0.62001707317805E+01 0.16133662892433E+01 0.23199721167530E+00
 h    16    1 0.62001633429513E+01 -.16133706190784E+01 0.23200112340840E+00
[GTO]
    1 0
 s    6 1.00
 0.13575349682000E+05 0.60645503603591E-03
 0.20352333680000E+04 0.46979088884982E-02
 0.46322562359000E+03 0.24332477647552E-01
 0.13120019598000E+03 0.97399968307759E-01
 0.42853015891000E+02 0.30195584253780E+00
 0.15584185766000E+02 0.66233609137875E+00
 s    2 1.00
 0.62067138508000E+01 0.65595308539952E+00
 0.25764896527000E+01 0.37585633285142E+00
 s    1 1.00
 0.57696339419000E+00 0.10000000000000E+01
 s    1 1.00
 0.22972831358000E+00 0.10000000000000E+01
 s    1 1.00
 0.95164440028000E-01 0.10000000000000E+01
 s    1 1.00
 0.48475401370000E-01 0.10000000000000E+01
 p    4 1.00
 0.34697232244000E+02 0.11327220003114E-01
 0.79582622826000E+01 0.76169659202087E-01
 0.23780826883000E+01 0.30192252202676E+00
 0.81433208183000E+00 0.72785027349547E+00
 p    1 1.00
 0.28887547253000E+00 0.10000000000000E+01
 p    1 1.00
 0.10056823671000E+00 0.10000000000000E+01
 d    1 1.00
 0.10970000000000E+01 0.10000000000000E+01
 d    1 1.00
 0.31800000000000E+00 0.10000000000000E+01
 d    1 1.00
 0.90985336424000E-01 0.10000000000000E+01
 f    1 1.00
 0.76100000000000E+00 0.10000000000000E+01
 
    2 0
 s    6 1.00
 0.13575349682000E+05 0.60645503603591E-03
 0.20352333680000E+04 0.46979088884982E-02
 0.46322562359000E+03 0.24332477647552E-01
 0.13120019598000E+03 0.97399968307759E-01
 0.42853015891000E+02 0.30195584253780E+00
 0.15584185766000E+02 0.66233609137875E+00
 s    2 1.00
 0.62067138508000E+01 0.65595308539952E+00
 0.25764896527000E+01 0.37585633285142E+00
 s    1 1.00
 0.57696339419000E+00 0.10000000000000E+01
 s    1 1.00
 0.22972831358000E+00 0.10000000000000E+01
 s    1 1.00
 0.95164440028000E-01 0.10000000000000E+01
 s    1 1.00
 0.48475401370000E-01 0.10000000000000E+01
 p    4 1.00
 0.34697232244000E+02 0.11327220003114E-01
 0.79582622826000E+01 0.76169659202087E-01
 0.23780826883000E+01 0.30192252202676E+00
 0.81433208183000E+00 0.72785027349547E+00
 p    1 1.00
 0.28887547253000E+00 0.10000000000000E+01
 p    1 1.00
 0.10056823671000E+00 0.10000000000000E+01
 d    1 1.00
 0.10970000000000E+01 0.10000000000000E+01
 d    1 1.00
 0.31800000000000E+00 0.10000000000000E+01
 d    1 1.00
 0.90985336424000E-01 0.10000000000000E+01
 f    1 1.00
 0.76100000000000E+00 0.10000000000000E+01
 
    3 0
 s    6 1.00
 0.13575349682000E+05 0.60645503603591E-03
 0.20352333680000E+04 0.46979088884982E-02
 0.46322562359000E+03 0.24332477647552E-01
 0.13120019598000E+03 0.97399968307759E-01
 0.42853015891000E+02 0.30195584253780E+00
 0.15584185766000E+02 0.66233609137875E+00
 s    2 1.00
 0.62067138508000E+01 0.65595308539952E+00
 0.25764896527000E+01 0.37585633285142E+00
 s    1 1.00
 0.57696339419000E+00 0.10000000000000E+01
 s    1 1.00
 0.22972831358000E+00 0.10000000000000E+01
 s    1 1.00
 0.95164440028000E-01 0.10000000000000E+01
 s    1 1.00
 0.48475401370000E-01 0.10000000000000E+01
 p    4 1.00
 0.34697232244000E+02 0.11327220003114E-01
 0.79582622826000E+01 0.76169659202087E-01
 0.23780826883000E+01 0.30192252202676E+00
 0.81433208183000E+00 0.72785027349547E+00
 p    1 1.00
 0.28887547253000E+00 0.10000000000000E+01
 p    1 1.00
 0.10056823671000E+00 0.10000000000000E+01
 d    1 1.00
 0.10970000000000E+01 0.10000000000000E+01
 d    1 1.00
 0.31800000000000E+00 0.10000000000000E+01
 d    1 1.00
 0.90985336424000E-01 0.10000000000000E+01
 f    1 1.00
 0.76100000000000E+00 0.10000000000000E+01
 
    4 0
 s    6 1.00
 0.13575349682000E+05 0.60645503603591E-03
 0.20352333680000E+04 0.46979088884982E-02
 0.46322562359000E+03 0.24332477647552E-01
 0.13120019598000E+03 0.97399968307759E-01
 0.42853015891000E+02 0.30195584253780E+00
 0.15584185766000E+02 0.66233609137875E+00
 s    2 1.00
 0.62067138508000E+01 0.65595308539952E+00
 0.25764896527000E+01 0.37585633285142E+00
 s    1 1.00
 0.57696339419000E+00 0.10000000000000E+01
 s    1 1.00
 0.22972831358000E+00 0.10000000000000E+01
 s    1 1.00
 0.95164440028000E-01 0.10000000000000E+01
 s    1 1.00
 0.48475401370000E-01 0.10000000000000E+01
 p    4 1.00
 0.34697232244000E+02 0.11327220003114E-01
 0.79582622826000E+01 0.76169659202087E-01
 0.23780826883000E+01 0.30192252202676E+00
 0.81433208183000E+00 0.72785027349547E+00
 p    1 1.00
 0.28887547253000E+00 0.10000000000000E+01
 p    1 1.00
 0.10056823671000E+00 0.10000000000000E+01
 d    1 1.00
 0.10970000000000E+01 0.10000000000000E+01
 d    1 1.00
 0.31800000000000E+00 0.10000000000000E+01
 d    1 1.00
 0.90985336424000E-01 0.10000000000000E+01
 f    1 1.00
 0.76100000000000E+00 0.10000000000000E+01
 
    5 0
 s    6 1.00
 0.13575349682000E+05 0.60645503603591E-03
 0.20352333680000E+04 0.46979088884982E-02
 0.46322562359000E+03 0.24332477647552E-01
 0.13120019598000E+03 0.97399968307759E-01
 0.42853015891000E+02 0.30195584253780E+00
 0.15584185766000E+02 0.66233609137875E+00
 s    2 1.00
 0.62067138508000E+01 0.65595308539952E+00
 0.25764896527000E+01 0.37585633285142E+00
 s    1 1.00
 0.57696339419000E+00 0.10000000000000E+01
 s    1 1.00
 0.22972831358000E+00 0.10000000000000E+01
 s    1 1.00
 0.95164440028000E-01 0.10000000000000E+01
 s    1 1.00
 0.48475401370000E-01 0.10000000000000E+01
 p    4 1.00
 0.34697232244000E+02 0.11327220003114E-01
 0.79582622826000E+01 0.76169659202087E-01
 0.23780826883000E+01 0.30192252202676E+00
 0.81433208183000E+00 0.72785027349547E+00
 p    1 1.00
 0.28887547253000E+00 0.10000000000000E+01
 p    1 1.00
 0.10056823671000E+00 0.10000000000000E+01
 d    1 1.00
 0.10970000000000E+01 0.10000000000000E+01
 d    1 1.00
 0.31800000000000E+00 0.10000000000000E+01
 d    1 1.00
 0.90985336424000E-01 0.10000000000000E+01
 f    1 1.00
 0.76100000000000E+00 0.10000000000000E+01
 
    6 0
 s    6 1.00
 0.13575349682000E+05 0.60645503603591E-03
 0.20352333680000E+04 0.46979088884982E-02
 0.46322562359000E+03 0.24332477647552E-01
 0.13120019598000E+03 0.97399968307759E-01
 0.42853015891000E+02 0.30195584253780E+00
 0.15584185766000E+02 0.66233609137875E+00
 s    2 1.00
 0.62067138508000E+01 0.65595308539952E+00
 0.25764896527000E+01 0.37585633285142E+00
 s    1 1.00
 0.57696339419000E+00 0.10000000000000E+01
 s    1 1.00
 0.22972831358000E+00 0.10000000000000E+01
 s    1 1.00
 0.95164440028000E-01 0.10000000000000E+01
 s    1 1.00
 0.48475401370000E-01 0.10000000000000E+01
 p    4 1.00
 0.34697232244000E+02 0.11327220003114E-01
 0.79582622826000E+01 0.76169659202087E-01
 0.23780826883000E+01 0.30192252202676E+00
 0.81433208183000E+00 0.72785027349547E+00
 p    1 1.00
 0.28887547253000E+00 0.10000000000000E+01
 p    1 1.00
 0.10056823671000E+00 0.10000000000000E+01
 d    1 1.00
 0.10970000000000E+01 0.10000000000000E+01
 d    1 1.00
 0.31800000000000E+00 0.10000000000000E+01
 d    1 1.00
 0.90985336424000E-01 0.10000000000000E+01
 f    1 1.00
 0.76100000000000E+00 0.10000000000000E+01
 
    7 0
 s    3 1.00
 0.34061341000000E+02 0.25439307208879E-01
 0.51235746000000E+01 0.19008594890375E+00
 0.11646626000000E+01 0.85244113011042E+00
 s    1 1.00
 0.32723041000000E+00 0.10000000000000E+01
 s    1 1.00
 0.10307241000000E+00 0.10000000000000E+01
 p    1 1.00
 0.80000000000000E+00 0.10000000000000E+01
 p    1 1.00
 0.95774129632000E-01 0.10000000000000E+01
 
    8 0
 s    3 1.00
 0.34061341000000E+02 0.25439307208879E-01
 0.51235746000000E+01 0.19008594890375E+00
 0.11646626000000E+01 0.85244113011042E+00
 s    1 1.00
 0.32723041000000E+00 0.10000000000000E+01
 s    1 1.00
 0.10307241000000E+00 0.10000000000000E+01
 p    1 1.00
 0.80000000000000E+00 0.10000000000000E+01
 p    1 1.00
 0.95774129632000E-01 0.10000000000000E+01
 
    9 0
 s    3 1.00
 0.34061341000000E+02 0.25439307208879E-01
 0.51235746000000E+01 0.19008594890375E+00
 0.11646626000000E+01 0.85244113011042E+00
 s    1 1.00
 0.32723041000000E+00 0.10000000000000E+01
 s    1 1.00
 0.10307241000000E+00 0.10000000000000E+01
 p    1 1.00
 0.80000000000000E+00 0.10000000000000E+01
 p    1 1.00
 0.95774129632000E-01 0.10000000000000E+01
 
   10 0
 s    3 1.00
 0.34061341000000E+02 0.25439307208879E-01
 0.51235746000000E+01 0.19008594890375E+00
 0.11646626000000E+01 0.85244113011042E+00
 s    1 1.00
 0.32723041000000E+00 0.10000000000000E+01
 s    1 1.00
 0.10307241000000E+00 0.10000000000000E+01
 p    1 1.00
 0.80000000000000E+00 0.10000000000000E+01
 p    1 1.00
 0.95774129632000E-01 0.10000000000000E+01
 
   11 0
 s    6 1.00
 0.19730800647000E+05 0.58626402628763E-03
 0.29578958745000E+04 0.45428820586397E-02
 0.67322133595000E+03 0.23558413450084E-01
 0.19068249494000E+03 0.94709193292923E-01
 0.62295441898000E+02 0.29719784913376E+00
 0.22654161182000E+02 0.66916246895232E+00
 s    2 1.00
 0.89791477428000E+01 0.64596683630063E+00
 0.36863002370000E+01 0.38700574393705E+00
 s    1 1.00
 0.84660076805000E+00 0.10000000000000E+01
 s    1 1.00
 0.33647133771000E+00 0.10000000000000E+01
 s    1 1.00
 0.13647653675000E+00 0.10000000000000E+01
 s    1 1.00
 0.68441605847000E-01 0.10000000000000E+01
 p    4 1.00
 0.49200380510000E+02 0.11448825101764E-01
 0.11346790537000E+02 0.78422337970864E-01
 0.34273972411000E+01 0.30818094738830E+00
 0.11785525134000E+01 0.72027196368413E+00
 p    1 1.00
 0.41642204972000E+00 0.10000000000000E+01
 p    1 1.00
 0.14260826011000E+00 0.10000000000000E+01
 d    1 1.00
 0.16540000000000E+01 0.10000000000000E+01
 d    1 1.00
 0.46900000000000E+00 0.10000000000000E+01
 d    1 1.00
 0.12829642058000E+00 0.10000000000000E+01
 f    1 1.00
 0.10930000000000E+01 0.10000000000000E+01
 
   12 0
 s    6 1.00
 0.27032382631000E+05 0.57227335211155E-03
 0.40523871392000E+04 0.44353233492995E-02
 0.92232722710000E+03 0.23020107706038E-01
 0.26124070989000E+03 0.92822490667928E-01
 0.85354641351000E+02 0.29378500009671E+00
 0.31035035245000E+02 0.67401604501641E+00
 s    2 1.00
 0.12260860728000E+02 0.63839937025506E+00
 0.49987076005000E+01 0.39534587125718E+00
 s    1 1.00
 0.11703108158000E+01 0.10000000000000E+01
 s    1 1.00
 0.46474740994000E+00 0.10000000000000E+01
 s    1 1.00
 0.18504536357000E+00 0.10000000000000E+01
 s    1 1.00
 0.70288026270000E-01 0.10000000000000E+01
 p    4 1.00
 0.63274954801000E+02 0.12018332222616E-01
 0.14627049379000E+02 0.83005421790056E-01
 0.44501223456000E+01 0.31991743925964E+00
 0.15275799647000E+01 0.70715542916104E+00
 p    1 1.00
 0.52935117943000E+00 0.10000000000000E+01
 p    1 1.00
 0.17478421270000E+00 0.10000000000000E+01
 p    1 1.00
 0.51112745706000E-01 0.10000000000000E+01
 d    1 1.00
 0.23140000000000E+01 0.10000000000000E+01
 d    1 1.00
 0.64500000000000E+00 0.10000000000000E+01
 d    1 1.00
 0.14696477366000E+00 0.10000000000000E+01
 f    1 1.00
 0.14280000000000E+01 0.10000000000000E+01
 
   13 0
 s    6 1.00
 0.27032382631000E+05 0.57227335211155E-03
 0.40523871392000E+04 0.44353233492995E-02
 0.92232722710000E+03 0.23020107706038E-01
 0.26124070989000E+03 0.92822490667928E-01
 0.85354641351000E+02 0.29378500009671E+00
 0.31035035245000E+02 0.67401604501641E+00
 s    2 1.00
 0.12260860728000E+02 0.63839937025506E+00
 0.49987076005000E+01 0.39534587125718E+00
 s    1 1.00
 0.11703108158000E+01 0.10000000000000E+01
 s    1 1.00
 0.46474740994000E+00 0.10000000000000E+01
 s    1 1.00
 0.18504536357000E+00 0.10000000000000E+01
 s    1 1.00
 0.70288026270000E-01 0.10000000000000E+01
 p    4 1.00
 0.63274954801000E+02 0.12018332222616E-01
 0.14627049379000E+02 0.83005421790056E-01
 0.44501223456000E+01 0.31991743925964E+00
 0.15275799647000E+01 0.70715542916104E+00
 p    1 1.00
 0.52935117943000E+00 0.10000000000000E+01
 p    1 1.00
 0.17478421270000E+00 0.10000000000000E+01
 p    1 1.00
 0.51112745706000E-01 0.10000000000000E+01
 d    1 1.00
 0.23140000000000E+01 0.10000000000000E+01
 d    1 1.00
 0.64500000000000E+00 0.10000000000000E+01
 d    1 1.00
 0.14696477366000E+00 0.10000000000000E+01
 f    1 1.00
 0.14280000000000E+01 0.10000000000000E+01
 
   14 0
 s    6 1.00
 0.19730800647000E+05 0.58626402628763E-03
 0.29578958745000E+04 0.45428820586397E-02
 0.67322133595000E+03 0.23558413450084E-01
 0.19068249494000E+03 0.94709193292923E-01
 0.62295441898000E+02 0.29719784913376E+00
 0.22654161182000E+02 0.66916246895232E+00
 s    2 1.00
 0.89791477428000E+01 0.64596683630063E+00
 0.36863002370000E+01 0.38700574393705E+00
 s    1 1.00
 0.84660076805000E+00 0.10000000000000E+01
 s    1 1.00
 0.33647133771000E+00 0.10000000000000E+01
 s    1 1.00
 0.13647653675000E+00 0.10000000000000E+01
 s    1 1.00
 0.68441605847000E-01 0.10000000000000E+01
 p    4 1.00
 0.49200380510000E+02 0.11448825101764E-01
 0.11346790537000E+02 0.78422337970864E-01
 0.34273972411000E+01 0.30818094738830E+00
 0.11785525134000E+01 0.72027196368413E+00
 p    1 1.00
 0.41642204972000E+00 0.10000000000000E+01
 p    1 1.00
 0.14260826011000E+00 0.10000000000000E+01
 d    1 1.00
 0.16540000000000E+01 0.10000000000000E+01
 d    1 1.00
 0.46900000000000E+00 0.10000000000000E+01
 d    1 1.00
 0.12829642058000E+00 0.10000000000000E+01
 f    1 1.00
 0.10930000000000E+01 0.10000000000000E+01
 
   15 0
 s    3 1.00
 0.34061341000000E+02 0.25439307208879E-01
 0.51235746000000E+01 0.19008594890375E+00
 0.11646626000000E+01 0.85244113011042E+00
 s    1 1.00
 0.32723041000000E+00 0.10000000000000E+01
 s    1 1.00
 0.10307241000000E+00 0.10000000000000E+01
 p    1 1.00
 0.80000000000000E+00 0.10000000000000E+01
 p    1 1.00
 0.95774129632000E-01 0.10000000000000E+01
 
   16 0
 s    3 1.00
 0.34061341000000E+02 0.25439307208879E-01
 0.51235746000000E+01 0.19008594890375E+00
 0.11646626000000E+01 0.85244113011042E+00
 s    1 1.00
 0.32723041000000E+00 0.10000000000000E+01
 s    1 1.00
 0.10307241000000E+00 0.10000000000000E+01
 p    1 1.00
 0.80000000000000E+00 0.10000000000000E+01
 p    1 1.00
 0.95774129632000E-01 0.10000000000000E+01
 
[MO]
 Sym= X
 Ene= -0.078767
 Spin= Alpha
 Occup= -0.078767
         1    4.126029E-04
         2    9.462827E-04
         3   -2.005776E-03
         4    1.394578E-03
         5   -9.666384E-03
         6    1.213918E-02
         7   -6.315415E-03
         8   -2.288136E-04
         9    1.350729E-01
        10   -8.259131E-04
        11   -6.393566E-04
        12    1.331385E-01
        13    2.429322E-02
        14   -1.075951E-03
        15    5.098880E-02
        16   -1.790667E-04
        17    1.678449E-04
        18    1.122175E-05
        19    7.090923E-05
        20   -1.083641E-03
        21    4.523349E-03
        22    4.384140E-04
        23   -2.538949E-04
        24   -1.845190E-04
        25    9.330859E-04
        26   -2.868915E-03
        27    7.588844E-03
        28    2.005553E-03
        29   -1.719015E-03
        30   -2.865379E-04
        31   -2.156118E-03
        32   -6.629587E-03
        33    4.899460E-03
        34    5.724688E-06
        35   -9.207801E-06
        36   -1.116295E-03
        37   -8.490422E-07
        38    7.896430E-06
        39    5.316207E-04
        40   -6.831432E-06
        41    4.457132E-06
        42    9.660457E-04
        43   -5.443218E-04
        44   -4.268490E-05
        45   -9.063368E-05
        46   -2.902733E-04
        47    4.703064E-03
        48    1.363961E-02
        49   -1.082974E-02
        50    2.775731E-03
        51   -2.094754E-06
        52    2.167581E-01
        53    3.303839E-03
        54    2.022687E-05
        55    2.193724E-01
        56    8.255026E-03
        57    4.764096E-04
        58    7.811804E-02
        59   -2.496036E-04
        60    2.449554E-04
        61    4.648255E-06
        62   -9.771363E-08
        63    2.701470E-03
        64   -1.758269E-07
        65   -7.226816E-04
        66    1.022937E-03
        67   -3.002558E-04
        68    3.855175E-06
        69    4.042543E-03
        70    1.609073E-07
        71   -1.360319E-02
        72    1.412964E-02
        73   -5.264530E-04
        74    3.503772E-05
        75    7.948671E-03
        76    4.862673E-06
        77    1.422716E-05
        78    1.766604E-07
        79   -1.670174E-03
        80    2.797685E-06
        81   -9.483996E-08
        82    8.589440E-04
        83   -2.188543E-05
        84   -1.421748E-07
        85    1.381830E-03
        86    1.890534E-08
        87    4.112805E-04
        88    9.432544E-04
        89   -1.997340E-03
        90    1.393313E-03
        91   -1.169950E-02
        92    1.220597E-02
        93   -6.323194E-03
        94    2.411676E-04
        95    1.350655E-01
        96   -8.280825E-04
        97    6.727152E-04
        98    1.331318E-01
        99    2.396478E-02
       100    1.707664E-03
       101    5.094447E-02
       102   -1.789971E-04
       103    1.679664E-04
       104    1.103069E-05
       105   -7.153740E-05
       106   -1.083759E-03
       107   -4.523521E-03
       108    4.349497E-04
       109   -2.530147E-04
       110   -1.819350E-04
       111   -9.400527E-04
       112   -2.868544E-03
       113   -7.587060E-03
       114    1.963791E-03
       115   -1.694944E-03
       116   -2.688473E-04
       117    2.143946E-03
       118   -6.628594E-03
       119   -4.865719E-03
       120    5.617692E-06
       121    9.272734E-06
       122   -1.116264E-03
       123   -7.273301E-07
       124   -7.748939E-06
       125    5.316063E-04
       126   -6.809595E-06
       127   -4.691739E-06
       128    9.660188E-04
       129    5.442288E-04
       130   -3.233569E-04
       131   -7.205105E-04
       132    1.223070E-05
       133    1.248280E-02
       134    6.862404E-03
       135   -1.429462E-02
       136    6.433312E-03
       137   -2.044884E-03
       138    3.348284E-02
       139    1.387519E-02
       140   -7.741475E-03
       141    3.321141E-02
       142    1.198330E-02
       143    1.132644E-02
       144    5.579995E-03
       145   -3.972453E-04
       146    4.538790E-04
       147   -5.663367E-05
       148    2.277776E-06
       149   -4.036479E-03
       150    7.732372E-04
       151   -7.670196E-04
       152    1.011774E-03
       153   -2.447548E-04
       154   -1.931459E-03
       155   -7.141244E-03
       156    1.976465E-03
       157   -8.167597E-03
       158    6.762900E-03
       159    1.404697E-03
       160    9.715432E-03
       161   -3.310349E-03
       162    1.160813E-02
       163    2.164535E-05
       164   -2.607530E-05
       165   -2.944254E-04
       166    3.439417E-05
       167   -2.990326E-06
       168    5.347272E-04
       169   -6.343446E-05
       170    3.797401E-05
       171   -1.397141E-04
       172    3.784185E-04
       173    1.456029E-03
       174    3.305819E-03
       175   -3.953515E-03
       176   -1.874699E-02
       177    5.899397E-02
       178   -9.877654E-04
       179   -1.838768E-02
       180    5.637090E-06
       181   -8.747050E-02
       182   -4.833792E-03
       183    1.800204E-05
       184   -8.448631E-02
       185    4.735493E-02
       186   -2.474149E-05
       187    1.520496E-02
       188   -9.251890E-04
       189    6.608624E-04
       190    2.643265E-04
       191   -2.786612E-07
       192   -6.363704E-03
       193    4.928293E-08
       194    2.013245E-03
       195   -4.227858E-03
       196    2.214613E-03
       197   -5.516581E-06
       198   -1.309881E-02
       199   -2.410544E-06
       200    9.524237E-03
       201   -9.758685E-03
       202    2.344484E-04
       203    6.719865E-05
       204   -3.864152E-03
       205   -2.122668E-05
       206   -1.670764E-04
       207    7.499449E-08
       208    8.479003E-04
       209    9.871308E-05
       210    2.776129E-08
       211   -1.311166E-03
       212    1.254434E-04
       213   -1.283770E-07
       214    1.735880E-04
       215    9.764949E-08
       216   -3.235555E-04
       217   -7.209311E-04
       218    9.917824E-06
       219    1.251623E-02
       220    5.453882E-03
       221   -1.420298E-02
       222    6.428958E-03
       223    2.034851E-03
       224    3.348768E-02
       225    1.389184E-02
       226    7.752398E-03
       227    3.321417E-02
       228    1.260253E-02
       229   -1.164487E-02
       230    5.505184E-03
       231   -3.974035E-04
       232    4.540051E-04
       233   -5.660155E-05
       234   -3.006323E-06
       235   -4.036765E-03
       236   -7.731006E-04
       237   -7.699245E-04
       238    1.016921E-03
       239   -2.469961E-04
       240    1.933515E-03
       241   -7.141766E-03
       242   -1.978496E-03
       243   -8.163670E-03
       244    6.757396E-03
       245    1.406274E-03
       246   -9.642656E-03
       247   -3.321938E-03
       248   -1.163563E-02
       249    2.150861E-05
       250    2.609710E-05
       251   -2.943518E-04
       252    3.464198E-05
       253    2.925857E-06
       254    5.347073E-04
       255   -6.349882E-05
       256   -3.793879E-05
       257   -1.397929E-04
       258   -3.785089E-04
       259    1.607493E-03
       260    2.173854E-03
       261    2.122498E-02
       262    7.726528E-06
       263    1.969365E-04
       264    4.851812E-03
       265    4.879157E-03
       266    1.800938E-03
       267    2.287758E-03
       268    1.616212E-03
       269    2.175576E-03
       270    2.101724E-02
       271    7.957679E-06
       272   -1.967377E-04
       273    4.851188E-03
       274    4.853386E-03
       275   -1.786178E-03
       276    2.261782E-03
       277    1.715174E-03
       278    4.510397E-03
       279   -3.925316E-02
       280    4.601133E-05
       281   -3.124041E-04
       282    7.382521E-04
       283    5.673794E-03
       284    2.505348E-03
       285   -9.547579E-03
       286    1.720445E-03
       287    4.502495E-03
       288   -3.930502E-02
       289    4.510904E-05
       290    3.112777E-04
       291    7.382702E-04
       292    5.690260E-03
       293   -2.516390E-03
       294   -9.562417E-03
       295    2.289624E-04
       296    5.407236E-04
       297   -6.995459E-04
       298   -1.912090E-03
       299    9.448798E-03
       300    6.554476E-03
       301   -3.537766E-03
       302    3.212031E-06
       303   -2.075029E-02
       304   -2.927918E-03
       305    5.693611E-06
       306   -1.983517E-02
       307    3.185579E-03
       308   -3.289163E-05
       309    5.846525E-03
       310   -1.252504E-04
       311    1.666880E-04
       312   -4.143754E-05
       313   -7.672050E-07
       314    4.214138E-03
       315   -2.449061E-07
       316   -3.037723E-04
       317    3.604523E-04
       318   -5.667993E-05
       319   -2.399340E-06
       320    1.201888E-02
       321   -8.032932E-07
       322    3.609049E-04
       323   -2.550997E-03
       324    2.190092E-03
       325   -1.436508E-05
       326    5.771835E-03
       327    3.710226E-06
       328   -3.889861E-06
       329   -1.487394E-07
       330    1.274538E-04
       331   -3.114845E-06
       332    2.514247E-07
       333    6.062623E-04
       334    8.333641E-06
       335   -5.186986E-08
       336   -7.772595E-04
       337    3.631831E-08
       338    5.411767E-05
       339    1.281136E-04
       340   -1.615745E-04
       341   -9.873175E-04
       342    6.096953E-03
       343    4.993155E-04
       344    3.198448E-03
       345   -1.713074E-04
       346   -7.806844E-02
       347    2.953366E-03
       348   -2.128438E-04
       349   -7.187358E-02
       350    3.003107E-03
       351   -6.481839E-04
       352   -5.066447E-02
       353    5.003396E-04
       354    6.579007E-05
       355   -4.344793E-03
       356   -5.338492E-06
       357    2.047990E-05
       358   -1.514141E-05
       359   -2.462307E-05
       360   -2.510008E-04
       361    8.622811E-04
       362    2.110169E-05
       363    4.155922E-05
       364   -6.266091E-05
       365   -5.149918E-05
       366   -1.176384E-03
       367    2.637460E-03
       368    5.307551E-05
       369    3.254216E-05
       370   -8.561768E-05
       371    8.449388E-07
       372   -1.760274E-03
       373    4.296432E-04
       374   -4.081880E-06
       375   -2.393188E-06
       376    1.326281E-04
       377    8.945909E-06
       378   -2.654437E-06
       379    7.756622E-05
       380   -3.469492E-06
       381    5.865236E-06
       382   -2.555055E-04
       383    2.223039E-04
       384    5.414750E-05
       385    1.281697E-04
       386   -1.613251E-04
       387   -9.882752E-04
       388    6.105434E-03
       389    5.069579E-04
       390    3.237308E-03
       391    1.380003E-04
       392   -7.805480E-02
       393    2.988885E-03
       394    1.853905E-04
       395   -7.186190E-02
       396    3.023701E-03
       397    6.275550E-04
       398   -5.064675E-02
       399    5.105689E-04
       400   -7.318470E-05
       401   -4.341798E-03
       402   -4.997792E-06
       403    2.004518E-05
       404   -1.504739E-05
       405    2.459683E-05
       406   -2.509563E-04
       407   -8.621639E-04
       408    2.187150E-05
       409    4.102720E-05
       410   -6.289869E-05
       411    5.194841E-05
       412   -1.176012E-03
       413   -2.637121E-03
       414    5.757013E-05
       415    2.853700E-05
       416   -8.610712E-05
       417   -2.880558E-06
       418   -1.759965E-03
       419   -4.276884E-04
       420   -4.041740E-06
       421    2.293690E-06
       422    1.326071E-04
       423    8.911305E-06
       424    2.783377E-06
       425    7.756144E-05
       426   -3.488741E-06
       427   -5.860686E-06
       428   -2.554725E-04
       429   -2.222700E-04
       430   -5.128608E-03
       431   -1.216733E-02
       432    1.886778E-02
       433    3.052418E-02
       434    3.781331E-03
       435    3.557312E-02
       436    2.547625E-02
       437   -1.173605E-05
       438   -2.364182E-01
       439    2.810280E-02
       440   -4.440922E-06
       441   -2.294091E-01
       442    3.613228E-02
       443    6.838515E-05
       444   -1.566251E-01
       445    6.604681E-05
       446    2.352233E-04
       447   -3.012701E-04
       448   -3.595450E-07
       449    1.836505E-03
       450   -2.471644E-07
       451   -1.751066E-04
       452    2.503893E-03
       453   -2.328786E-03
       454    2.756613E-06
       455    3.902249E-03
       456   -3.925949E-07
       457   -1.442836E-03
       458    6.939579E-03
       459   -5.496743E-03
       460    7.410160E-06
       461    3.661834E-04
       462   -3.976676E-07
       463    1.144833E-04
       464   -6.863178E-08
       465    1.239906E-03
       466    1.295985E-04
       467    1.586466E-09
       468   -1.060037E-03
       469   -2.831940E-04
       470    9.049272E-08
       471   -6.034711E-04
       472    2.457402E-08
       473   -6.487336E-03
       474   -1.569503E-02
       475   -2.984128E-02
       476    2.790045E-03
       477    1.939180E-03
       478   -1.080197E-02
       479    3.645356E-03
       480    2.723795E-03
       481   -4.419458E-03
       482   -6.478365E-03
       483   -1.562803E-02
       484   -2.963708E-02
       485    2.785590E-03
       486   -1.933339E-03
       487   -1.080473E-02
       488    3.616665E-03
       489   -2.690813E-03
       490   -4.435522E-03
 Sym= X
 Ene= -0.836330
 Spin= Alpha
 Occup= -0.836330
         1    2.642722E-04
         2    6.122314E-04
         3   -1.588323E-03
         4    3.029883E-03
         5    2.365237E-03
         6    1.344440E-02
         7   -4.149530E-03
         8   -7.255241E-04
         9   -2.684553E-02
        10    1.260460E-03
        11   -9.650117E-04
        12   -2.497399E-02
        13    4.064139E-02
        14   -1.368930E-02
        15   -7.644683E-03
        16   -6.883130E-05
        17    7.773126E-05
        18   -8.899966E-06
        19    3.329552E-05
        20    6.213592E-03
        21   -3.804955E-03
        22    7.147472E-04
        23   -4.163680E-04
        24   -2.983792E-04
        25    8.713605E-04
        26    1.405633E-02
        27   -7.184061E-03
        28    5.433116E-03
        29   -5.045853E-03
        30   -3.872627E-04
        31   -1.453285E-03
        32   -2.440382E-03
        33    1.035102E-02
        34    1.758490E-05
        35   -1.152920E-05
        36    1.111211E-04
        37   -9.815960E-06
        38    1.018192E-05
        39    6.956622E-04
        40   -1.377666E-05
        41    5.286121E-06
        42   -8.447469E-04
        43    6.855375E-04
        44   -1.497242E-04
        45   -3.345277E-04
        46    1.893259E-04
        47    4.238338E-03
        48    6.146536E-02
        49   -6.704245E-03
        50   -1.526982E-04
        51   -2.281137E-06
        52   -2.003970E-01
        53    7.307032E-04
        54   -1.603971E-05
        55   -2.077089E-01
        56    1.844926E-02
        57    5.197547E-04
        58   -1.972677E-01
        59   -1.226137E-04
        60    1.205003E-04
        61    2.113401E-06
        62   -1.276299E-07