[Molden Format]
[Title]
ADC(2) - opt by CAM-B3LYP gaussian                                              
[Atoms] AU
 c     1    6 -.12590385386216E+01 -.22819701624009E+01 -.30156123253150E-01
 c     2    6 -.25547233845863E+01 -.83266058000000E-06 -.28792213416740E-01
 c     3    6 -.12590428849917E+01 0.22819669475044E+01 -.30169993842970E-01
 c     4    6 0.13339759331395E+01 0.22828246941961E+01 -.32722654800530E-01
 c     5    6 0.26864234278208E+01 0.32869423900000E-05 -.32794180934660E-01
 c     6    6 0.13339778039684E+01 -.22828226745513E+01 -.32706516539360E-01
 h     7    1 -.23005849451053E+01 -.40353719055945E+01 -.27139024303910E-01
 h     8    1 -.23005903875166E+01 0.40353685773143E+01 -.27164403325880E-01
 h     9    1 0.23527432406667E+01 0.40554759247724E+01 -.35914685697900E-01
 h    10    1 0.23527525948111E+01 -.40554698422164E+01 -.35883032785170E-01
 n    11    7 -.52784595104117E+01 -.53030440000000E-06 -.22539903328000E-01
 o    12    8 -.63796877956448E+01 0.20272212823250E+01 -.19883023974210E-01
 o    13    8 -.63796922742957E+01 -.20272201130570E+01 -.19923067270970E-01
 n    14    7 0.52516126460355E+01 -.32243452000000E-06 -.88209511610250E-01
 h    15    1 0.62001707317805E+01 0.16133662892433E+01 0.23199721167530E+00
 h    16    1 0.62001633429513E+01 -.16133706190784E+01 0.23200112340840E+00
[GTO]
    1 0
 s    6 1.00
 0.13575349682000E+05 0.60645503603591E-03
 0.20352333680000E+04 0.46979088884982E-02
 0.46322562359000E+03 0.24332477647552E-01
 0.13120019598000E+03 0.97399968307759E-01
 0.42853015891000E+02 0.30195584253780E+00
 0.15584185766000E+02 0.66233609137875E+00
 s    2 1.00
 0.62067138508000E+01 0.65595308539952E+00
 0.25764896527000E+01 0.37585633285142E+00
 s    1 1.00
 0.57696339419000E+00 0.10000000000000E+01
 s    1 1.00
 0.22972831358000E+00 0.10000000000000E+01
 s    1 1.00
 0.95164440028000E-01 0.10000000000000E+01
 s    1 1.00
 0.48475401370000E-01 0.10000000000000E+01
 p    4 1.00
 0.34697232244000E+02 0.11327220003114E-01
 0.79582622826000E+01 0.76169659202087E-01
 0.23780826883000E+01 0.30192252202676E+00
 0.81433208183000E+00 0.72785027349547E+00
 p    1 1.00
 0.28887547253000E+00 0.10000000000000E+01
 p    1 1.00
 0.10056823671000E+00 0.10000000000000E+01
 d    1 1.00
 0.10970000000000E+01 0.10000000000000E+01
 d    1 1.00
 0.31800000000000E+00 0.10000000000000E+01
 d    1 1.00
 0.90985336424000E-01 0.10000000000000E+01
 f    1 1.00
 0.76100000000000E+00 0.10000000000000E+01
 
    2 0
 s    6 1.00
 0.13575349682000E+05 0.60645503603591E-03
 0.20352333680000E+04 0.46979088884982E-02
 0.46322562359000E+03 0.24332477647552E-01
 0.13120019598000E+03 0.97399968307759E-01
 0.42853015891000E+02 0.30195584253780E+00
 0.15584185766000E+02 0.66233609137875E+00
 s    2 1.00
 0.62067138508000E+01 0.65595308539952E+00
 0.25764896527000E+01 0.37585633285142E+00
 s    1 1.00
 0.57696339419000E+00 0.10000000000000E+01
 s    1 1.00
 0.22972831358000E+00 0.10000000000000E+01
 s    1 1.00
 0.95164440028000E-01 0.10000000000000E+01
 s    1 1.00
 0.48475401370000E-01 0.10000000000000E+01
 p    4 1.00
 0.34697232244000E+02 0.11327220003114E-01
 0.79582622826000E+01 0.76169659202087E-01
 0.23780826883000E+01 0.30192252202676E+00
 0.81433208183000E+00 0.72785027349547E+00
 p    1 1.00
 0.28887547253000E+00 0.10000000000000E+01
 p    1 1.00
 0.10056823671000E+00 0.10000000000000E+01
 d    1 1.00
 0.10970000000000E+01 0.10000000000000E+01
 d    1 1.00
 0.31800000000000E+00 0.10000000000000E+01
 d    1 1.00
 0.90985336424000E-01 0.10000000000000E+01
 f    1 1.00
 0.76100000000000E+00 0.10000000000000E+01
 
    3 0
 s    6 1.00
 0.13575349682000E+05 0.60645503603591E-03
 0.20352333680000E+04 0.46979088884982E-02
 0.46322562359000E+03 0.24332477647552E-01
 0.13120019598000E+03 0.97399968307759E-01
 0.42853015891000E+02 0.30195584253780E+00
 0.15584185766000E+02 0.66233609137875E+00
 s    2 1.00
 0.62067138508000E+01 0.65595308539952E+00
 0.25764896527000E+01 0.37585633285142E+00
 s    1 1.00
 0.57696339419000E+00 0.10000000000000E+01
 s    1 1.00
 0.22972831358000E+00 0.10000000000000E+01
 s    1 1.00
 0.95164440028000E-01 0.10000000000000E+01
 s    1 1.00
 0.48475401370000E-01 0.10000000000000E+01
 p    4 1.00
 0.34697232244000E+02 0.11327220003114E-01
 0.79582622826000E+01 0.76169659202087E-01
 0.23780826883000E+01 0.30192252202676E+00
 0.81433208183000E+00 0.72785027349547E+00
 p    1 1.00
 0.28887547253000E+00 0.10000000000000E+01
 p    1 1.00
 0.10056823671000E+00 0.10000000000000E+01
 d    1 1.00
 0.10970000000000E+01 0.10000000000000E+01
 d    1 1.00
 0.31800000000000E+00 0.10000000000000E+01
 d    1 1.00
 0.90985336424000E-01 0.10000000000000E+01
 f    1 1.00
 0.76100000000000E+00 0.10000000000000E+01
 
    4 0
 s    6 1.00
 0.13575349682000E+05 0.60645503603591E-03
 0.20352333680000E+04 0.46979088884982E-02
 0.46322562359000E+03 0.24332477647552E-01
 0.13120019598000E+03 0.97399968307759E-01
 0.42853015891000E+02 0.30195584253780E+00
 0.15584185766000E+02 0.66233609137875E+00
 s    2 1.00
 0.62067138508000E+01 0.65595308539952E+00
 0.25764896527000E+01 0.37585633285142E+00
 s    1 1.00
 0.57696339419000E+00 0.10000000000000E+01
 s    1 1.00
 0.22972831358000E+00 0.10000000000000E+01
 s    1 1.00
 0.95164440028000E-01 0.10000000000000E+01
 s    1 1.00
 0.48475401370000E-01 0.10000000000000E+01
 p    4 1.00
 0.34697232244000E+02 0.11327220003114E-01
 0.79582622826000E+01 0.76169659202087E-01
 0.23780826883000E+01 0.30192252202676E+00
 0.81433208183000E+00 0.72785027349547E+00
 p    1 1.00
 0.28887547253000E+00 0.10000000000000E+01
 p    1 1.00
 0.10056823671000E+00 0.10000000000000E+01
 d    1 1.00
 0.10970000000000E+01 0.10000000000000E+01
 d    1 1.00
 0.31800000000000E+00 0.10000000000000E+01
 d    1 1.00
 0.90985336424000E-01 0.10000000000000E+01
 f    1 1.00
 0.76100000000000E+00 0.10000000000000E+01
 
    5 0
 s    6 1.00
 0.13575349682000E+05 0.60645503603591E-03
 0.20352333680000E+04 0.46979088884982E-02
 0.46322562359000E+03 0.24332477647552E-01
 0.13120019598000E+03 0.97399968307759E-01
 0.42853015891000E+02 0.30195584253780E+00
 0.15584185766000E+02 0.66233609137875E+00
 s    2 1.00
 0.62067138508000E+01 0.65595308539952E+00
 0.25764896527000E+01 0.37585633285142E+00
 s    1 1.00
 0.57696339419000E+00 0.10000000000000E+01
 s    1 1.00
 0.22972831358000E+00 0.10000000000000E+01
 s    1 1.00
 0.95164440028000E-01 0.10000000000000E+01
 s    1 1.00
 0.48475401370000E-01 0.10000000000000E+01
 p    4 1.00
 0.34697232244000E+02 0.11327220003114E-01
 0.79582622826000E+01 0.76169659202087E-01
 0.23780826883000E+01 0.30192252202676E+00
 0.81433208183000E+00 0.72785027349547E+00
 p    1 1.00
 0.28887547253000E+00 0.10000000000000E+01
 p    1 1.00
 0.10056823671000E+00 0.10000000000000E+01
 d    1 1.00
 0.10970000000000E+01 0.10000000000000E+01
 d    1 1.00
 0.31800000000000E+00 0.10000000000000E+01
 d    1 1.00
 0.90985336424000E-01 0.10000000000000E+01
 f    1 1.00
 0.76100000000000E+00 0.10000000000000E+01
 
    6 0
 s    6 1.00
 0.13575349682000E+05 0.60645503603591E-03
 0.20352333680000E+04 0.46979088884982E-02
 0.46322562359000E+03 0.24332477647552E-01
 0.13120019598000E+03 0.97399968307759E-01
 0.42853015891000E+02 0.30195584253780E+00
 0.15584185766000E+02 0.66233609137875E+00
 s    2 1.00
 0.62067138508000E+01 0.65595308539952E+00
 0.25764896527000E+01 0.37585633285142E+00
 s    1 1.00
 0.57696339419000E+00 0.10000000000000E+01
 s    1 1.00
 0.22972831358000E+00 0.10000000000000E+01
 s    1 1.00
 0.95164440028000E-01 0.10000000000000E+01
 s    1 1.00
 0.48475401370000E-01 0.10000000000000E+01
 p    4 1.00
 0.34697232244000E+02 0.11327220003114E-01
 0.79582622826000E+01 0.76169659202087E-01
 0.23780826883000E+01 0.30192252202676E+00
 0.81433208183000E+00 0.72785027349547E+00
 p    1 1.00
 0.28887547253000E+00 0.10000000000000E+01
 p    1 1.00
 0.10056823671000E+00 0.10000000000000E+01
 d    1 1.00
 0.10970000000000E+01 0.10000000000000E+01
 d    1 1.00
 0.31800000000000E+00 0.10000000000000E+01
 d    1 1.00
 0.90985336424000E-01 0.10000000000000E+01
 f    1 1.00
 0.76100000000000E+00 0.10000000000000E+01
 
    7 0
 s    3 1.00
 0.34061341000000E+02 0.25439307208879E-01
 0.51235746000000E+01 0.19008594890375E+00
 0.11646626000000E+01 0.85244113011042E+00
 s    1 1.00
 0.32723041000000E+00 0.10000000000000E+01
 s    1 1.00
 0.10307241000000E+00 0.10000000000000E+01
 p    1 1.00
 0.80000000000000E+00 0.10000000000000E+01
 p    1 1.00
 0.95774129632000E-01 0.10000000000000E+01
 
    8 0
 s    3 1.00
 0.34061341000000E+02 0.25439307208879E-01
 0.51235746000000E+01 0.19008594890375E+00
 0.11646626000000E+01 0.85244113011042E+00
 s    1 1.00
 0.32723041000000E+00 0.10000000000000E+01
 s    1 1.00
 0.10307241000000E+00 0.10000000000000E+01
 p    1 1.00
 0.80000000000000E+00 0.10000000000000E+01
 p    1 1.00
 0.95774129632000E-01 0.10000000000000E+01
 
    9 0
 s    3 1.00
 0.34061341000000E+02 0.25439307208879E-01
 0.51235746000000E+01 0.19008594890375E+00
 0.11646626000000E+01 0.85244113011042E+00
 s    1 1.00
 0.32723041000000E+00 0.10000000000000E+01
 s    1 1.00
 0.10307241000000E+00 0.10000000000000E+01
 p    1 1.00
 0.80000000000000E+00 0.10000000000000E+01
 p    1 1.00
 0.95774129632000E-01 0.10000000000000E+01
 
   10 0
 s    3 1.00
 0.34061341000000E+02 0.25439307208879E-01
 0.51235746000000E+01 0.19008594890375E+00
 0.11646626000000E+01 0.85244113011042E+00
 s    1 1.00
 0.32723041000000E+00 0.10000000000000E+01
 s    1 1.00
 0.10307241000000E+00 0.10000000000000E+01
 p    1 1.00
 0.80000000000000E+00 0.10000000000000E+01
 p    1 1.00
 0.95774129632000E-01 0.10000000000000E+01
 
   11 0
 s    6 1.00
 0.19730800647000E+05 0.58626402628763E-03
 0.29578958745000E+04 0.45428820586397E-02
 0.67322133595000E+03 0.23558413450084E-01
 0.19068249494000E+03 0.94709193292923E-01
 0.62295441898000E+02 0.29719784913376E+00
 0.22654161182000E+02 0.66916246895232E+00
 s    2 1.00
 0.89791477428000E+01 0.64596683630063E+00
 0.36863002370000E+01 0.38700574393705E+00
 s    1 1.00
 0.84660076805000E+00 0.10000000000000E+01
 s    1 1.00
 0.33647133771000E+00 0.10000000000000E+01
 s    1 1.00
 0.13647653675000E+00 0.10000000000000E+01
 s    1 1.00
 0.68441605847000E-01 0.10000000000000E+01
 p    4 1.00
 0.49200380510000E+02 0.11448825101764E-01
 0.11346790537000E+02 0.78422337970864E-01
 0.34273972411000E+01 0.30818094738830E+00
 0.11785525134000E+01 0.72027196368413E+00
 p    1 1.00
 0.41642204972000E+00 0.10000000000000E+01
 p    1 1.00
 0.14260826011000E+00 0.10000000000000E+01
 d    1 1.00
 0.16540000000000E+01 0.10000000000000E+01
 d    1 1.00
 0.46900000000000E+00 0.10000000000000E+01
 d    1 1.00
 0.12829642058000E+00 0.10000000000000E+01
 f    1 1.00
 0.10930000000000E+01 0.10000000000000E+01
 
   12 0
 s    6 1.00
 0.27032382631000E+05 0.57227335211155E-03
 0.40523871392000E+04 0.44353233492995E-02
 0.92232722710000E+03 0.23020107706038E-01
 0.26124070989000E+03 0.92822490667928E-01
 0.85354641351000E+02 0.29378500009671E+00
 0.31035035245000E+02 0.67401604501641E+00
 s    2 1.00
 0.12260860728000E+02 0.63839937025506E+00
 0.49987076005000E+01 0.39534587125718E+00
 s    1 1.00
 0.11703108158000E+01 0.10000000000000E+01
 s    1 1.00
 0.46474740994000E+00 0.10000000000000E+01
 s    1 1.00
 0.18504536357000E+00 0.10000000000000E+01
 s    1 1.00
 0.70288026270000E-01 0.10000000000000E+01
 p    4 1.00
 0.63274954801000E+02 0.12018332222616E-01
 0.14627049379000E+02 0.83005421790056E-01
 0.44501223456000E+01 0.31991743925964E+00
 0.15275799647000E+01 0.70715542916104E+00
 p    1 1.00
 0.52935117943000E+00 0.10000000000000E+01
 p    1 1.00
 0.17478421270000E+00 0.10000000000000E+01
 p    1 1.00
 0.51112745706000E-01 0.10000000000000E+01
 d    1 1.00
 0.23140000000000E+01 0.10000000000000E+01
 d    1 1.00
 0.64500000000000E+00 0.10000000000000E+01
 d    1 1.00
 0.14696477366000E+00 0.10000000000000E+01
 f    1 1.00
 0.14280000000000E+01 0.10000000000000E+01
 
   13 0
 s    6 1.00
 0.27032382631000E+05 0.57227335211155E-03
 0.40523871392000E+04 0.44353233492995E-02
 0.92232722710000E+03 0.23020107706038E-01
 0.26124070989000E+03 0.92822490667928E-01
 0.85354641351000E+02 0.29378500009671E+00
 0.31035035245000E+02 0.67401604501641E+00
 s    2 1.00
 0.12260860728000E+02 0.63839937025506E+00
 0.49987076005000E+01 0.39534587125718E+00
 s    1 1.00
 0.11703108158000E+01 0.10000000000000E+01
 s    1 1.00
 0.46474740994000E+00 0.10000000000000E+01
 s    1 1.00
 0.18504536357000E+00 0.10000000000000E+01
 s    1 1.00
 0.70288026270000E-01 0.10000000000000E+01
 p    4 1.00
 0.63274954801000E+02 0.12018332222616E-01
 0.14627049379000E+02 0.83005421790056E-01
 0.44501223456000E+01 0.31991743925964E+00
 0.15275799647000E+01 0.70715542916104E+00
 p    1 1.00
 0.52935117943000E+00 0.10000000000000E+01
 p    1 1.00
 0.17478421270000E+00 0.10000000000000E+01
 p    1 1.00
 0.51112745706000E-01 0.10000000000000E+01
 d    1 1.00
 0.23140000000000E+01 0.10000000000000E+01
 d    1 1.00
 0.64500000000000E+00 0.10000000000000E+01
 d    1 1.00
 0.14696477366000E+00 0.10000000000000E+01
 f    1 1.00
 0.14280000000000E+01 0.10000000000000E+01
 
   14 0
 s    6 1.00
 0.19730800647000E+05 0.58626402628763E-03
 0.29578958745000E+04 0.45428820586397E-02
 0.67322133595000E+03 0.23558413450084E-01
 0.19068249494000E+03 0.94709193292923E-01
 0.62295441898000E+02 0.29719784913376E+00
 0.22654161182000E+02 0.66916246895232E+00
 s    2 1.00
 0.89791477428000E+01 0.64596683630063E+00
 0.36863002370000E+01 0.38700574393705E+00
 s    1 1.00
 0.84660076805000E+00 0.10000000000000E+01
 s    1 1.00
 0.33647133771000E+00 0.10000000000000E+01
 s    1 1.00
 0.13647653675000E+00 0.10000000000000E+01
 s    1 1.00
 0.68441605847000E-01 0.10000000000000E+01
 p    4 1.00
 0.49200380510000E+02 0.11448825101764E-01
 0.11346790537000E+02 0.78422337970864E-01
 0.34273972411000E+01 0.30818094738830E+00
 0.11785525134000E+01 0.72027196368413E+00
 p    1 1.00
 0.41642204972000E+00 0.10000000000000E+01
 p    1 1.00
 0.14260826011000E+00 0.10000000000000E+01
 d    1 1.00
 0.16540000000000E+01 0.10000000000000E+01
 d    1 1.00
 0.46900000000000E+00 0.10000000000000E+01
 d    1 1.00
 0.12829642058000E+00 0.10000000000000E+01
 f    1 1.00
 0.10930000000000E+01 0.10000000000000E+01
 
   15 0
 s    3 1.00
 0.34061341000000E+02 0.25439307208879E-01
 0.51235746000000E+01 0.19008594890375E+00
 0.11646626000000E+01 0.85244113011042E+00
 s    1 1.00
 0.32723041000000E+00 0.10000000000000E+01
 s    1 1.00
 0.10307241000000E+00 0.10000000000000E+01
 p    1 1.00
 0.80000000000000E+00 0.10000000000000E+01
 p    1 1.00
 0.95774129632000E-01 0.10000000000000E+01
 
   16 0
 s    3 1.00
 0.34061341000000E+02 0.25439307208879E-01
 0.51235746000000E+01 0.19008594890375E+00
 0.11646626000000E+01 0.85244113011042E+00
 s    1 1.00
 0.32723041000000E+00 0.10000000000000E+01
 s    1 1.00
 0.10307241000000E+00 0.10000000000000E+01
 p    1 1.00
 0.80000000000000E+00 0.10000000000000E+01
 p    1 1.00
 0.95774129632000E-01 0.10000000000000E+01
 
[MO]
 Sym= X
 Ene= -0.948793
 Spin= Alpha
 Occup= -0.948793
         1   -2.118960E-04
         2   -4.932954E-04
         3    1.413134E-03
         4   -3.304215E-03
         5   -1.625490E-03
         6   -1.321871E-02
         7    2.264412E-03
         8    1.992382E-04
         9    1.880606E-02
        10   -2.669144E-03
        11    4.716995E-04
        12    1.712612E-02
        13   -3.872625E-02
        14    1.307040E-02
        15    5.467810E-03
        16    1.688602E-05
        17   -2.995560E-05
        18    1.306958E-05
        19   -1.484649E-05
        20   -6.330279E-03
        21    3.603124E-03
        22   -7.665697E-04
        23    4.511544E-04
        24    3.154153E-04
        25   -8.246216E-04
        26   -1.425179E-02
        27    6.856764E-03
        28   -5.314999E-03
        29    5.023256E-03
        30    2.917429E-04
        31    1.366997E-03
        32    2.545207E-03
        33   -9.807742E-03
        34   -2.302736E-05
        35    7.049897E-06
        36   -3.829722E-05
        37    1.031785E-05
        38   -6.483902E-06
        39   -7.510704E-04
        40    2.057660E-05
        41   -2.974528E-06
        42    8.024515E-04
        43   -6.736763E-04
        44    3.430777E-05
        45    7.494008E-05
        46    1.521910E-04
        47   -3.359271E-03
        48   -5.949119E-02
        49    6.612027E-03
        50    9.093159E-05
        51    2.160255E-06
        52    1.914590E-01
        53   -7.765782E-04
        54    1.489263E-05
        55    1.988843E-01
        56   -1.823868E-02
        57   -5.615371E-04
        58    1.925673E-01
        59    6.591446E-05
        60   -6.247905E-05
        61   -3.435408E-06
        62    1.180693E-07
        63   -8.300117E-04
        64    6.406119E-07
        65    4.630878E-04
        66   -7.540383E-04
        67    2.909505E-04
        68    3.317883E-06
        69   -3.433827E-03
        70    1.027197E-06
        71    1.127586E-02
        72   -1.270883E-02
        73    1.432971E-03
        74   -8.896452E-05
        75    4.285355E-03
        76   -1.093867E-05
        77    6.668856E-06
        78    2.148019E-08
        79   -1.053070E-03
        80   -7.107507E-06
        81    3.841979E-08
        82    6.385491E-04
        83   -1.839702E-06
        84   -6.723850E-08
        85    7.742930E-04
        86    7.320953E-08
        87   -2.121751E-04
        88   -4.938762E-04
        89    1.413440E-03
        90   -3.304762E-03
        91    2.396828E-04
        92   -1.321922E-02
        93    2.266597E-03
        94   -2.022750E-04
        95    1.883814E-02
        96   -2.628858E-03
        97   -4.685418E-04
        98    1.715884E-02
        99   -3.873878E-02
       100   -1.360521E-02
       101    5.509152E-03
       102    1.701820E-05
       103   -2.998399E-05
       104    1.296579E-05
       105    1.512611E-05
       106   -6.329726E-03
       107   -3.603302E-03
       108   -7.582148E-04
       109    4.433729E-04
       110    3.148419E-04
       111    8.226265E-04
       112   -1.424973E-02
       113   -6.856438E-03
       114   -5.382723E-03
       115    5.104666E-03
       116    2.780575E-04
       117   -1.284299E-03
       118    2.537041E-03
       119    9.807060E-03
       120   -2.300104E-05
       121   -7.017884E-06
       122   -3.846985E-05
       123    1.041946E-05
       124    6.413136E-06
       125   -7.508738E-04
       126    2.043967E-05
       127    3.002343E-06
       128    8.024865E-04
       129    6.736346E-04
       130    1.333101E-04
       131    2.876283E-04
       132    6.386073E-04
       133   -1.170776E-02
       134    2.579472E-02
       135    1.529694E-02
       136   -1.912526E-03
       137    7.565774E-04
       138   -1.608179E-01
       139   -1.089798E-02
       140    7.105931E-03
       141   -1.633478E-01
       142   -2.334804E-02
       143   -8.591975E-03
       144   -9.825436E-02
       145    1.784523E-04
       146   -2.108762E-04
       147    3.242385E-05
       148   -1.887208E-06
       149   -8.581087E-04
       150    3.223947E-03
       151    7.739093E-04
       152   -8.897266E-04
       153    1.158173E-04
       154    1.940147E-03
       155   -4.243463E-03
       156    5.376375E-03
       157    9.469830E-03
       158   -7.398535E-03
       159   -2.071295E-03
       160   -1.103226E-02
       161    3.652405E-03
       162   -1.186229E-02
       163   -1.970822E-05
       164    1.055938E-05
       165    9.369602E-04
       166   -2.078218E-05
       167    2.022520E-05
       168   -2.618831E-04
       169    4.722353E-05
       170   -3.439210E-05
       171   -9.951808E-04
       172    3.608975E-04
       173   -1.239490E-03
       174   -2.827585E-03
       175    2.849324E-03
       176    2.515947E-02
       177   -2.794151E-02
       178    9.473664E-03
       179    1.036343E-02
       180   -2.339516E-06
       181   -1.253183E-01
       182    5.398889E-04
       183   -1.337281E-05
       184   -1.279123E-01
       185   -3.625658E-02
       186    7.189327E-04
       187   -1.356499E-01
       188    5.756098E-04
       189   -3.267301E-04
       190   -2.488797E-04
       191    2.374723E-07
       192    9.878705E-03
       193    5.315156E-07
       194   -2.089620E-03
       195    4.664683E-03
       196   -2.575063E-03
       197    3.092131E-06
       198    2.452023E-02
       199    4.603441E-07
       200   -6.936928E-03
       201    8.246320E-03
       202   -1.309392E-03
       203   -1.368579E-04
       204    1.797058E-02
       205    1.541666E-06
       206    1.328971E-04
       207    4.998172E-09
       208    4.295941E-04
       209   -9.403114E-05
       210   -5.984298E-08
       211    9.675303E-04
       212   -8.426901E-05
       213    5.313723E-08
       214   -1.543891E-03
       215   -5.478116E-08
       216    1.339712E-04
       217    2.889919E-04
       218    6.366728E-04
       219   -1.171947E-02
       220    2.786078E-02
       221    1.527047E-02
       222   -1.911466E-03
       223   -7.491793E-04
       224   -1.608455E-01
       225   -1.092153E-02
       226   -7.111051E-03
       227   -1.633770E-01
       228   -2.334383E-02
       229    9.342147E-03
       230   -9.825526E-02
       231    1.783267E-04
       232   -2.112078E-04
       233    3.288105E-05
       234    2.324597E-06
       235   -8.574389E-04
       236   -3.224043E-03
       237    7.809387E-04
       238   -8.959986E-04
       239    1.150599E-04
       240   -1.942904E-03
       241   -4.240659E-03
       242   -5.376119E-03
       243    9.427367E-03
       244   -7.356140E-03
       245   -2.071227E-03
       246    1.111053E-02
       247    3.658190E-03
       248    1.186923E-02
       249   -1.983770E-05
       250   -1.063211E-05
       251    9.372222E-04
       252   -2.084560E-05
       253   -2.011898E-05
       254   -2.621870E-04
       255    4.746067E-05
       256    3.438345E-05
       257   -9.952286E-04
       258   -3.608446E-04
       259   -5.008900E-04
       260   -3.474634E-04
       261   -1.967371E-02
       262   -1.191538E-05
       263   -8.997492E-06
       264    7.945471E-04
       265   -6.102638E-03
       266   -4.173979E-04
       267   -5.771519E-03
       268   -5.032705E-04
       269   -3.411008E-04
       270   -1.964424E-02
       271   -1.117689E-05
       272    8.028994E-06
       273    7.958788E-04
       274   -6.185893E-03
       275    3.902095E-04
       276   -5.776318E-03
       277   -5.715315E-04
       278   -2.895489E-03
       279    4.046675E-02
       280   -1.557306E-05
       281    1.325826E-04
       282   -6.495401E-03
       283   -1.817855E-03
       284   -3.266436E-03
       285    1.051423E-03
       286   -5.762999E-04
       287   -2.896234E-03
       288    4.073722E-02
       289   -1.515143E-05
       290   -1.323165E-04
       291   -6.496909E-03
       292   -1.817847E-03
       293    3.300997E-03
       294    1.052097E-03
       295   -6.745624E-05
       296   -1.574835E-04
       297    1.612226E-04
       298    5.367239E-04
       299   -7.614130E-03
       300    9.088471E-04
       301    8.432735E-04
       302   -7.582575E-07
       303    2.341143E-02
       304    4.579952E-04
       305   -1.416879E-07
       306    2.543294E-02
       307   -3.337524E-03
       308    2.570717E-05
       309    7.943820E-03
       310    3.743218E-05
       311   -2.626137E-05
       312   -1.117081E-05
       313    1.047592E-07
       314    4.036761E-03
       315    2.819142E-08
       316    4.715665E-05
       317    1.818312E-05
       318   -6.533977E-05
       319   -8.898672E-08
       320    1.225448E-02
       321    4.440695E-08
       322   -1.042524E-03
       323    3.250369E-03
       324   -2.207845E-03
       325    1.965080E-05
       326    2.965673E-03
       327    2.930088E-06
       328    7.739149E-06
       329    2.504744E-08
       330   -3.872643E-05
       331   -4.577820E-06
       332   -1.196954E-08
       333    6.688065E-04
       334   -5.805337E-06
       335   -2.163513E-08
       336   -6.168495E-04
       337    8.336392E-09
       338   -1.653701E-05
       339   -3.618769E-05
       340    3.194391E-06
       341    6.323421E-04
       342   -6.886339E-03
       343   -1.210838E-03
       344   -6.203016E-04
       345    1.167324E-04
       346   -6.846310E-02
       347   -6.809194E-04
       348    2.576887E-04
       349   -6.359952E-02
       350   -1.851741E-03
       351    5.917480E-04
       352   -5.247447E-02
       353   -2.457373E-04
       354    2.470689E-04
       355   -6.496514E-03
       356    4.053127E-06
       357   -6.550909E-06
       358    2.497782E-06
       359    3.726589E-06
       360    5.041931E-05
       361    3.662077E-04
       362   -1.560633E-05
       363   -1.376856E-05
       364    2.937489E-05
       365    1.853267E-05
       366   -3.515457E-04
       367    1.246873E-03
       368   -8.599564E-05
       369    4.750577E-05
       370    3.848988E-05
       371    8.005044E-05
       372   -2.260999E-04
       373    1.729595E-04
       374    1.315559E-06
       375    1.762224E-06
       376    4.337601E-05
       377   -2.450204E-06
       378    1.404881E-07
       379    7.922035E-05
       380    6.851960E-07
       381   -2.504759E-06
       382   -1.374154E-04
       383    1.046778E-04
       384   -1.650723E-05
       385   -3.614862E-05
       386    3.524997E-06
       387    6.290257E-04
       388   -6.880983E-03
       389   -1.187129E-03
       390   -6.217209E-04
       391   -1.119109E-04
       392   -6.846329E-02
       393   -6.819215E-04
       394   -2.533566E-04
       395   -6.360001E-02
       396   -1.832534E-03
       397   -5.836611E-04
       398   -5.246980E-02
       399   -2.340880E-04
       400   -2.505203E-04
       401   -6.497920E-03
       402    4.010439E-06
       403   -6.486464E-06
       404    2.476024E-06
       405   -3.754176E-06
       406    5.038660E-05
       407   -3.662142E-04
       408   -1.554599E-05
       409   -1.358726E-05
       410    2.913325E-05
       411   -1.817987E-05
       412   -3.515180E-04
       413   -1.246872E-03
       414   -8.660256E-05
       415    4.952262E-05
       416    3.707994E-05
       417   -7.945009E-05
       418   -2.263633E-04
       419   -1.723044E-04
       420    1.306228E-06
       421   -1.740498E-06
       422    4.338012E-05
       423   -2.424780E-06
       424   -1.528157E-07
       425    7.921488E-05
       426    6.722911E-07
       427    2.487938E-06
       428   -1.374154E-04
       429   -1.046816E-04
       430    5.440404E-03
       431    1.294018E-02
       432   -2.023253E-02
       433   -3.207503E-02
       434   -2.149349E-02
       435   -7.892165E-02
       436   -1.992154E-02
       437    8.440464E-06
       438    2.480059E-01
       439   -2.280928E-02
       440    2.200462E-07
       441    2.449540E-01
       442   -2.254202E-02
       443   -1.024697E-04
       444    2.021233E-01
       445   -1.247505E-04
       446   -1.064812E-05
       447    1.353986E-04
       448    2.352851E-07
       449    9.814663E-04
       450    1.844771E-07
       451   -2.765045E-04
       452   -1.774085E-03
       453    2.050590E-03
       454   -3.464308E-06
       455    4.064558E-03
       456    5.930932E-07
       457   -2.323016E-03
       458   -3.794314E-03
       459    6.117329E-03
       460   -4.530212E-06
       461    2.522991E-03
       462    1.241365E-06
       463   -1.693947E-04
       464    3.543372E-08
       465   -9.430069E-04
       466   -9.460563E-05
       467    5.031057E-09
       468    4.700546E-04
       469    3.218724E-04
       470   -5.257039E-08
       471    7.951220E-04
       472   -4.729646E-08
       473    1.126484E-02
       474    2.127863E-02
       475    3.660716E-02
       476   -2.599259E-03
       477   -2.223144E-03
       478    1.254117E-02
       479    1.282555E-03
       480   -4.188766E-03
       481    1.484688E-02
       482    1.125943E-02
       483    2.120810E-02
       484    3.635839E-02
       485   -2.595041E-03
       486    2.216667E-03
       487    1.254462E-02
       488    1.318619E-03
       489    4.148767E-03
       490    1.485606E-02
 Sym= X
 Ene= 0.948793
 Spin= Alpha
 Occup= 0.948793
         1    1.226891E-02
         2    2.739955E-02
         3   -1.549301E-02
         4   -3.823759E-01
         5   -5.448957E+00
         6    6.049016E+00
         7    5.850806E-03
         8    1.702928E-02
         9   -5.268858E-04
        10   -5.752442E-02
        11   -4.940901E-03
        12    2.150431E-03
        13    7.169108E-01
        14    5.224284E-01
        15    3.991557E-02
        16   -1.616940E-03
        17   -4.932858E-04
        18    2.110225E-03
        19   -8.701953E-05
        20   -2.044153E-04
        21   -9.302402E-06
        22   -2.585248E-02
        23    1.002248E-02
        24    1.583000E-02
        25    1.126904E-02
        26    6.815369E-04
        27    1.573016E-04
        28    1.237053E-01
        29    4.614685E-02
        30   -1.698521E-01
        31   -1.226140E+00
        32   -7.635250E-03
        33    1.912700E-02
        34   -7.043678E-04
        35   -8.604426E-05
        36    3.137711E-05
        37    6.747384E-04
        38   -3.932678E-05
        39   -2.406185E-05
        40    2.702702E-04
        41    1.547673E-04
        42   -1.803496E-05
        43    3.341806E-07
        44    3.753313E-03
        45    7.634517E-03
        46    7.024082E-03
        47   -2.228764E-01
        48   -6.820230E+00
        49   -4.506285E+00
        50    5.948874E-03
        51    1.179098E-05
        52    1.760790E-03
        53    6.932664E-02
        54   -8.646805E-05
        55    4.159731E-03
        56    2.163199E+00
        57   -1.599732E-02
        58   -7.982036E-02
        59   -8.517122E-04
        60   -2.257765E-03
        61    3.109477E-03
        62    4.865994E-07