[Molden Format]
[Title]
ADC(2) - opt by CAM-B3LYP gaussian                                              
[Atoms] AU
 c     1    6 -.12590385386216E+01 -.22819701624009E+01 -.30156123253150E-01
 c     2    6 -.25547233845863E+01 -.83266058000000E-06 -.28792213416740E-01
 c     3    6 -.12590428849917E+01 0.22819669475044E+01 -.30169993842970E-01
 c     4    6 0.13339759331395E+01 0.22828246941961E+01 -.32722654800530E-01
 c     5    6 0.26864234278208E+01 0.32869423900000E-05 -.32794180934660E-01
 c     6    6 0.13339778039684E+01 -.22828226745513E+01 -.32706516539360E-01
 h     7    1 -.23005849451053E+01 -.40353719055945E+01 -.27139024303910E-01
 h     8    1 -.23005903875166E+01 0.40353685773143E+01 -.27164403325880E-01
 h     9    1 0.23527432406667E+01 0.40554759247724E+01 -.35914685697900E-01
 h    10    1 0.23527525948111E+01 -.40554698422164E+01 -.35883032785170E-01
 n    11    7 -.52784595104117E+01 -.53030440000000E-06 -.22539903328000E-01
 o    12    8 -.63796877956448E+01 0.20272212823250E+01 -.19883023974210E-01
 o    13    8 -.63796922742957E+01 -.20272201130570E+01 -.19923067270970E-01
 n    14    7 0.52516126460355E+01 -.32243452000000E-06 -.88209511610250E-01
 h    15    1 0.62001707317805E+01 0.16133662892433E+01 0.23199721167530E+00
 h    16    1 0.62001633429513E+01 -.16133706190784E+01 0.23200112340840E+00
[GTO]
    1 0
 s    6 1.00
 0.13575349682000E+05 0.60645503603591E-03
 0.20352333680000E+04 0.46979088884982E-02
 0.46322562359000E+03 0.24332477647552E-01
 0.13120019598000E+03 0.97399968307759E-01
 0.42853015891000E+02 0.30195584253780E+00
 0.15584185766000E+02 0.66233609137875E+00
 s    2 1.00
 0.62067138508000E+01 0.65595308539952E+00
 0.25764896527000E+01 0.37585633285142E+00
 s    1 1.00
 0.57696339419000E+00 0.10000000000000E+01
 s    1 1.00
 0.22972831358000E+00 0.10000000000000E+01
 s    1 1.00
 0.95164440028000E-01 0.10000000000000E+01
 s    1 1.00
 0.48475401370000E-01 0.10000000000000E+01
 p    4 1.00
 0.34697232244000E+02 0.11327220003114E-01
 0.79582622826000E+01 0.76169659202087E-01
 0.23780826883000E+01 0.30192252202676E+00
 0.81433208183000E+00 0.72785027349547E+00
 p    1 1.00
 0.28887547253000E+00 0.10000000000000E+01
 p    1 1.00
 0.10056823671000E+00 0.10000000000000E+01
 d    1 1.00
 0.10970000000000E+01 0.10000000000000E+01
 d    1 1.00
 0.31800000000000E+00 0.10000000000000E+01
 d    1 1.00
 0.90985336424000E-01 0.10000000000000E+01
 f    1 1.00
 0.76100000000000E+00 0.10000000000000E+01
 
    2 0
 s    6 1.00
 0.13575349682000E+05 0.60645503603591E-03
 0.20352333680000E+04 0.46979088884982E-02
 0.46322562359000E+03 0.24332477647552E-01
 0.13120019598000E+03 0.97399968307759E-01
 0.42853015891000E+02 0.30195584253780E+00
 0.15584185766000E+02 0.66233609137875E+00
 s    2 1.00
 0.62067138508000E+01 0.65595308539952E+00
 0.25764896527000E+01 0.37585633285142E+00
 s    1 1.00
 0.57696339419000E+00 0.10000000000000E+01
 s    1 1.00
 0.22972831358000E+00 0.10000000000000E+01
 s    1 1.00
 0.95164440028000E-01 0.10000000000000E+01
 s    1 1.00
 0.48475401370000E-01 0.10000000000000E+01
 p    4 1.00
 0.34697232244000E+02 0.11327220003114E-01
 0.79582622826000E+01 0.76169659202087E-01
 0.23780826883000E+01 0.30192252202676E+00
 0.81433208183000E+00 0.72785027349547E+00
 p    1 1.00
 0.28887547253000E+00 0.10000000000000E+01
 p    1 1.00
 0.10056823671000E+00 0.10000000000000E+01
 d    1 1.00
 0.10970000000000E+01 0.10000000000000E+01
 d    1 1.00
 0.31800000000000E+00 0.10000000000000E+01
 d    1 1.00
 0.90985336424000E-01 0.10000000000000E+01
 f    1 1.00
 0.76100000000000E+00 0.10000000000000E+01
 
    3 0
 s    6 1.00
 0.13575349682000E+05 0.60645503603591E-03
 0.20352333680000E+04 0.46979088884982E-02
 0.46322562359000E+03 0.24332477647552E-01
 0.13120019598000E+03 0.97399968307759E-01
 0.42853015891000E+02 0.30195584253780E+00
 0.15584185766000E+02 0.66233609137875E+00
 s    2 1.00
 0.62067138508000E+01 0.65595308539952E+00
 0.25764896527000E+01 0.37585633285142E+00
 s    1 1.00
 0.57696339419000E+00 0.10000000000000E+01
 s    1 1.00
 0.22972831358000E+00 0.10000000000000E+01
 s    1 1.00
 0.95164440028000E-01 0.10000000000000E+01
 s    1 1.00
 0.48475401370000E-01 0.10000000000000E+01
 p    4 1.00
 0.34697232244000E+02 0.11327220003114E-01
 0.79582622826000E+01 0.76169659202087E-01
 0.23780826883000E+01 0.30192252202676E+00
 0.81433208183000E+00 0.72785027349547E+00
 p    1 1.00
 0.28887547253000E+00 0.10000000000000E+01
 p    1 1.00
 0.10056823671000E+00 0.10000000000000E+01
 d    1 1.00
 0.10970000000000E+01 0.10000000000000E+01
 d    1 1.00
 0.31800000000000E+00 0.10000000000000E+01
 d    1 1.00
 0.90985336424000E-01 0.10000000000000E+01
 f    1 1.00
 0.76100000000000E+00 0.10000000000000E+01
 
    4 0
 s    6 1.00
 0.13575349682000E+05 0.60645503603591E-03
 0.20352333680000E+04 0.46979088884982E-02
 0.46322562359000E+03 0.24332477647552E-01
 0.13120019598000E+03 0.97399968307759E-01
 0.42853015891000E+02 0.30195584253780E+00
 0.15584185766000E+02 0.66233609137875E+00
 s    2 1.00
 0.62067138508000E+01 0.65595308539952E+00
 0.25764896527000E+01 0.37585633285142E+00
 s    1 1.00
 0.57696339419000E+00 0.10000000000000E+01
 s    1 1.00
 0.22972831358000E+00 0.10000000000000E+01
 s    1 1.00
 0.95164440028000E-01 0.10000000000000E+01
 s    1 1.00
 0.48475401370000E-01 0.10000000000000E+01
 p    4 1.00
 0.34697232244000E+02 0.11327220003114E-01
 0.79582622826000E+01 0.76169659202087E-01
 0.23780826883000E+01 0.30192252202676E+00
 0.81433208183000E+00 0.72785027349547E+00
 p    1 1.00
 0.28887547253000E+00 0.10000000000000E+01
 p    1 1.00
 0.10056823671000E+00 0.10000000000000E+01
 d    1 1.00
 0.10970000000000E+01 0.10000000000000E+01
 d    1 1.00
 0.31800000000000E+00 0.10000000000000E+01
 d    1 1.00
 0.90985336424000E-01 0.10000000000000E+01
 f    1 1.00
 0.76100000000000E+00 0.10000000000000E+01
 
    5 0
 s    6 1.00
 0.13575349682000E+05 0.60645503603591E-03
 0.20352333680000E+04 0.46979088884982E-02
 0.46322562359000E+03 0.24332477647552E-01
 0.13120019598000E+03 0.97399968307759E-01
 0.42853015891000E+02 0.30195584253780E+00
 0.15584185766000E+02 0.66233609137875E+00
 s    2 1.00
 0.62067138508000E+01 0.65595308539952E+00
 0.25764896527000E+01 0.37585633285142E+00
 s    1 1.00
 0.57696339419000E+00 0.10000000000000E+01
 s    1 1.00
 0.22972831358000E+00 0.10000000000000E+01
 s    1 1.00
 0.95164440028000E-01 0.10000000000000E+01
 s    1 1.00
 0.48475401370000E-01 0.10000000000000E+01
 p    4 1.00
 0.34697232244000E+02 0.11327220003114E-01
 0.79582622826000E+01 0.76169659202087E-01
 0.23780826883000E+01 0.30192252202676E+00
 0.81433208183000E+00 0.72785027349547E+00
 p    1 1.00
 0.28887547253000E+00 0.10000000000000E+01
 p    1 1.00
 0.10056823671000E+00 0.10000000000000E+01
 d    1 1.00
 0.10970000000000E+01 0.10000000000000E+01
 d    1 1.00
 0.31800000000000E+00 0.10000000000000E+01
 d    1 1.00
 0.90985336424000E-01 0.10000000000000E+01
 f    1 1.00
 0.76100000000000E+00 0.10000000000000E+01
 
    6 0
 s    6 1.00
 0.13575349682000E+05 0.60645503603591E-03
 0.20352333680000E+04 0.46979088884982E-02
 0.46322562359000E+03 0.24332477647552E-01
 0.13120019598000E+03 0.97399968307759E-01
 0.42853015891000E+02 0.30195584253780E+00
 0.15584185766000E+02 0.66233609137875E+00
 s    2 1.00
 0.62067138508000E+01 0.65595308539952E+00
 0.25764896527000E+01 0.37585633285142E+00
 s    1 1.00
 0.57696339419000E+00 0.10000000000000E+01
 s    1 1.00
 0.22972831358000E+00 0.10000000000000E+01
 s    1 1.00
 0.95164440028000E-01 0.10000000000000E+01
 s    1 1.00
 0.48475401370000E-01 0.10000000000000E+01
 p    4 1.00
 0.34697232244000E+02 0.11327220003114E-01
 0.79582622826000E+01 0.76169659202087E-01
 0.23780826883000E+01 0.30192252202676E+00
 0.81433208183000E+00 0.72785027349547E+00
 p    1 1.00
 0.28887547253000E+00 0.10000000000000E+01
 p    1 1.00
 0.10056823671000E+00 0.10000000000000E+01
 d    1 1.00
 0.10970000000000E+01 0.10000000000000E+01
 d    1 1.00
 0.31800000000000E+00 0.10000000000000E+01
 d    1 1.00
 0.90985336424000E-01 0.10000000000000E+01
 f    1 1.00
 0.76100000000000E+00 0.10000000000000E+01
 
    7 0
 s    3 1.00
 0.34061341000000E+02 0.25439307208879E-01
 0.51235746000000E+01 0.19008594890375E+00
 0.11646626000000E+01 0.85244113011042E+00
 s    1 1.00
 0.32723041000000E+00 0.10000000000000E+01
 s    1 1.00
 0.10307241000000E+00 0.10000000000000E+01
 p    1 1.00
 0.80000000000000E+00 0.10000000000000E+01
 p    1 1.00
 0.95774129632000E-01 0.10000000000000E+01
 
    8 0
 s    3 1.00
 0.34061341000000E+02 0.25439307208879E-01
 0.51235746000000E+01 0.19008594890375E+00
 0.11646626000000E+01 0.85244113011042E+00
 s    1 1.00
 0.32723041000000E+00 0.10000000000000E+01
 s    1 1.00
 0.10307241000000E+00 0.10000000000000E+01
 p    1 1.00
 0.80000000000000E+00 0.10000000000000E+01
 p    1 1.00
 0.95774129632000E-01 0.10000000000000E+01
 
    9 0
 s    3 1.00
 0.34061341000000E+02 0.25439307208879E-01
 0.51235746000000E+01 0.19008594890375E+00
 0.11646626000000E+01 0.85244113011042E+00
 s    1 1.00
 0.32723041000000E+00 0.10000000000000E+01
 s    1 1.00
 0.10307241000000E+00 0.10000000000000E+01
 p    1 1.00
 0.80000000000000E+00 0.10000000000000E+01
 p    1 1.00
 0.95774129632000E-01 0.10000000000000E+01
 
   10 0
 s    3 1.00
 0.34061341000000E+02 0.25439307208879E-01
 0.51235746000000E+01 0.19008594890375E+00
 0.11646626000000E+01 0.85244113011042E+00
 s    1 1.00
 0.32723041000000E+00 0.10000000000000E+01
 s    1 1.00
 0.10307241000000E+00 0.10000000000000E+01
 p    1 1.00
 0.80000000000000E+00 0.10000000000000E+01
 p    1 1.00
 0.95774129632000E-01 0.10000000000000E+01
 
   11 0
 s    6 1.00
 0.19730800647000E+05 0.58626402628763E-03
 0.29578958745000E+04 0.45428820586397E-02
 0.67322133595000E+03 0.23558413450084E-01
 0.19068249494000E+03 0.94709193292923E-01
 0.62295441898000E+02 0.29719784913376E+00
 0.22654161182000E+02 0.66916246895232E+00
 s    2 1.00
 0.89791477428000E+01 0.64596683630063E+00
 0.36863002370000E+01 0.38700574393705E+00
 s    1 1.00
 0.84660076805000E+00 0.10000000000000E+01
 s    1 1.00
 0.33647133771000E+00 0.10000000000000E+01
 s    1 1.00
 0.13647653675000E+00 0.10000000000000E+01
 s    1 1.00
 0.68441605847000E-01 0.10000000000000E+01
 p    4 1.00
 0.49200380510000E+02 0.11448825101764E-01
 0.11346790537000E+02 0.78422337970864E-01
 0.34273972411000E+01 0.30818094738830E+00
 0.11785525134000E+01 0.72027196368413E+00
 p    1 1.00
 0.41642204972000E+00 0.10000000000000E+01
 p    1 1.00
 0.14260826011000E+00 0.10000000000000E+01
 d    1 1.00
 0.16540000000000E+01 0.10000000000000E+01
 d    1 1.00
 0.46900000000000E+00 0.10000000000000E+01
 d    1 1.00
 0.12829642058000E+00 0.10000000000000E+01
 f    1 1.00
 0.10930000000000E+01 0.10000000000000E+01
 
   12 0
 s    6 1.00
 0.27032382631000E+05 0.57227335211155E-03
 0.40523871392000E+04 0.44353233492995E-02
 0.92232722710000E+03 0.23020107706038E-01
 0.26124070989000E+03 0.92822490667928E-01
 0.85354641351000E+02 0.29378500009671E+00
 0.31035035245000E+02 0.67401604501641E+00
 s    2 1.00
 0.12260860728000E+02 0.63839937025506E+00
 0.49987076005000E+01 0.39534587125718E+00
 s    1 1.00
 0.11703108158000E+01 0.10000000000000E+01
 s    1 1.00
 0.46474740994000E+00 0.10000000000000E+01
 s    1 1.00
 0.18504536357000E+00 0.10000000000000E+01
 s    1 1.00
 0.70288026270000E-01 0.10000000000000E+01
 p    4 1.00
 0.63274954801000E+02 0.12018332222616E-01
 0.14627049379000E+02 0.83005421790056E-01
 0.44501223456000E+01 0.31991743925964E+00
 0.15275799647000E+01 0.70715542916104E+00
 p    1 1.00
 0.52935117943000E+00 0.10000000000000E+01
 p    1 1.00
 0.17478421270000E+00 0.10000000000000E+01
 p    1 1.00
 0.51112745706000E-01 0.10000000000000E+01
 d    1 1.00
 0.23140000000000E+01 0.10000000000000E+01
 d    1 1.00
 0.64500000000000E+00 0.10000000000000E+01
 d    1 1.00
 0.14696477366000E+00 0.10000000000000E+01
 f    1 1.00
 0.14280000000000E+01 0.10000000000000E+01
 
   13 0
 s    6 1.00
 0.27032382631000E+05 0.57227335211155E-03
 0.40523871392000E+04 0.44353233492995E-02
 0.92232722710000E+03 0.23020107706038E-01
 0.26124070989000E+03 0.92822490667928E-01
 0.85354641351000E+02 0.29378500009671E+00
 0.31035035245000E+02 0.67401604501641E+00
 s    2 1.00
 0.12260860728000E+02 0.63839937025506E+00
 0.49987076005000E+01 0.39534587125718E+00
 s    1 1.00
 0.11703108158000E+01 0.10000000000000E+01
 s    1 1.00
 0.46474740994000E+00 0.10000000000000E+01
 s    1 1.00
 0.18504536357000E+00 0.10000000000000E+01
 s    1 1.00
 0.70288026270000E-01 0.10000000000000E+01
 p    4 1.00
 0.63274954801000E+02 0.12018332222616E-01
 0.14627049379000E+02 0.83005421790056E-01
 0.44501223456000E+01 0.31991743925964E+00
 0.15275799647000E+01 0.70715542916104E+00
 p    1 1.00
 0.52935117943000E+00 0.10000000000000E+01
 p    1 1.00
 0.17478421270000E+00 0.10000000000000E+01
 p    1 1.00
 0.51112745706000E-01 0.10000000000000E+01
 d    1 1.00
 0.23140000000000E+01 0.10000000000000E+01
 d    1 1.00
 0.64500000000000E+00 0.10000000000000E+01
 d    1 1.00
 0.14696477366000E+00 0.10000000000000E+01
 f    1 1.00
 0.14280000000000E+01 0.10000000000000E+01
 
   14 0
 s    6 1.00
 0.19730800647000E+05 0.58626402628763E-03
 0.29578958745000E+04 0.45428820586397E-02
 0.67322133595000E+03 0.23558413450084E-01
 0.19068249494000E+03 0.94709193292923E-01
 0.62295441898000E+02 0.29719784913376E+00
 0.22654161182000E+02 0.66916246895232E+00
 s    2 1.00
 0.89791477428000E+01 0.64596683630063E+00
 0.36863002370000E+01 0.38700574393705E+00
 s    1 1.00
 0.84660076805000E+00 0.10000000000000E+01
 s    1 1.00
 0.33647133771000E+00 0.10000000000000E+01
 s    1 1.00
 0.13647653675000E+00 0.10000000000000E+01
 s    1 1.00
 0.68441605847000E-01 0.10000000000000E+01
 p    4 1.00
 0.49200380510000E+02 0.11448825101764E-01
 0.11346790537000E+02 0.78422337970864E-01
 0.34273972411000E+01 0.30818094738830E+00
 0.11785525134000E+01 0.72027196368413E+00
 p    1 1.00
 0.41642204972000E+00 0.10000000000000E+01
 p    1 1.00
 0.14260826011000E+00 0.10000000000000E+01
 d    1 1.00
 0.16540000000000E+01 0.10000000000000E+01
 d    1 1.00
 0.46900000000000E+00 0.10000000000000E+01
 d    1 1.00
 0.12829642058000E+00 0.10000000000000E+01
 f    1 1.00
 0.10930000000000E+01 0.10000000000000E+01
 
   15 0
 s    3 1.00
 0.34061341000000E+02 0.25439307208879E-01
 0.51235746000000E+01 0.19008594890375E+00
 0.11646626000000E+01 0.85244113011042E+00
 s    1 1.00
 0.32723041000000E+00 0.10000000000000E+01
 s    1 1.00
 0.10307241000000E+00 0.10000000000000E+01
 p    1 1.00
 0.80000000000000E+00 0.10000000000000E+01
 p    1 1.00
 0.95774129632000E-01 0.10000000000000E+01
 
   16 0
 s    3 1.00
 0.34061341000000E+02 0.25439307208879E-01
 0.51235746000000E+01 0.19008594890375E+00
 0.11646626000000E+01 0.85244113011042E+00
 s    1 1.00
 0.32723041000000E+00 0.10000000000000E+01
 s    1 1.00
 0.10307241000000E+00 0.10000000000000E+01
 p    1 1.00
 0.80000000000000E+00 0.10000000000000E+01
 p    1 1.00
 0.95774129632000E-01 0.10000000000000E+01
 
[MO]
 Sym= X
 Ene= -0.956471
 Spin= Alpha
 Occup= -0.956471
         1   -1.526059E-04
         2   -3.572925E-04
         3    1.124028E-03
         4   -3.095940E-03
         5   -2.923951E-03
         6   -1.145528E-02
         7    1.339225E-03
         8    1.545340E-04
         9    3.702937E-02
        10   -2.795708E-03
        11    3.694960E-04
        12    3.510003E-02
        13   -3.507832E-02
        14    1.281736E-02
        15    1.237776E-02
        16   -8.981770E-06
        17   -5.630823E-06
        18    1.461259E-05
        19   -4.593973E-06
        20   -6.437381E-03
        21    4.194129E-03
        22   -7.022180E-04
        23    4.139446E-04
        24    2.882735E-04
        25   -6.897473E-04
        26   -1.455030E-02
        27    7.842878E-03
        28   -4.999940E-03
        29    4.751721E-03
        30    2.482188E-04
        31    1.059594E-03
        32    1.619977E-03
        33   -9.054509E-03
        34   -2.220393E-05
        35    5.635613E-06
        36   -1.895760E-04
        37    1.014057E-05
        38   -5.271222E-06
        39   -6.741171E-04
        40    1.964913E-05
        41   -2.289747E-06
        42    9.284599E-04
        43   -7.433984E-04
        44    2.559813E-05
        45    5.610344E-05
        46    1.190203E-04
        47   -2.670469E-03
        48   -5.715881E-02
        49    5.077500E-03
        50    4.698251E-04
        51    1.854945E-06
        52    2.196651E-01
        53   -3.187859E-04
        54    1.753839E-05
        55    2.273998E-01
        56   -1.697354E-02
        57   -4.931772E-04
        58    2.018352E-01
        59    2.991622E-05
        60   -2.711281E-05
        61   -2.803408E-06
        62    1.036179E-07
        63   -4.577434E-04
        64    6.122302E-07
        65    3.587559E-04
        66   -6.057275E-04
        67    2.469716E-04
        68    3.819585E-06
        69   -2.862160E-03
        70    1.041381E-06
        71    9.311785E-03
        72   -1.066215E-02
        73    1.350360E-03
        74   -8.364033E-05
        75    5.338022E-03
        76   -1.017041E-05
        77    8.527383E-06
        78    4.547551E-08
        79   -1.273107E-03
        80   -6.621357E-06
        81    2.506404E-08
        82    7.510971E-04
        83   -4.819327E-06
        84   -8.607585E-08
        85    9.569551E-04
        86    7.524702E-08
        87   -1.530630E-04
        88   -3.582812E-04
        89    1.125464E-03
        90   -3.096535E-03
        91   -1.347455E-03
        92   -1.144660E-02
        93    1.340323E-03
        94   -1.558511E-04
        95    3.706021E-02
        96   -2.755911E-03
        97   -3.618071E-04
        98    3.513161E-02
        99   -3.513577E-02
       100   -1.326292E-02
       101    1.241281E-02
       102   -8.840709E-06
       103   -5.642386E-06
       104    1.448310E-05
       105    4.785237E-06
       106   -6.436848E-03
       107   -4.194330E-03
       108   -6.943739E-04
       109    4.063279E-04
       110    2.880461E-04
       111    6.868184E-04
       112   -1.454820E-02
       113   -7.842311E-03
       114   -5.072941E-03
       115    4.835915E-03
       116    2.370266E-04
       117   -9.791518E-04
       118    1.612057E-03
       119    9.058434E-03
       120   -2.219168E-05
       121   -5.595049E-06
       122   -1.897432E-04
       123    1.025767E-05
       124    5.221110E-06
       125   -6.739237E-04
       126    1.951560E-05
       127    2.285436E-06
       128    9.284909E-04
       129    7.433444E-04
       130    8.764604E-05
       131    1.859422E-04
       132    6.354412E-04
       133   -9.897705E-03
       134    2.656516E-02
       135    1.323240E-02
       136   -9.755976E-04
       137    4.621249E-04
       138   -1.552879E-01
       139   -8.882586E-03
       140    5.983094E-03
       141   -1.578326E-01
       142   -2.147436E-02
       143   -6.997551E-03
       144   -9.689567E-02
       145    1.209124E-04
       146   -1.452624E-04
       147    2.435001E-05
       148   -1.989571E-06
       149   -1.403667E-03
       150    3.312060E-03
       151    6.613125E-04
       152   -7.421226E-04
       153    8.081005E-05
       154    1.659426E-03
       155   -5.189641E-03
       156    5.617651E-03
       157    8.277921E-03
       158   -6.415987E-03
       159   -1.861934E-03
       160   -9.617991E-03
       161    3.168643E-03
       162   -1.017531E-02
       163   -1.654207E-05
       164    6.770293E-06
       165    8.917885E-04
       166   -1.581596E-05
       167    1.980546E-05
       168   -1.880874E-04
       169    3.800949E-05
       170   -2.888876E-05
       171   -1.008372E-03
       172    4.106427E-04
       173   -1.032019E-03
       174   -2.356423E-03
       175    2.292066E-03
       176    2.240261E-02
       177   -1.974266E-02
       178    9.238284E-03
       179    7.712072E-03
       180   -1.543984E-06
       181   -1.366689E-01
       182   -1.640052E-04
       183   -1.076967E-05
       184   -1.388269E-01
       185   -2.947569E-02
       186    7.118859E-04
       187   -1.326056E-01
       188    4.414602E-04
       189   -2.309379E-04
       190   -2.105223E-04
       191    1.973721E-07
       192    8.936968E-03
       193    5.344538E-07
       194   -1.800823E-03
       195    4.052059E-03
       196   -2.251236E-03
       197    2.302634E-06
       198    2.255638E-02
       199    1.245130E-07
       200   -5.559369E-03
       201    6.824462E-03
       202   -1.265092E-03
       203   -1.267718E-04
       204    1.731996E-02
       205   -1.409402E-06
       206    1.087133E-04
       207    1.549474E-08
       208    5.452664E-04
       209   -7.971192E-05
       210   -5.560576E-08
       211    7.790303E-04
       212   -6.614228E-05
       213    3.481738E-08
       214   -1.510582E-03
       215   -4.094364E-08
       216    8.827666E-05
       217    1.872418E-04
       218    6.331739E-04
       219   -9.904617E-03
       220    2.842728E-02
       221    1.321875E-02
       222   -9.751532E-04
       223   -4.561598E-04
       224   -1.553148E-01
       225   -8.903775E-03
       226   -5.986645E-03
       227   -1.578612E-01
       228   -2.138497E-02
       229    7.700272E-03
       230   -9.690676E-02
       231    1.207660E-04
       232   -1.455747E-04
       233    2.480874E-05
       234    2.323876E-06
       235   -1.403040E-03
       236   -3.312137E-03
       237    6.679199E-04
       238   -7.476519E-04
       239    7.973197E-05
       240   -1.661873E-03
       241   -5.186930E-03
       242   -5.617675E-03
       243    8.236357E-03
       244   -6.374660E-03
       245   -1.861697E-03
       246    9.705774E-03
       247    3.172745E-03
       248    1.017846E-02
       249   -1.669048E-05
       250   -6.839373E-06
       251    8.920590E-04
       252   -1.584401E-05
       253   -1.970882E-05
       254   -1.883918E-04
       255    3.823664E-05
       256    2.888480E-05
       257   -1.008431E-03
       258   -4.106027E-04
       259   -2.618950E-04
       260   -2.466689E-05
       261   -1.660437E-02
       262   -1.035832E-05
       263    2.032203E-05
       264    1.448739E-03
       265   -5.388915E-03
       266   -1.645667E-04
       267   -5.409104E-03
       268   -2.630609E-04
       269   -1.809102E-05
       270   -1.660348E-02
       271   -9.592187E-06
       272   -2.125854E-05
       273    1.449976E-03
       274   -5.475080E-03
       275    1.395868E-04
       276   -5.417389E-03
       277   -3.240380E-04
       278   -2.243226E-03
       279    3.479386E-02
       280   -8.785279E-06
       281    8.735713E-05
       282   -6.355402E-03
       283   -1.026544E-03
       284   -2.900811E-03
       285   -2.747481E-04
       286   -3.280521E-04
       287   -2.245054E-03
       288    3.505574E-02
       289   -8.491633E-06
       290   -8.724795E-05
       291   -6.356897E-03
       292   -1.024367E-03
       293    2.933634E-03
       294   -2.760752E-04
       295   -3.411991E-05
       296   -7.873400E-05
       297    5.873801E-05
       298    2.609031E-04
       299   -6.252028E-03
       300    1.815260E-03
       301    3.413297E-04
       302   -3.126451E-07
       303    2.044840E-02
       304    4.288301E-05
       305    6.382983E-07
       306    2.257913E-02
       307   -2.877175E-03
       308    2.108471E-05
       309    8.701248E-03
       310    2.059197E-05
       311   -3.821282E-06
       312   -1.677069E-05
       313   -1.035818E-09
       314    4.582868E-03
       315   -5.507665E-09
       316    6.567557E-06
       317    6.601457E-05
       318   -7.258212E-05
       319   -4.167970E-07
       320    1.380729E-02
       321   -6.575796E-08
       322   -9.853657E-04
       323    2.875544E-03
       324   -1.890178E-03
       325    1.756039E-05
       326    3.733571E-03
       327    3.409411E-06
       328    7.105040E-06
       329    4.508340E-09
       330   -2.124146E-05
       331   -4.958695E-06
       332    2.253231E-08
       333    7.468473E-04
       334   -4.573716E-06
       335   -2.858088E-08
       336   -7.183489E-04
       337    1.325380E-08
       338   -8.459069E-06
       339   -1.703516E-05
       340   -2.099314E-05
       341    4.893079E-04
       342   -6.000137E-03
       343   -1.137247E-03
       344   -1.954398E-04
       345    8.236885E-05
       346   -7.861475E-02
       347   -2.870773E-04
       348    2.177460E-04
       349   -7.294176E-02
       350   -1.436424E-03
       351    4.931400E-04
       352   -5.901246E-02
       353   -1.763256E-04
       354    2.542971E-04
       355   -7.044041E-03
       356    3.126898E-06
       357   -3.513094E-06
       358    3.861966E-07
       359    4.945393E-07
       360    1.605154E-05
       361    4.808307E-04
       362   -1.300573E-05
       363   -7.477137E-06
       364    2.048287E-05
       365    1.185328E-05
       366   -5.088173E-04
       367    1.596756E-03
       368   -7.812877E-05
       369    5.164336E-05
       370    2.648541E-05
       371    7.964184E-05
       372   -4.647179E-04
       373    2.300350E-04
       374    7.558401E-07
       375    1.331730E-06
       376    6.108484E-05
       377   -1.226424E-06
       378   -1.121425E-07
       379    8.923908E-05
       380    2.123577E-07
       381   -1.674561E-06
       382   -1.711930E-04
       383    1.341609E-04
       384   -8.425601E-06
       385   -1.698915E-05
       386   -2.062976E-05
       387    4.858834E-04
       388   -5.993623E-03
       389   -1.112641E-03
       390   -1.915317E-04
       391   -8.214303E-05
       392   -7.861307E-02
       393   -2.832123E-04
       394   -2.172041E-04
       395   -7.294065E-02
       396   -1.414516E-03
       397   -4.879270E-04
       398   -5.900540E-02
       399   -1.633511E-04
       400   -2.587372E-04
       401   -7.045032E-03
       402    3.131130E-06
       403   -3.508652E-06
       404    3.775223E-07
       405   -5.255993E-07
       406    1.602516E-05
       407   -4.808211E-04
       408   -1.284043E-05
       409   -7.370091E-06
       410    2.021052E-05
       411   -1.144137E-05
       412   -5.087390E-04
       413   -1.596708E-03
       414   -7.811730E-05
       415    5.309744E-05
       416    2.501986E-05
       417   -7.932113E-05
       418   -4.649390E-04
       419   -2.291184E-04
       420    7.520668E-07
       421   -1.323792E-06
       422    6.108604E-05
       423   -1.205941E-06
       424    1.175541E-07
       425    8.923299E-05
       426    1.969377E-07
       427    1.658500E-06
       428   -1.711885E-04
       429   -1.341600E-04
       430    4.696451E-03
       431    1.117498E-02
       432   -1.749370E-02
       433   -2.764892E-02
       434   -2.081944E-02
       435   -7.344486E-02
       436   -1.622649E-02
       437    6.752056E-06
       438    2.136537E-01
       439   -1.873753E-02
       440   -4.007470E-07
       441    2.115927E-01
       442   -1.739253E-02
       443   -9.240832E-05
       444    1.791084E-01
       445   -1.155579E-04
       446    2.270368E-05
       447    9.285424E-05
       448    1.837745E-07
       449    1.229802E-03
       450    1.489706E-07
       451   -2.996610E-04
       452   -1.415152E-03
       453    1.714813E-03
       454   -3.060097E-06
       455    4.579604E-03
       456    5.346293E-07
       457   -2.502292E-03
       458   -2.811648E-03
       459    5.313939E-03
       460   -3.452683E-06
       461    2.559918E-03
       462    1.176893E-06
       463   -1.523254E-04
       464    2.567016E-08
       465   -7.651496E-04
       466   -7.604111E-05
       467    5.219271E-09
       468    3.201705E-04
       469    2.804070E-04
       470   -3.965941E-08
       471    7.063853E-04
       472   -4.360822E-08
       473    1.030111E-02
       474    1.897900E-02
       475    3.223321E-02
       476   -2.195857E-03
       477   -1.941573E-03
       478    1.096347E-02
       479    1.774348E-03
       480   -3.780260E-03
       481    1.413583E-02
       482    1.029698E-02
       483    1.891821E-02
       484    3.201432E-02
       485   -2.192283E-03
       486    1.935948E-03
       487    1.096651E-02
       488    1.806229E-03
       489    3.745107E-03
       490    1.414273E-02
 Sym= X
 Ene= 0.956471
 Spin= Alpha
 Occup= 0.956471
         1    1.642286E-05
         2    4.739014E-05
         3   -6.998151E-04
         4    5.383032E-03
         5    8.222383E-02
         6    5.939763E-03
         7   -4.879396E-04
         8   -1.115238E-04
         9   -1.236198E-01
        10    2.333683E-03
        11   -3.041288E-04
        12   -1.364035E-01
        13    1.196023E-01
        14   -1.285727E-03
        15    1.209369E-02
        16   -1.356367E-05
        17    1.104316E-05
        18    2.520513E-06
        19   -1.677704E-05
        20   -1.870302E-03
        21    1.512004E-03
        22    8.234567E-04
        23   -5.244107E-04
        24   -2.990460E-04
        25    3.016475E-04
        26   -5.993399E-04
        27    5.686567E-03
        28    1.596987E-02
        29   -1.387179E-02
        30   -2.098084E-03
        31    7.825772E-03
        32    3.734158E-02
        33    4.032747E-02
        34    2.102071E-05
        35   -6.538694E-06
        36    1.901458E-04
        37   -1.260669E-05
        38    2.194936E-06
        39   -3.043000E-05
        40   -1.559555E-05
        41    6.577643E-06
        42   -2.246773E-04
        43   -2.205546E-04
        44    5.667291E-06
        45    7.776534E-06
        46    5.649492E-05
        47    1.312423E-03
        48    1.477641E-01
        49   -6.196594E-02
        50    1.366022E-04
        51    7.957910E-07
        52    7.759369E-02
        53    1.075162E-03
        54   -1.445781E-05
        55    8.851545E-02
        56    2.884572E-02
        57    3.720350E-04
        58    8.631061E-03
        59   -2.936559E-05
        60    8.384600E-06
        61    2.098099E-05
        62    1.356684E-07