 operating system is UNIX !
 hostname is         dlt12.abaxnet

 dscf (dlt12.abaxnet) : TURBOMOLE V6.6( 19103 ) 21 May 2014 at 15:45:05
 Copyright (C) 2014 TURBOMOLE GmbH, Karlsruhe


    2023-02-07 10:38:03.356 



                             d s c f - program

                   idea & directorship : reinhart ahlrichs
                   program development : marco haeser
                                         michael baer
                           dft version : oliver treutler


                          quantum chemistry group
                          universitaet  karlsruhe
                                  germany




                          References             
                                                 
          TURBOMOLE:                             
              R. Ahlrichs, M. Baer, M. Haeser, H. Horn, and
              C. Koelmel
              Electronic structure calculations on workstation
              computers: the program system TURBOMOLE
              Chem. Phys. Lett. 162: 165 (1989)
          Density Functional:                              
              O. Treutler and R. Ahlrichs                      
              Efficient Molecular Numerical Integration Schemes
              J. Chem. Phys. 102: 346 (1995)                   
          Parallel Version:                                
              Performance of parallel TURBOMOLE for Density    
              Functional Calculations                          
              M. v. Arnim and R. Ahlrichs                      
              J. Comp. Chem. 19: 1746 (1998)                   
                                         




              +--------------------------------------------------+
              | Atomic coordinate, charge and isotop information |
              +--------------------------------------------------+

                    atomic coordinates            atom    charge  isotop
         -1.25885736   -2.28351270   -0.02408326    c      6.000     0
         -2.55788156    0.00000024   -0.02283793    c      6.000     0
         -1.25885736    2.28351317   -0.02409082    c      6.000     0
          1.33182489    2.28530652   -0.02600322    c      6.000     0
          2.68687380    0.00000024   -0.02538906    c      6.000     0
          1.33182489   -2.28530605   -0.02599377    c      6.000     0
         -2.29745462   -4.03859773   -0.02159827    h      1.000     0
         -2.29745273    4.03859821   -0.02161339    h      1.000     0
          2.35100899    4.05743122   -0.02819152    h      1.000     0
          2.35100710   -4.05743074   -0.02817263    h      1.000     0
         -5.27263756    0.00000024   -0.01723867    n      7.000     0
         -6.38139468    2.02692616   -0.01484250    o      8.000     0
         -6.38139279   -2.02692757   -0.01486518    o      8.000     0
          5.24307421    0.00000024   -0.06737689    n      7.000     0
          6.20515835    1.61775131    0.18115045    h      1.000     0
          6.20515646   -1.61775273    0.18114667    h      1.000     0
 
       center of nuclear mass  :   -1.36607438    0.00000000   -0.02300859
       center of nuclear charge:   -1.22419800    0.00000000   -0.02024496

   *************************************************************************
   ADC(2) - opt by CAM-B3LYP gaussian                                       
   *************************************************************************



              +--------------------------------------------------+
              |               basis set information              |
              +--------------------------------------------------+

              we will work with the 1s 3p 5d 7f 9g ... basis set
              ...i.e. with spherical basis functions...

   type   atoms  prim   cont   basis
   ---------------------------------------------------------------------------
    c        6     52     37   def2-TZVPD   [6s3p3d1f|12s6p3d1f]
    h        6     11      9   def2-TZVPD   [3s2p|5s2p]
    n        2     52     37   def2-TZVPD   [6s3p3d1f|12s6p3d1f]
    o        2     55     40   def2-TZVPD   [6s4p3d1f|12s7p3d1f]
   ---------------------------------------------------------------------------
   total:   16    592    430
   ---------------------------------------------------------------------------

   total number of primitive shells          :   74
   total number of contracted shells         :  162
   total number of cartesian basis functions :  490
   total number of SCF-basis functions       :  430

 ==============================================================================
                      COSMO switched on
 ==============================================================================
 COSMO: skip init. and read data from file
 This run uses frozen charges (from previous solvent iteration)
 Work to create reaction field =   2.332156953304441E-002

 integral neglect threshold       :  0.68E-11
 integral storage threshold THIZE :  0.10E-04
 integral storage threshold THIME :         5


 DENSITY CONVERGENCE CHECK SWITCHED ON !
 SCF CONVERGENCE IF RMS(delta[D]) <     0.1000000000E-07


 symmetry group of the molecule :   c1 

 the group has the following generators :
   c1(z)

    1 symmetry operations found

 there are 1 real representations :   a   

 maximum number of shells which are related by symmetry :  1


    mo occupation :
   irrep   mo's   occupied
    a      430       36
 
 number of basis functions   :          430
 number of occupied orbitals :           36
 

          ------------------------
          nuclear repulsion energy  :   498.685656974    
          ------------------------

 
          -----------------
          -S,T+V- integrals
          -----------------

 1e-integrals will be neglected if expon. factor < 0.682033E-12
 
   Difference densities algorithm switched on.
   The maximal number of linear combinations of
   difference densities is          20 .

 automatic virtual orbital shift switched on 
      shift if e(lumo)-e(homo) < 0.10000000    


 DIIS switched on: error vector is FDS-SDF
 Max. Iterations for DIIS is     :   5
 DIIS matrix (see manual) 
    Scaling factor of diagonals  :  1.200
    threshold for scaling factor :  0.000

 scf convergence criterion : increment of total energy < .1000000D-06
                  and increment of one-electron energy < .1000000D-03

  MOs are in ASCII format !


 reading orbital data $scfmo  from file mos . 

 orbital characterization : scfconv=7
 

 DSCF restart information will be dumped onto file mos

 COSMO: use frozen qcos
 
                                              current damping :  0.300
 ITERATION  ENERGY          1e-ENERGY        2e-ENERGY     RMS[dD(SAO)]   TOL
   1  -489.42280857591    -1655.9786156     667.87015006    0.000D+00 0.680D-11
                          Ediel =    -0.025861544425
          max. resid. norm for Fia-block=  3.588D-04 for orbital     31a         
          max. resid. fock norm         =  7.673D-04 for orbital    120a         
          Delta Eig. =     0.0154840915 eV 
 COSMO: use frozen qcos
 
                                              current damping :  0.250
 ITERATION  ENERGY          1e-ENERGY        2e-ENERGY     RMS[dD(SAO)]   TOL
   2  -489.42280998824    -1655.9825982     667.87413122    0.440D-04 0.431D-11
                          Ediel =    -0.025801109722
          Norm of current diis error: 0.17634E-02
          max. resid. norm for Fia-block=  1.333D-04 for orbital     31a         
          max. resid. fock norm         =  1.666D-04 for orbital     31a         
          Delta Eig. =     0.0071725705 eV 
 COSMO: use frozen qcos
 
                                              current damping :  0.200
 ITERATION  ENERGY          1e-ENERGY        2e-ENERGY     RMS[dD(SAO)]   TOL
   3  -489.42281023848    -1655.9819379     667.87347069    0.146D-04 0.343D-11
                          Ediel =    -0.025777885831
          Norm of current diis error: 0.77725E-03
          max. resid. norm for Fia-block=  7.114D-05 for orbital     36a         
          max. resid. fock norm         =  9.615D-05 for orbital     37a         
          Delta Eig. =     0.0024744569 eV 
 COSMO: use frozen qcos
 
                                              current damping :  0.250
 ITERATION  ENERGY          1e-ENERGY        2e-ENERGY     RMS[dD(SAO)]   TOL
   4  -489.42281031537    -1655.9822939     667.87382665    0.560D-05 0.295D-11
                          Ediel =    -0.025764897170
          Norm of current diis error: 0.41725E-03
          max. resid. norm for Fia-block=  4.669D-05 for orbital     36a         
          max. resid. fock norm         =  5.523D-05 for orbital     37a         
          Delta Eig. =     0.0012386480 eV 
 COSMO: use frozen qcos
 
                                              current damping :  0.300
 ITERATION  ENERGY          1e-ENERGY        2e-ENERGY     RMS[dD(SAO)]   TOL
   5  -489.42281033797    -1655.9822350     667.87376773    0.213D-05 0.270D-11
                          Ediel =    -0.025758942092
          Norm of current diis error: 0.23317E-03
          max. resid. norm for Fia-block=  2.756D-05 for orbital     36a         
          max. resid. fock norm         =  3.519D-05 for orbital     37a         
 mo-orthogonalization: Cholesky decomposition
          Delta Eig. =     0.0007526827 eV 
 COSMO: use frozen qcos
 
                                              current damping :  0.150
 ITERATION  ENERGY          1e-ENERGY        2e-ENERGY     RMS[dD(SAO)]   TOL
   6  -489.42281034609    -1655.9822325     667.87376523    0.138D-05 0.252D-11
                          Ediel =    -0.025756076435
          Norm of current diis error: 0.12785E-03
          max. resid. norm for Fia-block=  2.096D-05 for orbital     36a         
          max. resid. fock norm         =  2.280D-05 for orbital     37a         
          Delta Eig. =     0.0002630464 eV 
 COSMO: use frozen qcos
 
                                              current damping :  0.100
 ITERATION  ENERGY          1e-ENERGY        2e-ENERGY     RMS[dD(SAO)]   TOL
   7  -489.42281034968    -1655.9822055     667.87373814    0.109D-05 0.234D-11
                          Ediel =    -0.025754261741
          Norm of current diis error: 0.59991E-04
          max. resid. norm for Fia-block=  9.459D-06 for orbital     36a         
          max. resid. fock norm         =  1.007D-05 for orbital     37a         
          Delta Eig. =     0.0002070376 eV 
 COSMO: use frozen qcos

 ENERGY & DENSITY CONVERGED !

 
                                              current damping :  0.100
 ITERATION  ENERGY          1e-ENERGY        2e-ENERGY     RMS[dD(SAO)]   TOL
   8  -489.42281035029    -1655.9822016     667.87373423    0.527D-06 0.222D-11
                          Ediel =    -0.025753612176
          max. resid. norm for Fia-block=  1.874D-06 for orbital     36a         
          max. resid. fock norm         =  6.229D-06 for orbital    145a         
 COSMO: write data to file cosmotransfer

 convergence criteria satisfied after  8 iterations


   *************************************************************************
   ADC(2) - opt by CAM-B3LYP gaussian                                       
   *************************************************************************


                  ------------------------------------------ 
                 |  total energy      =   -489.42281035029  |
                  ------------------------------------------ 
                 :  kinetic energy    =    488.91159849379  :
                 :  potential energy  =   -978.33440884407  :
                 :  virial theorem    =      1.99895548012  :
                 :  wavefunction norm =      1.00000000000  :
                  .......................................... 


 orbitals $scfmo  will be written to file mos

    irrep                 32a         33a         34a         35a         36a   
 eigenvalues H         -0.49255    -0.47272    -0.46429    -0.36695    -0.31317
            eV         -13.4030    -12.8635    -12.6340     -9.9853     -8.5218
 occupation              2.0000      2.0000      2.0000      2.0000      2.0000 

    irrep                 37a         38a         39a         40a         41a   
 eigenvalues H          0.04488     0.06813     0.08099     0.08371     0.10358
            eV           1.2212      1.8539      2.2038      2.2779      2.8185
 
 ==============================================================================
                                  COSMO RESULTS
 ==============================================================================
  PARAMETER:
    nppa:      1082
    nspa:        92
    nsph:        32
    nps:        667
    npspher:    311
    disex:   10.0000    
    disex2:  4409.67    
    rsolv [A]: 1.3000
    routf:     0.8500
    phsran:    0.0    
    ampran:   0.10E-04
    cavity:  closed
    epsilon:    78.355
    refind:     1.300
    fepsi:      0.9809777
  CAVITY VOLUME/AREA [a.u.]:
    surface: V1.0, A matrix: V1.0
    area:   572.92
    volume:  1038.42
  SCREENING CHARGE:
    cosmo      :  -0.029784
    correction :   0.029109
    total      :  -0.000676
  ENERGIES [a.u.]:
    Total energy            =     -489.4228103503
    Total energy + OC corr. =     -489.4224489948
    Dielectric energy       =       -0.0257536122
    Diel. energy + OC corr. =       -0.0253922567
  ELEMENT RADIUS [A]: ATOM LIST
    c  2.00: 1-6
    h  1.30: 7-10,15,16
    n  1.83: 11,14
    o  1.72: 12,13
 ==============================================================================
 
 
 
 ==============================================================================
                           electrostatic moments
 ==============================================================================
 
              nuc           elec       ->  total
 ------------------------------------------------------------------------------
                          charge      
 ------------------------------------------------------------------------------
          72.000000     -72.000000      -0.000000
 
 ------------------------------------------------------------------------------
                       dipole moment  
 ------------------------------------------------------------------------------
   x     -88.142256      92.228361       4.086105
   y       0.000000      -0.000184      -0.000184
   z      -1.457637       1.657591       0.199954
 
   | dipole moment | =     4.0910 a.u. =    10.3983 debye 
 
 ------------------------------------------------------------------------------
                     quadrupole moment
 ------------------------------------------------------------------------------
  xx    1260.081782   -1312.663043     -52.581261
  yy     261.759876    -300.308795     -38.548919
  zz       0.127610     -45.535783     -45.408173
  xy       0.000052      -0.001359      -0.001307
  xz       1.784462      -0.525430       1.259032
  yz       0.000003      -0.000117      -0.000115
 
     1/3  trace=     -45.512784
     anisotropy=      12.347473
 
 ==============================================================================
 


    ------------------------------------------------------------------------
         total  cpu-time :  8 minutes and 51 seconds
         total wall-time :  8 minutes and 52 seconds
    ------------------------------------------------------------------------


   ****  dscf : all done  ****


    2023-02-07 10:46:55.443 

