 hostname is         dlt12.abaxnet
 this is node-proc. number 0 running on node dlt12.abaxnet
 the total number of node-proc. spawned is   1

 ricc2 (dlt12.abaxnet) : TURBOMOLE V6.6( 19125 ) 27 May 2014 at 14:24:19
 Copyright (C) 2014 TURBOMOLE GmbH, Karlsruhe


    2023-02-08 08:45:39.867 



                              R I C C 2 - PROGRAM

                          the quantum chemistry groups
                             at the universities in
                           Karlsruhe, Bochum & Mainz
                                   Germany



   *-----------------------------------------------------------------------*
   |                     program will use  1 thread(s)                     |
   *-----------------------------------------------------------------------*


              +--------------------------------------------------+
              | Atomic coordinate, charge and isotop information |
              +--------------------------------------------------+

                    atomic coordinates            atom    charge  isotop
         -1.25885736   -2.28351270   -0.02408326    c      6.000     0
         -2.55788156    0.00000024   -0.02283793    c      6.000     0
         -1.25885736    2.28351317   -0.02409082    c      6.000     0
          1.33182489    2.28530652   -0.02600322    c      6.000     0
          2.68687380    0.00000024   -0.02538906    c      6.000     0
          1.33182489   -2.28530605   -0.02599377    c      6.000     0
         -2.29745462   -4.03859773   -0.02159827    h      1.000     0
         -2.29745273    4.03859821   -0.02161339    h      1.000     0
          2.35100899    4.05743122   -0.02819152    h      1.000     0
          2.35100710   -4.05743074   -0.02817263    h      1.000     0
         -5.27263756    0.00000024   -0.01723867    n      7.000     0
         -6.38139468    2.02692616   -0.01484250    o      8.000     0
         -6.38139279   -2.02692757   -0.01486518    o      8.000     0
          5.24307421    0.00000024   -0.06737689    n      7.000     0
          6.20515835    1.61775131    0.18115045    h      1.000     0
          6.20515646   -1.61775273    0.18114667    h      1.000     0
 
       center of nuclear mass  :   -1.36607438    0.00000000   -0.02300859
       center of nuclear charge:   -1.22419800    0.00000000   -0.02024496

              +--------------------------------------------------+
              |               basis set information              |
              +--------------------------------------------------+

              we will work with the 1s 3p 5d 7f 9g ... basis set
              ...i.e. with spherical basis functions...

   type   atoms  prim   cont   basis
   ---------------------------------------------------------------------------
    c        6     52     37   def2-TZVPD   [6s3p3d1f|12s6p3d1f]
    h        6     11      9   def2-TZVPD   [3s2p|5s2p]
    n        2     52     37   def2-TZVPD   [6s3p3d1f|12s6p3d1f]
    o        2     55     40   def2-TZVPD   [6s4p3d1f|12s7p3d1f]
   ---------------------------------------------------------------------------
   total:   16    592    430
   ---------------------------------------------------------------------------

   total number of primitive shells          :   74
   total number of contracted shells         :  162
   total number of cartesian basis functions :  490
   total number of SCF-basis functions       :  430



   =========================================================================


     restricted closed shell calculation for the wavefunction models:
               ADC(2)     - Algebraic Diagrammatic Construction to 2. Order (strict)


     global parameters for ricc2 program:

        hard restart (reuse of interm.) :  enabled 
        soft restart (reuse of vectors) :  disabled
        threshold for vector function   :    0.100000E-06
        convergence threshold energy    :    0.100000E-07
        linear dependence threshold     :    0.100000E-13
        global print level              :      1
        maximum number of iterations    :   500
        maximum number DIIS vectors     :    10
        max. dim. of reduced space      :   100
        core memory limit (MB)          :   500
        disk space limit (MB)           :   none


   =========================================================================
     "cartesian on" in $drvopt is ignored by $ricc2

    der. integral neglect threshold  :  0.10E-08
    integral neglect threshold       :  0.68E-12
    integral storage threshold THIZE :  0.10E-04
    integral storage threshold THIME :         5


                  +------------------------------------------+
                  |     Auxiliary basis set information      |
                  +------------------------------------------+

              we will work with the 1s 3p 5d 7f 9g ... basis set
              ...i.e. with spherical basis functions...

   type   atoms  prim   cont   basis
   ---------------------------------------------------------------------------
    c        6     97     92   def2-TZVPD   [9s7p5d4f1g|9s7p6d4f1g]
    h        6     32     24   def2-TZVPD   [5s3p2d|5s4p3d]
    n        2     97     92   def2-TZVPD   [9s7p5d4f1g|9s7p6d4f1g]
    o        2     97     92   def2-TZVPD   [9s7p5d4f1g|9s7p6d4f1g]
   ---------------------------------------------------------------------------
   total:   16   1162   1064
   ---------------------------------------------------------------------------

   total number of primitive shells          :   93
   total number of contracted shells         :  320
   total number of cartesian basis functions : 1306
   total number of SCF-basis functions       : 1064


 symmetry group of the molecule :   c1 

 the group has the following generators :
   c1(z)

    1 symmetry operations found

 there are 1 real representations :   a   

 maximum number of shells which are related by symmetry :  1


 The symmetry information takes   1 MB

*---------------------------------------------------------------------*
|               simplified C1 algorithm will be applied               |
*---------------------------------------------------------------------*
 ==============================================================================
                      COSMO switched on
 ==============================================================================
            ======================================================
                      COSMO settings in RICC2
                   --------------------------
             Solvent charges are equilibrated for ground state
             "cycle" indicates frozen COSMO charges,
             hence no COSMO CPHF contribution included
             COSMO linear response (LR) contribution included
             Outlying Charge Correction (OCC) is performed
             Using epsilon          =    78.355
             Using refractive index =     1.300
            ======================================================
        IMPORTANT NOTICE: The calculation of the solvent contributions will
         need the relaxed densities in general. Therefore the actual COSMO
         energies will be output only at the end of the run. Any energies
         or excitation energies quoted before that are only intermediate
         quantities and should be ignored unless you know what you are doing!

  MOs are in ASCII format !


 reading orbital data $scfmo  from file mos . 

 orbital characterization : scfconv=7
 

         --------------------------------------------------------------
                   checking mo's by calculating trace(D*S)

              number of electrons : 
                 from trace(D*S)         :   71.999999999998
                 from occupation numbers :   72.000000000000

              molecular charge           :    0.000000000000
         --------------------------------------------------------------

 time elapsed for calculating density matrices :   0.014 sec
 all orbitals will be active in the correlation treatment

  ----------------------------------------------------------------------------
  hard_restart flag is disabled because the check sum for the
  molecular orbitals "$chkmos" differs from the reference value:
  reference value:     4979631.18509428    
  computed value :     4979631.18508674    
  relative error :    0.151510099774932E-11
  tolerance      :    0.100000000000000E-11
  the calculation will proceed...
  ----------------------------------------------------------------------------


   Molecular Orbital Statistic:
   ============================

   -----------------------------
   orbitals in total:
   -----------------------------
    frozen occupied :      0
    active occupied :     36
    active virtual  :    394
    frozen virtual  :      0
    all together    :    430
   -----------------------------


     time in riccmos       cpu:  0.20 sec    wall:  0.33 sec    ratio:  0.6

     total memory allocated for calculation of (Q|P)**(-1/2) : 13 MiB


     calculation of (P|Q) ...
     time in lp2sym        cpu:  0.03 sec    wall:  0.03 sec    ratio:  1.0


     calculation of the Cholesky decomposition of (P|Q)**(-1) ...
     time in invmetri      cpu:  0.12 sec    wall:  0.21 sec    ratio:  0.6

   threshold for RMS(d[D]) in SCF was     :  0.10E-07
   integral neglect threshold             :  0.68E-12
   derivative integral neglect threshold  :  0.10E-08


 setting up bound for integral derivative estimation

 increment for numerical differentiation : 0.00050000

   =========================================================================

     Energy of reference wave function is  -489.4227891201000
     Maximum orbital residual is           0.1934761565379E-04


     Number of symmetry-nonredundant auxiliary basis functions:     1064

     Block lengths for integral files:
        frozen occupied (BOI):        0 MiB
        active occupied (BJI):        1 MiB
        active virtual  (BAI):        4 MiB
        frozen virtual  (BGI):        0 MiB
               general  (BTI):        4 MiB

   =========================================================================




   **************************************************************************
   *                                                                        *
   *          OPTIMIZATION OF THE GROUND STATE CLUSTER AMPLITUDES           *
   *                                                                        *
   **************************************************************************


   Iter.   MP2 energy       Norm(Omega)    Norm(t1)  Norm(t2)     cpu    wall
   ...........................................................................
    1   -491.4266932080    0.1614872654     0.00000   0.44517    0.56    0.68
   ...........................................................................


     time in total         cpu: 33.51 sec    wall: 40.97 sec    ratio:  0.8


     **********************************************************************
     *                                                                    *
     *   RHF  energy                             :   -489.4227891201      *
     *   MP2 correlation energy                  :     -2.0039040879      *
     *                                                                    *
     *   Final MP2 energy                        :   -491.4266932080      *
     *                                                                    *
     *   Norm of MP1 T2 amplitudes               :      0.4451730620      *
     *                                                                    *
     *   D1 diagnostic                           :      0.0594            *
     *                                                                    *
     **********************************************************************

 Using refractive index n                   =    1.30000000000000     
 Screening function (n**2-1)/(n**2+0.5)     =   0.315068493150685     


 **************************************************************
 *                                                            *
 *    OPTIMIZATION OF THE EXCITED STATE CLUSTER AMPLITUDES    *
 *                                                            *
 **************************************************************


  preoptimize excitation energies/vectors using CCS:

  ==================================================


 ======== LINEAR CC RESPONSE SOLVER ========

    threshold for convergence: 0.10E-02
    maximum number of simultaneous jacoby matrix transformations: 15
                                                
     summary of start vectors generation:
     -------------------------------------------
     type of solution vectors      : RE0
     symmetry                      : a  
     number of vectors requested   :    15
     number of vectors generated   :    15
       -- guessed as rhs/(e_a-e_i) :    15
     -------------------------------------------
                                                

    Iter  #Vectors  time (min)    max. residual 
    --------------------------------------------
 COSMO cphf update
 COSMO cphf update
 COSMO cphf update
 COSMO cphf update
 COSMO cphf update
 COSMO cphf update
 COSMO cphf update
 COSMO cphf update
 COSMO cphf update
 COSMO cphf update
 COSMO cphf update
 COSMO cphf update
 COSMO cphf update
 COSMO cphf update
 COSMO cphf update
      1      15         2.38     0.14E+00  (  1)
 COSMO cphf update
 COSMO cphf update
 COSMO cphf update
 COSMO cphf update
 COSMO cphf update
 COSMO cphf update
 COSMO cphf update
 COSMO cphf update
 COSMO cphf update
 COSMO cphf update
 COSMO cphf update
 COSMO cphf update
 COSMO cphf update
 COSMO cphf update
 COSMO cphf update
      2      15         2.36     0.51E-01  (  1)
 COSMO cphf update
 COSMO cphf update
 COSMO cphf update
 COSMO cphf update
 COSMO cphf update
 COSMO cphf update
 COSMO cphf update
 COSMO cphf update
 COSMO cphf update
 COSMO cphf update
 COSMO cphf update
 COSMO cphf update
 COSMO cphf update
 COSMO cphf update
 COSMO cphf update
      3      15         2.35     0.81E-01  (  7)
 COSMO cphf update
 COSMO cphf update
 COSMO cphf update
 COSMO cphf update
 COSMO cphf update
 COSMO cphf update
 COSMO cphf update
 COSMO cphf update
 COSMO cphf update
 COSMO cphf update
 COSMO cphf update
 COSMO cphf update
 COSMO cphf update
 COSMO cphf update
 COSMO cphf update
      4      15         2.36     0.14E+00  ( 14)
 COSMO cphf update
 COSMO cphf update
 COSMO cphf update
 COSMO cphf update
 COSMO cphf update
 COSMO cphf update
 COSMO cphf update
 COSMO cphf update
 COSMO cphf update
 COSMO cphf update
 COSMO cphf update
 COSMO cphf update
 COSMO cphf update
 COSMO cphf update
 COSMO cphf update
      5      15         2.37     0.17E+00  ( 14)
 COSMO cphf update
 COSMO cphf update
 COSMO cphf update
 COSMO cphf update
 COSMO cphf update
 COSMO cphf update
 COSMO cphf update
 COSMO cphf update
 COSMO cphf update
 COSMO cphf update
 COSMO cphf update
 COSMO cphf update
 COSMO cphf update
 COSMO cphf update
 COSMO cphf update
  dimension of red. space became too large.
  try internal restart...
      6      15         2.39     0.86E-01  (  3)
                                                
     summary of start vectors generation:
     -------------------------------------------
     type of solution vectors      : RE0
     symmetry                      : a  
     number of vectors requested   :    15
     number of vectors generated   :    15
       -- restarted from file      :    15
     -------------------------------------------
                                                

    Iter  #Vectors  time (min)    max. residual 
    --------------------------------------------
 COSMO cphf update
 COSMO cphf update
 COSMO cphf update
 COSMO cphf update
 COSMO cphf update
 COSMO cphf update
 COSMO cphf update
 COSMO cphf update
 COSMO cphf update
 COSMO cphf update
 COSMO cphf update
 COSMO cphf update
 COSMO cphf update
 COSMO cphf update
 COSMO cphf update
      7      15         2.38     0.86E-01  (  3)
 COSMO cphf update
 COSMO cphf update
 COSMO cphf update
 COSMO cphf update
 COSMO cphf update
 COSMO cphf update
 COSMO cphf update
 COSMO cphf update
 COSMO cphf update
 COSMO cphf update
 COSMO cphf update
      8      11         1.78     0.29E-01  (  2)
 COSMO cphf update
 COSMO cphf update
 COSMO cphf update
 COSMO cphf update
 COSMO cphf update
 COSMO cphf update
 COSMO cphf update
 COSMO cphf update
 COSMO cphf update
      9       9         1.51     0.95E-02  ( 13)
 COSMO cphf update
 COSMO cphf update
 COSMO cphf update
 COSMO cphf update
 COSMO cphf update
 COSMO cphf update
     10       6         0.98     0.42E-02  ( 13)
 COSMO cphf update
 COSMO cphf update
 COSMO cphf update
 COSMO cphf update
     11       4         0.68     0.13E-02  ( 13)
 COSMO cphf update
     12       1         0.24     0.89E-03  ( 13)
    --------------------------------------------
    converged in 12 iterations

         Total time         21.79 minutes


 ===========================================




 Note that this is the intermediate result of a preoptimization!
 The convergence threshold was  0.1E-02 only!
 COSMO: note that the excitation energies below do not include
        the nonequilibrium contributions yet. These require the
        computation of the relaxed densities. See end of output
        for a final list of corrected excitations.


 +==================================================================+
 | sym | multi | state |          CCS excitation energies           |
 |     |       |       +--------------------------------------------+
 |     |       |       |   Hartree    |     eV       |     cm-1     |
 +==================================================================+
 | a   |   1   |   1   |    0.1789319 |      4.86898 |    39271.007 |
 | a   |   1   |   2   |    0.1973896 |      5.37124 |    43322.003 |
 | a   |   1   |   3   |    0.2035891 |      5.53994 |    44682.647 |
 | a   |   1   |   4   |    0.2130041 |      5.79614 |    46749.001 |
 | a   |   1   |   5   |    0.2295469 |      6.24629 |    50379.713 |
 | a   |   1   |   6   |    0.2452946 |      6.67481 |    53835.939 |
 | a   |   1   |   7   |    0.2576683 |      7.01151 |    56551.650 |
 | a   |   1   |   8   |    0.2584241 |      7.03208 |    56717.540 |
 | a   |   1   |   9   |    0.2627448 |      7.14965 |    57665.817 |
 | a   |   1   |  10   |    0.2659258 |      7.23621 |    58363.976 |
 | a   |   1   |  11   |    0.2788320 |      7.58740 |    61196.543 |
 | a   |   1   |  12   |    0.2831412 |      7.70466 |    62142.312 |
 | a   |   1   |  13   |    0.2851154 |      7.75838 |    62575.596 |
 | a   |   1   |  14   |    0.2935006 |      7.98656 |    64415.946 |
 | a   |   1   |  15   |    0.2953538 |      8.03699 |    64822.677 |
 +==================================================================+




  preoptimize ADC(2) excitation energies/vectors using a quasi linear algorithm:
  ==============================================================================


 ======== LINEAR CC RESPONSE SOLVER ========

    threshold for convergence: 0.10E-02
    maximum number of simultaneous jacoby matrix transformations: 15
                                                
     summary of start vectors generation:
     -------------------------------------------
     type of solution vectors      : RE0
     symmetry                      : a  
     number of vectors requested   :    15
     number of vectors generated   :    15
       -- restarted from file      :    15
     -------------------------------------------
                                                

    Iter  #Vectors  time (min)    max. residual 
    --------------------------------------------
 COSMO cphf update
 COSMO cphf update
 COSMO cphf update
 COSMO cphf update
 COSMO cphf update
 COSMO cphf update
 COSMO cphf update
 COSMO cphf update
 COSMO cphf update
 COSMO cphf update
 COSMO cphf update
 COSMO cphf update
 COSMO cphf update
 COSMO cphf update
 COSMO cphf update
 COSMO cphf update
 COSMO cphf update
 COSMO cphf update
 COSMO cphf update
 COSMO cphf update
 COSMO cphf update
 COSMO cphf update
 COSMO cphf update
 COSMO cphf update
 COSMO cphf update
 COSMO cphf update
 COSMO cphf update
 COSMO cphf update
 COSMO cphf update
 COSMO cphf update
 threshold for this macro iteration:  5.434541307237636E-002
      1      15        13.10     0.93E-01  (  2)
 COSMO cphf update
 COSMO cphf update
 COSMO cphf update
 COSMO cphf update
 COSMO cphf update
 COSMO cphf update
 COSMO cphf update
 COSMO cphf update
 COSMO cphf update
 COSMO cphf update
 COSMO cphf update
 COSMO cphf update
 COSMO cphf update
 COSMO cphf update
 COSMO cphf update
 COSMO cphf update
 ...adapted threshold to:  6.518250326263356E-002
      2       8         6.80     0.37E-01  ( 12)
                                                
     summary of start vectors generation:
     -------------------------------------------
     type of solution vectors      : RE0
     symmetry                      : a  
     number of vectors requested   :    15
     number of vectors generated   :    15
       -- restarted from file      :    15
     -------------------------------------------
                                                

    Iter  #Vectors  time (min)    max. residual 
    --------------------------------------------
 COSMO cphf update
 COSMO cphf update
 COSMO cphf update
 COSMO cphf update
 COSMO cphf update
 COSMO cphf update
 COSMO cphf update
 COSMO cphf update
 COSMO cphf update
 COSMO cphf update
 COSMO cphf update
 COSMO cphf update
 COSMO cphf update
 COSMO cphf update
 COSMO cphf update
 COSMO cphf update
 COSMO cphf update
 COSMO cphf update
 COSMO cphf update
 COSMO cphf update
 COSMO cphf update
 COSMO cphf update
 COSMO cphf update
 COSMO cphf update
 COSMO cphf update
 COSMO cphf update
 COSMO cphf update
 COSMO cphf update
 COSMO cphf update
 COSMO cphf update
 threshold for this macro iteration:  7.183525109304062E-003
      3      15        13.32     0.37E-01  ( 12)
 COSMO cphf update
 COSMO cphf update
 COSMO cphf update
 COSMO cphf update
 COSMO cphf update
 COSMO cphf update
 COSMO cphf update
 COSMO cphf update
 COSMO cphf update
 COSMO cphf update
 COSMO cphf update
 COSMO cphf update
 COSMO cphf update
 COSMO cphf update
 COSMO cphf update
 COSMO cphf update
 COSMO cphf update
 COSMO cphf update
 COSMO cphf update
 COSMO cphf update
 COSMO cphf update
 COSMO cphf update
 COSMO cphf update
 COSMO cphf update
 COSMO cphf update
 COSMO cphf update
 COSMO cphf update
 COSMO cphf update
 COSMO cphf update
 COSMO cphf update
      4      15        13.26     0.15E-01  ( 12)
 COSMO cphf update
 COSMO cphf update
 COSMO cphf update
 COSMO cphf update
 COSMO cphf update
 COSMO cphf update
 COSMO cphf update
 COSMO cphf update
 COSMO cphf update
 COSMO cphf update
 COSMO cphf update
 COSMO cphf update
 COSMO cphf update
 COSMO cphf update
 COSMO cphf update
 COSMO cphf update
 COSMO cphf update
 COSMO cphf update
 COSMO cphf update
 COSMO cphf update
 COSMO cphf update
 COSMO cphf update
 COSMO cphf update
 COSMO cphf update
 COSMO cphf update
 COSMO cphf update
 COSMO cphf update
 COSMO cphf update
      5      14        12.36     0.11E-01  ( 12)
 COSMO cphf update
 COSMO cphf update
 COSMO cphf update
 COSMO cphf update
 COSMO cphf update
 COSMO cphf update
 COSMO cphf update
 COSMO cphf update
      6       4         3.56     0.69E-01  ( 15)
 COSMO cphf update
 COSMO cphf update
 COSMO cphf update
 COSMO cphf update
 COSMO cphf update
 COSMO cphf update
      7       3         2.70     0.26E-01  ( 13)
 COSMO cphf update
 COSMO cphf update
 COSMO cphf update
 COSMO cphf update
      8       2         1.89     0.12E-01  ( 13)
 COSMO cphf update
 COSMO cphf update
      9       1         1.09     0.71E-02  ( 13)
                                                
     summary of start vectors generation:
     -------------------------------------------
     type of solution vectors      : RE0
     symmetry                      : a  
     number of vectors requested   :    15
     number of vectors generated   :    15
       -- restarted from file      :    15
     -------------------------------------------
                                                

    Iter  #Vectors  time (min)    max. residual 
    --------------------------------------------
 COSMO cphf update
 COSMO cphf update
 COSMO cphf update
 COSMO cphf update
 COSMO cphf update
 COSMO cphf update
 COSMO cphf update
 COSMO cphf update
 COSMO cphf update
 COSMO cphf update
 COSMO cphf update
 COSMO cphf update
 COSMO cphf update
 COSMO cphf update
 COSMO cphf update
 COSMO cphf update
 COSMO cphf update
 COSMO cphf update
 COSMO cphf update
 COSMO cphf update
 COSMO cphf update
 COSMO cphf update
 COSMO cphf update
 COSMO cphf update
 COSMO cphf update
 COSMO cphf update
 COSMO cphf update
 COSMO cphf update
 COSMO cphf update
 COSMO cphf update
 threshold for this macro iteration:  8.740097976507100E-003
     10      15        13.15     0.76E-02  ( 11)
                                                
     summary of start vectors generation:
     -------------------------------------------
     type of solution vectors      : RE0
     symmetry                      : a  
     number of vectors requested   :    15
     number of vectors generated   :    15
       -- restarted from file      :    15
     -------------------------------------------
                                                

    Iter  #Vectors  time (min)    max. residual 
    --------------------------------------------
 COSMO cphf update
 COSMO cphf update
 COSMO cphf update
 COSMO cphf update
 COSMO cphf update
 COSMO cphf update
 COSMO cphf update
 COSMO cphf update
 COSMO cphf update
 COSMO cphf update
 COSMO cphf update
 COSMO cphf update
 COSMO cphf update
 COSMO cphf update
 COSMO cphf update
 COSMO cphf update
 COSMO cphf update
 COSMO cphf update
 COSMO cphf update
 COSMO cphf update
 COSMO cphf update
 COSMO cphf update
 COSMO cphf update
 COSMO cphf update
 COSMO cphf update
 COSMO cphf update
 COSMO cphf update
 COSMO cphf update
 COSMO cphf update
 COSMO cphf update
 threshold for this macro iteration:  9.585455641330343E-003
     11      15        13.17     0.93E-02  ( 13)
                                                
     summary of start vectors generation:
     -------------------------------------------
     type of solution vectors      : RE0
     symmetry                      : a  
     number of vectors requested   :    15
     number of vectors generated   :    15
       -- restarted from file      :    15
     -------------------------------------------
                                                

    Iter  #Vectors  time (min)    max. residual 
    --------------------------------------------
 COSMO cphf update
 COSMO cphf update
 COSMO cphf update
 COSMO cphf update
 COSMO cphf update
 COSMO cphf update
 COSMO cphf update
 COSMO cphf update
 COSMO cphf update
 COSMO cphf update
 COSMO cphf update
 COSMO cphf update
 COSMO cphf update
 COSMO cphf update
 COSMO cphf update
 COSMO cphf update
 COSMO cphf update
 COSMO cphf update
 COSMO cphf update
 COSMO cphf update
 COSMO cphf update
 COSMO cphf update
 COSMO cphf update
 COSMO cphf update
 COSMO cphf update
 COSMO cphf update
 COSMO cphf update
 COSMO cphf update
 COSMO cphf update
 COSMO cphf update
 dabs(Rj-Ri):           1          11  0.121022493973943     
 dabs(Ij+Ii):           1          11  6.071348267500350E-003
 dabs(Rj-Ri):           2          11  0.116482100568517     
 dabs(Ij+Ii):           2          11  6.071348267500350E-003
 dabs(Rj-Ri):           3          11  8.657388954247330E-002
 dabs(Ij+Ii):           3          11  6.071348267500350E-003
 dabs(Rj-Ri):           4          11  8.567926187166175E-002
 dabs(Ij+Ii):           4          11  6.071348267500350E-003
 dabs(Rj-Ri):           5          11  6.209007341959941E-002
 dabs(Ij+Ii):           5          11  6.071348267500350E-003
 dabs(Rj-Ri):           6          11  4.320366614939780E-002
 dabs(Ij+Ii):           6          11  6.071348267500350E-003
 dabs(Rj-Ri):           7          11  4.294765870609160E-002
 dabs(Ij+Ii):           7          11  6.071348267500350E-003
 dabs(Rj-Ri):           8          11  3.441430824318098E-002
 dabs(Ij+Ii):           8          11  6.071348267500350E-003
 dabs(Rj-Ri):           9          11  1.877498732999872E-002
 dabs(Ij+Ii):           9          11  6.071348267500350E-003
 dabs(Rj-Ri):          10          11  9.913510393879665E-003
 dabs(Ij+Ii):          10          11  6.071348267500350E-003
 dabs(Rj-Ri):          12          11  0.000000000000000E+000
 dabs(Ij+Ii):          12          11  0.000000000000000E+000
 dabs(Rj-Ri):          13          11  5.061896523360643E-004
 dabs(Ij+Ii):          13          11  6.071348267500350E-003
 dabs(Rj-Ri):          14          11  1.501774957378871E-002
 dabs(Ij+Ii):          14          11  6.071348267500350E-003
 dabs(Rj-Ri):          15          11  1.612920200977619E-002
 dabs(Ij+Ii):          15          11  6.071348267500350E-003
 overlap matrix for complex pair:

              1             2
 
    1     0.00939124    0.00237484
    2     0.00237484    0.00110735
 real eigenvalues of metric:

              1
 
    1     0.01002377
    2     0.00047482
 eigenvectors of metric:

              1             2
 
    1     0.96631244   -0.25737183
    2     0.25737183    0.96631244
 inverse square root of overlap matrix:

              1             2
 
    1    12.36639527   -8.92926466
    2    -8.92926466   43.51340390
 recalculated overlap matrix for complex pair:

              1             2
 
    1     1.00000000   -0.00000000
    2    -0.00000000    1.00000000
 dabs(Rj-Ri):           1          12  0.121022493973943     
 dabs(Ij+Ii):           1          12  6.071348267500350E-003
 dabs(Rj-Ri):           2          12  0.116482100568517     
 dabs(Ij+Ii):           2          12  6.071348267500350E-003
 dabs(Rj-Ri):           3          12  8.657388954247330E-002
 dabs(Ij+Ii):           3          12  6.071348267500350E-003
 dabs(Rj-Ri):           4          12  8.567926187166175E-002
 dabs(Ij+Ii):           4          12  6.071348267500350E-003
 dabs(Rj-Ri):           5          12  6.209007341959941E-002
 dabs(Ij+Ii):           5          12  6.071348267500350E-003
 dabs(Rj-Ri):           6          12  4.320366614939780E-002
 dabs(Ij+Ii):           6          12  6.071348267500350E-003
 dabs(Rj-Ri):           7          12  4.294765870609160E-002
 dabs(Ij+Ii):           7          12  6.071348267500350E-003
 dabs(Rj-Ri):           8          12  3.441430824318098E-002
 dabs(Ij+Ii):           8          12  6.071348267500350E-003
 dabs(Rj-Ri):           9          12  1.877498732999872E-002
 dabs(Ij+Ii):           9          12  6.071348267500350E-003
 dabs(Rj-Ri):          10          12  9.913510393879665E-003
 dabs(Ij+Ii):          10          12  6.071348267500350E-003
 dabs(Rj-Ri):          11          12  0.000000000000000E+000
 dabs(Ij+Ii):          11          12  0.000000000000000E+000
 dabs(Rj-Ri):          13          12  5.061896523360643E-004
 dabs(Ij+Ii):          13          12  6.071348267500350E-003
 dabs(Rj-Ri):          14          12  1.501774957378871E-002
 dabs(Ij+Ii):          14          12  6.071348267500350E-003
 dabs(Rj-Ri):          15          12  1.612920200977619E-002
 dabs(Ij+Ii):          15          12  6.071348267500350E-003
 overlap matrix for complex pair:

              1             2
 
    1     1.00000000   -0.00000000
    2    -0.00000000    1.00000000
 real eigenvalues of metric:

              1
 
    1     1.00000000
    2     1.00000000
 eigenvectors of metric:

              1             2
 
    1     0.85487338    0.51883668
    2    -0.51883668    0.85487338
 inverse square root of overlap matrix:

              1             2
 
    1     1.00000000    0.00000000
    2     0.00000000    1.00000000
 recalculated overlap matrix for complex pair:

              1             2
 
    1     1.00000000   -0.00000000
    2    -0.00000000    1.00000000
 warning> found low lying complex root...
 eigenvalues (imaginary parts) in redeig:

              1
 
    1     0.00000000
    2     0.00000000
    3     0.00000000
    4     0.00000000
    5     0.00000000
    6     0.00000000
    7     0.00000000
    8     0.00000000
    9     0.00000000
   10     0.00000000
   11    -0.00607135
   12     0.00607135
   13     0.00000000
   14     0.00000000
   15     0.00000000
 eigenvalues (real parts) in redeig:

              1
 
    1     0.13325683
    2     0.13779722
    3     0.16770543
    4     0.16860006
    5     0.19218925
    6     0.21107566
    7     0.21133166
    8     0.21986501
    9     0.23550434
   10     0.24436581
   11     0.25427932
   12     0.25427932
   13     0.25478551
   14     0.26929707
   15     0.27040852
 threshold for this macro iteration:  1.176153672272345E-002
     12      15        13.21     0.23E-01  ( 12)
 COSMO cphf update
 COSMO cphf update
 dabs(Rj-Ri):           1          11  0.120463321737259     
 dabs(Ij+Ii):           1          11  5.879475017306734E-003
 dabs(Rj-Ri):           2          11  0.115923020424795     
 dabs(Ij+Ii):           2          11  5.879475017306734E-003
 dabs(Rj-Ri):           3          11  8.601481006413633E-002
 dabs(Ij+Ii):           3          11  5.879475017306734E-003
 dabs(Rj-Ri):           4          11  8.512018172788577E-002
 dabs(Ij+Ii):           4          11  5.879475017306734E-003
 dabs(Rj-Ri):           5          11  6.153099327589201E-002
 dabs(Ij+Ii):           5          11  5.879475017306734E-003
 dabs(Rj-Ri):           6          11  4.264458649642297E-002
 dabs(Ij+Ii):           6          11  5.879475017306734E-003
 dabs(Rj-Ri):           7          11  4.238857956291231E-002
 dabs(Ij+Ii):           7          11  5.879475017306734E-003
 dabs(Rj-Ri):           8          11  3.385520511961290E-002
 dabs(Ij+Ii):           8          11  5.879475017306734E-003
 dabs(Rj-Ri):           9          11  1.821599330818230E-002
 dabs(Ij+Ii):           9          11  5.879475017306734E-003
 dabs(Rj-Ri):          10          11  9.354430279704534E-003
 dabs(Ij+Ii):          10          11  5.879475017306734E-003
 dabs(Rj-Ri):          12          11  0.000000000000000E+000
 dabs(Ij+Ii):          12          11  0.000000000000000E+000
 dabs(Rj-Ri):          13          11  1.065429316944033E-003
 dabs(Ij+Ii):          13          11  5.879475017306734E-003
 dabs(Rj-Ri):          14          11  1.557611588510927E-002
 dabs(Ij+Ii):          14          11  5.879475017306734E-003
 dabs(Rj-Ri):          15          11  1.668827080457341E-002
 dabs(Ij+Ii):          15          11  5.879475017306734E-003
 dabs(Rj-Ri):          16          11  0.186696520772595     
 dabs(Ij+Ii):          16          11  5.879475017306734E-003
 overlap matrix for complex pair:

              1             2
 
    1     0.00737818    0.00257204
    2     0.00257204    0.00149891
 real eigenvalues of metric:

              1
 
    1     0.00834454
    2     0.00053255
 eigenvectors of metric:

              1             2
 
    1     0.93610750   -0.35171401
    2     0.35171401    0.93610750
 inverse square root of overlap matrix:

              1             2
 
    1    14.95333187  -10.66284202
    2   -10.66284202   39.32687316
 recalculated overlap matrix for complex pair:

              1             2
 
    1     1.00000000    0.00000000
    2    -0.00000000    1.00000000
 dabs(Rj-Ri):           1          12  0.120463321737259     
 dabs(Ij+Ii):           1          12  5.879475017306734E-003
 dabs(Rj-Ri):           2          12  0.115923020424795     
 dabs(Ij+Ii):           2          12  5.879475017306734E-003
 dabs(Rj-Ri):           3          12  8.601481006413633E-002
 dabs(Ij+Ii):           3          12  5.879475017306734E-003
 dabs(Rj-Ri):           4          12  8.512018172788577E-002
 dabs(Ij+Ii):           4          12  5.879475017306734E-003
 dabs(Rj-Ri):           5          12  6.153099327589201E-002
 dabs(Ij+Ii):           5          12  5.879475017306734E-003
 dabs(Rj-Ri):           6          12  4.264458649642297E-002
 dabs(Ij+Ii):           6          12  5.879475017306734E-003
 dabs(Rj-Ri):           7          12  4.238857956291231E-002
 dabs(Ij+Ii):           7          12  5.879475017306734E-003
 dabs(Rj-Ri):           8          12  3.385520511961290E-002
 dabs(Ij+Ii):           8          12  5.879475017306734E-003
 dabs(Rj-Ri):           9          12  1.821599330818230E-002
 dabs(Ij+Ii):           9          12  5.879475017306734E-003
 dabs(Rj-Ri):          10          12  9.354430279704534E-003
 dabs(Ij+Ii):          10          12  5.879475017306734E-003
 dabs(Rj-Ri):          11          12  0.000000000000000E+000
 dabs(Ij+Ii):          11          12  0.000000000000000E+000
 dabs(Rj-Ri):          13          12  1.065429316944033E-003
 dabs(Ij+Ii):          13          12  5.879475017306734E-003
 dabs(Rj-Ri):          14          12  1.557611588510927E-002
 dabs(Ij+Ii):          14          12  5.879475017306734E-003
 dabs(Rj-Ri):          15          12  1.668827080457341E-002
 dabs(Ij+Ii):          15          12  5.879475017306734E-003
 dabs(Rj-Ri):          16          12  0.186696520772595     
 dabs(Ij+Ii):          16          12  5.879475017306734E-003
 overlap matrix for complex pair:

              1             2
 
    1     1.00000000   -0.00000000
    2     0.00000000    1.00000000
 real eigenvalues of metric:

              1
 
    1     1.00000000
    2     1.00000000
 eigenvectors of metric:

              1             2
 
    1     0.99759432    0.06932221
    2    -0.06932221    0.99759432
 inverse square root of overlap matrix:

              1             2
 
    1     1.00000000    0.00000000
    2     0.00000000    1.00000000
 recalculated overlap matrix for complex pair:

              1             2
 
    1     1.00000000   -0.00000000
    2     0.00000000    1.00000000
 warning> found low lying complex root...
 eigenvalues (imaginary parts) in redeig:

              1
 
    1     0.00000000
    2     0.00000000
    3     0.00000000
    4     0.00000000
    5     0.00000000
    6     0.00000000
    7     0.00000000
    8     0.00000000
    9     0.00000000
   10     0.00000000
   11    -0.00587948
   12     0.00587948
   13     0.00000000
   14     0.00000000
   15     0.00000000
   16     0.00000000
 eigenvalues (real parts) in redeig:

              1
 
    1     0.13325692
    2     0.13779722
    3     0.16770543
    4     0.16860006
    5     0.19218925
    6     0.21107566
    7     0.21133166
    8     0.21986504
    9     0.23550425
   10     0.24436581
   11     0.25372024
   12     0.25372024
   13     0.25478567
   14     0.26929636
   15     0.27040851
   16     0.44041676
     13       1         1.08     0.17E-01  ( 12)
 COSMO cphf update
 COSMO cphf update
 dabs(Rj-Ri):           1          11  0.120403083957205     
 dabs(Ij+Ii):           1          11  5.853111046226223E-003
 dabs(Rj-Ri):           2          11  0.115862700733468     
 dabs(Ij+Ii):           2          11  5.853111046226223E-003
 dabs(Rj-Ri):           3          11  8.595449168271260E-002
 dabs(Ij+Ii):           3          11  5.853111046226223E-003
 dabs(Rj-Ri):           4          11  8.505986203660004E-002
 dabs(Ij+Ii):           4          11  5.853111046226223E-003
 dabs(Rj-Ri):           5          11  6.147067358453862E-002
 dabs(Ij+Ii):           5          11  5.853111046226223E-003
 dabs(Rj-Ri):           6          11  4.258426710072213E-002
 dabs(Ij+Ii):           6          11  5.853111046226223E-003
 dabs(Rj-Ri):           7          11  4.232825970657983E-002
 dabs(Ij+Ii):           7          11  5.853111046226223E-003
 dabs(Rj-Ri):           8          11  3.379497875764326E-002
 dabs(Ij+Ii):           8          11  5.853111046226223E-003
 dabs(Rj-Ri):           9          11  1.815571819265388E-002
 dabs(Ij+Ii):           9          11  5.853111046226223E-003
 dabs(Rj-Ri):          10          11  9.294110593429411E-003
 dabs(Ij+Ii):          10          11  5.853111046226223E-003
 dabs(Rj-Ri):          12          11  0.000000000000000E+000
 dabs(Ij+Ii):          12          11  0.000000000000000E+000
 dabs(Rj-Ri):          13          11  1.125703024876412E-003
 dabs(Ij+Ii):          13          11  5.853111046226223E-003
 dabs(Rj-Ri):          14          11  1.563633866721670E-002
 dabs(Ij+Ii):          14          11  5.853111046226223E-003
 dabs(Rj-Ri):          15          11  1.674857997547435E-002
 dabs(Ij+Ii):          15          11  5.853111046226223E-003
 dabs(Rj-Ri):          16          11  0.118699050451490     
 dabs(Ij+Ii):          16          11  5.853111046226223E-003
 dabs(Rj-Ri):          17          11  0.547384490295016     
 dabs(Ij+Ii):          17          11  5.853111046226223E-003
 overlap matrix for complex pair:

              1             2
 
    1     0.33684075    0.00813181
    2     0.00813181    0.00052821
 real eigenvalues of metric:

              1
 
    1     0.33703726
    2     0.00033171
 eigenvectors of metric:

              1             2
 
    1     0.99970815   -0.02415815
    2     0.02415815    0.99970815
 inverse square root of overlap matrix:

              1             2
 
    1     1.75354609   -1.28444634
    2    -1.28444634   54.87523831
 recalculated overlap matrix for complex pair:

              1             2
 
    1     1.00000000   -0.00000000
    2    -0.00000000    1.00000000
 dabs(Rj-Ri):           1          12  0.120403083957205     
 dabs(Ij+Ii):           1          12  5.853111046226223E-003
 dabs(Rj-Ri):           2          12  0.115862700733468     
 dabs(Ij+Ii):           2          12  5.853111046226223E-003
 dabs(Rj-Ri):           3          12  8.595449168271260E-002
 dabs(Ij+Ii):           3          12  5.853111046226223E-003
 dabs(Rj-Ri):           4          12  8.505986203660004E-002
 dabs(Ij+Ii):           4          12  5.853111046226223E-003
 dabs(Rj-Ri):           5          12  6.147067358453862E-002
 dabs(Ij+Ii):           5          12  5.853111046226223E-003
 dabs(Rj-Ri):           6          12  4.258426710072213E-002
 dabs(Ij+Ii):           6          12  5.853111046226223E-003
 dabs(Rj-Ri):           7          12  4.232825970657983E-002
 dabs(Ij+Ii):           7          12  5.853111046226223E-003
 dabs(Rj-Ri):           8          12  3.379497875764326E-002
 dabs(Ij+Ii):           8          12  5.853111046226223E-003
 dabs(Rj-Ri):           9          12  1.815571819265388E-002
 dabs(Ij+Ii):           9          12  5.853111046226223E-003
 dabs(Rj-Ri):          10          12  9.294110593429411E-003
 dabs(Ij+Ii):          10          12  5.853111046226223E-003
 dabs(Rj-Ri):          11          12  0.000000000000000E+000
 dabs(Ij+Ii):          11          12  0.000000000000000E+000
 dabs(Rj-Ri):          13          12  1.125703024876412E-003
 dabs(Ij+Ii):          13          12  5.853111046226223E-003
 dabs(Rj-Ri):          14          12  1.563633866721670E-002
 dabs(Ij+Ii):          14          12  5.853111046226223E-003
 dabs(Rj-Ri):          15          12  1.674857997547435E-002
 dabs(Ij+Ii):          15          12  5.853111046226223E-003
 dabs(Rj-Ri):          16          12  0.118699050451490     
 dabs(Ij+Ii):          16          12  5.853111046226223E-003
 dabs(Rj-Ri):          17          12  0.547384490295016     
 dabs(Ij+Ii):          17          12  5.853111046226223E-003
 overlap matrix for complex pair:

              1             2
 
    1     1.00000000   -0.00000000
    2    -0.00000000    1.00000000
 real eigenvalues of metric:

              1
 
    1     1.00000000
    2     1.00000000
 eigenvectors of metric:

              1             2
 
    1     0.99952680    0.03075995
    2    -0.03075995    0.99952680
 inverse square root of overlap matrix:

              1             2
 
    1     1.00000000    0.00000000
    2     0.00000000    1.00000000
 recalculated overlap matrix for complex pair:

              1             2
 
    1     1.00000000   -0.00000000
    2    -0.00000000    1.00000000
 warning> found low lying complex root...
 eigenvalues (imaginary parts) in redeig:

              1
 
    1     0.00000000
    2     0.00000000
    3     0.00000000
    4     0.00000000
    5     0.00000000
    6     0.00000000
    7     0.00000000
    8     0.00000000
    9     0.00000000
   10     0.00000000
   11    -0.00585311
   12     0.00585311
   13     0.00000000
   14     0.00000000
   15     0.00000000
   16     0.00000000
   17     0.00000000
 eigenvalues (real parts) in redeig:

              1
 
    1     0.13325684
    2     0.13779722
    3     0.16770543
    4     0.16860006
    5     0.19218925
    6     0.21107566
    7     0.21133166
    8     0.21986494
    9     0.23550420
   10     0.24436581
   11     0.25365992
   12     0.25365992
   13     0.25478563
   14     0.26929626
   15     0.27040850
   16     0.37235897
   17     0.80104441
     14       1         1.08     0.17E-01  ( 12)
 COSMO cphf update
 COSMO cphf update
 dabs(Rj-Ri):           1          11  0.120390844543799     
 dabs(Ij+Ii):           1          11  5.853031055387005E-003
 dabs(Rj-Ri):           2          11  0.115850472663414     
 dabs(Ij+Ii):           2          11  5.853031055387005E-003
 dabs(Rj-Ri):           3          11  8.594226716797018E-002
 dabs(Ij+Ii):           3          11  5.853031055387005E-003
 dabs(Rj-Ri):           4          11  8.504763396660345E-002
 dabs(Ij+Ii):           4          11  5.853031055387005E-003
 dabs(Rj-Ri):           5          11  6.145844551466623E-002
 dabs(Ij+Ii):           5          11  5.853031055387005E-003
 dabs(Rj-Ri):           6          11  4.257203945427498E-002
 dabs(Ij+Ii):           6          11  5.853031055387005E-003
 dabs(Rj-Ri):           7          11  4.231603100345310E-002
 dabs(Ij+Ii):           7          11  5.853031055387005E-003
 dabs(Rj-Ri):           8          11  3.378263398072284E-002
 dabs(Ij+Ii):           8          11  5.853031055387005E-003
 dabs(Rj-Ri):           9          11  1.814350443712201E-002
 dabs(Ij+Ii):           9          11  5.853031055387005E-003
 dabs(Rj-Ri):          10          11  9.281882525743829E-003
 dabs(Ij+Ii):          10          11  5.853031055387005E-003
 dabs(Rj-Ri):          12          11  0.000000000000000E+000
 dabs(Ij+Ii):          12          11  0.000000000000000E+000
 dabs(Rj-Ri):          13          11  1.137803796010028E-003
 dabs(Ij+Ii):          13          11  5.853031055387005E-003
 dabs(Rj-Ri):          14          11  1.564859592666817E-002
 dabs(Ij+Ii):          14          11  5.853031055387005E-003
 dabs(Rj-Ri):          15          11  1.676080723250534E-002
 dabs(Ij+Ii):          15          11  5.853031055387005E-003
 dabs(Rj-Ri):          16          11  9.097533501891336E-002
 dabs(Ij+Ii):          16          11  5.853031055387005E-003
 dabs(Rj-Ri):          17          11  0.274746715919131     
 dabs(Ij+Ii):          17          11  5.853031055387005E-003
 dabs(Rj-Ri):          18          11  0.931966840331068     
 dabs(Ij+Ii):          18          11  5.853031055387005E-003
 overlap matrix for complex pair:

              1             2
 
    1     0.00487154   -0.00158994
    2    -0.00158994    0.00111798
 real eigenvalues of metric:

              1
 
    1     0.00545448
    2     0.00053505
 eigenvectors of metric:

              1             2
 
    1     0.93888423    0.34423306
    2    -0.34423306    0.93888423
 inverse square root of overlap matrix:

              1             2
 
    1    17.05851798    9.59624212
    2     9.59624212   39.71357739
 recalculated overlap matrix for complex pair:

              1             2
 
    1     1.00000000    0.00000000
    2    -0.00000000    1.00000000
 dabs(Rj-Ri):           1          12  0.120390844543799     
 dabs(Ij+Ii):           1          12  5.853031055387005E-003
 dabs(Rj-Ri):           2          12  0.115850472663414     
 dabs(Ij+Ii):           2          12  5.853031055387005E-003
 dabs(Rj-Ri):           3          12  8.594226716797018E-002
 dabs(Ij+Ii):           3          12  5.853031055387005E-003
 dabs(Rj-Ri):           4          12  8.504763396660345E-002
 dabs(Ij+Ii):           4          12  5.853031055387005E-003
 dabs(Rj-Ri):           5          12  6.145844551466623E-002
 dabs(Ij+Ii):           5          12  5.853031055387005E-003
 dabs(Rj-Ri):           6          12  4.257203945427498E-002
 dabs(Ij+Ii):           6          12  5.853031055387005E-003
 dabs(Rj-Ri):           7          12  4.231603100345310E-002
 dabs(Ij+Ii):           7          12  5.853031055387005E-003
 dabs(Rj-Ri):           8          12  3.378263398072284E-002
 dabs(Ij+Ii):           8          12  5.853031055387005E-003
 dabs(Rj-Ri):           9          12  1.814350443712201E-002
 dabs(Ij+Ii):           9          12  5.853031055387005E-003
 dabs(Rj-Ri):          10          12  9.281882525743829E-003
 dabs(Ij+Ii):          10          12  5.853031055387005E-003
 dabs(Rj-Ri):          11          12  0.000000000000000E+000
 dabs(Ij+Ii):          11          12  0.000000000000000E+000
 dabs(Rj-Ri):          13          12  1.137803796010028E-003
 dabs(Ij+Ii):          13          12  5.853031055387005E-003
 dabs(Rj-Ri):          14          12  1.564859592666817E-002
 dabs(Ij+Ii):          14          12  5.853031055387005E-003
 dabs(Rj-Ri):          15          12  1.676080723250534E-002
 dabs(Ij+Ii):          15          12  5.853031055387005E-003
 dabs(Rj-Ri):          16          12  9.097533501891336E-002
 dabs(Ij+Ii):          16          12  5.853031055387005E-003
 dabs(Rj-Ri):          17          12  0.274746715919131     
 dabs(Ij+Ii):          17          12  5.853031055387005E-003
 dabs(Rj-Ri):          18          12  0.931966840331068     
 dabs(Ij+Ii):          18          12  5.853031055387005E-003
 overlap matrix for complex pair:

              1             2
 
    1     1.00000000   -0.00000000
    2     0.00000000    1.00000000
 real eigenvalues of metric:

              1
 
    1     1.00000000
    2     1.00000000
 eigenvectors of metric:

              1             2
 
    1     0.99527492   -0.09709706
    2     0.09709706    0.99527492
 inverse square root of overlap matrix:

              1             2
 
    1     1.00000000    0.00000000
    2     0.00000000    1.00000000
 recalculated overlap matrix for complex pair:

              1             2
 
    1     1.00000000   -0.00000000
    2     0.00000000    1.00000000
 warning> found low lying complex root...
 eigenvalues (imaginary parts) in redeig:

              1
 
    1     0.00000000
    2     0.00000000
    3     0.00000000
    4     0.00000000
    5     0.00000000
    6     0.00000000
    7     0.00000000
    8     0.00000000
    9     0.00000000
   10     0.00000000
   11    -0.00585303
   12     0.00585303
   13     0.00000000
   14     0.00000000
   15     0.00000000
   16     0.00000000
   17     0.00000000
   18     0.00000000
 eigenvalues (real parts) in redeig:

              1
 
    1     0.13325685
    2     0.13779722
    3     0.16770543
    4     0.16860006
    5     0.19218925
    6     0.21107566
    7     0.21133166
    8     0.21986506
    9     0.23550419
   10     0.24436581
   11     0.25364769
   12     0.25364769
   13     0.25478550
   14     0.26929629
   15     0.27040850
   16     0.34462303
   17     0.52839441
   18     1.18561453
 ...adapted threshold to:  1.176155048415406E-002
     15       1         1.09     0.15E-01  ( 12)
 COSMO cphf update
 COSMO cphf update
 dabs(Rj-Ri):           1          11  0.120379290914172     
 dabs(Ij+Ii):           1          11  5.862083581225579E-003
 dabs(Rj-Ri):           2          11  0.115838885507362     
 dabs(Ij+Ii):           2          11  5.862083581225579E-003
 dabs(Rj-Ri):           3          11  8.593068501558462E-002
 dabs(Ij+Ii):           3          11  5.862083581225579E-003
 dabs(Rj-Ri):           4          11  8.503604681339991E-002
 dabs(Ij+Ii):           4          11  5.862083581225579E-003
 dabs(Rj-Ri):           5          11  6.144685835892510E-002
 dabs(Ij+Ii):           5          11  5.862083581225579E-003
 dabs(Rj-Ri):           6          11  4.256045292502514E-002
 dabs(Ij+Ii):           6          11  5.862083581225579E-003
 dabs(Rj-Ri):           7          11  4.230444205858705E-002
 dabs(Ij+Ii):           7          11  5.862083581225579E-003
 dabs(Rj-Ri):           8          11  3.377104312836329E-002
 dabs(Ij+Ii):           8          11  5.862083581225579E-003
 dabs(Rj-Ri):           9          11  1.813191504942427E-002
 dabs(Ij+Ii):           9          11  5.862083581225579E-003
 dabs(Rj-Ri):          10          11  9.270295372171750E-003
 dabs(Ij+Ii):          10          11  5.862083581225579E-003
 dabs(Rj-Ri):          12          11  0.000000000000000E+000
 dabs(Ij+Ii):          12          11  0.000000000000000E+000
 dabs(Rj-Ri):          13          11  1.149861324072632E-003
 dabs(Ij+Ii):          13          11  5.862083581225579E-003
 dabs(Rj-Ri):          14          11  1.566015883880051E-002
 dabs(Ij+Ii):          14          11  5.862083581225579E-003
 dabs(Rj-Ri):          15          11  1.677238916164325E-002
 dabs(Ij+Ii):          15          11  5.862083581225579E-003
 dabs(Rj-Ri):          16          11  8.123499285090274E-002
 dabs(Ij+Ii):          16          11  5.862083581225579E-003
 dabs(Rj-Ri):          17          11  0.190340088452503     
 dabs(Ij+Ii):          17          11  5.862083581225579E-003
 dabs(Rj-Ri):          18          11  0.399115714842437     
 dabs(Ij+Ii):          18          11  5.862083581225579E-003
 dabs(Rj-Ri):          19          11   1.06296357884024     
 dabs(Ij+Ii):          19          11  5.862083581225579E-003
 overlap matrix for complex pair:

              1             2
 
    1     0.00136119   -0.00274645
    2    -0.00274645    0.00932160
 real eigenvalues of metric:

              1
 
    1     0.00050559
    2     0.01017720
 eigenvectors of metric:

              1             2
 
    1     0.95474330   -0.29743106
    2     0.29743106    0.95474330
 inverse square root of overlap matrix:

              1             2
 
    1    41.41614856    9.81430961
    2     9.81430961   12.97000906
 recalculated overlap matrix for complex pair:

              1             2
 
    1     1.00000000    0.00000000
    2    -0.00000000    1.00000000
 dabs(Rj-Ri):           1          12  0.120379290914172     
 dabs(Ij+Ii):           1          12  5.862083581225579E-003
 dabs(Rj-Ri):           2          12  0.115838885507362     
 dabs(Ij+Ii):           2          12  5.862083581225579E-003
 dabs(Rj-Ri):           3          12  8.593068501558462E-002
 dabs(Ij+Ii):           3          12  5.862083581225579E-003
 dabs(Rj-Ri):           4          12  8.503604681339991E-002
 dabs(Ij+Ii):           4          12  5.862083581225579E-003
 dabs(Rj-Ri):           5          12  6.144685835892510E-002
 dabs(Ij+Ii):           5          12  5.862083581225579E-003
 dabs(Rj-Ri):           6          12  4.256045292502514E-002
 dabs(Ij+Ii):           6          12  5.862083581225579E-003
 dabs(Rj-Ri):           7          12  4.230444205858705E-002
 dabs(Ij+Ii):           7          12  5.862083581225579E-003
 dabs(Rj-Ri):           8          12  3.377104312836329E-002
 dabs(Ij+Ii):           8          12  5.862083581225579E-003
 dabs(Rj-Ri):           9          12  1.813191504942427E-002
 dabs(Ij+Ii):           9          12  5.862083581225579E-003
 dabs(Rj-Ri):          10          12  9.270295372171750E-003
 dabs(Ij+Ii):          10          12  5.862083581225579E-003
 dabs(Rj-Ri):          11          12  0.000000000000000E+000
 dabs(Ij+Ii):          11          12  0.000000000000000E+000
 dabs(Rj-Ri):          13          12  1.149861324072632E-003
 dabs(Ij+Ii):          13          12  5.862083581225579E-003
 dabs(Rj-Ri):          14          12  1.566015883880051E-002
 dabs(Ij+Ii):          14          12  5.862083581225579E-003
 dabs(Rj-Ri):          15          12  1.677238916164325E-002
 dabs(Ij+Ii):          15          12  5.862083581225579E-003
 dabs(Rj-Ri):          16          12  8.123499285090274E-002
 dabs(Ij+Ii):          16          12  5.862083581225579E-003
 dabs(Rj-Ri):          17          12  0.190340088452503     
 dabs(Ij+Ii):          17          12  5.862083581225579E-003
 dabs(Rj-Ri):          18          12  0.399115714842437     
 dabs(Ij+Ii):          18          12  5.862083581225579E-003
 dabs(Rj-Ri):          19          12   1.06296357884024     
 dabs(Ij+Ii):          19          12  5.862083581225579E-003
 overlap matrix for complex pair:

              1             2
 
    1     1.00000000   -0.00000000
    2     0.00000000    1.00000000
 real eigenvalues of metric:

              1
 
    1     1.00000000
    2     1.00000000
 eigenvectors of metric:

              1             2
 
    1     0.97890981   -0.20429287
    2     0.20429287    0.97890981
 inverse square root of overlap matrix:

              1             2
 
    1     1.00000000    0.00000000
    2     0.00000000    1.00000000
 recalculated overlap matrix for complex pair:

              1             2
 
    1     1.00000000    0.00000000
    2     0.00000000    1.00000000
 warning> found low lying complex root...
 eigenvalues (imaginary parts) in redeig:

              1
 
    1     0.00000000
    2     0.00000000
    3     0.00000000
    4     0.00000000
    5     0.00000000
    6     0.00000000
    7     0.00000000
    8     0.00000000
    9     0.00000000
   10     0.00000000
   11    -0.00586208
   12     0.00586208
   13     0.00000000
   14     0.00000000
   15     0.00000000
   16     0.00000000
   17     0.00000000
   18     0.00000000
   19     0.00000000
 eigenvalues (real parts) in redeig:

              1
 
    1     0.13325682
    2     0.13779722
    3     0.16770542
    4     0.16860006
    5     0.19218925
    6     0.21107565
    7     0.21133167
    8     0.21986506
    9     0.23550419
   10     0.24436581
   11     0.25363611
   12     0.25363611
   13     0.25478597
   14     0.26929627
   15     0.27040850
   16     0.33487110
   17     0.44397620
   18     0.65275182
   19     1.31659969
     16       1         1.08     0.14E-01  ( 11)
 COSMO cphf update
 COSMO cphf update
 dabs(Rj-Ri):           1          11  0.120380812956227     
 dabs(Ij+Ii):           1          11  5.865466487766664E-003
 dabs(Rj-Ri):           2          11  0.115840407036752     
 dabs(Ij+Ii):           2          11  5.865466487766664E-003
 dabs(Rj-Ri):           3          11  8.593223755283552E-002
 dabs(Ij+Ii):           3          11  5.865466487766664E-003
 dabs(Rj-Ri):           4          11  8.503756834680065E-002
 dabs(Ij+Ii):           4          11  5.865466487766664E-003
 dabs(Rj-Ri):           5          11  6.144837989003071E-002
 dabs(Ij+Ii):           5          11  5.865466487766664E-003
 dabs(Rj-Ri):           6          11  4.256197452477847E-002
 dabs(Ij+Ii):           6          11  5.865466487766664E-003
 dabs(Rj-Ri):           7          11  4.230596311065171E-002
 dabs(Ij+Ii):           7          11  5.865466487766664E-003
 dabs(Rj-Ri):           8          11  3.377255630047071E-002
 dabs(Ij+Ii):           8          11  5.865466487766664E-003
 dabs(Rj-Ri):           9          11  1.813343964107614E-002
 dabs(Ij+Ii):           9          11  5.865466487766664E-003
 dabs(Rj-Ri):          10          11  9.271816901557234E-003
 dabs(Ij+Ii):          10          11  5.865466487766664E-003
 dabs(Rj-Ri):          12          11  0.000000000000000E+000
 dabs(Ij+Ii):          12          11  0.000000000000000E+000
 dabs(Rj-Ri):          13          11  1.148449959290698E-003
 dabs(Ij+Ii):          13          11  5.865466487766664E-003
 dabs(Rj-Ri):          14          11  1.565863253254485E-002
 dabs(Ij+Ii):          14          11  5.865466487766664E-003
 dabs(Rj-Ri):          15          11  1.677086592956956E-002
 dabs(Ij+Ii):          15          11  5.865466487766664E-003
 dabs(Rj-Ri):          16          11  7.987159258382581E-002
 dabs(Ij+Ii):          16          11  5.865466487766664E-003
 dabs(Rj-Ri):          17          11  0.189930875037666     
 dabs(Ij+Ii):          17          11  5.865466487766664E-003
 dabs(Rj-Ri):          18          11  0.240095271019586     
 dabs(Ij+Ii):          18          11  5.865466487766664E-003
 dabs(Rj-Ri):          19          11  0.412296788192006     
 dabs(Ij+Ii):          19          11  5.865466487766664E-003
 dabs(Rj-Ri):          20          11   1.07453879796198     
 dabs(Ij+Ii):          20          11  5.865466487766664E-003
 overlap matrix for complex pair:

              1             2
 
    1     0.07963951    0.00497569
    2     0.00497569    0.00067061
 real eigenvalues of metric:

              1
 
    1     0.07995178
    2     0.00035834
 eigenvectors of metric:

              1             2
 
    1     0.99803638   -0.06263687
    2     0.06263687    0.99803638
 inverse square root of overlap matrix:

              1             2
 
    1     3.72998362   -3.08131697
    2    -3.08131697   52.63334251
 recalculated overlap matrix for complex pair:

              1             2
 
    1     1.00000000   -0.00000000
    2    -0.00000000    1.00000000
 dabs(Rj-Ri):           1          12  0.120380812956227     
 dabs(Ij+Ii):           1          12  5.865466487766664E-003
 dabs(Rj-Ri):           2          12  0.115840407036752     
 dabs(Ij+Ii):           2          12  5.865466487766664E-003
 dabs(Rj-Ri):           3          12  8.593223755283552E-002
 dabs(Ij+Ii):           3          12  5.865466487766664E-003
 dabs(Rj-Ri):           4          12  8.503756834680065E-002
 dabs(Ij+Ii):           4          12  5.865466487766664E-003
 dabs(Rj-Ri):           5          12  6.144837989003071E-002
 dabs(Ij+Ii):           5          12  5.865466487766664E-003
 dabs(Rj-Ri):           6          12  4.256197452477847E-002
 dabs(Ij+Ii):           6          12  5.865466487766664E-003
 dabs(Rj-Ri):           7          12  4.230596311065171E-002
 dabs(Ij+Ii):           7          12  5.865466487766664E-003
 dabs(Rj-Ri):           8          12  3.377255630047071E-002
 dabs(Ij+Ii):           8          12  5.865466487766664E-003
 dabs(Rj-Ri):           9          12  1.813343964107614E-002
 dabs(Ij+Ii):           9          12  5.865466487766664E-003
 dabs(Rj-Ri):          10          12  9.271816901557234E-003
 dabs(Ij+Ii):          10          12  5.865466487766664E-003
 dabs(Rj-Ri):          11          12  0.000000000000000E+000
 dabs(Ij+Ii):          11          12  0.000000000000000E+000
 dabs(Rj-Ri):          13          12  1.148449959290698E-003
 dabs(Ij+Ii):          13          12  5.865466487766664E-003
 dabs(Rj-Ri):          14          12  1.565863253254485E-002
 dabs(Ij+Ii):          14          12  5.865466487766664E-003
 dabs(Rj-Ri):          15          12  1.677086592956956E-002
 dabs(Ij+Ii):          15          12  5.865466487766664E-003
 dabs(Rj-Ri):          16          12  7.987159258382581E-002
 dabs(Ij+Ii):          16          12  5.865466487766664E-003
 dabs(Rj-Ri):          17          12  0.189930875037666     
 dabs(Ij+Ii):          17          12  5.865466487766664E-003
 dabs(Rj-Ri):          18          12  0.240095271019586     
 dabs(Ij+Ii):          18          12  5.865466487766664E-003
 dabs(Rj-Ri):          19          12  0.412296788192006     
 dabs(Ij+Ii):          19          12  5.865466487766664E-003
 dabs(Rj-Ri):          20          12   1.07453879796198     
 dabs(Ij+Ii):          20          12  5.865466487766664E-003
 overlap matrix for complex pair:

              1             2
 
    1     1.00000000   -0.00000000
    2    -0.00000000    1.00000000
 real eigenvalues of metric:

              1
 
    1     1.00000000
    2     1.00000000
 eigenvectors of metric:

              1             2
 
    1     0.99916512    0.04085414
    2    -0.04085414    0.99916512
 inverse square root of overlap matrix:

              1             2
 
    1     1.00000000    0.00000000
    2     0.00000000    1.00000000
 recalculated overlap matrix for complex pair:

              1             2
 
    1     1.00000000    0.00000000
    2    -0.00000000    1.00000000
 warning> found low lying complex root...
 eigenvalues (imaginary parts) in redeig:

              1
 
    1     0.00000000
    2     0.00000000
    3     0.00000000
    4     0.00000000
    5     0.00000000
    6     0.00000000
    7     0.00000000
    8     0.00000000
    9     0.00000000
   10     0.00000000
   11    -0.00586547
   12     0.00586547
   13     0.00000000
   14     0.00000000
   15     0.00000000
   16     0.00000000
   17     0.00000000
   18     0.00000000
   19     0.00000000
   20     0.00000000
 eigenvalues (real parts) in redeig:

              1
 
    1     0.13325682
    2     0.13779722
    3     0.16770539
    4     0.16860006
    5     0.19218925
    6     0.21107565
    7     0.21133167
    8     0.21986507
    9     0.23550419
   10     0.24436581
   11     0.25363763
   12     0.25363763
   13     0.25478608
   14     0.26929626
   15     0.27040849
   16     0.33350922
   17     0.44356850
   18     0.49373290
   19     0.66593442
   20     1.32817643
     17       1         1.08     0.16E-01  ( 12)
 COSMO cphf update
 COSMO cphf update
 dabs(Rj-Ri):           1          11  0.120377956237283     
 dabs(Ij+Ii):           1          11  5.874757784083341E-003
 dabs(Rj-Ri):           2          11  0.115837603761068     
 dabs(Ij+Ii):           2          11  5.874757784083341E-003
 dabs(Rj-Ri):           3          11  8.592952547408117E-002
 dabs(Ij+Ii):           3          11  5.874757784083341E-003
 dabs(Rj-Ri):           4          11  8.503476510906899E-002
 dabs(Ij+Ii):           4          11  5.874757784083341E-003
 dabs(Rj-Ri):           5          11  6.144557662427055E-002
 dabs(Ij+Ii):           5          11  5.874757784083341E-003
 dabs(Rj-Ri):           6          11  4.255917232923667E-002
 dabs(Ij+Ii):           6          11  5.874757784083341E-003
 dabs(Rj-Ri):           7          11  4.230315477725660E-002
 dabs(Ij+Ii):           7          11  5.874757784083341E-003
 dabs(Rj-Ri):           8          11  3.376974715985817E-002
 dabs(Ij+Ii):           8          11  5.874757784083341E-003
 dabs(Rj-Ri):           9          11  1.813064859077293E-002
 dabs(Ij+Ii):           9          11  5.874757784083341E-003
 dabs(Rj-Ri):          10          11  9.269013628564637E-003
 dabs(Ij+Ii):          10          11  5.874757784083341E-003
 dabs(Rj-Ri):          12          11  0.000000000000000E+000
 dabs(Ij+Ii):          12          11  0.000000000000000E+000
 dabs(Rj-Ri):          13          11  1.151613530327056E-003
 dabs(Ij+Ii):          13          11  5.874757784083341E-003
 dabs(Rj-Ri):          14          11  1.566135726146584E-002
 dabs(Ij+Ii):          14          11  5.874757784083341E-003
 dabs(Rj-Ri):          15          11  1.677366474260578E-002
 dabs(Ij+Ii):          15          11  5.874757784083341E-003
 dabs(Rj-Ri):          16          11  7.525942898980520E-002
 dabs(Ij+Ii):          16          11  5.874757784083341E-003
 dabs(Rj-Ri):          17          11  0.130136345296439     
 dabs(Ij+Ii):          17          11  5.874757784083341E-003
 dabs(Rj-Ri):          18          11  0.230821665091276     
 dabs(Ij+Ii):          18          11  5.874757784083341E-003
 dabs(Rj-Ri):          19          11  0.265623533628178     
 dabs(Ij+Ii):          19          11  5.874757784083341E-003
 dabs(Rj-Ri):          20          11  0.668649838231878     
 dabs(Ij+Ii):          20          11  5.874757784083341E-003
 dabs(Rj-Ri):          21          11   1.09700556166862     
 dabs(Ij+Ii):          21          11  5.874757784083341E-003
 overlap matrix for complex pair:

              1             2
 
    1     0.00037703    0.00064665
    2     0.00064665    0.01632375
 real eigenvalues of metric:

              1
 
    1     0.00035085
    2     0.01634993
 eigenvectors of metric:

              1             2
 
    1     0.99918152    0.04045109
    2    -0.04045109    0.99918152
 inverse square root of overlap matrix:

              1             2
 
    1    53.31272158   -1.84171199
    2    -1.84171199    7.89519667
 recalculated overlap matrix for complex pair:

              1             2
 
    1     1.00000000    0.00000000
    2     0.00000000    1.00000000
 dabs(Rj-Ri):           1          12  0.120377956237283     
 dabs(Ij+Ii):           1          12  5.874757784083341E-003
 dabs(Rj-Ri):           2          12  0.115837603761068     
 dabs(Ij+Ii):           2          12  5.874757784083341E-003
 dabs(Rj-Ri):           3          12  8.592952547408117E-002
 dabs(Ij+Ii):           3          12  5.874757784083341E-003
 dabs(Rj-Ri):           4          12  8.503476510906899E-002
 dabs(Ij+Ii):           4          12  5.874757784083341E-003
 dabs(Rj-Ri):           5          12  6.144557662427055E-002
 dabs(Ij+Ii):           5          12  5.874757784083341E-003
 dabs(Rj-Ri):           6          12  4.255917232923667E-002
 dabs(Ij+Ii):           6          12  5.874757784083341E-003
 dabs(Rj-Ri):           7          12  4.230315477725660E-002
 dabs(Ij+Ii):           7          12  5.874757784083341E-003
 dabs(Rj-Ri):           8          12  3.376974715985817E-002
 dabs(Ij+Ii):           8          12  5.874757784083341E-003
 dabs(Rj-Ri):           9          12  1.813064859077293E-002
 dabs(Ij+Ii):           9          12  5.874757784083341E-003
 dabs(Rj-Ri):          10          12  9.269013628564637E-003
 dabs(Ij+Ii):          10          12  5.874757784083341E-003
 dabs(Rj-Ri):          11          12  0.000000000000000E+000
 dabs(Ij+Ii):          11          12  0.000000000000000E+000
 dabs(Rj-Ri):          13          12  1.151613530327056E-003
 dabs(Ij+Ii):          13          12  5.874757784083341E-003
 dabs(Rj-Ri):          14          12  1.566135726146584E-002
 dabs(Ij+Ii):          14          12  5.874757784083341E-003
 dabs(Rj-Ri):          15          12  1.677366474260578E-002
 dabs(Ij+Ii):          15          12  5.874757784083341E-003
 dabs(Rj-Ri):          16          12  7.525942898980520E-002
 dabs(Ij+Ii):          16          12  5.874757784083341E-003
 dabs(Rj-Ri):          17          12  0.130136345296439     
 dabs(Ij+Ii):          17          12  5.874757784083341E-003
 dabs(Rj-Ri):          18          12  0.230821665091276     
 dabs(Ij+Ii):          18          12  5.874757784083341E-003
 dabs(Rj-Ri):          19          12  0.265623533628178     
 dabs(Ij+Ii):          19          12  5.874757784083341E-003
 dabs(Rj-Ri):          20          12  0.668649838231878     
 dabs(Ij+Ii):          20          12  5.874757784083341E-003
 dabs(Rj-Ri):          21          12   1.09700556166862     
 dabs(Ij+Ii):          21          12  5.874757784083341E-003
 overlap matrix for complex pair:

              1             2
 
    1     1.00000000    0.00000000
    2     0.00000000    1.00000000
 real eigenvalues of metric:

              1
 
    1     1.00000000
    2     1.00000000
 eigenvectors of metric:

              1             2
 
    1     0.99061859   -0.13665582
    2     0.13665582    0.99061859
 inverse square root of overlap matrix:

              1             2
 
    1     1.00000000   -0.00000000
    2    -0.00000000    1.00000000
 recalculated overlap matrix for complex pair:

              1             2
 
    1     1.00000000   -0.00000000
    2    -0.00000000    1.00000000
 warning> found low lying complex root...
 eigenvalues (imaginary parts) in redeig:

              1
 
    1     0.00000000
    2     0.00000000
    3     0.00000000
    4     0.00000000
    5     0.00000000
    6     0.00000000
    7     0.00000000
    8     0.00000000
    9     0.00000000
   10     0.00000000
   11    -0.00587476
   12     0.00587476
   13     0.00000000
   14     0.00000000
   15     0.00000000
   16     0.00000000
   17     0.00000000
   18     0.00000000
   19     0.00000000
   20     0.00000000
   21     0.00000000
 eigenvalues (real parts) in redeig:

              1
 
    1     0.13325687
    2     0.13779722
    3     0.16770530
    4     0.16860006
    5     0.19218925
    6     0.21107565
    7     0.21133167
    8     0.21986508
    9     0.23550418
   10     0.24436581
   11     0.25363483
   12     0.25363483
   13     0.25478644
   14     0.26929618
   15     0.27040849
   16     0.32889425
   17     0.38377117
   18     0.48445649
   19     0.51925836
   20     0.92228466
   21     1.35064039
     18       1         1.09     0.16E-01  ( 11)
 COSMO cphf update
 COSMO cphf update
 dabs(Rj-Ri):           1          11  0.120372662836872     
 dabs(Ij+Ii):           1          11  5.887182154009387E-003
 dabs(Rj-Ri):           2          11  0.115832311923812     
 dabs(Ij+Ii):           2          11  5.887182154009387E-003
 dabs(Rj-Ri):           3          11  8.592425274005799E-002
 dabs(Ij+Ii):           3          11  5.887182154009387E-003
 dabs(Rj-Ri):           4          11  8.502947330679306E-002
 dabs(Ij+Ii):           4          11  5.887182154009387E-003
 dabs(Rj-Ri):           5          11  6.144028479951857E-002
 dabs(Ij+Ii):           5          11  5.887182154009387E-003
 dabs(Rj-Ri):           6          11  4.255388108015473E-002
 dabs(Ij+Ii):           6          11  5.887182154009387E-003
 dabs(Rj-Ri):           7          11  4.229786869340124E-002
 dabs(Ij+Ii):           7          11  5.887182154009387E-003
 dabs(Rj-Ri):           8          11  3.376444752405214E-002
 dabs(Ij+Ii):           8          11  5.887182154009387E-003
 dabs(Rj-Ri):           9          11  1.812535505457169E-002
 dabs(Ij+Ii):           9          11  5.887182154009387E-003
 dabs(Rj-Ri):          10          11  9.263721792504509E-003
 dabs(Ij+Ii):          10          11  5.887182154009387E-003
 dabs(Rj-Ri):          12          11  0.000000000000000E+000
 dabs(Ij+Ii):          12          11  0.000000000000000E+000
 dabs(Rj-Ri):          13          11  1.157461544417593E-003
 dabs(Ij+Ii):          13          11  5.887182154009387E-003
 dabs(Rj-Ri):          14          11  1.566654844509063E-002
 dabs(Ij+Ii):          14          11  5.887182154009387E-003
 dabs(Rj-Ri):          15          11  1.677895163798354E-002
 dabs(Ij+Ii):          15          11  5.887182154009387E-003
 dabs(Rj-Ri):          16          11  6.638417164496441E-002
 dabs(Ij+Ii):          16          11  5.887182154009387E-003
 dabs(Rj-Ri):          17          11  9.637034275024875E-002
 dabs(Ij+Ii):          17          11  5.887182154009387E-003
 dabs(Rj-Ri):          18          11  0.191869245636179     
 dabs(Ij+Ii):          18          11  5.887182154009387E-003
 dabs(Rj-Ri):          19          11  0.240876711672820     
 dabs(Ij+Ii):          19          11  5.887182154009387E-003
 dabs(Rj-Ri):          20          11  0.490178316473378     
 dabs(Ij+Ii):          20          11  5.887182154009387E-003
 dabs(Rj-Ri):          21          11  0.851005166938276     
 dabs(Ij+Ii):          21          11  5.887182154009387E-003
 dabs(Rj-Ri):          22          11   1.15220178343769     
 dabs(Ij+Ii):          22          11  5.887182154009387E-003
 overlap matrix for complex pair:

              1             2
 
    1     0.00094346   -0.00341703
    2    -0.00341703    0.02261943
 real eigenvalues of metric:

              1
 
    1     0.00041755
    2     0.02314533
 eigenvectors of metric:

              1             2
 
    1     0.98836260   -0.15211632
    2     0.15211632    0.98836260
 inverse square root of overlap matrix:

              1             2
 
    1    47.95737839    6.36935140
    2     6.36935140    7.55336044
 recalculated overlap matrix for complex pair:

              1             2
 
    1     1.00000000    0.00000000
    2     0.00000000    1.00000000
 dabs(Rj-Ri):           1          12  0.120372662836872     
 dabs(Ij+Ii):           1          12  5.887182154009387E-003
 dabs(Rj-Ri):           2          12  0.115832311923812     
 dabs(Ij+Ii):           2          12  5.887182154009387E-003
 dabs(Rj-Ri):           3          12  8.592425274005799E-002
 dabs(Ij+Ii):           3          12  5.887182154009387E-003
 dabs(Rj-Ri):           4          12  8.502947330679306E-002
 dabs(Ij+Ii):           4          12  5.887182154009387E-003
 dabs(Rj-Ri):           5          12  6.144028479951857E-002
 dabs(Ij+Ii):           5          12  5.887182154009387E-003
 dabs(Rj-Ri):           6          12  4.255388108015473E-002
 dabs(Ij+Ii):           6          12  5.887182154009387E-003
 dabs(Rj-Ri):           7          12  4.229786869340124E-002
 dabs(Ij+Ii):           7          12  5.887182154009387E-003
 dabs(Rj-Ri):           8          12  3.376444752405214E-002
 dabs(Ij+Ii):           8          12  5.887182154009387E-003
 dabs(Rj-Ri):           9          12  1.812535505457169E-002
 dabs(Ij+Ii):           9          12  5.887182154009387E-003
 dabs(Rj-Ri):          10          12  9.263721792504509E-003
 dabs(Ij+Ii):          10          12  5.887182154009387E-003
 dabs(Rj-Ri):          11          12  0.000000000000000E+000
 dabs(Ij+Ii):          11          12  0.000000000000000E+000
 dabs(Rj-Ri):          13          12  1.157461544417593E-003
 dabs(Ij+Ii):          13          12  5.887182154009387E-003
 dabs(Rj-Ri):          14          12  1.566654844509063E-002
 dabs(Ij+Ii):          14          12  5.887182154009387E-003
 dabs(Rj-Ri):          15          12  1.677895163798354E-002
 dabs(Ij+Ii):          15          12  5.887182154009387E-003
 dabs(Rj-Ri):          16          12  6.638417164496441E-002
 dabs(Ij+Ii):          16          12  5.887182154009387E-003
 dabs(Rj-Ri):          17          12  9.637034275024875E-002
 dabs(Ij+Ii):          17          12  5.887182154009387E-003
 dabs(Rj-Ri):          18          12  0.191869245636179     
 dabs(Ij+Ii):          18          12  5.887182154009387E-003
 dabs(Rj-Ri):          19          12  0.240876711672820     
 dabs(Ij+Ii):          19          12  5.887182154009387E-003
 dabs(Rj-Ri):          20          12  0.490178316473378     
 dabs(Ij+Ii):          20          12  5.887182154009387E-003
 dabs(Rj-Ri):          21          12  0.851005166938276     
 dabs(Ij+Ii):          21          12  5.887182154009387E-003
 dabs(Rj-Ri):          22          12   1.15220178343769     
 dabs(Ij+Ii):          22          12  5.887182154009387E-003
 overlap matrix for complex pair:

              1             2
 
    1     1.00000000    0.00000000
    2     0.00000000    1.00000000
 real eigenvalues of metric:

              1
 
    1     1.00000000
    2     1.00000000
 eigenvectors of metric:

              1             2
 
    1     0.96224743    0.27217620
    2    -0.27217620    0.96224743
 inverse square root of overlap matrix:

              1             2
 
    1     1.00000000   -0.00000000
    2    -0.00000000    1.00000000
 recalculated overlap matrix for complex pair:

              1             2
 
    1     1.00000000   -0.00000000
    2    -0.00000000    1.00000000
 warning> found low lying complex root...
 eigenvalues (imaginary parts) in redeig:

              1
 
    1     0.00000000
    2     0.00000000
    3     0.00000000
    4     0.00000000
    5     0.00000000
    6     0.00000000
    7     0.00000000
    8     0.00000000
    9     0.00000000
   10     0.00000000
[...]
 | E_exci (ground to x state)      |     0.23550481  |
 | Correction for fast part of RF  |    -0.00133542  |
 | Correction for update of eq. RF |     0.00000307  |
 +---------------------------------+-----------------+


  +=========================================================================+
  |  Excited state reached by transition:                   model: ADC(2)   |
  |    number, symmetry, multiplicity:   10 a    1                          |
  |    frequency :   0.2443650511 a.u.     6.64951 e.V.     53631.9 rcm     |
  +=========================================================================+

      Total energy of excited state:    -491.1823281568

   +-----------------+-----------------+-----------------+-----------------+
   | operator        | expect. value   | electr. contrib.| diff to gr.st.  |
   +-----------------+-----------------+-----------------+-----------------+
   | xdiplen (unrel) |      3.92975370 |     92.07200972 |     -0.12480369 |
   | xdiplen (relax) |      3.47493730 |     91.61719332 |       ---       |
   | ydiplen (unrel) |      0.00234513 |      0.00234513 |      0.00249230 |
   | ydiplen (relax) |      0.00209953 |      0.00209953 |       ---       |
   | zdiplen (unrel) |      0.13136008 |      1.58899750 |     -0.06634091 |
   | zdiplen (relax) |      0.13892044 |      1.59655786 |       ---       |
   +-----------------+-----------------+-----------------+-----------------+


     Analysis of relaxed properties:
     ===============================


     dipole moment:
     --------------

     x      3.47493730
     y      0.00209953
     z      0.13892044

     | dipole moment | =      3.47771369 a.u. =      8.83946566 debye
 


     Analysis of unrelaxed properties:
     =================================


     dipole moment:
     --------------

     x      3.92975370
     y      0.00234513
     z      0.13136008

     | dipole moment | =      3.93194928 a.u. =      9.99401726 debye
 

 +---------------------------------+-----------------+
 |   Nonequilibrium solvation      |                 |
 +---------------------------------+-----------------+
 |   E_x_(y) is the total free energy of target      |
 |   state x in the reaction field (RF)              |
 |   equilibrated for state y                        |
 +---------------------------------+-----------------+
 | E_x_(y)                         |  -491.18483674  |
 | E_x_(y) (+OCC)                  |  -491.18701859  |
 | Outlying charge correction(OCC) |    -0.00218185  |
 | E_SCF with RF of state y        |  -489.42278912  |
 | E_corr (ground state)           |    -2.00390409  |
 | E_exci (ground to x state)      |     0.24436505  |
 | Correction for fast part of RF  |    -0.00250940  |
 | Correction for update of eq. RF |     0.00000083  |
 +---------------------------------+-----------------+


  +=========================================================================+
  |  Excited state reached by transition:                   model: ADC(2)   |
  |    number, symmetry, multiplicity:   11 a    1                          |
  |    frequency :   0.2494204554 a.u.     6.78708 e.V.     54741.5 rcm     |
  +=========================================================================+

      Total energy of excited state:    -491.1772727526

   +-----------------+-----------------+-----------------+-----------------+
   | operator        | expect. value   | electr. contrib.| diff to gr.st.  |
   +-----------------+-----------------+-----------------+-----------------+
   | xdiplen (unrel) |      7.33210451 |     95.47436053 |      3.27754712 |
   | xdiplen (relax) |      6.75549908 |     94.89775510 |       ---       |
   | ydiplen (unrel) |     -0.00007735 |     -0.00007735 |      0.00006983 |
   | ydiplen (relax) |     -0.00013500 |     -0.00013500 |       ---       |
   | zdiplen (unrel) |      0.17300464 |      1.63064206 |     -0.02469636 |
   | zdiplen (relax) |      0.18017952 |      1.63781694 |       ---       |
   +-----------------+-----------------+-----------------+-----------------+


     Analysis of relaxed properties:
     ===============================


     dipole moment:
     --------------

     x      6.75549908
     y     -0.00013500
     z      0.18017952

     | dipole moment | =      6.75790149 a.u. =     17.17687061 debye
 


     Analysis of unrelaxed properties:
     =================================


     dipole moment:
     --------------

     x      7.33210451
     y     -0.00007735
     z      0.17300464

     | dipole moment | =      7.33414529 a.u. =     18.64153613 debye
 

 +---------------------------------+-----------------+
 |   Nonequilibrium solvation      |                 |
 +---------------------------------+-----------------+
 |   E_x_(y) is the total free energy of target      |
 |   state x in the reaction field (RF)              |
 |   equilibrated for state y                        |
 +---------------------------------+-----------------+
 | E_x_(y)                         |  -491.18053005  |
 | E_x_(y) (+OCC)                  |  -491.18108112  |
 | Outlying charge correction(OCC) |    -0.00055106  |
 | E_SCF with RF of state y        |  -489.42278912  |
 | E_corr (ground state)           |    -2.00390409  |
 | E_exci (ground to x state)      |     0.24942046  |
 | Correction for fast part of RF  |    -0.00326813  |
 | Correction for update of eq. RF |     0.00001083  |
 +---------------------------------+-----------------+


  +=========================================================================+
  |  Excited state reached by transition:                   model: ADC(2)   |
  |    number, symmetry, multiplicity:   12 a    1                          |
  |    frequency :   0.2549270174 a.u.     6.93692 e.V.     55950.0 rcm     |
  +=========================================================================+

      Total energy of excited state:    -491.1717661906

   +-----------------+-----------------+-----------------+-----------------+
   | operator        | expect. value   | electr. contrib.| diff to gr.st.  |
   +-----------------+-----------------+-----------------+-----------------+
   | xdiplen (unrel) |      5.35462906 |     93.49688508 |      1.30007167 |
   | xdiplen (relax) |      4.78069133 |     92.92294735 |       ---       |
   | ydiplen (unrel) |     -0.00265863 |     -0.00265863 |     -0.00251146 |
   | ydiplen (relax) |     -0.00242270 |     -0.00242270 |       ---       |
   | zdiplen (unrel) |      0.15386076 |      1.61149818 |     -0.04384023 |
   | zdiplen (relax) |      0.15814130 |      1.61577871 |       ---       |
   +-----------------+-----------------+-----------------+-----------------+


     Analysis of relaxed properties:
     ===============================


     dipole moment:
     --------------

     x      4.78069133
     y     -0.00242270
     z      0.15814130

     | dipole moment | =      4.78330682 a.u. =     12.15795206 debye
 


     Analysis of unrelaxed properties:
     =================================


     dipole moment:
     --------------

     x      5.35462906
     y     -0.00265863
     z      0.15386076

     | dipole moment | =      5.35683979 a.u. =     13.61572735 debye
 

 +---------------------------------+-----------------+
 |   Nonequilibrium solvation      |                 |
 +---------------------------------+-----------------+
 |   E_x_(y) is the total free energy of target      |
 |   state x in the reaction field (RF)              |
 |   equilibrated for state y                        |
 +---------------------------------+-----------------+
 | E_x_(y)                         |  -491.17374848  |
 | E_x_(y) (+OCC)                  |  -491.17557597  |
 | Outlying charge correction(OCC) |    -0.00182749  |
 | E_SCF with RF of state y        |  -489.42278912  |
 | E_corr (ground state)           |    -2.00390409  |
 | E_exci (ground to x state)      |     0.25492702  |
 | Correction for fast part of RF  |    -0.00198427  |
 | Correction for update of eq. RF |     0.00000199  |
 +---------------------------------+-----------------+


  +=========================================================================+
  |  Excited state reached by transition:                   model: ADC(2)   |
  |    number, symmetry, multiplicity:   13 a    1                          |
  |    frequency :   0.2569995421 a.u.     6.99331 e.V.     56404.9 rcm     |
  +=========================================================================+

      Total energy of excited state:    -491.1696936659

   +-----------------+-----------------+-----------------+-----------------+
   | operator        | expect. value   | electr. contrib.| diff to gr.st.  |
   +-----------------+-----------------+-----------------+-----------------+
   | xdiplen (unrel) |      4.17498213 |     92.31723815 |      0.12042474 |
   | xdiplen (relax) |      3.76147185 |     91.90372787 |       ---       |
   | ydiplen (unrel) |     -0.00067286 |     -0.00067286 |     -0.00052568 |
   | ydiplen (relax) |     -0.00046580 |     -0.00046580 |       ---       |
   | zdiplen (unrel) |      0.20032724 |      1.65796466 |      0.00262625 |
   | zdiplen (relax) |      0.19884444 |      1.65648186 |       ---       |
   +-----------------+-----------------+-----------------+-----------------+


     Analysis of relaxed properties:
     ===============================


     dipole moment:
     --------------

     x      3.76147185
     y     -0.00046580
     z      0.19884444

     | dipole moment | =      3.76672402 a.u. =      9.57405656 debye
 


     Analysis of unrelaxed properties:
     =================================


     dipole moment:
     --------------

     x      4.17498213
     y     -0.00067286
     z      0.20032724

     | dipole moment | =      4.17978555 a.u. =     10.62395415 debye
 

 +---------------------------------+-----------------+
 |   Nonequilibrium solvation      |                 |
 +---------------------------------+-----------------+
 |   E_x_(y) is the total free energy of target      |
 |   state x in the reaction field (RF)              |
 |   equilibrated for state y                        |
 +---------------------------------+-----------------+
 | E_x_(y)                         |  -491.16980146  |
 | E_x_(y) (+OCC)                  |  -491.17017046  |
 | Outlying charge correction(OCC) |    -0.00036901  |
 | E_SCF with RF of state y        |  -489.42278912  |
 | E_corr (ground state)           |    -2.00390409  |
 | E_exci (ground to x state)      |     0.25699954  |
 | Correction for fast part of RF  |    -0.00010748  |
 | Correction for update of eq. RF |    -0.00000031  |
 +---------------------------------+-----------------+


  +=========================================================================+
  |  Excited state reached by transition:                   model: ADC(2)   |
  |    number, symmetry, multiplicity:   14 a    1                          |
  |    frequency :   0.2617629780 a.u.     7.12293 e.V.     57450.3 rcm     |
  +=========================================================================+

      Total energy of excited state:    -491.1649302299

   +-----------------+-----------------+-----------------+-----------------+
   | operator        | expect. value   | electr. contrib.| diff to gr.st.  |
   +-----------------+-----------------+-----------------+-----------------+
   | xdiplen (unrel) |     -1.10780018 |     87.03445584 |     -5.16235757 |
   | xdiplen (relax) |      1.07986259 |     89.22211861 |       ---       |
   | ydiplen (unrel) |     -0.00014170 |     -0.00014170 |      0.00000548 |
   | ydiplen (relax) |     -0.00013876 |     -0.00013876 |       ---       |
   | zdiplen (unrel) |      0.20473433 |      1.66237175 |      0.00703333 |
   | zdiplen (relax) |      0.19523911 |      1.65287653 |       ---       |
   +-----------------+-----------------+-----------------+-----------------+


     Analysis of relaxed properties:
     ===============================


     dipole moment:
     --------------

     x      1.07986259
     y     -0.00013876
     z      0.19523911

     | dipole moment | =      1.09737028 a.u. =      2.78923678 debye
 


     Analysis of unrelaxed properties:
     =================================


     dipole moment:
     --------------

     x     -1.10780018
     y     -0.00014170
     z      0.20473433

     | dipole moment | =      1.12655999 a.u. =      2.86342960 debye
 

 +---------------------------------+-----------------+
 |   Nonequilibrium solvation      |                 |
 +---------------------------------+-----------------+
 |   E_x_(y) is the total free energy of target      |
 |   state x in the reaction field (RF)              |
 |   equilibrated for state y                        |
 +---------------------------------+-----------------+
 | E_x_(y)                         |  -491.17002235  |
 | E_x_(y) (+OCC)                  |  -491.17058352  |
 | Outlying charge correction(OCC) |    -0.00056117  |
 | E_SCF with RF of state y        |  -489.42278912  |
 | E_corr (ground state)           |    -2.00390409  |
 | E_exci (ground to x state)      |     0.26176298  |
 | Correction for fast part of RF  |    -0.00507911  |
 | Correction for update of eq. RF |    -0.00001300  |
 +---------------------------------+-----------------+


  +=========================================================================+
  |  Excited state reached by transition:                   model: ADC(2)   |
  |    number, symmetry, multiplicity:   15 a    1                          |
  |    frequency :   0.2704107065 a.u.     7.35825 e.V.     59348.3 rcm     |
  +=========================================================================+

      Total energy of excited state:    -491.1562825015

   +-----------------+-----------------+-----------------+-----------------+
   | operator        | expect. value   | electr. contrib.| diff to gr.st.  |
   +-----------------+-----------------+-----------------+-----------------+
   | xdiplen (unrel) |      5.04946739 |     93.19172342 |      0.99491000 |
   | xdiplen (relax) |      4.61887216 |     92.76112818 |       ---       |
   | ydiplen (unrel) |     -0.00048611 |     -0.00048611 |     -0.00033893 |
   | ydiplen (relax) |     -0.00050104 |     -0.00050104 |       ---       |
   | zdiplen (unrel) |      0.16481994 |      1.62245735 |     -0.03288106 |
   | zdiplen (relax) |      0.16497343 |      1.62261085 |       ---       |
   +-----------------+-----------------+-----------------+-----------------+


     Analysis of relaxed properties:
     ===============================


     dipole moment:
     --------------

     x      4.61887216
     y     -0.00050104
     z      0.16497343

     | dipole moment | =      4.62181745 a.u. =     11.74748707 debye
 


     Analysis of unrelaxed properties:
     =================================


     dipole moment:
     --------------

     x      5.04946739
     y     -0.00048611
     z      0.16481994

     | dipole moment | =      5.05215665 a.u. =     12.84130011 debye
 

 +---------------------------------+-----------------+
 |   Nonequilibrium solvation      |                 |
 +---------------------------------+-----------------+
 |   E_x_(y) is the total free energy of target      |
 |   state x in the reaction field (RF)              |
 |   equilibrated for state y                        |
 +---------------------------------+-----------------+
 | E_x_(y)                         |  -491.15714062  |
 | E_x_(y) (+OCC)                  |  -491.15727140  |
 | Outlying charge correction(OCC) |    -0.00013077  |
 | E_SCF with RF of state y        |  -489.42278912  |
 | E_corr (ground state)           |    -2.00390409  |
 | E_exci (ground to x state)      |     0.27041071  |
 | Correction for fast part of RF  |    -0.00086046  |
 | Correction for update of eq. RF |     0.00000234  |
 +---------------------------------+-----------------+
 Exporting excited state densities


 =============================================
 | SUMMARY OF RELAXED EXCITATIONS WITH COSMO |
 =============================================

 Explanation of the quantities below:

       E(diff)_x = E_x - E*_y
       E(exci)_x = E_x - E_gs

  E_x  : noneq.        energy of state x
  E*_y : eq.           energy of state y
  E_gs : noneq. or eq. energy of groundstate
  OCC  : outlying charge correction

 The * in column 'sym' marks the equilibrated state

 +=================================================================================+
 | sym | multi | state | COSMO-ADC(2) energy differences                           |
 |     |       |       +-----------------------------------------------------------+
 |     |       |       | E(Total)/au. |  E(diff)/eV  |  E(exci)/eV  |E(exc(OCC))/eV|
 +=================================================================================+
 |*a   |   1   |   0   | -491.4266932 |            - |            - |            - |
 +-----+-------+-------+--------------+--------------+--------------+--------------+
 | a   |   1   |   1   | -491.2971002 |      3.52641 |      3.52641 |      3.52034 |
 +-----+-------+-------+--------------+--------------+--------------+--------------+
 | a   |   1   |   2   | -491.2893068 |      3.73848 |      3.73848 |      3.73849 |
 +-----+-------+-------+--------------+--------------+--------------+--------------+
 | a   |   1   |   3   | -491.2595164 |      4.54911 |      4.54911 |      4.54857 |
 +-----+-------+-------+--------------+--------------+--------------+--------------+
 | a   |   1   |   4   | -491.2583140 |      4.58183 |      4.58183 |      4.58131 |
 +-----+-------+-------+--------------+--------------+--------------+--------------+
 | a   |   1   |   5   | -491.2358780 |      5.19234 |      5.19234 |      5.18947 |
 +-----+-------+-------+--------------+--------------+--------------+--------------+
 | a   |   1   |   6   | -491.2156539 |      5.74267 |      5.74267 |      5.74213 |
 +-----+-------+-------+--------------+--------------+--------------+--------------+
 | a   |   1   |   7   | -491.2160681 |      5.73140 |      5.73140 |      5.72167 |
 +-----+-------+-------+--------------+--------------+--------------+--------------+
 | a   |   1   |   8   | -491.2077029 |      5.95903 |      5.95903 |      5.95872 |
 +-----+-------+-------+--------------+--------------+--------------+--------------+
 | a   |   1   |   9   | -491.1925208 |      6.37216 |      6.37216 |      6.36286 |
 +-----+-------+-------+--------------+--------------+--------------+--------------+
 | a   |   1   |  10   | -491.1848367 |      6.58125 |      6.58125 |      6.53145 |
 +-----+-------+-------+--------------+--------------+--------------+--------------+
 | a   |   1   |  11   | -491.1805301 |      6.69844 |      6.69844 |      6.69301 |
 +-----+-------+-------+--------------+--------------+--------------+--------------+
 | a   |   1   |  12   | -491.1737485 |      6.88298 |      6.88298 |      6.84281 |
 +-----+-------+-------+--------------+--------------+--------------+--------------+
 | a   |   1   |  13   | -491.1698015 |      6.99038 |      6.99038 |      6.98991 |
 +-----+-------+-------+--------------+--------------+--------------+--------------+
 | a   |   1   |  14   | -491.1700223 |      6.98437 |      6.98437 |      6.97867 |
 +-----+-------+-------+--------------+--------------+--------------+--------------+
 | a   |   1   |  15   | -491.1571406 |      7.33490 |      7.33490 |      7.34091 |
 +=================================================================================+



    ------------------------------------------------------------------------
         total  cpu-time :  8 hours 54 minutes and  0 seconds
         total wall-time : 10 hours 51 minutes and  3 seconds
    ------------------------------------------------------------------------


   ****  ricc2 : all done  ****


    2023-02-08 19:36:42.609 

