 hostname is         dlt12.abaxnet
 this is node-proc. number 0 running on node dlt12.abaxnet
 the total number of node-proc. spawned is   1

 ricc2 (dlt12.abaxnet) : TURBOMOLE V6.6( 19125 ) 27 May 2014 at 14:24:19
 Copyright (C) 2014 TURBOMOLE GmbH, Karlsruhe


    2023-02-07 10:46:55.624 



                              R I C C 2 - PROGRAM

                          the quantum chemistry groups
                             at the universities in
                           Karlsruhe, Bochum & Mainz
                                   Germany



   *-----------------------------------------------------------------------*
   |                     program will use  1 thread(s)                     |
   *-----------------------------------------------------------------------*


              +--------------------------------------------------+
              | Atomic coordinate, charge and isotop information |
              +--------------------------------------------------+

                    atomic coordinates            atom    charge  isotop
         -1.25885736   -2.28351270   -0.02408326    c      6.000     0
         -2.55788156    0.00000024   -0.02283793    c      6.000     0
         -1.25885736    2.28351317   -0.02409082    c      6.000     0
          1.33182489    2.28530652   -0.02600322    c      6.000     0
          2.68687380    0.00000024   -0.02538906    c      6.000     0
          1.33182489   -2.28530605   -0.02599377    c      6.000     0
         -2.29745462   -4.03859773   -0.02159827    h      1.000     0
         -2.29745273    4.03859821   -0.02161339    h      1.000     0
          2.35100899    4.05743122   -0.02819152    h      1.000     0
          2.35100710   -4.05743074   -0.02817263    h      1.000     0
         -5.27263756    0.00000024   -0.01723867    n      7.000     0
         -6.38139468    2.02692616   -0.01484250    o      8.000     0
         -6.38139279   -2.02692757   -0.01486518    o      8.000     0
          5.24307421    0.00000024   -0.06737689    n      7.000     0
          6.20515835    1.61775131    0.18115045    h      1.000     0
          6.20515646   -1.61775273    0.18114667    h      1.000     0
 
       center of nuclear mass  :   -1.36607438    0.00000000   -0.02300859
       center of nuclear charge:   -1.22419800    0.00000000   -0.02024496

              +--------------------------------------------------+
              |               basis set information              |
              +--------------------------------------------------+

              we will work with the 1s 3p 5d 7f 9g ... basis set
              ...i.e. with spherical basis functions...

   type   atoms  prim   cont   basis
   ---------------------------------------------------------------------------
    c        6     52     37   def2-TZVPD   [6s3p3d1f|12s6p3d1f]
    h        6     11      9   def2-TZVPD   [3s2p|5s2p]
    n        2     52     37   def2-TZVPD   [6s3p3d1f|12s6p3d1f]
    o        2     55     40   def2-TZVPD   [6s4p3d1f|12s7p3d1f]
   ---------------------------------------------------------------------------
   total:   16    592    430
   ---------------------------------------------------------------------------

   total number of primitive shells          :   74
   total number of contracted shells         :  162
   total number of cartesian basis functions :  490
   total number of SCF-basis functions       :  430



   =========================================================================


     restricted closed shell calculation for the wavefunction models:
               ADC(2)     - Algebraic Diagrammatic Construction to 2. Order (strict)


     global parameters for ricc2 program:

        hard restart (reuse of interm.) :  enabled 
        soft restart (reuse of vectors) :  disabled
        threshold for vector function   :    0.100000E-06
        convergence threshold energy    :    0.100000E-07
        linear dependence threshold     :    0.100000E-13
        global print level              :      1
        maximum number of iterations    :   500
        maximum number DIIS vectors     :    10
        max. dim. of reduced space      :   100
        core memory limit (MB)          :   500
        disk space limit (MB)           :   none


   =========================================================================
     "cartesian on" in $drvopt is ignored by $ricc2

    der. integral neglect threshold  :  0.10E-08
    integral neglect threshold       :  0.68E-12
    integral storage threshold THIZE :  0.10E-04
    integral storage threshold THIME :         5


                  +------------------------------------------+
                  |     Auxiliary basis set information      |
                  +------------------------------------------+

              we will work with the 1s 3p 5d 7f 9g ... basis set
              ...i.e. with spherical basis functions...

   type   atoms  prim   cont   basis
   ---------------------------------------------------------------------------
    c        6     97     92   def2-TZVPD   [9s7p5d4f1g|9s7p6d4f1g]
    h        6     32     24   def2-TZVPD   [5s3p2d|5s4p3d]
    n        2     97     92   def2-TZVPD   [9s7p5d4f1g|9s7p6d4f1g]
    o        2     97     92   def2-TZVPD   [9s7p5d4f1g|9s7p6d4f1g]
   ---------------------------------------------------------------------------
   total:   16   1162   1064
   ---------------------------------------------------------------------------

   total number of primitive shells          :   93
   total number of contracted shells         :  320
   total number of cartesian basis functions : 1306
   total number of SCF-basis functions       : 1064


 symmetry group of the molecule :   c1 

 the group has the following generators :
   c1(z)

    1 symmetry operations found

 there are 1 real representations :   a   

 maximum number of shells which are related by symmetry :  1


 The symmetry information takes   1 MB

*---------------------------------------------------------------------*
|               simplified C1 algorithm will be applied               |
*---------------------------------------------------------------------*
 ==============================================================================
                      COSMO switched on
 ==============================================================================
            ======================================================
                      COSMO settings in RICC2
                   --------------------------
             Solvent charges are equilibrated for ground state
             "cycle" indicates frozen COSMO charges,
             hence no COSMO CPHF contribution included
             COSMO linear response (LR) contribution included
             Outlying Charge Correction (OCC) is performed
             Using epsilon          =    78.355
             Using refractive index =     1.300
            ======================================================
        IMPORTANT NOTICE: The calculation of the solvent contributions will
         need the relaxed densities in general. Therefore the actual COSMO
         energies will be output only at the end of the run. Any energies
         or excitation energies quoted before that are only intermediate
         quantities and should be ignored unless you know what you are doing!

  MOs are in ASCII format !


 reading orbital data $scfmo  from file mos . 

 orbital characterization : scfconv=7
 

         --------------------------------------------------------------
                   checking mo's by calculating trace(D*S)

              number of electrons : 
                 from trace(D*S)         :   71.999999999997
                 from occupation numbers :   72.000000000000

              molecular charge           :    0.000000000000
         --------------------------------------------------------------

 time elapsed for calculating density matrices :   0.014 sec
 all orbitals will be active in the correlation treatment

  ----------------------------------------------------------------------------
  hard_restart flag is disabled because the check sum for the
  molecular orbitals "$chkmos" differs from the reference value:
  reference value:     4979631.18525297    
  computed value :     4979631.18508643    
  relative error :    0.334440637463153E-10
  tolerance      :    0.100000000000000E-11
  the calculation will proceed...
  ----------------------------------------------------------------------------


   Molecular Orbital Statistic:
   ============================

   -----------------------------
   orbitals in total:
   -----------------------------
    frozen occupied :      0
    active occupied :     36
    active virtual  :    394
    frozen virtual  :      0
    all together    :    430
   -----------------------------


     time in riccmos       cpu:  0.18 sec    wall:  0.31 sec    ratio:  0.6

     total memory allocated for calculation of (Q|P)**(-1/2) : 13 MiB


     calculation of (P|Q) ...
     time in lp2sym        cpu:  0.03 sec    wall:  0.03 sec    ratio:  1.0


     calculation of the Cholesky decomposition of (P|Q)**(-1) ...
     time in invmetri      cpu:  0.11 sec    wall:  0.20 sec    ratio:  0.6

   threshold for RMS(d[D]) in SCF was     :  0.10E-07
   integral neglect threshold             :  0.68E-12
   derivative integral neglect threshold  :  0.10E-08


 setting up bound for integral derivative estimation

 increment for numerical differentiation : 0.00050000

   =========================================================================

     Energy of reference wave function is  -489.4228103503000
     Maximum orbital residual is           0.6229246440362E-05


     Number of symmetry-nonredundant auxiliary basis functions:     1064

     Block lengths for integral files:
        frozen occupied (BOI):        0 MiB
        active occupied (BJI):        1 MiB
        active virtual  (BAI):        4 MiB
        frozen virtual  (BGI):        0 MiB
               general  (BTI):        4 MiB

   =========================================================================




   **************************************************************************
   *                                                                        *
   *          OPTIMIZATION OF THE GROUND STATE CLUSTER AMPLITUDES           *
   *                                                                        *
   **************************************************************************


   Iter.   MP2 energy       Norm(Omega)    Norm(t1)  Norm(t2)     cpu    wall
   ...........................................................................
    1   -491.4266928953    0.1614821041     0.00000   0.44534    0.56    0.67
   ...........................................................................


     time in total         cpu: 33.42 sec    wall: 40.48 sec    ratio:  0.8


     **********************************************************************
     *                                                                    *
     *   RHF  energy                             :   -489.4228103503      *
     *   MP2 correlation energy                  :     -2.0038825450      *
     *                                                                    *
     *   Final MP2 energy                        :   -491.4266928953      *
     *                                                                    *
     *   Norm of MP1 T2 amplitudes               :      0.4453368341      *
     *                                                                    *
     *   D1 diagnostic                           :      0.0594            *
     *                                                                    *
     **********************************************************************

 Using refractive index n                   =    1.30000000000000     
 Screening function (n**2-1)/(n**2+0.5)     =   0.315068493150685     


 **************************************************************
 *                                                            *
 *    OPTIMIZATION OF THE EXCITED STATE CLUSTER AMPLITUDES    *
 *                                                            *
 **************************************************************


  preoptimize excitation energies/vectors using CCS:

  ==================================================


 ======== LINEAR CC RESPONSE SOLVER ========

    threshold for convergence: 0.10E-02
    maximum number of simultaneous jacoby matrix transformations: 15
                                                
     summary of start vectors generation:
     -------------------------------------------
     type of solution vectors      : RE0
     symmetry                      : a  
     number of vectors requested   :    15
     number of vectors generated   :    15
       -- guessed as rhs/(e_a-e_i) :    15
     -------------------------------------------
                                                

    Iter  #Vectors  time (min)    max. residual 
    --------------------------------------------
 COSMO cphf update
 COSMO cphf update
 COSMO cphf update
 COSMO cphf update
 COSMO cphf update
 COSMO cphf update
 COSMO cphf update
 COSMO cphf update
 COSMO cphf update
 COSMO cphf update
 COSMO cphf update
 COSMO cphf update
 COSMO cphf update
 COSMO cphf update
 COSMO cphf update
      1      15         2.33     0.14E+00  (  1)
 COSMO cphf update
 COSMO cphf update
 COSMO cphf update
 COSMO cphf update
 COSMO cphf update
 COSMO cphf update
 COSMO cphf update
 COSMO cphf update
 COSMO cphf update
 COSMO cphf update
 COSMO cphf update
 COSMO cphf update
 COSMO cphf update
 COSMO cphf update
 COSMO cphf update
      2      15         2.39     0.51E-01  (  1)
 COSMO cphf update
 COSMO cphf update
 COSMO cphf update
 COSMO cphf update
 COSMO cphf update
 COSMO cphf update
 COSMO cphf update
 COSMO cphf update
 COSMO cphf update
 COSMO cphf update
 COSMO cphf update
 COSMO cphf update
 COSMO cphf update
 COSMO cphf update
 COSMO cphf update
      3      15         2.43     0.81E-01  (  7)
 COSMO cphf update
 COSMO cphf update
 COSMO cphf update
 COSMO cphf update
 COSMO cphf update
 COSMO cphf update
 COSMO cphf update
 COSMO cphf update
 COSMO cphf update
 COSMO cphf update
 COSMO cphf update
 COSMO cphf update
 COSMO cphf update
 COSMO cphf update
 COSMO cphf update
      4      15         2.31     0.14E+00  ( 14)
 COSMO cphf update
 COSMO cphf update
 COSMO cphf update
 COSMO cphf update
 COSMO cphf update
 COSMO cphf update
 COSMO cphf update
 COSMO cphf update
 COSMO cphf update
 COSMO cphf update
 COSMO cphf update
 COSMO cphf update
 COSMO cphf update
 COSMO cphf update
 COSMO cphf update
      5      15         2.34     0.17E+00  ( 14)
 COSMO cphf update
 COSMO cphf update
 COSMO cphf update
 COSMO cphf update
 COSMO cphf update
 COSMO cphf update
 COSMO cphf update
 COSMO cphf update
 COSMO cphf update
 COSMO cphf update
 COSMO cphf update
 COSMO cphf update
 COSMO cphf update
 COSMO cphf update
 COSMO cphf update
  dimension of red. space became too large.
  try internal restart...
      6      15         2.35     0.87E-01  (  3)
                                                
     summary of start vectors generation:
     -------------------------------------------
     type of solution vectors      : RE0
     symmetry                      : a  
     number of vectors requested   :    15
     number of vectors generated   :    15
       -- restarted from file      :    15
     -------------------------------------------
                                                

    Iter  #Vectors  time (min)    max. residual 
    --------------------------------------------
 COSMO cphf update
 COSMO cphf update
 COSMO cphf update
 COSMO cphf update
 COSMO cphf update
 COSMO cphf update
 COSMO cphf update
 COSMO cphf update
 COSMO cphf update
 COSMO cphf update
 COSMO cphf update
 COSMO cphf update
 COSMO cphf update
 COSMO cphf update
 COSMO cphf update
      7      15         2.33     0.87E-01  (  3)
 COSMO cphf update
 COSMO cphf update
 COSMO cphf update
 COSMO cphf update
 COSMO cphf update
 COSMO cphf update
 COSMO cphf update
 COSMO cphf update
 COSMO cphf update
 COSMO cphf update
 COSMO cphf update
      8      11         1.75     0.29E-01  (  2)
 COSMO cphf update
 COSMO cphf update
 COSMO cphf update
 COSMO cphf update
 COSMO cphf update
 COSMO cphf update
 COSMO cphf update
 COSMO cphf update
 COSMO cphf update
      9       9         1.48     0.95E-02  ( 13)
 COSMO cphf update
 COSMO cphf update
 COSMO cphf update
 COSMO cphf update
 COSMO cphf update
 COSMO cphf update
     10       6         0.96     0.42E-02  ( 13)
 COSMO cphf update
 COSMO cphf update
 COSMO cphf update
 COSMO cphf update
     11       4         0.68     0.13E-02  ( 13)
 COSMO cphf update
     12       1         0.24     0.90E-03  ( 13)
    --------------------------------------------
    converged in 12 iterations

         Total time         21.61 minutes


 ===========================================




 Note that this is the intermediate result of a preoptimization!
 The convergence threshold was  0.1E-02 only!
 COSMO: note that the excitation energies below do not include
        the nonequilibrium contributions yet. These require the
        computation of the relaxed densities. See end of output
        for a final list of corrected excitations.


 +==================================================================+
 | sym | multi | state |          CCS excitation energies           |
 |     |       |       +--------------------------------------------+
 |     |       |       |   Hartree    |     eV       |     cm-1     |
 +==================================================================+
 | a   |   1   |   1   |    0.1788349 |      4.86635 |    39249.729 |
 | a   |   1   |   2   |    0.1974542 |      5.37300 |    43336.198 |
 | a   |   1   |   3   |    0.2035673 |      5.53935 |    44677.855 |
 | a   |   1   |   4   |    0.2130580 |      5.79760 |    46760.821 |
 | a   |   1   |   5   |    0.2295723 |      6.24698 |    50385.306 |
 | a   |   1   |   6   |    0.2452464 |      6.67350 |    53825.372 |
 | a   |   1   |   7   |    0.2576353 |      7.01061 |    56544.421 |
 | a   |   1   |   8   |    0.2583924 |      7.03122 |    56710.587 |
 | a   |   1   |   9   |    0.2627416 |      7.14956 |    57665.120 |
 | a   |   1   |  10   |    0.2659464 |      7.23677 |    58368.485 |
 | a   |   1   |  11   |    0.2788214 |      7.58712 |    61194.227 |
 | a   |   1   |  12   |    0.2831363 |      7.70453 |    62141.244 |
 | a   |   1   |  13   |    0.2850967 |      7.75788 |    62571.496 |
 | a   |   1   |  14   |    0.2933779 |      7.98322 |    64389.000 |
 | a   |   1   |  15   |    0.2952881 |      8.03520 |    64808.252 |
 +==================================================================+




  preoptimize ADC(2) excitation energies/vectors using a quasi linear algorithm:
  ==============================================================================


 ======== LINEAR CC RESPONSE SOLVER ========

    threshold for convergence: 0.10E-02
    maximum number of simultaneous jacoby matrix transformations: 15
                                                
     summary of start vectors generation:
     -------------------------------------------
     type of solution vectors      : RE0
     symmetry                      : a  
     number of vectors requested   :    15
     number of vectors generated   :    15
       -- restarted from file      :    15
     -------------------------------------------
                                                

    Iter  #Vectors  time (min)    max. residual 
    --------------------------------------------
 COSMO cphf update
 COSMO cphf update
 COSMO cphf update
 COSMO cphf update
 COSMO cphf update
 COSMO cphf update
 COSMO cphf update
 COSMO cphf update
 COSMO cphf update
 COSMO cphf update
 COSMO cphf update
 COSMO cphf update
 COSMO cphf update
 COSMO cphf update
 COSMO cphf update
 COSMO cphf update
 COSMO cphf update
 COSMO cphf update
 COSMO cphf update
 COSMO cphf update
 COSMO cphf update
 COSMO cphf update
 COSMO cphf update
 COSMO cphf update
 COSMO cphf update
 COSMO cphf update
 COSMO cphf update
 COSMO cphf update
 COSMO cphf update
 COSMO cphf update
 threshold for this macro iteration:  5.437242923923441E-002
      1      15        13.19     0.93E-01  (  2)
 COSMO cphf update
 COSMO cphf update
 COSMO cphf update
 COSMO cphf update
 COSMO cphf update
 COSMO cphf update
 COSMO cphf update
 COSMO cphf update
 COSMO cphf update
 COSMO cphf update
 COSMO cphf update
 COSMO cphf update
 COSMO cphf update
 COSMO cphf update
 COSMO cphf update
 COSMO cphf update
 ...adapted threshold to:  6.520468304150143E-002
      2       8         6.84     0.37E-01  ( 12)
                                                
     summary of start vectors generation:
     -------------------------------------------
     type of solution vectors      : RE0
     symmetry                      : a  
     number of vectors requested   :    15
     number of vectors generated   :    15
       -- restarted from file      :    15
     -------------------------------------------
                                                

    Iter  #Vectors  time (min)    max. residual 
    --------------------------------------------
 COSMO cphf update
 COSMO cphf update
 COSMO cphf update
 COSMO cphf update
 COSMO cphf update
 COSMO cphf update
 COSMO cphf update
 COSMO cphf update
 COSMO cphf update
 COSMO cphf update
 COSMO cphf update
 COSMO cphf update
 COSMO cphf update
 COSMO cphf update
 COSMO cphf update
 COSMO cphf update
 COSMO cphf update
 COSMO cphf update
 COSMO cphf update
 COSMO cphf update
 COSMO cphf update
 COSMO cphf update
 COSMO cphf update
 COSMO cphf update
 COSMO cphf update
 COSMO cphf update
 COSMO cphf update
 COSMO cphf update
 COSMO cphf update
 COSMO cphf update
 threshold for this macro iteration:  7.196396627074580E-003
      3      15        13.20     0.37E-01  ( 12)
 COSMO cphf update
 COSMO cphf update
 COSMO cphf update
 COSMO cphf update
 COSMO cphf update
 COSMO cphf update
 COSMO cphf update
 COSMO cphf update
 COSMO cphf update
 COSMO cphf update
 COSMO cphf update
 COSMO cphf update
 COSMO cphf update
 COSMO cphf update
 COSMO cphf update
 COSMO cphf update
 COSMO cphf update
 COSMO cphf update
 COSMO cphf update
 COSMO cphf update
 COSMO cphf update
 COSMO cphf update
 COSMO cphf update
 COSMO cphf update
 COSMO cphf update
 COSMO cphf update
 COSMO cphf update
 COSMO cphf update
 COSMO cphf update
 COSMO cphf update
      4      15        13.18     0.15E-01  ( 12)
 COSMO cphf update
 COSMO cphf update
 COSMO cphf update
 COSMO cphf update
 COSMO cphf update
 COSMO cphf update
 COSMO cphf update
 COSMO cphf update
 COSMO cphf update
 COSMO cphf update
 COSMO cphf update
 COSMO cphf update
 COSMO cphf update
 COSMO cphf update
 COSMO cphf update
 COSMO cphf update
 COSMO cphf update
 COSMO cphf update
 COSMO cphf update
 COSMO cphf update
 COSMO cphf update
 COSMO cphf update
 COSMO cphf update
 COSMO cphf update
 COSMO cphf update
 COSMO cphf update
 COSMO cphf update
 COSMO cphf update
      5      14        12.31     0.11E-01  ( 12)
 COSMO cphf update
 COSMO cphf update
 COSMO cphf update
 COSMO cphf update
 COSMO cphf update
 COSMO cphf update
 COSMO cphf update
 COSMO cphf update
      6       4         3.55     0.68E-01  ( 15)
 COSMO cphf update
 COSMO cphf update
 COSMO cphf update
 COSMO cphf update
 COSMO cphf update
 COSMO cphf update
      7       3         2.71     0.26E-01  ( 13)
 COSMO cphf update
 COSMO cphf update
 COSMO cphf update
 COSMO cphf update
      8       2         1.89     0.12E-01  ( 13)
 COSMO cphf update
 COSMO cphf update
      9       1         1.09     0.70E-02  ( 13)
                                                
     summary of start vectors generation:
     -------------------------------------------
     type of solution vectors      : RE0
     symmetry                      : a  
     number of vectors requested   :    15
     number of vectors generated   :    15
       -- restarted from file      :    15
     -------------------------------------------
                                                

    Iter  #Vectors  time (min)    max. residual 
    --------------------------------------------
 COSMO cphf update
 COSMO cphf update
 COSMO cphf update
 COSMO cphf update
 COSMO cphf update
 COSMO cphf update
 COSMO cphf update
 COSMO cphf update
 COSMO cphf update
 COSMO cphf update
 COSMO cphf update
 COSMO cphf update
 COSMO cphf update
 COSMO cphf update
 COSMO cphf update
 COSMO cphf update
 COSMO cphf update
 COSMO cphf update
 COSMO cphf update
 COSMO cphf update
 COSMO cphf update
 COSMO cphf update
 COSMO cphf update
 COSMO cphf update
 COSMO cphf update
 COSMO cphf update
 COSMO cphf update
 COSMO cphf update
 COSMO cphf update
 COSMO cphf update
 threshold for this macro iteration:  8.630103016301016E-003
     10      15        13.18     0.76E-02  ( 11)
                                                
     summary of start vectors generation:
     -------------------------------------------
     type of solution vectors      : RE0
     symmetry                      : a  
     number of vectors requested   :    15
     number of vectors generated   :    15
       -- restarted from file      :    15
     -------------------------------------------
                                                

    Iter  #Vectors  time (min)    max. residual 
    --------------------------------------------
 COSMO cphf update
 COSMO cphf update
 COSMO cphf update
 COSMO cphf update
 COSMO cphf update
 COSMO cphf update
 COSMO cphf update
 COSMO cphf update
 COSMO cphf update
 COSMO cphf update
 COSMO cphf update
 COSMO cphf update
 COSMO cphf update
 COSMO cphf update
 COSMO cphf update
 COSMO cphf update
 COSMO cphf update
 COSMO cphf update
 COSMO cphf update
 COSMO cphf update
 COSMO cphf update
 COSMO cphf update
 COSMO cphf update
 COSMO cphf update
 COSMO cphf update
 COSMO cphf update
 COSMO cphf update
 COSMO cphf update
 COSMO cphf update
 COSMO cphf update
 threshold for this macro iteration:  1.231289274231778E-002
     11      15        13.30     0.21E-01  ( 15)
 COSMO cphf update
 COSMO cphf update
 dabs(Rj-Ri):           1          12  0.124187899723884     
 dabs(Ij+Ii):           1          12  7.129654320754272E-003
 dabs(Rj-Ri):           2          12  0.119453266042482     
 dabs(Ij+Ii):           2          12  7.129654320754272E-003
 dabs(Rj-Ri):           3          12  8.954165396909128E-002
 dabs(Ij+Ii):           3          12  7.129654320754272E-003
 dabs(Rj-Ri):           4          12  8.871335383315937E-002
 dabs(Ij+Ii):           4          12  7.129654320754272E-003
 dabs(Rj-Ri):           5          12  6.520659407236154E-002
 dabs(Ij+Ii):           5          12  7.129654320754272E-003
 dabs(Rj-Ri):           6          12  4.622142227656498E-002
 dabs(Ij+Ii):           6          12  7.129654320754272E-003
 dabs(Rj-Ri):           7          12  4.596451673966784E-002
 dabs(Ij+Ii):           7          12  7.129654320754272E-003
 dabs(Rj-Ri):           8          12  3.748994797977401E-002
 dabs(Ij+Ii):           8          12  7.129654320754272E-003
 dabs(Rj-Ri):           9          12  2.183302503671306E-002
 dabs(Ij+Ii):           9          12  7.129654320754272E-003
 dabs(Rj-Ri):          10          12  1.294599974064881E-002
 dabs(Ij+Ii):          10          12  7.129654320754272E-003
 dabs(Rj-Ri):          11          12  1.575599922714166E-003
 dabs(Ij+Ii):          11          12  7.129654320754272E-003
 dabs(Rj-Ri):          13          12  0.000000000000000E+000
 dabs(Ij+Ii):          13          12  0.000000000000000E+000
 dabs(Rj-Ri):          14          12  1.162994121184846E-002
 dabs(Ij+Ii):          14          12  7.129654320754272E-003
 dabs(Rj-Ri):          15          12  1.307141860308336E-002
 dabs(Ij+Ii):          15          12  7.129654320754272E-003
 dabs(Rj-Ri):          16          12  0.204591234809841     
 dabs(Ij+Ii):          16          12  7.129654320754272E-003
 overlap matrix for complex pair:

              1             2
 
    1     0.03964761    0.00075157
    2     0.00075157    0.00004213
 real eigenvalues of metric:

              1
 
    1     0.03966187
    2     0.00002787
 eigenvectors of metric:

              1             2
 
    1     0.99982013   -0.01896617
    2     0.01896617    0.99982013
 inverse square root of overlap matrix:

              1             2
 
    1     5.08759488   -3.49648449
    2    -3.49648449  189.34187569
 recalculated overlap matrix for complex pair:

              1             2
 
    1     1.00000000   -0.00000000
    2     0.00000000    1.00000000
 dabs(Rj-Ri):           1          13  0.124187899723884     
 dabs(Ij+Ii):           1          13  7.129654320754272E-003
 dabs(Rj-Ri):           2          13  0.119453266042482     
 dabs(Ij+Ii):           2          13  7.129654320754272E-003
 dabs(Rj-Ri):           3          13  8.954165396909128E-002
 dabs(Ij+Ii):           3          13  7.129654320754272E-003
 dabs(Rj-Ri):           4          13  8.871335383315937E-002
 dabs(Ij+Ii):           4          13  7.129654320754272E-003
 dabs(Rj-Ri):           5          13  6.520659407236154E-002
 dabs(Ij+Ii):           5          13  7.129654320754272E-003
 dabs(Rj-Ri):           6          13  4.622142227656498E-002
 dabs(Ij+Ii):           6          13  7.129654320754272E-003
 dabs(Rj-Ri):           7          13  4.596451673966784E-002
 dabs(Ij+Ii):           7          13  7.129654320754272E-003
 dabs(Rj-Ri):           8          13  3.748994797977401E-002
 dabs(Ij+Ii):           8          13  7.129654320754272E-003
 dabs(Rj-Ri):           9          13  2.183302503671306E-002
 dabs(Ij+Ii):           9          13  7.129654320754272E-003
 dabs(Rj-Ri):          10          13  1.294599974064881E-002
 dabs(Ij+Ii):          10          13  7.129654320754272E-003
 dabs(Rj-Ri):          11          13  1.575599922714166E-003
 dabs(Ij+Ii):          11          13  7.129654320754272E-003
 dabs(Rj-Ri):          12          13  0.000000000000000E+000
 dabs(Ij+Ii):          12          13  0.000000000000000E+000
 dabs(Rj-Ri):          14          13  1.162994121184846E-002
 dabs(Ij+Ii):          14          13  7.129654320754272E-003
 dabs(Rj-Ri):          15          13  1.307141860308336E-002
 dabs(Ij+Ii):          15          13  7.129654320754272E-003
 dabs(Rj-Ri):          16          13  0.204591234809841     
 dabs(Ij+Ii):          16          13  7.129654320754272E-003
 overlap matrix for complex pair:

              1             2
 
    1     1.00000000    0.00000000
    2    -0.00000000    1.00000000
 real eigenvalues of metric:

              1
 
    1     1.00000000
    2     1.00000000
 eigenvectors of metric:

              1             2
 
    1     0.99971146    0.02402075
    2    -0.02402075    0.99971146
 inverse square root of overlap matrix:

              1             2
 
    1     1.00000000   -0.00000000
    2    -0.00000000    1.00000000
 recalculated overlap matrix for complex pair:

              1             2
 
    1     1.00000000   -0.00000000
    2    -0.00000000    1.00000000
 warning> found low lying complex root...
 eigenvalues (imaginary parts) in redeig:

              1
 
    1     0.00000000
    2     0.00000000
    3     0.00000000
    4     0.00000000
    5     0.00000000
    6     0.00000000
    7     0.00000000
    8     0.00000000
    9     0.00000000
   10     0.00000000
   11     0.00000000
   12    -0.00712965
   13     0.00712965
   14     0.00000000
   15     0.00000000
   16     0.00000000
 eigenvalues (real parts) in redeig:

              1
 
    1     0.13311802
    2     0.13785266
    3     0.16776427
    4     0.16859257
    5     0.19209933
    6     0.21108450
    7     0.21134140
    8     0.21981597
    9     0.23547290
   10     0.24435992
   11     0.25573032
   12     0.25730592
   13     0.25730592
   14     0.26893586
   15     0.27037734
   16     0.46189716
     12       1         1.09     0.10E+00  ( 13)
 COSMO cphf update
 COSMO cphf update
 dabs(Rj-Ri):           1          11  0.122507261211183     
 dabs(Ij+Ii):           1          11  7.461938355300643E-003
 dabs(Rj-Ri):           2          11  0.117772839125701     
 dabs(Ij+Ii):           2          11  7.461938355300643E-003
 dabs(Rj-Ri):           3          11  8.786122894845771E-002
 dabs(Ij+Ii):           3          11  7.461938355300643E-003
 dabs(Rj-Ri):           4          11  8.703292691644290E-002
 dabs(Ij+Ii):           4          11  7.461938355300643E-003
 dabs(Rj-Ri):           5          11  6.352616715568060E-002
 dabs(Ij+Ii):           5          11  7.461938355300643E-003
 dabs(Rj-Ri):           6          11  4.454099294791414E-002
 dabs(Ij+Ii):           6          11  7.461938355300643E-003
 dabs(Rj-Ri):           7          11  4.428383730277100E-002
 dabs(Ij+Ii):           7          11  7.461938355300643E-003
 dabs(Rj-Ri):           8          11  3.581010294873577E-002
 dabs(Ij+Ii):           8          11  7.461938355300643E-003
 dabs(Rj-Ri):           9          11  2.015044071038796E-002
 dabs(Ij+Ii):           9          11  7.461938355300643E-003
 dabs(Rj-Ri):          10          11  1.126557283719024E-002
 dabs(Ij+Ii):          10          11  7.461938355300643E-003
 dabs(Rj-Ri):          12          11  0.000000000000000E+000
 dabs(Ij+Ii):          12          11  0.000000000000000E+000
 dabs(Rj-Ri):          13          11  1.070389540819283E-004
 dabs(Ij+Ii):          13          11  7.461938355300643E-003
 dabs(Rj-Ri):          14          11  1.334531936013506E-002
 dabs(Ij+Ii):          14          11  7.461938355300643E-003
 dabs(Rj-Ri):          15          11  1.475184122990392E-002
 dabs(Ij+Ii):          15          11  7.461938355300643E-003
 dabs(Rj-Ri):          16          11  0.134298758006777     
 dabs(Ij+Ii):          16          11  7.461938355300643E-003
 dabs(Rj-Ri):          17          11  0.590619298012825     
 dabs(Ij+Ii):          17          11  7.461938355300643E-003
 overlap matrix for complex pair:

              1             2
 
    1     0.01851688   -0.00372353
    2    -0.00372353    0.00078874
 real eigenvalues of metric:

              1
 
    1     0.01926720
    2     0.00003843
 eigenvectors of metric:

              1             2
 
    1     0.98029562    0.19753606
    2    -0.19753606    0.98029562
 inverse square root of overlap matrix:

              1             2
 
    1    13.21776839   29.84262122
    2    29.84262122  155.30175519
 recalculated overlap matrix for complex pair:

              1             2
 
    1     1.00000000   -0.00000000
    2    -0.00000000    1.00000000
 dabs(Rj-Ri):           1          12  0.122507261211183     
 dabs(Ij+Ii):           1          12  7.461938355300643E-003
 dabs(Rj-Ri):           2          12  0.117772839125701     
 dabs(Ij+Ii):           2          12  7.461938355300643E-003
 dabs(Rj-Ri):           3          12  8.786122894845771E-002
 dabs(Ij+Ii):           3          12  7.461938355300643E-003
 dabs(Rj-Ri):           4          12  8.703292691644290E-002
 dabs(Ij+Ii):           4          12  7.461938355300643E-003
 dabs(Rj-Ri):           5          12  6.352616715568060E-002
 dabs(Ij+Ii):           5          12  7.461938355300643E-003
 dabs(Rj-Ri):           6          12  4.454099294791414E-002
 dabs(Ij+Ii):           6          12  7.461938355300643E-003
 dabs(Rj-Ri):           7          12  4.428383730277100E-002
 dabs(Ij+Ii):           7          12  7.461938355300643E-003
 dabs(Rj-Ri):           8          12  3.581010294873577E-002
 dabs(Ij+Ii):           8          12  7.461938355300643E-003
 dabs(Rj-Ri):           9          12  2.015044071038796E-002
 dabs(Ij+Ii):           9          12  7.461938355300643E-003
 dabs(Rj-Ri):          10          12  1.126557283719024E-002
 dabs(Ij+Ii):          10          12  7.461938355300643E-003
 dabs(Rj-Ri):          11          12  0.000000000000000E+000
 dabs(Ij+Ii):          11          12  0.000000000000000E+000
 dabs(Rj-Ri):          13          12  1.070389540819283E-004
 dabs(Ij+Ii):          13          12  7.461938355300643E-003
 dabs(Rj-Ri):          14          12  1.334531936013506E-002
 dabs(Ij+Ii):          14          12  7.461938355300643E-003
 dabs(Rj-Ri):          15          12  1.475184122990392E-002
 dabs(Ij+Ii):          15          12  7.461938355300643E-003
 dabs(Rj-Ri):          16          12  0.134298758006777     
 dabs(Ij+Ii):          16          12  7.461938355300643E-003
 dabs(Rj-Ri):          17          12  0.590619298012825     
 dabs(Ij+Ii):          17          12  7.461938355300643E-003
 overlap matrix for complex pair:

              1             2
 
    1     1.00000000   -0.00000000
    2    -0.00000000    1.00000000
 real eigenvalues of metric:

              1
 
    1     1.00000000
    2     1.00000000
 eigenvectors of metric:

              1             2
 
    1     0.99908986   -0.04265507
    2     0.04265507    0.99908986
 inverse square root of overlap matrix:

              1             2
 
    1     1.00000000    0.00000000
    2     0.00000000    1.00000000
 recalculated overlap matrix for complex pair:

              1             2
 
    1     1.00000000   -0.00000000
    2    -0.00000000    1.00000000
 warning> found low lying complex root...
 eigenvalues (imaginary parts) in redeig:

              1
 
    1     0.00000000
    2     0.00000000
    3     0.00000000
    4     0.00000000
    5     0.00000000
    6     0.00000000
    7     0.00000000
    8     0.00000000
    9     0.00000000
   10     0.00000000
   11    -0.00746194
   12     0.00746194
   13     0.00000000
   14     0.00000000
   15     0.00000000
   16     0.00000000
   17     0.00000000
 eigenvalues (real parts) in redeig:

              1
 
    1     0.13311823
    2     0.13785266
    3     0.16776427
    4     0.16859257
    5     0.19209933
    6     0.21108450
    7     0.21134166
    8     0.21981539
    9     0.23547505
   10     0.24435992
   11     0.25562549
   12     0.25562549
   13     0.25573253
   14     0.26897081
   15     0.27037734
   16     0.38992425
   17     0.84624479
     13       1         1.09     0.86E-01  ( 12)
 COSMO cphf update
 COSMO cphf update
 COSMO cphf update
 COSMO cphf update
 dabs(Rj-Ri):           1          11  0.121821256397090     
 dabs(Ij+Ii):           1          11  7.535593898164887E-003
 dabs(Rj-Ri):           2          11  0.117086667074038     
 dabs(Ij+Ii):           2          11  7.535593898164887E-003
 dabs(Rj-Ri):           3          11  8.717505437688380E-002
 dabs(Ij+Ii):           3          11  7.535593898164887E-003
 dabs(Rj-Ri):           4          11  8.634675486591209E-002
 dabs(Ij+Ii):           4          11  7.535593898164887E-003
 dabs(Rj-Ri):           5          11  6.283999510409979E-002
 dabs(Ij+Ii):           5          11  7.535593898164887E-003
 dabs(Rj-Ri):           6          11  4.385481994950774E-002
 dabs(Ij+Ii):           6          11  7.535593898164887E-003
 dabs(Rj-Ri):           7          11  4.359728994842524E-002
 dabs(Ij+Ii):           7          11  7.535593898164887E-003
 dabs(Rj-Ri):           8          11  3.512425945119427E-002
 dabs(Ij+Ii):           8          11  7.535593898164887E-003
 dabs(Rj-Ri):           9          11  1.946286868483446E-002
 dabs(Ij+Ii):           9          11  7.535593898164887E-003
 dabs(Rj-Ri):          10          11  1.057940079654843E-002
 dabs(Ij+Ii):          10          11  7.535593898164887E-003
 dabs(Rj-Ri):          12          11  0.000000000000000E+000
 dabs(Ij+Ii):          12          11  0.000000000000000E+000
 dabs(Rj-Ri):          13          11  8.165012234645497E-004
 dabs(Ij+Ii):          13          11  7.535593898164887E-003
 dabs(Rj-Ri):          14          11  1.404420486563202E-002
 dabs(Ij+Ii):          14          11  7.535593898164887E-003
 dabs(Rj-Ri):          15          11  1.543801191081401E-002
 dabs(Ij+Ii):          15          11  7.535593898164887E-003
 dabs(Rj-Ri):          16          11  9.011383321368172E-002
 dabs(Ij+Ii):          16          11  7.535593898164887E-003
 dabs(Rj-Ri):          17          11  0.115200221742367     
 dabs(Ij+Ii):          17          11  7.535593898164887E-003
 dabs(Rj-Ri):          18          11  0.235386046768668     
 dabs(Ij+Ii):          18          11  7.535593898164887E-003
 dabs(Rj-Ri):          19          11   1.09296517143217     
 dabs(Ij+Ii):          19          11  7.535593898164887E-003
 overlap matrix for complex pair:

              1             2
 
    1     0.00345469    0.00352843
    2     0.00352843    0.00372077
 real eigenvalues of metric:

              1
 
    1     0.00005679
    2     0.00711867
 eigenvectors of metric:

              1             2
 
    1     0.72030471    0.69365778
    2    -0.69365778    0.72030471
 inverse square root of overlap matrix:

              1             2
 
    1    74.55434516  -60.38250111
    2   -60.38250111   70.00095671
 recalculated overlap matrix for complex pair:

              1             2
 
    1     1.00000000    0.00000000
    2    -0.00000000    1.00000000
 dabs(Rj-Ri):           1          12  0.121821256397090     
 dabs(Ij+Ii):           1          12  7.535593898164887E-003
 dabs(Rj-Ri):           2          12  0.117086667074038     
 dabs(Ij+Ii):           2          12  7.535593898164887E-003
 dabs(Rj-Ri):           3          12  8.717505437688380E-002
 dabs(Ij+Ii):           3          12  7.535593898164887E-003
 dabs(Rj-Ri):           4          12  8.634675486591209E-002
 dabs(Ij+Ii):           4          12  7.535593898164887E-003
 dabs(Rj-Ri):           5          12  6.283999510409979E-002
 dabs(Ij+Ii):           5          12  7.535593898164887E-003
 dabs(Rj-Ri):           6          12  4.385481994950774E-002
 dabs(Ij+Ii):           6          12  7.535593898164887E-003
 dabs(Rj-Ri):           7          12  4.359728994842524E-002
 dabs(Ij+Ii):           7          12  7.535593898164887E-003
 dabs(Rj-Ri):           8          12  3.512425945119427E-002
 dabs(Ij+Ii):           8          12  7.535593898164887E-003
 dabs(Rj-Ri):           9          12  1.946286868483446E-002
 dabs(Ij+Ii):           9          12  7.535593898164887E-003
 dabs(Rj-Ri):          10          12  1.057940079654843E-002
 dabs(Ij+Ii):          10          12  7.535593898164887E-003
 dabs(Rj-Ri):          11          12  0.000000000000000E+000
 dabs(Ij+Ii):          11          12  0.000000000000000E+000
 dabs(Rj-Ri):          13          12  8.165012234645497E-004
 dabs(Ij+Ii):          13          12  7.535593898164887E-003
 dabs(Rj-Ri):          14          12  1.404420486563202E-002
 dabs(Ij+Ii):          14          12  7.535593898164887E-003
 dabs(Rj-Ri):          15          12  1.543801191081401E-002
 dabs(Ij+Ii):          15          12  7.535593898164887E-003
 dabs(Rj-Ri):          16          12  9.011383321368172E-002
 dabs(Ij+Ii):          16          12  7.535593898164887E-003
 dabs(Rj-Ri):          17          12  0.115200221742367     
 dabs(Ij+Ii):          17          12  7.535593898164887E-003
 dabs(Rj-Ri):          18          12  0.235386046768668     
 dabs(Ij+Ii):          18          12  7.535593898164887E-003
 dabs(Rj-Ri):          19          12   1.09296517143217     
 dabs(Ij+Ii):          19          12  7.535593898164887E-003
 overlap matrix for complex pair:

              1             2
 
    1     1.00000000   -0.00000000
    2     0.00000000    1.00000000
 real eigenvalues of metric:

              1
 
    1     1.00000000
    2     1.00000000
 eigenvectors of metric:

              1             2
 
    1     0.93943709   -0.34272141
    2     0.34272141    0.93943709
 inverse square root of overlap matrix:

              1             2
 
    1     1.00000000    0.00000000
    2     0.00000000    1.00000000
 recalculated overlap matrix for complex pair:

              1             2
 
    1     1.00000000    0.00000000
    2     0.00000000    1.00000000
 warning> found low lying complex root...
 eigenvalues (imaginary parts) in redeig:

              1
 
    1     0.00000000
    2     0.00000000
    3     0.00000000
    4     0.00000000
    5     0.00000000
    6     0.00000000
    7     0.00000000
    8     0.00000000
    9     0.00000000
   10     0.00000000
   11    -0.00753559
   12     0.00753559
   13     0.00000000
   14     0.00000000
   15     0.00000000
   16     0.00000000
   17     0.00000000
   18     0.00000000
   19     0.00000000
 eigenvalues (real parts) in redeig:

              1
 
    1     0.13311807
    2     0.13785266
    3     0.16776427
    4     0.16859257
    5     0.19209933
    6     0.21108450
    7     0.21134203
    8     0.21981506
    9     0.23547645
   10     0.24435992
   11     0.25493932
   12     0.25493932
   13     0.25575582
   14     0.26898353
   15     0.27037733
   16     0.34505316
   17     0.37013954
   18     0.49032537
   19     1.34790449
     14       2         1.89     0.62E-01  ( 11)
 COSMO cphf update
 COSMO cphf update
 COSMO cphf update
 COSMO cphf update
 dabs(Rj-Ri):           1          11  0.121553682236273     
 dabs(Ij+Ii):           1          11  7.655053698417832E-003
 dabs(Rj-Ri):           2          11  0.116819271147028     
 dabs(Ij+Ii):           2          11  7.655053698417832E-003
 dabs(Rj-Ri):           3          11  8.690764141682258E-002
 dabs(Ij+Ii):           3          11  7.655053698417832E-003
 dabs(Rj-Ri):           4          11  8.607935894519997E-002
 dabs(Ij+Ii):           4          11  7.655053698417832E-003
 dabs(Rj-Ri):           5          11  6.257259917725691E-002
 dabs(Ij+Ii):           5          11  7.655053698417832E-003
 dabs(Rj-Ri):           6          11  4.358742249150013E-002
 dabs(Ij+Ii):           6          11  7.655053698417832E-003
 dabs(Rj-Ri):           7          11  4.332948477722917E-002
 dabs(Ij+Ii):           7          11  7.655053698417832E-003
 dabs(Rj-Ri):           8          11  3.485692042188357E-002
 dabs(Ij+Ii):           8          11  7.655053698417832E-003
 dabs(Rj-Ri):           9          11  1.919443121995101E-002
 dabs(Ij+Ii):           9          11  7.655053698417832E-003
 dabs(Rj-Ri):          10          11  1.031200487651782E-002
 dabs(Ij+Ii):          10          11  7.655053698417832E-003
 dabs(Rj-Ri):          12          11  0.000000000000000E+000
 dabs(Ij+Ii):          12          11  0.000000000000000E+000
 dabs(Rj-Ri):          13          11  1.086165846466813E-003
 dabs(Ij+Ii):          13          11  7.655053698417832E-003
 dabs(Rj-Ri):          14          11  1.431560125405601E-002
 dabs(Ij+Ii):          14          11  7.655053698417832E-003
 dabs(Rj-Ri):          15          11  1.570540741831428E-002
 dabs(Ij+Ii):          15          11  7.655053698417832E-003
 dabs(Rj-Ri):          16          11  6.766220150085150E-002
 dabs(Ij+Ii):          16          11  7.655053698417832E-003
 dabs(Rj-Ri):          17          11  8.586358891233914E-002
 dabs(Ij+Ii):          17          11  7.655053698417832E-003
 dabs(Rj-Ri):          18          11  0.183516781141690     
 dabs(Ij+Ii):          18          11  7.655053698417832E-003
 dabs(Rj-Ri):          19          11  0.455335509286605     
 dabs(Ij+Ii):          19          11  7.655053698417832E-003
 dabs(Rj-Ri):          20          11  0.554809276067765     
 dabs(Ij+Ii):          20          11  7.655053698417832E-003
 dabs(Rj-Ri):          21          11   1.30699916958994     
 dabs(Ij+Ii):          21          11  7.655053698417832E-003
 overlap matrix for complex pair:

              1             2
 
    1     0.04741753    0.00458551
    2     0.00458551    0.00047775
 real eigenvalues of metric:

              1
 
    1     0.04786129
    2     0.00003399
 eigenvectors of metric:

              1             2
 
    1     0.99535001   -0.09632427
    2     0.09632427    0.99535001
 inverse square root of overlap matrix:

              1             2
 
    1     6.12003108  -16.00701573
    2   -16.00701573  169.97666544
 recalculated overlap matrix for complex pair:

              1             2
 
    1     1.00000000    0.00000000
    2     0.00000000    1.00000000
 dabs(Rj-Ri):           1          12  0.121553682236273     
 dabs(Ij+Ii):           1          12  7.655053698417832E-003
 dabs(Rj-Ri):           2          12  0.116819271147028     
 dabs(Ij+Ii):           2          12  7.655053698417832E-003
 dabs(Rj-Ri):           3          12  8.690764141682258E-002
 dabs(Ij+Ii):           3          12  7.655053698417832E-003
 dabs(Rj-Ri):           4          12  8.607935894519997E-002
 dabs(Ij+Ii):           4          12  7.655053698417832E-003
 dabs(Rj-Ri):           5          12  6.257259917725691E-002
 dabs(Ij+Ii):           5          12  7.655053698417832E-003
 dabs(Rj-Ri):           6          12  4.358742249150013E-002
 dabs(Ij+Ii):           6          12  7.655053698417832E-003
 dabs(Rj-Ri):           7          12  4.332948477722917E-002
 dabs(Ij+Ii):           7          12  7.655053698417832E-003
 dabs(Rj-Ri):           8          12  3.485692042188357E-002
 dabs(Ij+Ii):           8          12  7.655053698417832E-003
 dabs(Rj-Ri):           9          12  1.919443121995101E-002
 dabs(Ij+Ii):           9          12  7.655053698417832E-003
 dabs(Rj-Ri):          10          12  1.031200487651782E-002
 dabs(Ij+Ii):          10          12  7.655053698417832E-003
 dabs(Rj-Ri):          11          12  0.000000000000000E+000
 dabs(Ij+Ii):          11          12  0.000000000000000E+000
 dabs(Rj-Ri):          13          12  1.086165846466813E-003
 dabs(Ij+Ii):          13          12  7.655053698417832E-003
 dabs(Rj-Ri):          14          12  1.431560125405601E-002
 dabs(Ij+Ii):          14          12  7.655053698417832E-003
 dabs(Rj-Ri):          15          12  1.570540741831428E-002
 dabs(Ij+Ii):          15          12  7.655053698417832E-003
 dabs(Rj-Ri):          16          12  6.766220150085150E-002
 dabs(Ij+Ii):          16          12  7.655053698417832E-003
 dabs(Rj-Ri):          17          12  8.586358891233914E-002
 dabs(Ij+Ii):          17          12  7.655053698417832E-003
 dabs(Rj-Ri):          18          12  0.183516781141690     
 dabs(Ij+Ii):          18          12  7.655053698417832E-003
 dabs(Rj-Ri):          19          12  0.455335509286605     
 dabs(Ij+Ii):          19          12  7.655053698417832E-003
 dabs(Rj-Ri):          20          12  0.554809276067765     
 dabs(Ij+Ii):          20          12  7.655053698417832E-003
 dabs(Rj-Ri):          21          12   1.30699916958994     
 dabs(Ij+Ii):          21          12  7.655053698417832E-003
 overlap matrix for complex pair:

              1             2
 
    1     1.00000000    0.00000000
    2     0.00000000    1.00000000
 real eigenvalues of metric:

              1
 
    1     1.00000000
    2     1.00000000
 eigenvectors of metric:

              1             2
 
    1     0.82512046   -0.56495684
    2     0.56495684    0.82512046
 inverse square root of overlap matrix:

              1             2
 
    1     1.00000000   -0.00000000
    2    -0.00000000    1.00000000
 recalculated overlap matrix for complex pair:

              1             2
 
    1     1.00000000   -0.00000000
    2    -0.00000000    1.00000000
 warning> found low lying complex root...
 eigenvalues (imaginary parts) in redeig:

              1
 
    1     0.00000000
    2     0.00000000
    3     0.00000000
    4     0.00000000
    5     0.00000000
    6     0.00000000
    7     0.00000000
    8     0.00000000
    9     0.00000000
   10     0.00000000
   11    -0.00765505
   12     0.00765505
   13     0.00000000
   14     0.00000000
   15     0.00000000
   16     0.00000000
   17     0.00000000
   18     0.00000000
   19     0.00000000
   20     0.00000000
   21     0.00000000
 eigenvalues (real parts) in redeig:

              1
 
    1     0.13311824
    2     0.13785266
    3     0.16776428
    4     0.16859257
    5     0.19209933
    6     0.21108450
    7     0.21134244
    8     0.21981501
    9     0.23547750
   10     0.24435992
   11     0.25467193
   12     0.25467193
   13     0.25575809
   14     0.26898753
   15     0.27037733
   16     0.32233413
   17     0.34053552
   18     0.43818871
   19     0.71000744
   20     0.80948120
   21     1.56167110
     15       2         1.90     0.84E-01  ( 12)
 COSMO cphf update
 COSMO cphf update
 dabs(Rj-Ri):           1          11  0.121487779185949     
 dabs(Ij+Ii):           1          11  7.665086169901891E-003
 dabs(Rj-Ri):           2          11  0.116753310375888     
 dabs(Ij+Ii):           2          11  7.665086169901891E-003
 dabs(Rj-Ri):           3          11  8.684168162857814E-002
 dabs(Ij+Ii):           3          11  7.665086169901891E-003
 dabs(Rj-Ri):           4          11  8.601339818411899E-002
 dabs(Ij+Ii):           4          11  7.665086169901891E-003
 dabs(Rj-Ri):           5          11  6.250663840687323E-002
 dabs(Ij+Ii):           5          11  7.665086169901891E-003
 dabs(Rj-Ri):           6          11  4.352146203074087E-002
 dabs(Ij+Ii):           6          11  7.665086169901891E-003
 dabs(Rj-Ri):           7          11  4.326350922248884E-002
 dabs(Ij+Ii):           7          11  7.665086169901891E-003
 dabs(Rj-Ri):           8          11  3.479100961762577E-002
 dabs(Ij+Ii):           8          11  7.665086169901891E-003
 dabs(Rj-Ri):           9          11  1.912818756116483E-002
 dabs(Ij+Ii):           9          11  7.665086169901891E-003
 dabs(Rj-Ri):          10          11  1.024604411061630E-002
 dabs(Ij+Ii):          10          11  7.665086169901891E-003
 dabs(Rj-Ri):          12          11  0.000000000000000E+000
 dabs(Ij+Ii):          12          11  0.000000000000000E+000
 dabs(Rj-Ri):          13          11  1.152472473935018E-003
 dabs(Ij+Ii):          13          11  7.665086169901891E-003
 dabs(Rj-Ri):          14          11  1.438279511043294E-002
 dabs(Ij+Ii):          14          11  7.665086169901891E-003
 dabs(Rj-Ri):          15          11  1.577136811606150E-002
 dabs(Ij+Ii):          15          11  7.665086169901891E-003
 dabs(Rj-Ri):          16          11  5.992947088802936E-002
 dabs(Ij+Ii):          16          11  7.665086169901891E-003
 dabs(Rj-Ri):          17          11  8.584529794078782E-002
 dabs(Ij+Ii):          17          11  7.665086169901891E-003
 dabs(Rj-Ri):          18          11  0.158126130515290     
 dabs(Ij+Ii):          18          11  7.665086169901891E-003
 dabs(Rj-Ri):          19          11  0.253740742199690     
 dabs(Ij+Ii):          19          11  7.665086169901891E-003
 dabs(Rj-Ri):          20          11  0.527727617701102     
 dabs(Ij+Ii):          20          11  7.665086169901891E-003
 dabs(Rj-Ri):          21          11  0.898923358356392     
 dabs(Ij+Ii):          21          11  7.665086169901891E-003
 dabs(Rj-Ri):          22          11   1.35089329575697     
 dabs(Ij+Ii):          22          11  7.665086169901891E-003
 overlap matrix for complex pair:

              1             2
 
    1     0.00083958   -0.00417382
    2    -0.00417382    0.02180464
 real eigenvalues of metric:

              1
 
    1     0.00003920
    2     0.02260502
 eigenvectors of metric:

              1             2
 
    1     0.98210544   -0.18833191
    2     0.18833191    0.98210544
 inverse square root of overlap matrix:

              1             2
 
    1   154.29524551   28.31273688
    2    28.31273688   12.08050964
 recalculated overlap matrix for complex pair:

              1             2
 
    1     1.00000000   -0.00000000
    2     0.00000000    1.00000000
 dabs(Rj-Ri):           1          12  0.121487779185949     
 dabs(Ij+Ii):           1          12  7.665086169901891E-003
 dabs(Rj-Ri):           2          12  0.116753310375888     
 dabs(Ij+Ii):           2          12  7.665086169901891E-003
 dabs(Rj-Ri):           3          12  8.684168162857814E-002
 dabs(Ij+Ii):           3          12  7.665086169901891E-003
 dabs(Rj-Ri):           4          12  8.601339818411899E-002
 dabs(Ij+Ii):           4          12  7.665086169901891E-003
 dabs(Rj-Ri):           5          12  6.250663840687323E-002
 dabs(Ij+Ii):           5          12  7.665086169901891E-003
 dabs(Rj-Ri):           6          12  4.352146203074087E-002
 dabs(Ij+Ii):           6          12  7.665086169901891E-003
 dabs(Rj-Ri):           7          12  4.326350922248884E-002
 dabs(Ij+Ii):           7          12  7.665086169901891E-003
 dabs(Rj-Ri):           8          12  3.479100961762577E-002
 dabs(Ij+Ii):           8          12  7.665086169901891E-003
 dabs(Rj-Ri):           9          12  1.912818756116483E-002
 dabs(Ij+Ii):           9          12  7.665086169901891E-003
 dabs(Rj-Ri):          10          12  1.024604411061630E-002
 dabs(Ij+Ii):          10          12  7.665086169901891E-003
 dabs(Rj-Ri):          11          12  0.000000000000000E+000
 dabs(Ij+Ii):          11          12  0.000000000000000E+000
 dabs(Rj-Ri):          13          12  1.152472473935018E-003
 dabs(Ij+Ii):          13          12  7.665086169901891E-003
 dabs(Rj-Ri):          14          12  1.438279511043294E-002
 dabs(Ij+Ii):          14          12  7.665086169901891E-003
 dabs(Rj-Ri):          15          12  1.577136811606150E-002
 dabs(Ij+Ii):          15          12  7.665086169901891E-003
 dabs(Rj-Ri):          16          12  5.992947088802936E-002
 dabs(Ij+Ii):          16          12  7.665086169901891E-003
 dabs(Rj-Ri):          17          12  8.584529794078782E-002
 dabs(Ij+Ii):          17          12  7.665086169901891E-003
 dabs(Rj-Ri):          18          12  0.158126130515290     
 dabs(Ij+Ii):          18          12  7.665086169901891E-003
 dabs(Rj-Ri):          19          12  0.253740742199690     
 dabs(Ij+Ii):          19          12  7.665086169901891E-003
 dabs(Rj-Ri):          20          12  0.527727617701102     
 dabs(Ij+Ii):          20          12  7.665086169901891E-003
 dabs(Rj-Ri):          21          12  0.898923358356392     
 dabs(Ij+Ii):          21          12  7.665086169901891E-003
 dabs(Rj-Ri):          22          12   1.35089329575697     
 dabs(Ij+Ii):          22          12  7.665086169901891E-003
 overlap matrix for complex pair:

              1             2
 
    1     1.00000000    0.00000000
    2    -0.00000000    1.00000000
 real eigenvalues of metric:

              1
 
    1     1.00000000
    2     1.00000000
 eigenvectors of metric:

              1             2
 
    1     0.97461274    0.22389732
    2    -0.22389732    0.97461274
 inverse square root of overlap matrix:

              1             2
 
    1     1.00000000   -0.00000000
    2    -0.00000000    1.00000000
 recalculated overlap matrix for complex pair:

              1             2
 
    1     1.00000000   -0.00000000
    2    -0.00000000    1.00000000
 warning> found low lying complex root...
 eigenvalues (imaginary parts) in redeig:

              1
 
    1     0.00000000
    2     0.00000000
    3     0.00000000
    4     0.00000000
    5     0.00000000
    6     0.00000000
    7     0.00000000
    8     0.00000000
    9     0.00000000
   10     0.00000000
   11    -0.00766509
   12     0.00766509
   13     0.00000000
   14     0.00000000
   15     0.00000000
   16     0.00000000
   17     0.00000000
   18     0.00000000
   19     0.00000000
   20     0.00000000
   21     0.00000000
   22     0.00000000
 eigenvalues (real parts) in redeig:

              1
 
    1     0.13311819
    2     0.13785266
    3     0.16776428
    4     0.16859257
    5     0.19209933
    6     0.21108450
    7     0.21134246
    8     0.21981496
    9     0.23547778
   10     0.24435992
   11     0.25460597
   12     0.25460597
   13     0.25575844
   14     0.26898876
   15     0.27037733
   16     0.31453544
   17     0.34045126
   18     0.41273210
   19     0.50834671
   20     0.78233358
   21     1.15352932
   22     1.60549926
     16       1         1.09     0.82E-01  ( 11)
 COSMO cphf update
 COSMO cphf update
 COSMO cphf update
 COSMO cphf update
 dabs(Rj-Ri):           1          11  0.121465008663963     
 dabs(Ij+Ii):           1          11  7.719920205511263E-003
 dabs(Rj-Ri):           2          11  0.116730598639413     
 dabs(Ij+Ii):           2          11  7.719920205511263E-003
 dabs(Rj-Ri):           3          11  8.681891729682745E-002
 dabs(Ij+Ii):           3          11  7.719920205511263E-003
 dabs(Rj-Ri):           4          11  8.599068650824265E-002
 dabs(Ij+Ii):           4          11  7.719920205511263E-003
 dabs(Rj-Ri):           5          11  6.248392667685623E-002
 dabs(Ij+Ii):           5          11  7.719920205511263E-003
 dabs(Rj-Ri):           6          11  4.349875208330600E-002
 dabs(Ij+Ii):           6          11  7.719920205511263E-003
 dabs(Rj-Ri):           7          11  4.324055990304354E-002
 dabs(Ij+Ii):           7          11  7.719920205511263E-003
 dabs(Rj-Ri):           8          11  3.476829828508624E-002
 dabs(Ij+Ii):           8          11  7.719920205511263E-003
 dabs(Rj-Ri):           9          11  1.910507478255674E-002
 dabs(Ij+Ii):           9          11  7.719920205511263E-003
 dabs(Rj-Ri):          10          11  1.022333237707815E-002
 dabs(Ij+Ii):          10          11  7.719920205511263E-003
 dabs(Rj-Ri):          12          11  0.000000000000000E+000
 dabs(Ij+Ii):          12          11  0.000000000000000E+000
 dabs(Rj-Ri):          13          11  1.174535246407038E-003
 dabs(Ij+Ii):          13          11  7.719920205511263E-003
 dabs(Rj-Ri):          14          11  1.440686438408034E-002
 dabs(Ij+Ii):          14          11  7.719920205511263E-003
 dabs(Rj-Ri):          15          11  1.579407990207460E-002
 dabs(Ij+Ii):          15          11  7.719920205511263E-003
 dabs(Rj-Ri):          16          11  5.355167313528519E-002
 dabs(Ij+Ii):          16          11  7.719920205511263E-003
 dabs(Rj-Ri):          17          11  7.369148444562934E-002
 dabs(Ij+Ii):          17          11  7.719920205511263E-003
 dabs(Rj-Ri):          18          11  0.121196385795093     
 dabs(Ij+Ii):          18          11  7.719920205511263E-003
 dabs(Rj-Ri):          19          11  0.179406248726390     
 dabs(Ij+Ii):          19          11  7.719920205511263E-003
 dabs(Rj-Ri):          20          11  0.213362057544172     
 dabs(Ij+Ii):          20          11  7.719920205511263E-003
 dabs(Rj-Ri):          21          11  0.435498117167363     
 dabs(Ij+Ii):          21          11  7.719920205511263E-003
 dabs(Rj-Ri):          22          11  0.943732034997776     
 dabs(Ij+Ii):          22          11  7.719920205511263E-003
 dabs(Rj-Ri):          23          11   1.22875702743267     
 dabs(Ij+Ii):          23          11  7.719920205511263E-003
 dabs(Rj-Ri):          24          11   1.35647356123206     
 dabs(Ij+Ii):          24          11  7.719920205511263E-003
 overlap matrix for complex pair:

              1             2
 
    1     0.01161153   -0.00277825
    2    -0.00277825    0.00070877
 real eigenvalues of metric:

              1
 
    1     0.01227867
    2     0.00004164
 eigenvectors of metric:

              1             2
 
    1     0.97235915    0.23349023
    2    -0.23349023    0.97235915
 inverse square root of overlap matrix:

              1             2
 
    1    16.98122966   33.13532198
    2    33.13532198  147.01502684
 recalculated overlap matrix for complex pair:

              1             2
 
    1     1.00000000    0.00000000
    2    -0.00000000    1.00000000
 dabs(Rj-Ri):           1          12  0.121465008663963     
 dabs(Ij+Ii):           1          12  7.719920205511263E-003
 dabs(Rj-Ri):           2          12  0.116730598639413     
 dabs(Ij+Ii):           2          12  7.719920205511263E-003
 dabs(Rj-Ri):           3          12  8.681891729682745E-002
 dabs(Ij+Ii):           3          12  7.719920205511263E-003
 dabs(Rj-Ri):           4          12  8.599068650824265E-002
 dabs(Ij+Ii):           4          12  7.719920205511263E-003
 dabs(Rj-Ri):           5          12  6.248392667685623E-002
 dabs(Ij+Ii):           5          12  7.719920205511263E-003
 dabs(Rj-Ri):           6          12  4.349875208330600E-002
 dabs(Ij+Ii):           6          12  7.719920205511263E-003
 dabs(Rj-Ri):           7          12  4.324055990304354E-002
 dabs(Ij+Ii):           7          12  7.719920205511263E-003
 dabs(Rj-Ri):           8          12  3.476829828508624E-002
 dabs(Ij+Ii):           8          12  7.719920205511263E-003
 dabs(Rj-Ri):           9          12  1.910507478255674E-002
 dabs(Ij+Ii):           9          12  7.719920205511263E-003
 dabs(Rj-Ri):          10          12  1.022333237707815E-002
 dabs(Ij+Ii):          10          12  7.719920205511263E-003
 dabs(Rj-Ri):          11          12  0.000000000000000E+000
 dabs(Ij+Ii):          11          12  0.000000000000000E+000
 dabs(Rj-Ri):          13          12  1.174535246407038E-003
 dabs(Ij+Ii):          13          12  7.719920205511263E-003
 dabs(Rj-Ri):          14          12  1.440686438408034E-002
 dabs(Ij+Ii):          14          12  7.719920205511263E-003
 dabs(Rj-Ri):          15          12  1.579407990207460E-002
 dabs(Ij+Ii):          15          12  7.719920205511263E-003
 dabs(Rj-Ri):          16          12  5.355167313528519E-002
 dabs(Ij+Ii):          16          12  7.719920205511263E-003
 dabs(Rj-Ri):          17          12  7.369148444562934E-002
 dabs(Ij+Ii):          17          12  7.719920205511263E-003
 dabs(Rj-Ri):          18          12  0.121196385795093     
 dabs(Ij+Ii):          18          12  7.719920205511263E-003
 dabs(Rj-Ri):          19          12  0.179406248726390     
 dabs(Ij+Ii):          19          12  7.719920205511263E-003
 dabs(Rj-Ri):          20          12  0.213362057544172     
 dabs(Ij+Ii):          20          12  7.719920205511263E-003
 dabs(Rj-Ri):          21          12  0.435498117167363     
 dabs(Ij+Ii):          21          12  7.719920205511263E-003
 dabs(Rj-Ri):          22          12  0.943732034997776     
 dabs(Ij+Ii):          22          12  7.719920205511263E-003
 dabs(Rj-Ri):          23          12   1.22875702743267     
 dabs(Ij+Ii):          23          12  7.719920205511263E-003
 dabs(Rj-Ri):          24          12   1.35647356123206     
 dabs(Ij+Ii):          24          12  7.719920205511263E-003
 overlap matrix for complex pair:

              1             2
 
    1     1.00000000   -0.00000000
    2     0.00000000    1.00000000
 real eigenvalues of metric:

              1
 
    1     1.00000000
    2     1.00000000
 eigenvectors of metric:

              1             2
 
    1     0.97462153    0.22385907
    2    -0.22385907    0.97462153
 inverse square root of overlap matrix:

              1             2
 
    1     1.00000000    0.00000000
    2     0.00000000    1.00000000
 recalculated overlap matrix for complex pair:

              1             2
 
    1     1.00000000   -0.00000000
    2     0.00000000    1.00000000
 warning> found low lying complex root...
 eigenvalues (imaginary parts) in redeig:

              1
 
    1     0.00000000
    2     0.00000000
    3     0.00000000
    4     0.00000000
    5     0.00000000
    6     0.00000000
    7     0.00000000
    8     0.00000000
    9     0.00000000
   10     0.00000000
   11    -0.00771992
   12     0.00771992
   13     0.00000000
   14     0.00000000
   15     0.00000000
   16     0.00000000
   17     0.00000000
   18     0.00000000
   19     0.00000000
   20     0.00000000
   21     0.00000000
   22     0.00000000
   23     0.00000000
   24     0.00000000
 eigenvalues (real parts) in redeig:

              1
 
    1     0.13311825
    2     0.13785266
    3     0.16776434
    4     0.16859257
    5     0.19209933
    6     0.21108450
    7     0.21134269
    8     0.21981496
    9     0.23547818
   10     0.24435992
   11     0.25458325
   12     0.25458325
   13     0.25575779
   14     0.26899012
   15     0.27037733
   16     0.30813493
   17     0.32827474
   18     0.37577964
   19     0.43398950
   20     0.46794531
   21     0.69008137
   22     1.19831529
   23     1.48334028
   24     1.61105681
     17       2         1.90     0.82E-01  ( 12)
 COSMO cphf update
 COSMO cphf update
 COSMO cphf update
 COSMO cphf update
 dabs(Rj-Ri):           1          11  0.121451888691102     
 dabs(Ij+Ii):           1          11  7.734188107040559E-003
 dabs(Rj-Ri):           2          11  0.116717498216274     
 dabs(Ij+Ii):           2          11  7.734188107040559E-003
 dabs(Rj-Ri):           3          11  8.680595967659741E-002
 dabs(Ij+Ii):           3          11  7.734188107040559E-003
 dabs(Rj-Ri):           4          11  8.597758632398417E-002
 dabs(Ij+Ii):           4          11  7.734188107040559E-003
 dabs(Rj-Ri):           5          11  6.247082627526174E-002
 dabs(Ij+Ii):           5          11  7.734188107040559E-003
 dabs(Rj-Ri):           6          11  4.348565193641388E-002
 dabs(Ij+Ii):           6          11  7.734188107040559E-003
 dabs(Rj-Ri):           7          11  4.322742192680931E-002
 dabs(Ij+Ii):           7          11  7.734188107040559E-003
 dabs(Rj-Ri):           8          11  3.475527447166429E-002
 dabs(Ij+Ii):           8          11  7.734188107040559E-003
 dabs(Rj-Ri):           9          11  1.909194528668814E-002
 dabs(Ij+Ii):           9          11  7.734188107040559E-003
 dabs(Rj-Ri):          10          11  1.021023195627788E-002
 dabs(Ij+Ii):          10          11  7.734188107040559E-003
 dabs(Rj-Ri):          12          11  0.000000000000000E+000
 dabs(Ij+Ii):          12          11  0.000000000000000E+000
 dabs(Rj-Ri):          13          11  1.187299497544259E-003
 dabs(Ij+Ii):          13          11  7.734188107040559E-003
 dabs(Rj-Ri):          14          11  1.442196444109323E-002
 dabs(Ij+Ii):          14          11  7.734188107040559E-003
 dabs(Rj-Ri):          15          11  1.580718036993239E-002
 dabs(Ij+Ii):          15          11  7.734188107040559E-003
 dabs(Rj-Ri):          16          11  3.899014928364758E-002
 dabs(Ij+Ii):          16          11  7.734188107040559E-003
 dabs(Rj-Ri):          17          11  6.123277568145313E-002
 dabs(Ij+Ii):          17          11  7.734188107040559E-003
 dabs(Rj-Ri):          18          11  8.576952765550527E-002
 dabs(Ij+Ii):          18          11  7.734188107040559E-003
 dabs(Rj-Ri):          19          11  9.972505514428565E-002
 dabs(Ij+Ii):          19          11  7.734188107040559E-003
 dabs(Rj-Ri):          20          11  0.178317685926163     
 dabs(Ij+Ii):          20          11  7.734188107040559E-003
 dabs(Rj-Ri):          21          11  0.253722984129602     
 dabs(Ij+Ii):          21          11  7.734188107040559E-003
 dabs(Rj-Ri):          22          11  0.346048992931325     
 dabs(Ij+Ii):          22          11  7.734188107040559E-003
 dabs(Rj-Ri):          23          11  0.692967307152046     
 dabs(Ij+Ii):          23          11  7.734188107040559E-003
 dabs(Rj-Ri):          24          11   1.20216677321452     
 dabs(Ij+Ii):          24          11  7.734188107040559E-003
 dabs(Rj-Ri):          25          11   1.35915934549984     
 dabs(Ij+Ii):          25          11  7.734188107040559E-003
 dabs(Rj-Ri):          26          11   1.49405654969399     
 dabs(Ij+Ii):          26          11  7.734188107040559E-003
 overlap matrix for complex pair:

              1             2
 
    1     0.02474236   -0.00232508
    2    -0.00232508    0.00025277
 real eigenvalues of metric:

              1
 
    1     0.02496115
    2     0.00003397
 eigenvectors of metric:

              1             2
 
    1     0.99560169    0.09368713
    2    -0.09368713    0.99560169
 inverse square root of overlap matrix:

              1             2
 
    1     7.77979269   15.41234969
    2    15.41234969  170.11462482
 recalculated overlap matrix for complex pair:

              1             2
 
    1     1.00000000    0.00000000
    2     0.00000000    1.00000000
 dabs(Rj-Ri):           1          12  0.121451888691102     
 dabs(Ij+Ii):           1          12  7.734188107040559E-003
 dabs(Rj-Ri):           2          12  0.116717498216274     
 dabs(Ij+Ii):           2          12  7.734188107040559E-003
 dabs(Rj-Ri):           3          12  8.680595967659741E-002
 dabs(Ij+Ii):           3          12  7.734188107040559E-003
 dabs(Rj-Ri):           4          12  8.597758632398417E-002
 dabs(Ij+Ii):           4          12  7.734188107040559E-003
 dabs(Rj-Ri):           5          12  6.247082627526174E-002
 dabs(Ij+Ii):           5          12  7.734188107040559E-003
 dabs(Rj-Ri):           6          12  4.348565193641388E-002
 dabs(Ij+Ii):           6          12  7.734188107040559E-003
 dabs(Rj-Ri):           7          12  4.322742192680931E-002
 dabs(Ij+Ii):           7          12  7.734188107040559E-003
 dabs(Rj-Ri):           8          12  3.475527447166429E-002
 dabs(Ij+Ii):           8          12  7.734188107040559E-003
 dabs(Rj-Ri):           9          12  1.909194528668814E-002
 dabs(Ij+Ii):           9          12  7.734188107040559E-003
 dabs(Rj-Ri):          10          12  1.021023195627788E-002
 dabs(Ij+Ii):          10          12  7.734188107040559E-003
 dabs(Rj-Ri):          11          12  0.000000000000000E+000
 dabs(Ij+Ii):          11          12  0.000000000000000E+000
 dabs(Rj-Ri):          13          12  1.187299497544259E-003
 dabs(Ij+Ii):          13          12  7.734188107040559E-003
 dabs(Rj-Ri):          14          12  1.442196444109323E-002
 dabs(Ij+Ii):          14          12  7.734188107040559E-003
 dabs(Rj-Ri):          15          12  1.580718036993239E-002
 dabs(Ij+Ii):          15          12  7.734188107040559E-003
 dabs(Rj-Ri):          16          12  3.899014928364758E-002
 dabs(Ij+Ii):          16          12  7.734188107040559E-003
 dabs(Rj-Ri):          17          12  6.123277568145313E-002
 dabs(Ij+Ii):          17          12  7.734188107040559E-003
 dabs(Rj-Ri):          18          12  8.576952765550527E-002
 dabs(Ij+Ii):          18          12  7.734188107040559E-003
 dabs(Rj-Ri):          19          12  9.972505514428565E-002
 dabs(Ij+Ii):          19          12  7.734188107040559E-003
 dabs(Rj-Ri):          20          12  0.178317685926163     
 dabs(Ij+Ii):          20          12  7.734188107040559E-003
 dabs(Rj-Ri):          21          12  0.253722984129602     
 dabs(Ij+Ii):          21          12  7.734188107040559E-003
 dabs(Rj-Ri):          22          12  0.346048992931325     
 dabs(Ij+Ii):          22          12  7.734188107040559E-003
 dabs(Rj-Ri):          23          12  0.692967307152046     
 dabs(Ij+Ii):          23          12  7.734188107040559E-003
 dabs(Rj-Ri):          24          12   1.20216677321452     
 dabs(Ij+Ii):          24          12  7.734188107040559E-003
 dabs(Rj-Ri):          25          12   1.35915934549984     
 dabs(Ij+Ii):          25          12  7.734188107040559E-003
 dabs(Rj-Ri):          26          12   1.49405654969399     
 dabs(Ij+Ii):          26          12  7.734188107040559E-003
 overlap matrix for complex pair:

              1             2
 
    1     1.00000000    0.00000000
    2     0.00000000    1.00000000
 real eigenvalues of metric:

              1
 
    1     1.00000000
    2     1.00000000
 eigenvectors of metric:

              1             2
 
    1     0.99896866   -0.04540498
    2     0.04540498    0.99896866
 inverse square root of overlap matrix:

              1             2
 
    1     1.00000000   -0.00000000
    2    -0.00000000    1.00000000
 recalculated overlap matrix for complex pair:

              1             2
 
    1     1.00000000    0.00000000
    2     0.00000000    1.00000000
 warning> found low lying complex root...
 eigenvalues (imaginary parts) in redeig:

              1
 
    1     0.00000000
    2     0.00000000
    3     0.00000000
    4     0.00000000
    5     0.00000000
    6     0.00000000
    7     0.00000000
    8     0.00000000
    9     0.00000000
   10     0.00000000
   11    -0.00773419
   12     0.00773419
   13     0.00000000
   14     0.00000000
   15     0.00000000
   16     0.00000000
   17     0.00000000
   18     0.00000000
   19     0.00000000
   20     0.00000000
   21     0.00000000
   22     0.00000000
   23     0.00000000
   24     0.00000000
   25     0.00000000
   26     0.00000000
 eigenvalues (real parts) in redeig:

              1
 
    1     0.13311826
    2     0.13785266
    3     0.16776419
    4     0.16859257
    5     0.19209933
    6     0.21108450
    7     0.21134273
    8     0.21981488
    9     0.23547821
   10     0.24435992
   11     0.25457015
   12     0.25457015
   13     0.25575745
   14     0.26899212
   15     0.27037733
   16     0.29356030
   17     0.31580293
   18     0.34033968
   19     0.35429521
   20     0.43288784
   21     0.50829314
   22     0.60061915
   23     0.94753746
   24     1.45673693
   25     1.61372950
   26     1.74862670
     18       2         1.89     0.84E-01  ( 12)
 COSMO cphf update
 COSMO cphf update
 dabs(Rj-Ri):           1          11  0.121448684955869     
 dabs(Ij+Ii):           1          11  7.721795923623520E-003
 dabs(Rj-Ri):           2          11  0.116714273147737     
 dabs(Ij+Ii):           2          11  7.721795923623520E-003
 dabs(Rj-Ri):           3          11  8.680282075301204E-002
 dabs(Ij+Ii):           3          11  7.721795923623520E-003
 dabs(Rj-Ri):           4          11  8.597436130704184E-002
 dabs(Ij+Ii):           4          11  7.721795923623520E-003
 dabs(Rj-Ri):           5          11  6.246760121391914E-002
 dabs(Ij+Ii):           5          11  7.721795923623520E-003
 dabs(Rj-Ri):           6          11  4.348242638762301E-002
 dabs(Ij+Ii):           6          11  7.721795923623520E-003
 dabs(Rj-Ri):           7          11  4.322426973364876E-002
 dabs(Ij+Ii):           7          11  7.721795923623520E-003
 dabs(Rj-Ri):           8          11  3.475196411043729E-002
 dabs(Ij+Ii):           8          11  7.721795923623520E-003
 dabs(Rj-Ri):           9          11  1.908882135768877E-002
 dabs(Ij+Ii):           9          11  7.721795923623520E-003
 dabs(Rj-Ri):          10          11  1.020700688772058E-002
 dabs(Ij+Ii):          10          11  7.721795923623520E-003
 dabs(Rj-Ri):          12          11  0.000000000000000E+000
 dabs(Ij+Ii):          12          11  0.000000000000000E+000
 dabs(Rj-Ri):          13          11  1.191781349156096E-003
 dabs(Ij+Ii):          13          11  7.721795923623520E-003
 dabs(Rj-Ri):          14          11  1.442852449128412E-002
 dabs(Ij+Ii):          14          11  7.721795923623520E-003
 dabs(Rj-Ri):          15          11  1.581040549118684E-002
 dabs(Ij+Ii):          15          11  7.721795923623520E-003
 dabs(Rj-Ri):          16          11  2.071715748143593E-002
 dabs(Ij+Ii):          16          11  7.721795923623520E-003
 dabs(Rj-Ri):          17          11  5.744372631798883E-002
 dabs(Ij+Ii):          17          11  7.721795923623520E-003
 dabs(Rj-Ri):          18          11  7.583164598255687E-002
 dabs(Ij+Ii):          18          11  7.721795923623520E-003
 dabs(Rj-Ri):          19          11  9.333742357530062E-002
 dabs(Ij+Ii):          19          11  7.721795923623520E-003
 dabs(Rj-Ri):          20          11  0.173838590580902     
[...]
 | E_exci (ground to x state)      |     0.23546159  |
 | Correction for fast part of RF  |    -0.00133804  |
 | Correction for update of eq. RF |     0.00003290  |
 +---------------------------------+-----------------+


  +=========================================================================+
  |  Excited state reached by transition:                   model: ADC(2)   |
  |    number, symmetry, multiplicity:   10 a    1                          |
  |    frequency :   0.2443597456 a.u.     6.64937 e.V.     53630.8 rcm     |
  +=========================================================================+

      Total energy of excited state:    -491.1823331496

   +-----------------+-----------------+-----------------+-----------------+
   | operator        | expect. value   | electr. contrib.| diff to gr.st.  |
   +-----------------+-----------------+-----------------+-----------------+
   | xdiplen (unrel) |      3.94380989 |     92.08606591 |     -0.11649891 |
   | xdiplen (relax) |      3.48841668 |     91.63067271 |       ---       |
   | ydiplen (unrel) |      0.00209456 |      0.00209456 |      0.00228216 |
   | ydiplen (relax) |      0.00187145 |      0.00187145 |       ---       |
   | zdiplen (unrel) |      0.13181095 |      1.58944837 |     -0.06610567 |
   | zdiplen (relax) |      0.13933724 |      1.59697466 |       ---       |
   +-----------------+-----------------+-----------------+-----------------+


     Analysis of relaxed properties:
     ===============================


     dipole moment:
     --------------

     x      3.48841668
     y      0.00187145
     z      0.13933724

     | dipole moment | =      3.49119884 a.u. =      8.87374148 debye
 


     Analysis of unrelaxed properties:
     =================================


     dipole moment:
     --------------

     x      3.94380989
     y      0.00209456
     z      0.13181095

     | dipole moment | =      3.94601254 a.u. =     10.02976249 debye
 

 +---------------------------------+-----------------+
 |   Nonequilibrium solvation      |                 |
 +---------------------------------+-----------------+
 |   E_x_(y) is the total free energy of target      |
 |   state x in the reaction field (RF)              |
 |   equilibrated for state y                        |
 +---------------------------------+-----------------+
 | E_x_(y)                         |  -491.18483946  |
 | E_x_(y) (+OCC)                  |  -491.18701940  |
 | Outlying charge correction(OCC) |    -0.00217995  |
 | E_SCF with RF of state y        |  -489.42281085  |
 | E_corr (ground state)           |    -2.00388254  |
 | E_exci (ground to x state)      |     0.24435975  |
 | Correction for fast part of RF  |    -0.00250959  |
 | Correction for update of eq. RF |     0.00000379  |
 +---------------------------------+-----------------+


  +=========================================================================+
  |  Excited state reached by transition:                   model: ADC(2)   |
  |    number, symmetry, multiplicity:   11 a    1                          |
  |    frequency :   0.2492681978 a.u.     6.78293 e.V.     54708.0 rcm     |
  +=========================================================================+

      Total energy of excited state:    -491.1774246975

   +-----------------+-----------------+-----------------+-----------------+
   | operator        | expect. value   | electr. contrib.| diff to gr.st.  |
   +-----------------+-----------------+-----------------+-----------------+
   | xdiplen (unrel) |      7.34404562 |     95.48630164 |      3.28373682 |
   | xdiplen (relax) |      6.76605657 |     94.90831259 |       ---       |
   | ydiplen (unrel) |     -0.00010685 |     -0.00010685 |      0.00008076 |
   | ydiplen (relax) |     -0.00017074 |     -0.00017074 |       ---       |
   | zdiplen (unrel) |      0.17333519 |      1.63097260 |     -0.02458144 |
   | zdiplen (relax) |      0.18049755 |      1.63813496 |       ---       |
   +-----------------+-----------------+-----------------+-----------------+


     Analysis of relaxed properties:
     ===============================


     dipole moment:
     --------------

     x      6.76605657
     y     -0.00017074
     z      0.18049755

     | dipole moment | =      6.76846370 a.u. =     17.20371709 debye
 


     Analysis of unrelaxed properties:
     =================================


     dipole moment:
     --------------

     x      7.34404562
     y     -0.00010685
     z      0.17333519

     | dipole moment | =      7.34609088 a.u. =     18.67189878 debye
 

 +---------------------------------+-----------------+
 |   Nonequilibrium solvation      |                 |
 +---------------------------------+-----------------+
 |   E_x_(y) is the total free energy of target      |
 |   state x in the reaction field (RF)              |
 |   equilibrated for state y                        |
 +---------------------------------+-----------------+
 | E_x_(y)                         |  -491.18058319  |
 | E_x_(y) (+OCC)                  |  -491.18113633  |
 | Outlying charge correction(OCC) |    -0.00055314  |
 | E_SCF with RF of state y        |  -489.42281085  |
 | E_corr (ground state)           |    -2.00388254  |
 | E_exci (ground to x state)      |     0.24926820  |
 | Correction for fast part of RF  |    -0.00327661  |
 | Correction for update of eq. RF |     0.00011861  |
 +---------------------------------+-----------------+


  +=========================================================================+
  |  Excited state reached by transition:                   model: ADC(2)   |
  |    number, symmetry, multiplicity:   12 a    1                          |
  |    frequency :   0.2549202103 a.u.     6.93673 e.V.     55948.5 rcm     |
  +=========================================================================+

      Total energy of excited state:    -491.1717726850

   +-----------------+-----------------+-----------------+-----------------+
   | operator        | expect. value   | electr. contrib.| diff to gr.st.  |
   +-----------------+-----------------+-----------------+-----------------+
   | xdiplen (unrel) |      5.36748120 |     93.50973722 |      1.30717240 |
   | xdiplen (relax) |      4.79307113 |     92.93532715 |       ---       |
   | ydiplen (unrel) |     -0.00241533 |     -0.00241533 |     -0.00222773 |
   | ydiplen (relax) |     -0.00220444 |     -0.00220444 |       ---       |
   | zdiplen (unrel) |      0.15405385 |      1.61169127 |     -0.04386277 |
   | zdiplen (relax) |      0.15832306 |      1.61596048 |       ---       |
   +-----------------+-----------------+-----------------+-----------------+


     Analysis of relaxed properties:
     ===============================


     dipole moment:
     --------------

     x      4.79307113
     y     -0.00220444
     z      0.15832306

     | dipole moment | =      4.79568576 a.u. =     12.18941620 debye
 


     Analysis of unrelaxed properties:
     =================================


     dipole moment:
     --------------

     x      5.36748120
     y     -0.00241533
     z      0.15405385

     | dipole moment | =      5.36969206 a.u. =     13.64839454 debye
 

 +---------------------------------+-----------------+
 |   Nonequilibrium solvation      |                 |
 +---------------------------------+-----------------+
 |   E_x_(y) is the total free energy of target      |
 |   state x in the reaction field (RF)              |
 |   equilibrated for state y                        |
 +---------------------------------+-----------------+
 | E_x_(y)                         |  -491.17374975  |
 | E_x_(y) (+OCC)                  |  -491.17556899  |
 | Outlying charge correction(OCC) |    -0.00181924  |
 | E_SCF with RF of state y        |  -489.42281085  |
 | E_corr (ground state)           |    -2.00388254  |
 | E_exci (ground to x state)      |     0.25492021  |
 | Correction for fast part of RF  |    -0.00197954  |
 | Correction for update of eq. RF |     0.00000297  |
 +---------------------------------+-----------------+


  +=========================================================================+
  |  Excited state reached by transition:                   model: ADC(2)   |
  |    number, symmetry, multiplicity:   13 a    1                          |
  |    frequency :   0.2570007419 a.u.     6.99335 e.V.     56405.1 rcm     |
  +=========================================================================+

      Total energy of excited state:    -491.1696921534

   +-----------------+-----------------+-----------------+-----------------+
   | operator        | expect. value   | electr. contrib.| diff to gr.st.  |
   +-----------------+-----------------+-----------------+-----------------+
   | xdiplen (unrel) |      4.18151574 |     92.32377176 |      0.12120694 |
   | xdiplen (relax) |      3.76833791 |     91.91059393 |       ---       |
   | ydiplen (unrel) |     -0.00072841 |     -0.00072841 |     -0.00054081 |
   | ydiplen (relax) |     -0.00052190 |     -0.00052190 |       ---       |
   | zdiplen (unrel) |      0.20057087 |      1.65820829 |      0.00265424 |
   | zdiplen (relax) |      0.19908043 |      1.65671784 |       ---       |
   +-----------------+-----------------+-----------------+-----------------+


     Analysis of relaxed properties:
     ===============================


     dipole moment:
     --------------

     x      3.76833791
     y     -0.00052190
     z      0.19908043

     | dipole moment | =      3.77359297 a.u. =      9.59151569 debye
 


     Analysis of unrelaxed properties:
     =================================


     dipole moment:
     --------------

     x      4.18151574
     y     -0.00072841
     z      0.20057087

     | dipole moment | =      4.18632334 a.u. =     10.64057156 debye
 

 +---------------------------------+-----------------+
 |   Nonequilibrium solvation      |                 |
 +---------------------------------+-----------------+
 |   E_x_(y) is the total free energy of target      |
 |   state x in the reaction field (RF)              |
 |   equilibrated for state y                        |
 +---------------------------------+-----------------+
 | E_x_(y)                         |  -491.16980096  |
 | E_x_(y) (+OCC)                  |  -491.17017122  |
 | Outlying charge correction(OCC) |    -0.00037026  |
 | E_SCF with RF of state y        |  -489.42281085  |
 | E_corr (ground state)           |    -2.00388254  |
 | E_exci (ground to x state)      |     0.25700074  |
 | Correction for fast part of RF  |    -0.00010750  |
 | Correction for update of eq. RF |    -0.00000081  |
 +---------------------------------+-----------------+


  +=========================================================================+
  |  Excited state reached by transition:                   model: ADC(2)   |
  |    number, symmetry, multiplicity:   14 a    1                          |
  |    frequency :   0.2619760412 a.u.     7.12873 e.V.     57497.1 rcm     |
  +=========================================================================+

      Total energy of excited state:    -491.1647168540

   +-----------------+-----------------+-----------------+-----------------+
   | operator        | expect. value   | electr. contrib.| diff to gr.st.  |
   +-----------------+-----------------+-----------------+-----------------+
   | xdiplen (unrel) |     -1.10072473 |     87.04153129 |     -5.16103352 |
   | xdiplen (relax) |      1.09042395 |     89.23267997 |       ---       |
   | ydiplen (unrel) |     -0.00017660 |     -0.00017660 |      0.00001100 |
   | ydiplen (relax) |     -0.00017644 |     -0.00017644 |       ---       |
   | zdiplen (unrel) |      0.20498233 |      1.66261975 |      0.00706571 |
   | zdiplen (relax) |      0.19546845 |      1.65310587 |       ---       |
   +-----------------+-----------------+-----------------+-----------------+


     Analysis of relaxed properties:
     ===============================


     dipole moment:
     --------------

     x      1.09042395
     y     -0.00017644
     z      0.19546845

     | dipole moment | =      1.10780519 a.u. =      2.81575966 debye
 


     Analysis of unrelaxed properties:
     =================================


     dipole moment:
     --------------

     x     -1.10072473
     y     -0.00017660
     z      0.20498233

     | dipole moment | =      1.11964848 a.u. =      2.84586229 debye
 

 +---------------------------------+-----------------+
 |   Nonequilibrium solvation      |                 |
 +---------------------------------+-----------------+
 |   E_x_(y) is the total free energy of target      |
 |   state x in the reaction field (RF)              |
 |   equilibrated for state y                        |
 +---------------------------------+-----------------+
 | E_x_(y)                         |  -491.16994898  |
 | E_x_(y) (+OCC)                  |  -491.17051095  |
 | Outlying charge correction(OCC) |    -0.00056198  |
 | E_SCF with RF of state y        |  -489.42281085  |
 | E_corr (ground state)           |    -2.00388254  |
 | E_exci (ground to x state)      |     0.26197604  |
 | Correction for fast part of RF  |    -0.00506822  |
 | Correction for update of eq. RF |    -0.00016340  |
 +---------------------------------+-----------------+


  +=========================================================================+
  |  Excited state reached by transition:                   model: ADC(2)   |
  |    number, symmetry, multiplicity:   15 a    1                          |
  |    frequency :   0.2690766530 a.u.     7.32195 e.V.     59055.5 rcm     |
  +=========================================================================+

      Total energy of excited state:    -491.1576162423

   +-----------------+-----------------+-----------------+-----------------+
   | operator        | expect. value   | electr. contrib.| diff to gr.st.  |
   +-----------------+-----------------+-----------------+-----------------+
   | xdiplen (unrel) |      7.73122641 |     95.87348243 |      3.67091761 |
   | xdiplen (relax) |      7.02220538 |     95.16446140 |       ---       |
   | ydiplen (unrel) |      0.00103277 |      0.00103277 |      0.00122037 |
   | ydiplen (relax) |      0.00093262 |      0.00093262 |       ---       |
   | zdiplen (unrel) |      0.10803234 |      1.56566976 |     -0.08988428 |
   | zdiplen (relax) |      0.11538466 |      1.57302208 |       ---       |
   +-----------------+-----------------+-----------------+-----------------+


     Analysis of relaxed properties:
     ===============================


     dipole moment:
     --------------

     x      7.02220538
     y      0.00093262
     z      0.11538466

     | dipole moment | =      7.02315334 a.u. =     17.85107353 debye
 


     Analysis of unrelaxed properties:
     =================================


     dipole moment:
     --------------

     x      7.73122641
     y      0.00103277
     z      0.10803234

     | dipole moment | =      7.73198124 a.u. =     19.65273415 debye
 

 +---------------------------------+-----------------+
 |   Nonequilibrium solvation      |                 |
 +---------------------------------+-----------------+
 |   E_x_(y) is the total free energy of target      |
 |   state x in the reaction field (RF)              |
 |   equilibrated for state y                        |
 +---------------------------------+-----------------+
 | E_x_(y)                         |  -491.16075186  |
 | E_x_(y) (+OCC)                  |  -491.16276692  |
 | Outlying charge correction(OCC) |    -0.00201507  |
 | E_SCF with RF of state y        |  -489.42281085  |
 | E_corr (ground state)           |    -2.00388254  |
 | E_exci (ground to x state)      |     0.26907665  |
 | Correction for fast part of RF  |    -0.00323832  |
 | Correction for update of eq. RF |     0.00010321  |
 +---------------------------------+-----------------+
 Exporting excited state densities


 =============================================
 | SUMMARY OF RELAXED EXCITATIONS WITH COSMO |
 =============================================

 Explanation of the quantities below:

       E(diff)_x = E_x - E*_y
       E(exci)_x = E_x - E_gs

  E_x  : noneq.        energy of state x
  E*_y : eq.           energy of state y
  E_gs : noneq. or eq. energy of groundstate
  OCC  : outlying charge correction

 The * in column 'sym' marks the equilibrated state

 +=================================================================================+
 | sym | multi | state | COSMO-ADC(2) energy differences                           |
 |     |       |       +-----------------------------------------------------------+
 |     |       |       | E(Total)/au. |  E(diff)/eV  |  E(exci)/eV  |E(exc(OCC))/eV|
 +=================================================================================+
 |*a   |   1   |   0   | -491.4266934 |            - |            - |            - |
 +-----+-------+-------+--------------+--------------+--------------+--------------+
 | a   |   1   |   1   | -491.2971498 |      3.52506 |      3.52506 |      3.51899 |
 +-----+-------+-------+--------------+--------------+--------------+--------------+
 | a   |   1   |   2   | -491.2892933 |      3.73885 |      3.73885 |      3.73886 |
 +-----+-------+-------+--------------+--------------+--------------+--------------+
 | a   |   1   |   3   | -491.2595018 |      4.54952 |      4.54952 |      4.54897 |
 +-----+-------+-------+--------------+--------------+--------------+--------------+
 | a   |   1   |   4   | -491.2583175 |      4.58174 |      4.58174 |      4.58123 |
 +-----+-------+-------+--------------+--------------+--------------+--------------+
 | a   |   1   |   5   | -491.2359137 |      5.19138 |      5.19138 |      5.18850 |
 +-----+-------+-------+--------------+--------------+--------------+--------------+
 | a   |   1   |   6   | -491.2156551 |      5.74264 |      5.74264 |      5.74212 |
 +-----+-------+-------+--------------+--------------+--------------+--------------+
 | a   |   1   |   7   | -491.2160620 |      5.73157 |      5.73157 |      5.72193 |
 +-----+-------+-------+--------------+--------------+--------------+--------------+
 | a   |   1   |   8   | -491.2077185 |      5.95861 |      5.95861 |      5.95830 |
 +-----+-------+-------+--------------+--------------+--------------+--------------+
 | a   |   1   |   9   | -491.1925370 |      6.37172 |      6.37172 |      6.36251 |
 +-----+-------+-------+--------------+--------------+--------------+--------------+
 | a   |   1   |  10   | -491.1848395 |      6.58118 |      6.58118 |      6.53146 |
 +-----+-------+-------+--------------+--------------+--------------+--------------+
 | a   |   1   |  11   | -491.1805832 |      6.69700 |      6.69700 |      6.69155 |
 +-----+-------+-------+--------------+--------------+--------------+--------------+
 | a   |   1   |  12   | -491.1737498 |      6.88295 |      6.88295 |      6.84304 |
 +-----+-------+-------+--------------+--------------+--------------+--------------+
 | a   |   1   |  13   | -491.1698010 |      6.99040 |      6.99040 |      6.98992 |
 +-----+-------+-------+--------------+--------------+--------------+--------------+
 | a   |   1   |  14   | -491.1699490 |      6.98637 |      6.98637 |      6.98068 |
 +-----+-------+-------+--------------+--------------+--------------+--------------+
 | a   |   1   |  15   | -491.1607519 |      7.23664 |      7.23664 |      7.19141 |
 +=================================================================================+



    ------------------------------------------------------------------------
         total  cpu-time : 10 hours 47 minutes and 15 seconds
         total wall-time : 13 hours 21 minutes and 32 seconds
    ------------------------------------------------------------------------


   ****  ricc2 : all done  ****


    2023-02-08 00:08:27.956 

