 hostname is         n02
 this is node-proc. number 0 running on node n02
 the total number of node-proc. spawned is   1

 ricc2 (n02) : TURBOMOLE V6.6( 19125 ) 27 May 2014 at 14:24:19
 Copyright (C) 2014 TURBOMOLE GmbH, Karlsruhe


    2024-04-18 18:05:06.392 



                              R I C C 2 - PROGRAM

                          the quantum chemistry groups
                             at the universities in
                           Karlsruhe, Bochum & Mainz
                                   Germany



   *-----------------------------------------------------------------------*
   |                     program will use  1 thread(s)                     |
   *-----------------------------------------------------------------------*


              +--------------------------------------------------+
              | Atomic coordinate, charge and isotop information |
              +--------------------------------------------------+

                    atomic coordinates            atom    charge  isotop
          2.62715396    0.00000000    0.00000000    c      6.000     0
          0.00000000    0.00000000    0.00000000    c      6.000     0
         -1.34248034    2.25824163    0.00000000    c      6.000     0
         -0.06302237    4.51094635    0.00056692    c      6.000     0
          2.59336566    4.55873753    0.00249444    c      6.000     0
          3.90971109    2.25090949    0.00056692    c      6.000     0
          3.63910231   -1.77057890    0.00147399    h      1.000     0
         -3.38155153    2.22333838    0.00147399    h      1.000     0
         -1.09938597    6.27304038   -0.00066140    h      1.000     0
          5.95399792    2.26052819   -0.00058582    h      1.000     0
         -1.34232916   -2.35962543    0.00300466    n      7.000     0
         -3.65236818   -2.32113171    0.00430858    o      8.000     0
         -0.12880373   -4.32558312    0.00430858    o      8.000     0
          3.85736567    6.78060193   -0.03705753    n      7.000     0
          2.92680783    8.41653784    0.21238632    h      1.000     0
          5.73909827    6.81669570    0.21240522    h      1.000     0
         -3.14382398   -8.24183266   -2.02514391    o      8.000     0
         -2.15504368   -6.98223570   -1.02160484    h      1.000     0
         -4.34281742   -7.33389484   -3.16937308    h      1.000     0
          8.99305549    8.11979415    0.31017965    o      8.000     0
          9.97971930    9.40408982   -0.66365292    h      1.000     0
          8.33414578    8.90367144    1.89847556    h      1.000     0
         -7.65832302   -5.27864760    1.57905516    o      8.000     0
         -7.81585059   -6.04530949    3.29914057    h      1.000     0
         -5.86678706   -4.75396514    1.28510826    h      1.000     0
          2.00241050   11.85670868    0.30974501    o      8.000     0
          1.11399356   12.35888450    1.90030860    h      1.000     0
          3.41084229   13.06874122   -0.03452530    h      1.000     0
         -6.71914803   -4.76793021   -4.42341424    o      8.000     0
         -8.47457133   -5.42060382   -4.67586275    h      1.000     0
         -6.60071890   -3.91328267   -2.74208711    h      1.000     0
          9.70865698   -1.43940440   -0.76635954    o      8.000     0
          9.66825464    0.34942926   -1.37443561    h      1.000     0
         10.78544183   -2.47404835   -1.92451599    h      1.000     0
          6.78594985   -6.34350827    0.53995145    o      8.000     0
          7.23589364   -4.51816511    0.34795527    h      1.000     0
          8.36649789   -7.37422160    0.64377300    h      1.000     0
         -6.91721023    4.49892770   -4.33302864    o      8.000     0
         -7.08371400    4.27236843   -2.46425957    h      1.000     0
         -7.90744562    3.15637177   -5.22091646    h      1.000     0
         -4.76932861    6.33466435    3.95170080    o      8.000     0
         -5.91304756    5.52115615    2.68622680    h      1.000     0
         -4.86039451    5.38664544    5.58393285    h      1.000     0
         -1.09796868   10.00466368    4.88562235    o      8.000     0
         -2.37820144    8.77586926    4.23578333    h      1.000     0
          0.49832078    9.08612450    5.30912888    h      1.000     0
         10.97314832    3.69186346   -1.97570867    o      8.000     0
         10.39356932    4.97544104   -0.71562039    h      1.000     0
         12.67467663    4.18147260   -2.63631913    h      1.000     0
         -2.78301857   10.99584394   -1.90491953    o      8.000     0
         -1.39724461   11.41339782   -0.68980673    h      1.000     0
         -4.45625768   11.28580351   -1.07578329    h      1.000     0
          9.59122940    1.09575770    3.57146901    o      8.000     0
         10.82977480    2.49258656    3.86500017    h      1.000     0
         10.27755903   -0.09167061    2.27133743    h      1.000     0
         -2.01004500    1.77280878   -6.09000151    o      8.000     0
         -0.59715346    3.01394311   -6.27612064    h      1.000     0
         -3.52135347    2.64340561   -5.36249474    h      1.000     0
         -2.19108076   -3.26542786   -6.09616202    o      8.000     0
         -3.85392637   -3.78754029   -5.36563169    h      1.000     0
         -1.93419139   -1.41402537   -5.81750300    h      1.000     0
          3.27824020   -6.45366041    4.60499802    o      8.000     0
          4.19248971   -5.23924681    5.72774101    h      1.000     0
          4.13026103   -6.51668277    2.91932452    h      1.000     0
          7.63757383    4.67841388   -5.88001514    o      8.000     0
          6.85785393    6.30087605   -5.30476361    h      1.000     0
          8.91202403    4.10614812   -4.60745467    h      1.000     0
 
       center of nuclear mass  :    1.07375354    1.45045937   -0.53793606
       center of nuclear charge:    1.11333660    1.51392356   -0.53234265

              +--------------------------------------------------+
              |               basis set information              |
              +--------------------------------------------------+

              we will work with the 1s 3p 5d 7f 9g ... basis set
              ...i.e. with spherical basis functions...

   type   atoms  prim   cont   basis
   ---------------------------------------------------------------------------
    c        6     52     37   def2-TZVPD   [6s3p3d1f|12s6p3d1f]
    h        6     11      9   def2-TZVPD   [3s2p|5s2p]
    n        2     52     37   def2-TZVPD   [6s3p3d1f|12s6p3d1f]
    o        2     55     40   def2-TZVPD   [6s4p3d1f|12s7p3d1f]
    o       17     24     14   def-SV(P)   [3s2p1d|7s4p1d]
    h       34      4      2   def-SV(P)   [2s|4s]
   ---------------------------------------------------------------------------
   total:   67   1136    736
   ---------------------------------------------------------------------------

   total number of primitive shells          :   90
   total number of contracted shells         :  332
   total number of cartesian basis functions :  813
   total number of SCF-basis functions       :  736



   =========================================================================


     restricted closed shell calculation for the wavefunction models:
               ADC(2)     - Algebraic Diagrammatic Construction to 2. Order (strict)


     global parameters for ricc2 program:

        hard restart (reuse of interm.) :  disabled
        soft restart (reuse of vectors) :  disabled
        threshold for vector function   :    0.100000E-05
        convergence threshold energy    :    0.100000E-06
        linear dependence threshold     :    0.100000E-13
        global print level              :      1
        maximum number of iterations    :   300
        maximum number DIIS vectors     :    10
        max. dim. of reduced space      :   100
        core memory limit (MB)          :   500
        disk space limit (MB)           :   none


   =========================================================================

------------------------------------------------------------------------
 point charges
------------------------------------------------------------------------

 number of point charges read in =       3186

 distance threshold set to   0.10D-05

No check for symmetry or overlap of point charges - nocheck keyword found !

     "cartesian on" in $drvopt is ignored by $ricc2

    der. integral neglect threshold  :  0.10E-07
    integral neglect threshold       :  0.41E-11
    integral storage threshold THIZE :  0.10E-04
    integral storage threshold THIME :         5


                  +------------------------------------------+
                  |     Auxiliary basis set information      |
                  +------------------------------------------+

              we will work with the 1s 3p 5d 7f 9g ... basis set
              ...i.e. with spherical basis functions...

   type   atoms  prim   cont   basis
   ---------------------------------------------------------------------------
    c        6     97     92   def2-TZVPD   [9s7p5d4f1g|9s7p6d4f1g]
    h        6     32     24   def2-TZVPD   [5s3p2d|5s4p3d]
    n        2     97     92   def2-TZVPD   [9s7p5d4f1g|9s7p6d4f1g]
    o        2     97     92   def2-TZVPD   [9s7p5d4f1g|9s7p6d4f1g]
    o       17     72     48   def-SV(P)   [6s5p4d1f|8s6p5d3f]
    h       34     23     14   def-SV(P)   [3s2p1d|4s3p2d]
   ---------------------------------------------------------------------------
   total:   67   3168   2356
   ---------------------------------------------------------------------------

   total number of primitive shells          :  124
   total number of contracted shells         :  796
   total number of cartesian basis functions : 2751
   total number of SCF-basis functions       : 2356


 symmetry group of the molecule :   c1 

 the group has the following generators :
   c1(z)

    1 symmetry operations found

 there are 1 real representations :   a   

 maximum number of shells which are related by symmetry :  1


 The symmetry information takes   1 MB

*---------------------------------------------------------------------*
|               simplified C1 algorithm will be applied               |
*---------------------------------------------------------------------*
  MOs are in ASCII format !


 reading orbital data $scfmo  from file mos . 

 orbital characterization : scfconv=7
 

         --------------------------------------------------------------
                   checking mo's by calculating trace(D*S)

              number of electrons : 
                 from trace(D*S)         :  242.000000000107
                 from occupation numbers :  242.000000000000

              molecular charge           :    0.000000000000
         --------------------------------------------------------------

 time elapsed for calculating density matrices :   0.021 sec



              +--------------------------------------------+
              | list of orbitals that will be kept frozen: |
              +--------------------------------------------+
              |   irrep   index      energy     occ/vir    |
              +--------------------------------------------+
              |   a         1      -20.6227     occupied   |
              |   a         2      -20.6079     occupied   |
              |   a         3      -20.6064     occupied   |
              |   a         4      -20.6000     occupied   |
              |   a         5      -20.5887     occupied   |
              |   a         6      -20.5854     occupied   |
              |   a         7      -20.5800     occupied   |
              |   a         8      -20.5780     occupied   |
              |   a         9      -20.5772     occupied   |
              |   a        10      -20.5728     occupied   |
              |   a        11      -20.5672     occupied   |
              |   a        12      -20.5606     occupied   |
              |   a        13      -20.5599     occupied   |
              |   a        14      -20.5587     occupied   |
              |   a        15      -20.5532     occupied   |
              |   a        16      -20.5518     occupied   |
              |   a        17      -20.5489     occupied   |
              |   a        18      -20.5386     occupied   |
              |   a        19      -20.5341     occupied   |
              |   a        20      -15.8614     occupied   |
              |   a        21      -15.5580     occupied   |
              |   a        22      -11.3042     occupied   |
              |   a        23      -11.2782     occupied   |
              |   a        24      -11.2652     occupied   |
              |   a        25      -11.2621     occupied   |
              |   a        26      -11.2305     occupied   |
              |   a        27      -11.2301     occupied   |
              +--------------------------------------------+



   Molecular Orbital Statistic:
   ============================

   -----------------------------
   orbitals in total:
   -----------------------------
    frozen occupied :     27
    active occupied :     94
    active virtual  :    615
    frozen virtual  :      0
    all together    :    736
   -----------------------------


     time in riccmos       cpu:  0.16 sec    wall:  0.51 sec    ratio:  0.3

     total memory allocated for calculation of (Q|P)**(-1/2) : 64 MiB


     calculation of (P|Q) ...
     time in lp2sym        cpu:  0.06 sec    wall:  0.06 sec    ratio:  1.0


     calculation of the Cholesky decomposition of (P|Q)**(-1) ...
     time in invmetri      cpu:  0.28 sec    wall:  0.67 sec    ratio:  0.4

   threshold for RMS(d[D]) in SCF was     :  0.10E-06
   integral neglect threshold             :  0.41E-11
   derivative integral neglect threshold  :  0.10E-07


 setting up bound for integral derivative estimation

 increment for numerical differentiation : 0.00050000

   =========================================================================

     Energy of reference wave function is -1780.9656325930000
     Maximum orbital residual is           0.4552484425076E-05


     Number of symmetry-nonredundant auxiliary basis functions:     2356

     Block lengths for integral files:
        frozen occupied (BOI):        1 MiB
        active occupied (BJI):        2 MiB
        active virtual  (BAI):       12 MiB
        frozen virtual  (BGI):        0 MiB
               general  (BTI):       14 MiB

   =========================================================================




   **************************************************************************
   *                                                                        *
   *          OPTIMIZATION OF THE GROUND STATE CLUSTER AMPLITUDES           *
   *                                                                        *
   **************************************************************************


   Iter.   MP2 energy       Norm(Omega)    Norm(t1)  Norm(t2)     cpu    wall
   ...........................................................................
    1  -1786.1685340535    0.2039397408     0.00000   0.72546    6.10    8.36
   ...........................................................................


     time in total         cpu:  6 min  6 s  wall:  8 min 22 s  ratio:  0.7


     **********************************************************************
     *                                                                    *
     *   RHF  energy                             :  -1780.9656325930      *
     *   MP2 correlation energy                  :     -5.2029014605      *
     *                                                                    *
     *   Final MP2 energy                        :  -1786.1685340535      *
     *                                                                    *
     *   Norm of MP1 T2 amplitudes               :      0.7254622175      *
     *                                                                    *
     *   D1 diagnostic                           :      0.0616            *
     *                                                                    *
     **********************************************************************



 **************************************************************
 *                                                            *
 *    OPTIMIZATION OF THE EXCITED STATE CLUSTER AMPLITUDES    *
 *                                                            *
 **************************************************************


  preoptimize excitation energies/vectors using CCS:

  ==================================================


 ======== LINEAR CC RESPONSE SOLVER ========

    threshold for convergence: 0.10E-02
    maximum number of simultaneous jacoby matrix transformations: 10
                                                
     summary of start vectors generation:
     -------------------------------------------
     type of solution vectors      : RE0
     symmetry                      : a  
     number of vectors requested   :    10
     number of vectors generated   :    10
       -- guessed as rhs/(e_a-e_i) :    10
     -------------------------------------------
                                                

    Iter  #Vectors  time (min)    max. residual 
    --------------------------------------------
      1      10         8.45     0.15E+00  (  1)
      2      10         7.59     0.53E-01  (  1)
      3      10         7.49     0.65E-01  (  6)
      4      10         8.60     0.58E-01  ( 10)
      5      10         7.29     0.13E+00  (  7)
      6       9         6.74     0.79E-01  (  3)
      7       8         5.84     0.12E+00  (  4)
      8       8         6.07     0.38E-01  (  3)
      9       6         4.56     0.11E-01  (  3)
     10       4         3.46     0.33E-02  (  3)
     11       4         2.82     0.11E-02  (  3)
     12       1         0.87     0.63E-03  (  2)
    --------------------------------------------
    converged in 12 iterations

         Total time         69.79 minutes


 ===========================================




 Note that this is the intermediate result of a preoptimization!
 The convergence threshold was  0.1E-02 only!


 +==================================================================+
 | sym | multi | state |          CCS excitation energies           |
 |     |       |       +--------------------------------------------+
 |     |       |       |   Hartree    |     eV       |     cm-1     |
 +==================================================================+
 | a   |   1   |   1   |    0.1739084 |      4.73229 |    38168.487 |
 | a   |   1   |   2   |    0.2008570 |      5.46560 |    44083.007 |
 | a   |   1   |   3   |    0.2045722 |      5.56669 |    44898.414 |
 | a   |   1   |   4   |    0.2227328 |      6.06087 |    48884.202 |
 | a   |   1   |   5   |    0.2424074 |      6.59624 |    53202.277 |
 | a   |   1   |   6   |    0.2489129 |      6.77326 |    54630.061 |
 | a   |   1   |   7   |    0.2584772 |      7.03352 |    56729.189 |
 | a   |   1   |   8   |    0.2749007 |      7.48043 |    60333.726 |
 | a   |   1   |   9   |    0.2774406 |      7.54954 |    60891.163 |
 | a   |   1   |  10   |    0.2870045 |      7.80979 |    62990.215 |
 +==================================================================+




  preoptimize ADC(2) excitation energies/vectors using a quasi linear algorithm:
  ==============================================================================


 ======== LINEAR CC RESPONSE SOLVER ========

    threshold for convergence: 0.10E-02
    maximum number of simultaneous jacoby matrix transformations: 10
                                                
     summary of start vectors generation:
     -------------------------------------------
     type of solution vectors      : RE0
     symmetry                      : a  
     number of vectors requested   :    10
     number of vectors generated   :    10
       -- restarted from file      :    10
     -------------------------------------------
                                                

    Iter  #Vectors  time (min)    max. residual 
    --------------------------------------------
 threshold for this macro iteration:  5.853926777609311E-002
      1      10       132.58     0.95E-01  (  6)
 ...adapted threshold to:  6.661442292091335E-002
      2       7        91.77     0.60E-01  ( 10)
                                                
     summary of start vectors generation:
     -------------------------------------------
     type of solution vectors      : RE0
     symmetry                      : a  
     number of vectors requested   :    10
     number of vectors generated   :    10
       -- restarted from file      :    10
     -------------------------------------------
                                                

    Iter  #Vectors  time (min)    max. residual 
    --------------------------------------------
 threshold for this macro iteration:  9.160118747611551E-003
      3      10       128.53     0.60E-01  ( 10)
      4      10       132.57     0.42E-01  ( 10)
 ...adapted threshold to:  1.530703928526009E-002
      5       8       102.83     0.76E-01  ( 10)
 ...adapted threshold to:  2.136489470130976E-002
      6       2        27.32     0.19E-01  ( 10)
                                                
     summary of start vectors generation:
     -------------------------------------------
     type of solution vectors      : RE0
     symmetry                      : a  
     number of vectors requested   :    10
     number of vectors generated   :    10
       -- restarted from file      :    10
     -------------------------------------------
                                                

    Iter  #Vectors  time (min)    max. residual 
    --------------------------------------------
 threshold for this macro iteration:  7.444003857684178E-003
      7      10       132.33     0.24E-01  (  9)
 ...adapted threshold to:  9.049045683907159E-003
      8       2        26.88     0.24E-01  (  9)
 ...adapted threshold to:  1.039650196570274E-002
      9       1        12.40     0.13E-01  (  9)
 ...adapted threshold to:  1.079721164490841E-002
     10       1        12.54     0.72E-02  (  9)
                                                
     summary of start vectors generation:
     -------------------------------------------
     type of solution vectors      : RE0
     symmetry                      : a  
     number of vectors requested   :    10
     number of vectors generated   :    10
       -- restarted from file      :    10
     -------------------------------------------
                                                

    Iter  #Vectors  time (min)    max. residual 
    --------------------------------------------
 threshold for this macro iteration:  2.166275624072594E-003
     11      10       130.41     0.71E-02  (  9)
     12       1        12.83     0.46E-02  (  9)
     13       1        12.63     0.29E-02  (  9)
     14       1        12.26     0.21E-02  (  9)
                                                
     summary of start vectors generation:
     -------------------------------------------
     type of solution vectors      : RE0
     symmetry                      : a  
     number of vectors requested   :    10
     number of vectors generated   :    10
       -- restarted from file      :    10
     -------------------------------------------
                                                

    Iter  #Vectors  time (min)    max. residual 
    --------------------------------------------
 threshold for this macro iteration:  1.000000000000000E-003
     15      10       131.57     0.13E-02  ( 10)
     16       1        12.59     0.16E-02  ( 10)
     17       1        12.48     0.15E-02  ( 10)
     18       1        12.54     0.76E-03  (  6)
    --------------------------------------------
    converged in 18 iterations

         Total time       1137.09 minutes


 ===========================================




 Note that this is the intermediate result of a preoptimization!
 The convergence threshold was  0.1E-02 only!


 +==================================================================+
 | sym | multi | state |          ADC(2) excitation energies        |
 |     |       |       +--------------------------------------------+
 |     |       |       |   Hartree    |     eV       |     cm-1     |
 +==================================================================+
 | a   |   1   |   1   |    0.1194854 |      3.25136 |    26224.015 |
 | a   |   1   |   2   |    0.1454785 |      3.95867 |    31928.830 |
 | a   |   1   |   3   |    0.1637806 |      4.45670 |    35945.677 |
 | a   |   1   |   4   |    0.1744621 |      4.74736 |    38290.006 |
 | a   |   1   |   5   |    0.1823083 |      4.96086 |    40012.041 |
 | a   |   1   |   6   |    0.2142671 |      5.83051 |    47026.202 |
 | a   |   1   |   7   |    0.2150361 |      5.85143 |    47194.960 |
 | a   |   1   |   8   |    0.2212205 |      6.01972 |    48552.295 |
 | a   |   1   |   9   |    0.2302883 |      6.26646 |    50542.429 |
 | a   |   1   |  10   |    0.2404255 |      6.54231 |    52767.294 |
 +==================================================================+





  solve for ADC(2) excitation energies/vectors using a DIIS algorithm:
  =================================================================
                                                
     summary of start vectors generation:
     -------------------------------------------
     type of solution vectors      : RE0
     symmetry                      : a  
     number of vectors requested   :    10
     number of vectors generated   :    10
       -- restarted from file      :    10
     -------------------------------------------
                                                


 ========= DIIS CC RESPONSE SOLVER =========

    threshold for convergence:0.10E-05
    max. nb. of DIIS vectors :      10
    maximum number of simultaneous jacoby matrix transformations: 10

    Iter  #Vectors  time (min)   residual
    --------------------------------------
      1      10       129.03     0.58E-03  (  9)    0.47E-02
      2      10       136.73     0.50E-03  (  9)    0.38E-02
      3      10       133.27     0.32E-03  (  9)    0.51E-02
      4      10       131.18     0.25E-03  (  9)    0.44E-02
      5       9       122.24     0.13E-03  (  9)    0.41E-02
      6       8       108.18     0.91E-04  (  9)    0.38E-02
      7       6        78.01     0.67E-04  (  9)    0.40E-02
      8       5        65.98     0.49E-04  (  9)    0.40E-02
      9       5        65.12     0.28E-04  (  9)    0.39E-02
     10       5        65.53     0.17E-04  (  9)    0.39E-02
     11       5        66.09     0.12E-04  (  9)    0.39E-02
     12       3        41.39     0.82E-05  (  9)    0.39E-02
     13       2        26.23     0.58E-05  ( 10)    0.39E-02
     14       2        28.80     0.47E-05  ( 10)    0.39E-02
     15       2        28.47     0.38E-05  ( 10)    0.39E-02
     16       2        27.81     0.31E-05  ( 10)    0.39E-02
     17       1        13.06     0.25E-05  ( 10)    0.39E-02
     18       1        13.18     0.19E-05  ( 10)    0.39E-02
     19       1        12.83     0.13E-05  ( 10)    0.39E-02
     20       1        12.35     0.86E-06  ( 10)    0.39E-02
    --------------------------------------
    converged in  20 iterations

   Total time       1305.49 minutes


 ===========================================





 +================================================================================+
 | sym | multi | state |          ADC(2) excitation energies    |  %t1   |  %t2   |
 |     |       |       +----------------------------------------+--------+--------+
 |     |       |       |   Hartree    |    eV      |    cm-1    |    %   |    %   |
 +================================================================================+
 | a   |   1   |   1   |    0.1194915 |    3.25153 |  26225.349 |  86.51 |  13.49 |
 | a   |   1   |   2   |    0.1454795 |    3.95870 |  31929.052 |  89.59 |  10.41 |
 | a   |   1   |   3   |    0.1637831 |    4.45676 |  35946.229 |  88.96 |  11.04 |
 | a   |   1   |   4   |    0.1744626 |    4.74737 |  38290.122 |  89.91 |  10.09 |
 | a   |   1   |   5   |    0.1823123 |    4.96097 |  40012.932 |  87.78 |  12.22 |
 | a   |   1   |   6   |    0.2142648 |    5.83044 |  47025.693 |  88.69 |  11.31 |
 | a   |   1   |   7   |    0.2150363 |    5.85143 |  47195.006 |  89.16 |  10.84 |
 | a   |   1   |   8   |    0.2212195 |    6.01969 |  48552.077 |  90.93 |   9.07 |
 | a   |   1   |   9   |    0.2303606 |    6.26843 |  50558.304 |  84.82 |  15.18 |
 | a   |   1   |  10   |    0.2404343 |    6.54255 |  52769.227 |  90.20 |   9.80 |
 +================================================================================+


       Energy:     0.1194915 H      3.25153 eV    26225.349 cm-1

     +=======================================================================+
     | type: RE0                    symmetry: a               state:    1    |
     +-----------------------+-----------------------+-----------------------+
     | occ. orb.  index spin | vir. orb.  index spin |  coeff/|amp|     %    |
     +=======================+=======================+=======================+
     |  121 a      121       |  122 a      122       |   0.97154      94.4   |
     |  121 a      121       |  136 a      136       |   0.07319       0.5   |
     |   96 a       96       |  122 a      122       |  -0.05905       0.3   |
     +=======================+=======================+=======================+
     norm of printed elements:  0.95273


       Energy:     0.1454795 H      3.95870 eV    31929.052 cm-1

     +=======================================================================+
     | type: RE0                    symmetry: a               state:    2    |
     +-----------------------+-----------------------+-----------------------+
     | occ. orb.  index spin | vir. orb.  index spin |  coeff/|amp|     %    |
     +=======================+=======================+=======================+
     |  112 a      112       |  122 a      122       |   0.58343      34.0   |
     |  111 a      111       |  122 a      122       |  -0.45126      20.4   |
     |  109 a      109       |  122 a      122       |   0.41561      17.3   |
     |  106 a      106       |  122 a      122       |  -0.17759       3.2   |
     |  117 a      117       |  122 a      122       |   0.16546       2.7   |
     |  114 a      114       |  122 a      122       |   0.15363       2.4   |
     |  115 a      115       |  122 a      122       |   0.14614       2.1   |
     |  113 a      113       |  122 a      122       |   0.13111       1.7   |
     |  112 a      112       |  136 a      136       |   0.11945       1.4   |
     |  110 a      110       |  122 a      122       |   0.11856       1.4   |
     |  107 a      107       |  122 a      122       |  -0.11200       1.3   |
     |  112 a      112       |  131 a      131       |  -0.09476       0.9   |
     |  111 a      111       |  136 a      136       |  -0.09278       0.9   |
     |  109 a      109       |  136 a      136       |   0.08660       0.7   |
     |   81 a       81       |  122 a      122       |   0.07868       0.6   |
     |  111 a      111       |  131 a      131       |   0.07339       0.5   |
     |   95 a       95       |  122 a      122       |  -0.06987       0.5   |
     |  109 a      109       |  131 a      131       |  -0.06923       0.5   |
     |  118 a      118       |  122 a      122       |  -0.06153       0.4   |
     |  112 a      112       |  128 a      128       |  -0.05918       0.4   |
     +=======================+=======================+=======================+
     norm of printed elements:  0.93232


       Energy:     0.1637831 H      4.45676 eV    35946.229 cm-1

     +=======================================================================+
     | type: RE0                    symmetry: a               state:    3    |
     +-----------------------+-----------------------+-----------------------+
     | occ. orb.  index spin | vir. orb.  index spin |  coeff/|amp|     %    |
     +=======================+=======================+=======================+
     |  120 a      120       |  122 a      122       |   0.73630      54.2   |
     |  121 a      121       |  125 a      125       |   0.43057      18.5   |
     |  121 a      121       |  126 a      126       |   0.40771      16.6   |
     |  121 a      121       |  124 a      124       |  -0.19195       3.7   |
     |  121 a      121       |  127 a      127       |  -0.11199       1.3   |
     |  121 a      121       |  123 a      123       |  -0.09831       1.0   |
     +=======================+=======================+=======================+
     norm of printed elements:  0.95280


       Energy:     0.1744626 H      4.74737 eV    38290.122 cm-1

     +=======================================================================+
     | type: RE0                    symmetry: a               state:    4    |
     +-----------------------+-----------------------+-----------------------+
     | occ. orb.  index spin | vir. orb.  index spin |  coeff/|amp|     %    |
     +=======================+=======================+=======================+
     |  110 a      110       |  122 a      122       |   0.65756      43.2   |
     |  109 a      109       |  122 a      122       |  -0.47598      22.7   |
     |  114 a      114       |  122 a      122       |   0.26748       7.2   |
     |  107 a      107       |  122 a      122       |   0.18027       3.2   |
     |  113 a      113       |  122 a      122       |   0.16306       2.7   |
     |  110 a      110       |  136 a      136       |   0.12719       1.6   |
     |  116 a      116       |  122 a      122       |   0.12019       1.4   |
     |   89 a       89       |  122 a      122       |  -0.11046       1.2   |
     |   84 a       84       |  122 a      122       |   0.10848       1.2   |
     |   77 a       77       |  122 a      122       |  -0.10518       1.1   |
     |  110 a      110       |  131 a      131       |  -0.10074       1.0   |
     |  109 a      109       |  136 a      136       |  -0.09223       0.9   |
     |  112 a      112       |  122 a      122       |   0.08709       0.8   |
     |  106 a      106       |  122 a      122       |   0.08358       0.7   |
     |   95 a       95       |  122 a      122       |  -0.07925       0.6   |
     |  109 a      109       |  131 a      131       |   0.07380       0.5   |
     |  111 a      111       |  122 a      122       |  -0.06860       0.5   |
     |  110 a      110       |  128 a      128       |  -0.06497       0.4   |
     |   70 a       70       |  122 a      122       |  -0.06101       0.4   |
     |   55 a       55       |  122 a      122       |   0.05942       0.4   |
     +=======================+=======================+=======================+
     norm of printed elements:  0.91636


       Energy:     0.1823123 H      4.96097 eV    40012.932 cm-1

     +=======================================================================+
     | type: RE0                    symmetry: a               state:    5    |
     +-----------------------+-----------------------+-----------------------+
     | occ. orb.  index spin | vir. orb.  index spin |  coeff/|amp|     %    |
     +=======================+=======================+=======================+
     |  120 a      120       |  122 a      122       |  -0.63094      39.8   |
     |  121 a      121       |  125 a      125       |   0.47031      22.1   |
     |  121 a      121       |  126 a      126       |   0.44502      19.8   |
     |  121 a      121       |  124 a      124       |  -0.22580       5.1   |
     |  118 a      118       |  122 a      122       |   0.15056       2.3   |
     |  121 a      121       |  127 a      127       |  -0.12205       1.5   |
     |  121 a      121       |  123 a      123       |  -0.12112       1.5   |
     |  120 a      120       |  136 a      136       |  -0.11937       1.4   |
     |  120 a      120       |  131 a      131       |   0.08628       0.7   |
     |  119 a      119       |  125 a      125       |   0.06978       0.5   |
     |  119 a      119       |  126 a      126       |   0.06508       0.4   |
     +=======================+=======================+=======================+
     norm of printed elements:  0.95135


       Energy:     0.2142648 H      5.83044 eV    47025.693 cm-1

     +=======================================================================+
     | type: RE0                    symmetry: a               state:    6    |
     +-----------------------+-----------------------+-----------------------+
     | occ. orb.  index spin | vir. orb.  index spin |  coeff/|amp|     %    |
     +=======================+=======================+=======================+
     |  118 a      118       |  122 a      122       |   0.75216      56.6   |
     |  121 a      121       |  131 a      131       |  -0.35922      12.9   |
     |  121 a      121       |  136 a      136       |   0.24711       6.1   |
     |  117 a      117       |  122 a      122       |   0.24105       5.8   |
     |  121 a      121       |  128 a      128       |  -0.10758       1.2   |
     |  120 a      120       |  122 a      122       |   0.10668       1.1   |
     |  118 a      118       |  136 a      136       |   0.10219       1.0   |
     |  118 a      118       |  131 a      131       |  -0.09760       1.0   |
     |  121 a      121       |  127 a      127       |   0.09567       0.9   |
     |  121 a      121       |  129 a      129       |  -0.08968       0.8   |
     |  121 a      121       |  132 a      132       |  -0.08297       0.7   |
     |  121 a      121       |  133 a      133       |  -0.07371       0.5   |
     |  120 a      120       |  125 a      125       |   0.06871       0.5   |
     |  120 a      120       |  126 a      126       |   0.06445       0.4   |
     |  119 a      119       |  131 a      131       |  -0.06014       0.4   |
     |  121 a      121       |  135 a      135       |   0.05999       0.4   |
     |  121 a      121       |  126 a      126       |  -0.05907       0.3   |
     |  121 a      121       |  125 a      125       |  -0.05246       0.3   |
     |  121 a      121       |  130 a      130       |  -0.05209       0.3   |
     |  121 a      121       |  123 a      123       |  -0.05066       0.3   |
     +=======================+=======================+=======================+
     norm of printed elements:  0.91401


       Energy:     0.2150363 H      5.85143 eV    47195.006 cm-1

     +=======================================================================+
     | type: RE0                    symmetry: a               state:    7    |
     +-----------------------+-----------------------+-----------------------+
     | occ. orb.  index spin | vir. orb.  index spin |  coeff/|amp|     %    |
     +=======================+=======================+=======================+
     |  121 a      121       |  131 a      131       |   0.53462      28.6   |
     |  118 a      118       |  122 a      122       |   0.44622      19.9   |
     |  121 a      121       |  136 a      136       |  -0.37500      14.1   |
     |  119 a      119       |  122 a      122       |   0.31266       9.8   |
     |  121 a      121       |  128 a      128       |   0.17135       2.9   |
     |  121 a      121       |  123 a      123       |   0.16257       2.6   |
     |  121 a      121       |  129 a      129       |   0.15967       2.5   |
     |  117 a      117       |  122 a      122       |   0.14965       2.2   |
     |  121 a      121       |  132 a      132       |   0.10679       1.1   |
     |  120 a      120       |  125 a      125       |  -0.10571       1.1   |
     |  121 a      121       |  124 a      124       |   0.10328       1.1   |
     |  121 a      121       |  127 a      127       |  -0.09743       0.9   |
     |  120 a      120       |  126 a      126       |  -0.09311       0.9   |
     |  121 a      121       |  135 a      135       |  -0.08019       0.6   |
     |  118 a      118       |  131 a      131       |  -0.07774       0.6   |
     |  121 a      121       |  133 a      133       |   0.07637       0.6   |
     |  118 a      118       |  136 a      136       |   0.07291       0.5   |
     |  121 a      121       |  158 a      158       |  -0.06862       0.5   |
     |  121 a      121       |  130 a      130       |   0.06797       0.5   |
     |  120 a      120       |  122 a      122       |   0.06207       0.4   |
     +=======================+=======================+=======================+
     norm of printed elements:  0.91520


       Energy:     0.2212195 H      6.01969 eV    48552.077 cm-1

     +=======================================================================+
     | type: RE0                    symmetry: a               state:    8    |
     +-----------------------+-----------------------+-----------------------+
     | occ. orb.  index spin | vir. orb.  index spin |  coeff/|amp|     %    |
     +=======================+=======================+=======================+
     |  121 a      121       |  123 a      123       |   0.74884      56.1   |
     |  121 a      121       |  124 a      124       |   0.46694      21.8   |
     |  121 a      121       |  126 a      126       |   0.20212       4.1   |
     |  121 a      121       |  125 a      125       |   0.18996       3.6   |
     |  121 a      121       |  131 a      131       |  -0.14584       2.1   |
     |  121 a      121       |  142 a      142       |   0.11151       1.2   |
     |  119 a      119       |  124 a      124       |   0.09823       1.0   |
     |  119 a      119       |  122 a      122       |  -0.09798       1.0   |
     |  121 a      121       |  136 a      136       |   0.08990       0.8   |
     |  121 a      121       |  129 a      129       |   0.07733       0.6   |
     |  121 a      121       |  130 a      130       |  -0.06567       0.4   |
     |  121 a      121       |  127 a      127       |  -0.06516       0.4   |
     |  121 a      121       |  132 a      132       |  -0.06462       0.4   |
     |  119 a      119       |  123 a      123       |   0.06375       0.4   |
     |  121 a      121       |  153 a      153       |  -0.06374       0.4   |
     |  121 a      121       |  149 a      149       |  -0.06327       0.4   |
     |  121 a      121       |  158 a      158       |  -0.06181       0.4   |
     |  121 a      121       |  157 a      157       |  -0.06118       0.4   |
     +=======================+=======================+=======================+
     norm of printed elements:  0.95517


       Energy:     0.2303606 H      6.26843 eV    50558.304 cm-1

     +=======================================================================+
     | type: RE0                    symmetry: a               state:    9    |
     +-----------------------+-----------------------+-----------------------+
     | occ. orb.  index spin | vir. orb.  index spin |  coeff/|amp|     %    |
     +=======================+=======================+=======================+
     |  119 a      119       |  122 a      122       |   0.91481      83.7   |
     |  121 a      121       |  131 a      131       |  -0.21725       4.7   |
     |  121 a      121       |  136 a      136       |   0.15781       2.5   |
     |  118 a      118       |  122 a      122       |  -0.12829       1.6   |
     |  116 a      116       |  122 a      122       |  -0.07147       0.5   |
     |  121 a      121       |  128 a      128       |  -0.06619       0.4   |
     |   96 a       96       |  122 a      122       |   0.06204       0.4   |
     |  119 a      119       |  128 a      128       |  -0.06042       0.4   |
     |  119 a      119       |  136 a      136       |   0.05128       0.3   |
     |  105 a      105       |  122 a      122       |   0.04987       0.2   |
     |  121 a      121       |  122 a      122       |  -0.04978       0.2   |
     |  121 a      121       |  127 a      127       |   0.04934       0.2   |
     |  121 a      121       |  132 a      132       |  -0.04922       0.2   |
     +=======================+=======================+=======================+
     norm of printed elements:  0.95487


       Energy:     0.2404343 H      6.54255 eV    52769.227 cm-1

     +=======================================================================+
     | type: RE0                    symmetry: a               state:   10    |
     +-----------------------+-----------------------+-----------------------+
     | occ. orb.  index spin | vir. orb.  index spin |  coeff/|amp|     %    |
     +=======================+=======================+=======================+
     |  121 a      121       |  124 a      124       |   0.69568      48.4   |
     |  121 a      121       |  123 a      123       |  -0.48152      23.2   |
     |  121 a      121       |  127 a      127       |   0.25629       6.6   |
     |  121 a      121       |  125 a      125       |   0.19133       3.7   |
     |  121 a      121       |  128 a      128       |  -0.18160       3.3   |
     |  121 a      121       |  129 a      129       |   0.14816       2.2   |
     |  119 a      119       |  124 a      124       |   0.11589       1.3   |
     |  121 a      121       |  142 a      142       |  -0.11227       1.3   |
     |  121 a      121       |  133 a      133       |   0.10853       1.2   |
     |  121 a      121       |  150 a      150       |   0.08072       0.7   |
     |  121 a      121       |  143 a      143       |  -0.07735       0.6   |
     |  121 a      121       |  130 a      130       |   0.07196       0.5   |
     |  121 a      121       |  146 a      146       |   0.06816       0.5   |
     |  121 a      121       |  141 a      141       |   0.06768       0.5   |
     |  121 a      121       |  126 a      126       |   0.06430       0.4   |
     |  121 a      121       |  157 a      157       |  -0.05980       0.4   |
     |  121 a      121       |  136 a      136       |  -0.05621       0.3   |
     |  119 a      119       |  127 a      127       |   0.05573       0.3   |
     +=======================+=======================+=======================+
     norm of printed elements:  0.95175



     Info: copy ADC(2) right eigenvectors into left eigenvector files.


                    ========   CC DENSITY MODULE   ========

                      current wave-function model: ADC(2)  

  calculating overlap between   10 left and right vector(s)
    density nr.      cpu/min        wall/min    L     R
   ------------------------------------------------------
         1             8.33            9.60    LE0    RE0 
         2             8.31            9.19    LE0    RE0 
         3             8.34            9.43    LE0    RE0 
         4             8.41            9.88    LE0    RE0 
         5             8.34            9.20    LE0    RE0 
         6             8.34            9.43    LE0    RE0 
         7             8.35            9.21    LE0    RE0 
         8             8.35            9.64    LE0    RE0 
         9             8.37            9.55    LE0    RE0 
        10             8.31            9.23    LE0    RE0 
   ------------------------------------------------------
     time in cc_1den       cpu:  1 h 23 min  wall:  1 h 34 min  ratio:  0.9



     +==========================================================+
     |   contributions of excitation levels to excited states   |
     |     wavefunctions as computed from the <L|R> overlap     |
     +----------------------------------------------------------+
     | sym | multi | state |    E / eV  | % singles | % doubles |
     +==========================================================+
     | a   |   1   |   1   |    3.25153 |   86.51   |   13.49   |
     | a   |   1   |   2   |    3.95870 |   89.59   |   10.41   |
     | a   |   1   |   3   |    4.45676 |   88.96   |   11.04   |
     | a   |   1   |   4   |    4.74737 |   89.91   |   10.09   |
     | a   |   1   |   5   |    4.96097 |   87.78   |   12.22   |
     | a   |   1   |   6   |    5.83044 |   88.69   |   11.31   |
     | a   |   1   |   7   |    5.85143 |   89.16   |   10.84   |
     | a   |   1   |   8   |    6.01969 |   90.93   |    9.07   |
     | a   |   1   |   9   |    6.26843 |   84.82   |   15.18   |
     | a   |   1   |  10   |    6.54255 |   90.20   |    9.80   |
     +==========================================================+



      The semi-canonical algorithm will be used for densities


                    ========   CC DENSITY MODULE   ========

                      current wave-function model: ADC(2)  

  calculating    10 xi densities

   a semicanonical algorithm will be used

    density nr.      cpu/min        wall/min    L     R
   ------------------------------------------------------
         1            15.87           22.20    LE0    R0  
         2            15.52           20.96    LE0    R0  
         3            15.64           21.44    LE0    R0  
         4            15.57           21.65    LE0    R0  
         5            15.78           21.79    LE0    R0  
         6            15.62           24.34    LE0    R0  
         7            15.67           23.61    LE0    R0  
         8            15.75           23.45    LE0    R0  
         9            15.46           22.56    LE0    R0  
        10            15.41           23.14    LE0    R0  
   ------------------------------------------------------
     time in cc_1den       cpu:  2 h 36 min  wall:  3 h 45 min  ratio:  0.7


 **************************************************************
 *                                                            *
 *<<<<<<<<<<<<  ONE-PHOTON ABSORPTION STRENGTHS  >>>>>>>>>>>>>*
 *                                                            *
 **************************************************************



  +=========================================================================+
  |  Transition                                             model: ADC(2)   |
  |    number, symmetry, multiplicity:    1 a    1                          |
  |    frequency :   0.1194914846 a.u.     3.25153 e.V.     26225.3 rcm     |
  +=========================================================================+

     +-----------+-----------------+-----------------+---------------------+
     | operator  |   left moment   |  right moment   | transition strength |
     +-----------+-----------------+-----------------+---------------------+
     | xdiplen   |      1.20940395 |      1.20940395 |       1.46265792    |
     | ydiplen   |      2.09922049 |      2.09922049 |       4.40672667    |
     | zdiplen   |      0.01923607 |      0.01923607 |       0.00037003    |
     | xdipvel   |      0.16654599 |     -0.16654599 |       0.02773757    |
     | ydipvel   |      0.28242869 |     -0.28242869 |       0.07976596    |
     | zdipvel   |      0.00264104 |     -0.00264104 |       0.00000698    |
     | xangmom   |     -0.09966031 |      0.09966031 |       0.00993218    |
     | yangmom   |      0.03317387 |     -0.03317387 |       0.00110051    |
     | zangmom   |     -0.01020650 |      0.01020650 |       0.00010417    |
     +-----------+-----------------+-----------------+---------------------+
 
       oscillator strength (length gauge)   :      0.46759046
       oscillator strength (velocity gauge) :      0.59982241
       oscillator strength (mixed gauge)    :      0.52956818
 
       rotator strength (length gauge)      :     -0.02554332 a.u.
       Rotator strength (length gauge)      :    -12.04223147 10^(-40)*erg*cm^3
       rotator strength (velocity gauge)    :     -0.03036086 a.u.
       Rotator strength (velocity gauge)    :    -14.31342949 10^(-40)*erg*cm^3
 


  +=========================================================================+
  |  Transition                                             model: ADC(2)   |
  |    number, symmetry, multiplicity:    2 a    1                          |
  |    frequency :   0.1454794674 a.u.     3.95870 e.V.     31929.1 rcm     |
  +=========================================================================+

     +-----------+-----------------+-----------------+---------------------+
     | operator  |   left moment   |  right moment   | transition strength |
     +-----------+-----------------+-----------------+---------------------+
     | xdiplen   |      0.01276053 |      0.01276053 |       0.00016283    |
     | ydiplen   |      0.02080990 |      0.02080990 |       0.00043305    |
     | zdiplen   |      0.00230710 |      0.00230710 |       0.00000532    |
     | xdipvel   |      0.00272874 |     -0.00272874 |       0.00000745    |
     | ydipvel   |      0.00543107 |     -0.00543107 |       0.00002950    |
     | zdipvel   |      0.00070971 |     -0.00070971 |       0.00000050    |
     | xangmom   |      0.15457860 |     -0.15457860 |       0.02389454    |
     | yangmom   |      0.57573217 |     -0.57573217 |       0.33146753    |
     | zangmom   |      0.00437646 |     -0.00437646 |       0.00001915    |
     +-----------+-----------------+-----------------+---------------------+
 
       oscillator strength (length gauge)   :      0.00005831
       oscillator strength (velocity gauge) :      0.00017160
       oscillator strength (mixed gauge)    :      0.00009965
 
       rotator strength (length gauge)      :      0.00698176 a.u.
       Rotator strength (length gauge)      :      3.29150785 10^(-40)*erg*cm^3
       rotator strength (velocity gauge)    :      0.01220706 a.u.
       Rotator strength (velocity gauge)    :      5.75493990 10^(-40)*erg*cm^3
 


  +=========================================================================+
  |  Transition                                             model: ADC(2)   |
  |    number, symmetry, multiplicity:    3 a    1                          |
  |    frequency :   0.1637830707 a.u.     4.45676 e.V.     35946.2 rcm     |
  +=========================================================================+

     +-----------+-----------------+-----------------+---------------------+
     | operator  |   left moment   |  right moment   | transition strength |
     +-----------+-----------------+-----------------+---------------------+
     | xdiplen   |     -0.09149382 |     -0.09149382 |       0.00837112    |
     | ydiplen   |      0.04819886 |      0.04819886 |       0.00232313    |
     | zdiplen   |      0.00946458 |      0.00946458 |       0.00008958    |
     | xdipvel   |     -0.02315424 |      0.02315424 |       0.00053612    |
     | ydipvel   |      0.01126945 |     -0.01126945 |       0.00012700    |
     | zdipvel   |      0.00252802 |     -0.00252802 |       0.00000639    |
     | xangmom   |      0.01568636 |     -0.01568636 |       0.00024606    |
     | yangmom   |     -0.01863903 |      0.01863903 |       0.00034741    |
     | zangmom   |     -1.00525092 |      1.00525092 |       1.01052940    |
     +-----------+-----------------+-----------------+---------------------+
 
       oscillator strength (length gauge)   :      0.00117747
       oscillator strength (velocity gauge) :      0.00272519
       oscillator strength (mixed gauge)    :      0.00179038
 
       rotator strength (length gauge)      :     -0.00592393 a.u.
       Rotator strength (length gauge)      :     -2.79279919 10^(-40)*erg*cm^3
       rotator strength (velocity gauge)    :     -0.00950816 a.u.
       Rotator strength (velocity gauge)    :     -4.48256237 10^(-40)*erg*cm^3
 


  +=========================================================================+
  |  Transition                                             model: ADC(2)   |
  |    number, symmetry, multiplicity:    4 a    1                          |
  |    frequency :   0.1744626344 a.u.     4.74737 e.V.     38290.1 rcm     |
  +=========================================================================+

     +-----------+-----------------+-----------------+---------------------+
     | operator  |   left moment   |  right moment   | transition strength |
     +-----------+-----------------+-----------------+---------------------+
     | xdiplen   |     -0.01911543 |     -0.01911543 |       0.00036540    |
     | ydiplen   |      0.01631030 |      0.01631030 |       0.00026603    |
     | zdiplen   |      0.07029987 |      0.07029987 |       0.00494207    |
     | xdipvel   |     -0.00388501 |      0.00388501 |       0.00001509    |
     | ydipvel   |      0.00407477 |     -0.00407477 |       0.00001660    |
     | zdipvel   |      0.01784577 |     -0.01784577 |       0.00031847    |
     | xangmom   |     -0.94804452 |      0.94804452 |       0.89878842    |
     | yangmom   |      0.44469322 |     -0.44469322 |       0.19775206    |
     | zangmom   |      0.00049430 |     -0.00049430 |       0.00000024    |
     +-----------+-----------------+-----------------+---------------------+
 
       oscillator strength (length gauge)   :      0.00064824
       oscillator strength (velocity gauge) :      0.00133808
       oscillator strength (mixed gauge)    :      0.00093019
 
       rotator strength (length gauge)      :      0.01270505 a.u.
       Rotator strength (length gauge)      :      5.98971610 10^(-40)*erg*cm^3
       rotator strength (velocity gauge)    :      0.01577418 a.u.
       Rotator strength (velocity gauge)    :      7.43663625 10^(-40)*erg*cm^3
 


  +=========================================================================+
  |  Transition                                             model: ADC(2)   |
  |    number, symmetry, multiplicity:    5 a    1                          |
  |    frequency :   0.1823123331 a.u.     4.96097 e.V.     40012.9 rcm     |
  +=========================================================================+

     +-----------+-----------------+-----------------+---------------------+
     | operator  |   left moment   |  right moment   | transition strength |
     +-----------+-----------------+-----------------+---------------------+
     | xdiplen   |     -0.59549784 |     -0.59549784 |       0.35461768    |
     | ydiplen   |      0.30261800 |      0.30261800 |       0.09157766    |
     | zdiplen   |     -0.00397990 |     -0.00397990 |       0.00001584    |
     | xdipvel   |     -0.08358896 |      0.08358896 |       0.00698711    |
     | ydipvel   |      0.04236529 |     -0.04236529 |       0.00179482    |
     | zdipvel   |     -0.00054653 |      0.00054653 |       0.00000030    |
     | xangmom   |     -0.01933481 |      0.01933481 |       0.00037383    |
     | yangmom   |     -0.02002980 |      0.02002980 |       0.00040119    |
     | zangmom   |      0.02496508 |     -0.02496508 |       0.00062326    |
     +-----------+-----------------+-----------------+---------------------+
 
       oscillator strength (length gauge)   :      0.05423320
       oscillator strength (velocity gauge) :      0.03211423
       oscillator strength (mixed gauge)    :      0.04173315
 
       rotator strength (length gauge)      :      0.00267655 a.u.
       Rotator strength (length gauge)      :      1.26184254 10^(-40)*erg*cm^3
       rotator strength (velocity gauge)    :      0.00206778 a.u.
       Rotator strength (velocity gauge)    :      0.97484246 10^(-40)*erg*cm^3
 


  +=========================================================================+
  |  Transition                                             model: ADC(2)   |
  |    number, symmetry, multiplicity:    6 a    1                          |
  |    frequency :   0.2142648235 a.u.     5.83044 e.V.     47025.7 rcm     |
  +=========================================================================+

     +-----------+-----------------+-----------------+---------------------+
     | operator  |   left moment   |  right moment   | transition strength |
     +-----------+-----------------+-----------------+---------------------+
     | xdiplen   |      0.69416414 |      0.69416414 |       0.48186386    |
     | ydiplen   |     -0.65838010 |     -0.65838010 |       0.43346435    |
     | zdiplen   |      0.04665120 |      0.04665120 |       0.00217633    |
     | xdipvel   |      0.16449856 |     -0.16449856 |       0.02705978    |
     | ydipvel   |     -0.15369382 |      0.15369382 |       0.02362179    |
     | zdipvel   |      0.01302017 |     -0.01302017 |       0.00016952    |
     | xangmom   |      0.01669778 |     -0.01669778 |       0.00027882    |
     | yangmom   |      0.13412619 |     -0.13412619 |       0.01798983    |
     | zangmom   |      0.62769060 |     -0.62769060 |       0.39399549    |
     +-----------+-----------------+-----------------+---------------------+
 
       oscillator strength (length gauge)   :      0.13105930
       oscillator strength (velocity gauge) :      0.15821882
       oscillator strength (mixed gauge)    :      0.14399024
 
       rotator strength (length gauge)      :     -0.02371625 a.u.
       Rotator strength (length gauge)      :    -11.18087110 10^(-40)*erg*cm^3
       rotator strength (velocity gauge)    :     -0.02262379 a.u.
       Rotator strength (velocity gauge)    :    -10.66584067 10^(-40)*erg*cm^3
 


  +=========================================================================+
  |  Transition                                             model: ADC(2)   |
  |    number, symmetry, multiplicity:    7 a    1                          |
  |    frequency :   0.2150362699 a.u.     5.85143 e.V.     47195.0 rcm     |
  +=========================================================================+

     +-----------+-----------------+-----------------+---------------------+
     | operator  |   left moment   |  right moment   | transition strength |
     +-----------+-----------------+-----------------+---------------------+
     | xdiplen   |      0.73500714 |      0.73500714 |       0.54023550    |
     | ydiplen   |      0.04784240 |      0.04784240 |       0.00228890    |
     | zdiplen   |      0.01981098 |      0.01981098 |       0.00039248    |
     | xdipvel   |      0.17839256 |     -0.17839256 |       0.03182391    |
     | ydipvel   |      0.01772225 |     -0.01772225 |       0.00031408    |
     | zdipvel   |      0.00240301 |     -0.00240301 |       0.00000577    |
     | xangmom   |     -0.05416817 |      0.05416817 |       0.00293419    |
     | yangmom   |      0.10543025 |     -0.10543025 |       0.01111554    |
     | zangmom   |      0.37308529 |     -0.37308529 |       0.13919263    |
     +-----------+-----------------+-----------------+---------------------+
 
       oscillator strength (length gauge)   :      0.07783121
       oscillator strength (velocity gauge) :      0.09965376
       oscillator strength (mixed gauge)    :      0.08801019
 
       rotator strength (length gauge)      :     -0.01368938 a.u.
       Rotator strength (length gauge)      :     -6.45377219 10^(-40)*erg*cm^3
       rotator strength (velocity gauge)    :     -0.01603964 a.u.
       Rotator strength (velocity gauge)    :     -7.56178660 10^(-40)*erg*cm^3
 


  +=========================================================================+
  |  Transition                                             model: ADC(2)   |
  |    number, symmetry, multiplicity:    8 a    1                          |
  |    frequency :   0.2212195404 a.u.     6.01969 e.V.     48552.1 rcm     |
  +=========================================================================+

     +-----------+-----------------+-----------------+---------------------+
     | operator  |   left moment   |  right moment   | transition strength |
     +-----------+-----------------+-----------------+---------------------+
     | xdiplen   |     -0.09287367 |     -0.09287367 |       0.00862552    |
     | ydiplen   |      0.02293464 |      0.02293464 |       0.00052600    |
     | zdiplen   |      0.03894324 |      0.03894324 |       0.00151658    |
     | xdipvel   |     -0.02442529 |      0.02442529 |       0.00059659    |
     | ydipvel   |     -0.00010079 |      0.00010079 |       0.00000001    |
     | zdipvel   |     -0.00144560 |      0.00144560 |       0.00000209    |
     | xangmom   |     -0.21260396 |      0.21260396 |       0.04520044    |
     | yangmom   |      0.12879775 |     -0.12879775 |       0.01658886    |
     | zangmom   |     -0.05744905 |      0.05744905 |       0.00330039    |
     +-----------+-----------------+-----------------+---------------------+
 
       oscillator strength (length gauge)   :      0.00157333
       oscillator strength (velocity gauge) :      0.00180422
       oscillator strength (mixed gauge)    :      0.00147324
 
       rotator strength (length gauge)      :      0.01023099 a.u.
       Rotator strength (length gauge)      :      4.82333619 10^(-40)*erg*cm^3
       rotator strength (velocity gauge)    :      0.01189538 a.u.
       Rotator strength (velocity gauge)    :      5.60799881 10^(-40)*erg*cm^3
 


  +=========================================================================+
  |  Transition                                             model: ADC(2)   |
  |    number, symmetry, multiplicity:    9 a    1                          |
  |    frequency :   0.2303605822 a.u.     6.26843 e.V.     50558.3 rcm     |
  +=========================================================================+

     +-----------+-----------------+-----------------+---------------------+
     | operator  |   left moment   |  right moment   | transition strength |
     +-----------+-----------------+-----------------+---------------------+
     | xdiplen   |     -0.30807893 |     -0.30807893 |       0.09491263    |
     | ydiplen   |     -0.48908327 |     -0.48908327 |       0.23920244    |
     | zdiplen   |     -0.01387520 |     -0.01387520 |       0.00019252    |
     | xdipvel   |     -0.05227488 |      0.05227488 |       0.00273266    |
     | ydipvel   |     -0.07719952 |      0.07719952 |       0.00595977    |
     | zdipvel   |     -0.00414148 |      0.00414148 |       0.00001715    |
     | xangmom   |      0.04243720 |     -0.04243720 |       0.00180092    |
     | yangmom   |      0.03059481 |     -0.03059481 |       0.00093604    |
     | zangmom   |     -0.01316729 |      0.01316729 |       0.00017338    |
     +-----------+-----------------+-----------------+---------------------+
 
       oscillator strength (length gauge)   :      0.05134086
       oscillator strength (velocity gauge) :      0.02520565
       oscillator strength (mixed gauge)    :      0.03594617
 
       rotator strength (length gauge)      :     -0.01392736 a.u.
       Rotator strength (length gauge)      :     -6.56596351 10^(-40)*erg*cm^3
       rotator strength (velocity gauge)    :     -0.00982323 a.u.
       Rotator strength (velocity gauge)    :     -4.63110081 10^(-40)*erg*cm^3
 


  +=========================================================================+
  |  Transition                                             model: ADC(2)   |
  |    number, symmetry, multiplicity:   10 a    1                          |
  |    frequency :   0.2404342910 a.u.     6.54255 e.V.     52769.2 rcm     |
  +=========================================================================+

     +-----------+-----------------+-----------------+---------------------+
     | operator  |   left moment   |  right moment   | transition strength |
     +-----------+-----------------+-----------------+---------------------+
     | xdiplen   |     -0.02030691 |     -0.02030691 |       0.00041237    |
     | ydiplen   |     -0.00324850 |     -0.00324850 |       0.00001055    |
     | zdiplen   |     -0.11821342 |     -0.11821342 |       0.01397441    |
     | xdipvel   |     -0.00239469 |      0.00239469 |       0.00000573    |
     | ydipvel   |     -0.00135763 |      0.00135763 |       0.00000184    |
     | zdipvel   |     -0.03843515 |      0.03843515 |       0.00147726    |
     | xangmom   |     -0.53711786 |      0.53711786 |       0.28849560    |
     | yangmom   |      0.18546284 |     -0.18546284 |       0.03439647    |
     | zangmom   |      0.02540100 |     -0.02540100 |       0.00064521    |
     +-----------+-----------------+-----------------+---------------------+
 
       oscillator strength (length gauge)   :      0.00230774
       oscillator strength (velocity gauge) :      0.00411710
       oscillator strength (mixed gauge)    :      0.00306439
 
       rotator strength (length gauge)      :      0.00365099 a.u.
       Rotator strength (length gauge)      :      1.72123781 10^(-40)*erg*cm^3
       rotator strength (velocity gauge)    :      0.00012093 a.u.
       Rotator strength (velocity gauge)    :      0.05701095 10^(-40)*erg*cm^3
 
 Exporting transition densities


    ------------------------------------------------------------------------
         total  cpu-time :   1 days  7 hours 50 minutes and 15 seconds
         total wall-time :   1 days 23 hours 21 minutes and 35 seconds
    ------------------------------------------------------------------------


   ****  ricc2 : all done  ****


    2024-04-20 17:26:41.281 

