 operating system is UNIX !
 hostname is         dlt08.abaxnet

 dscf (dlt08.abaxnet) : TURBOMOLE V6.6( 19103 ) 21 May 2014 at 15:45:05
 Copyright (C) 2014 TURBOMOLE GmbH, Karlsruhe


    2023-03-28 14:00:02.858 



                             d s c f - program

                   idea & directorship : reinhart ahlrichs
                   program development : marco haeser
                                         michael baer
                           dft version : oliver treutler


                          quantum chemistry group
                          universitaet  karlsruhe
                                  germany




                          References             
                                                 
          TURBOMOLE:                             
              R. Ahlrichs, M. Baer, M. Haeser, H. Horn, and
              C. Koelmel
              Electronic structure calculations on workstation
              computers: the program system TURBOMOLE
              Chem. Phys. Lett. 162: 165 (1989)
          Density Functional:                              
              O. Treutler and R. Ahlrichs                      
              Efficient Molecular Numerical Integration Schemes
              J. Chem. Phys. 102: 346 (1995)                   
          Parallel Version:                                
              Performance of parallel TURBOMOLE for Density    
              Functional Calculations                          
              M. v. Arnim and R. Ahlrichs                      
              J. Comp. Chem. 19: 1746 (1998)                   
                                         




              +--------------------------------------------------+
              | Atomic coordinate, charge and isotop information |
              +--------------------------------------------------+

                    atomic coordinates            atom    charge  isotop
         -1.25903854   -2.28197016   -0.03015612    c      6.000     0
         -2.55472338   -0.00000083   -0.02879221    c      6.000     0
         -1.25904288    2.28196695   -0.03016999    c      6.000     0
          1.33397593    2.28282469   -0.03272265    c      6.000     0
          2.68642343    0.00000329   -0.03279418    c      6.000     0
          1.33397780   -2.28282267   -0.03270652    c      6.000     0
         -2.30058495   -4.03537191   -0.02713902    h      1.000     0
         -2.30059039    4.03536858   -0.02716440    h      1.000     0
          2.35274324    4.05547592   -0.03591469    h      1.000     0
          2.35275259   -4.05546984   -0.03588303    h      1.000     0
         -5.27845951   -0.00000053   -0.02253990    n      7.000     0
         -6.37968780    2.02722128   -0.01988302    o      8.000     0
         -6.37969227   -2.02722011   -0.01992307    o      8.000     0
          5.25161265   -0.00000032   -0.08820951    n      7.000     0
          6.20017073    1.61336629    0.23199721    h      1.000     0
          6.20016334   -1.61337062    0.23200112    h      1.000     0
 
       center of nuclear mass  :   -1.36491958    0.00000015   -0.02966624
       center of nuclear charge:   -1.22317889    0.00000013   -0.02610899

   *************************************************************************
   ADC(2) - opt by CAM-B3LYP gaussian                                       
   *************************************************************************



              +--------------------------------------------------+
              |               basis set information              |
              +--------------------------------------------------+

              we will work with the 1s 3p 5d 7f 9g ... basis set
              ...i.e. with spherical basis functions...

   type   atoms  prim   cont   basis
   ---------------------------------------------------------------------------
    c        6     52     37   def2-TZVPD   [6s3p3d1f|12s6p3d1f]
    h        6     11      9   def2-TZVPD   [3s2p|5s2p]
    n        2     52     37   def2-TZVPD   [6s3p3d1f|12s6p3d1f]
    o        2     55     40   def2-TZVPD   [6s4p3d1f|12s7p3d1f]
   ---------------------------------------------------------------------------
   total:   16    592    430
   ---------------------------------------------------------------------------

   total number of primitive shells          :   74
   total number of contracted shells         :  162
   total number of cartesian basis functions :  490
   total number of SCF-basis functions       :  430

 ==============================================================================
                      COSMO switched on
 ==============================================================================
 COSMO stati: segments per atom: H   32 other atoms   92

 symmetry group of the molecule :   c1 

 the group has the following generators :
   c1(z)

    1 symmetry operations found
 COSMO statistics: nps    665 npspher:    311

 symmetry group of the molecule :   c1 

 the group has the following generators :
   c1(z)

    1 symmetry operations found
 COSMO surface:
   number of segments:  665
   area (bohr**2):      573.404325
   volume (bohr**3):   1039.067762
 COSMO: check number of disjunct cavities:

       ... OK contiguous cavity found

 integral neglect threshold       :  0.68E-11
 integral storage threshold THIZE :  0.10E-04
 integral storage threshold THIME :         5


 DENSITY CONVERGENCE CHECK SWITCHED ON !
 SCF CONVERGENCE IF RMS(delta[D]) <     0.1000000000E-07


 symmetry group of the molecule :   c1 

 the group has the following generators :
   c1(z)

    1 symmetry operations found

 there are 1 real representations :   a   

 maximum number of shells which are related by symmetry :  1


    mo occupation :
   irrep   mo's   occupied
    a      430       36
 
 number of basis functions   :          430
 number of occupied orbitals :           36
 

          ------------------------
          nuclear repulsion energy  :   498.665118521    
          ------------------------

 
          -----------------
          -S,T+V- integrals
          -----------------

 1e-integrals will be neglected if expon. factor < 0.682033E-12
 
   Difference densities algorithm switched on.
   The maximal number of linear combinations of
   difference densities is          20 .

 automatic virtual orbital shift switched on 
      shift if e(lumo)-e(homo) < 0.10000000    


 DIIS switched on: error vector is FDS-SDF
 Max. Iterations for DIIS is     :   5
 DIIS matrix (see manual) 
    Scaling factor of diagonals  :  1.200
    threshold for scaling factor :  0.000

 scf convergence criterion : increment of total energy < .1000000D-06
                  and increment of one-electron energy < .1000000D-03


 <geterg> : there is no data group $energy 

  MOs are in ASCII format !


 reading orbital data $scfmo  from file mos . 

 orbital characterization : expanded
 
 mo provided and orthogonalized by Cholesky decomposition

 DSCF restart information will be dumped onto file mos

 
                                              current damping :  0.300
 ITERATION  ENERGY          1e-ENERGY        2e-ENERGY     RMS[dD(SAO)]   TOL
   1  -487.44494500497    -1642.1229123     656.01284881    0.000D+00 0.680D-11
                          Ediel =    -0.062176100663
          max. resid. norm for Fia-block=  4.125D-01 for orbital     22a         
          max. resid. fock norm         =  1.095D+01 for orbital    296a         
          Delta Eig. =   933.6163114198 eV 
 
                                              current damping :  0.250
 ITERATION  ENERGY          1e-ENERGY        2e-ENERGY     RMS[dD(SAO)]   TOL
   2  -489.20909283887    -1654.4194524     666.54524100    0.492D-01 0.673D-11
                          Ediel =    -0.027600699584
          Norm of current diis error:  2.5393    
          max. resid. norm for Fia-block=  1.499D-01 for orbital     11a         
          max. resid. fock norm         =  3.282D-01 for orbital    415a         
          Delta Eig. =   212.6456979983 eV 
 
                                              current damping :  0.150
 ITERATION  ENERGY          1e-ENERGY        2e-ENERGY     RMS[dD(SAO)]   TOL
   3  -489.37435318348    -1655.3405388     667.30106714    0.114D-01 0.434D-11
                          Ediel =    -0.023671557341
          Norm of current diis error: 0.99175    
          max. resid. norm for Fia-block=  6.235D-02 for orbital     24a         
          max. resid. fock norm         =  6.983D-02 for orbital     24a         
          Delta Eig. =    50.1265795592 eV 
 
                                              current damping :  0.100
 ITERATION  ENERGY          1e-ENERGY        2e-ENERGY     RMS[dD(SAO)]   TOL
   4  -489.41319807711    -1655.6468447     667.56852809    0.331D-02 0.344D-11
                          Ediel =    -0.020024667383
          Norm of current diis error: 0.27898    
          max. resid. norm for Fia-block=  1.723D-02 for orbital     22a         
          max. resid. fock norm         =  1.994D-02 for orbital     11a         
          Delta Eig. =     5.8322649994 eV 
 
                                              current damping :  0.100
 ITERATION  ENERGY          1e-ENERGY        2e-ENERGY     RMS[dD(SAO)]   TOL
   5  -489.41742822304    -1655.8678164     667.78526963    0.955D-03 0.310D-11
                          Ediel =    -0.019493724492
          Norm of current diis error: 0.83919E-01
          max. resid. norm for Fia-block=  6.440D-03 for orbital     36a         
          max. resid. fock norm         =  9.067D-03 for orbital    425a         
 mo-orthogonalization: Cholesky decomposition
          Delta Eig. =     0.5950699049 eV 
 
                                              current damping :  0.150
 ITERATION  ENERGY          1e-ENERGY        2e-ENERGY     RMS[dD(SAO)]   TOL
   6  -489.41803958582    -1655.8329527     667.74979458    0.316D-03 0.290D-11
                          Ediel =    -0.019184691507
          Norm of current diis error: 0.35149E-01
          max. resid. norm for Fia-block=  3.759D-03 for orbital     36a         
          max. resid. fock norm         =  3.911D-03 for orbital     36a         
          Delta Eig. =     0.1021595331 eV 
 
                                              current damping :  0.100
 ITERATION  ENERGY          1e-ENERGY        2e-ENERGY     RMS[dD(SAO)]   TOL
   7  -489.41818537070    -1655.8295711     667.74626720    0.167D-03 0.273D-11
                          Ediel =    -0.018993019232
          Norm of current diis error: 0.16701E-01
          max. resid. norm for Fia-block=  2.057D-03 for orbital     36a         
          max. resid. fock norm         =  2.171D-03 for orbital     36a         
          Delta Eig. =     0.0534904598 eV 
 
                                              current damping :  0.150
 ITERATION  ENERGY          1e-ENERGY        2e-ENERGY     RMS[dD(SAO)]   TOL
   8  -489.41822153795    -1655.8311626     667.74782257    0.873D-04 0.257D-11
                          Ediel =    -0.018884310829
          Norm of current diis error: 0.57787E-02
          max. resid. norm for Fia-block=  8.048D-04 for orbital     36a         
          max. resid. fock norm         =  8.217D-04 for orbital     36a         
          Delta Eig. =     0.0138382558 eV 
 
                                              current damping :  0.200
 ITERATION  ENERGY          1e-ENERGY        2e-ENERGY     RMS[dD(SAO)]   TOL
   9  -489.41822622018    -1655.8273796     667.74403490    0.281D-04 0.248D-11
                          Ediel =    -0.018819351370
          Norm of current diis error: 0.23300E-02
          max. resid. norm for Fia-block=  3.262D-04 for orbital     36a         
          max. resid. fock norm         =  3.359D-04 for orbital     36a         
          Delta Eig. =     0.0056515959 eV 
 
                                              current damping :  0.100
 ITERATION  ENERGY          1e-ENERGY        2e-ENERGY     RMS[dD(SAO)]   TOL
  10  -489.41822696495    -1655.8270757     667.74373026    0.942D-05 0.240D-11
                          Ediel =    -0.018792770455
          Norm of current diis error: 0.10351E-02
          max. resid. norm for Fia-block=  1.654D-04 for orbital     36a         
          max. resid. fock norm         =  1.665D-04 for orbital     36a         
 mo-orthogonalization: Cholesky decomposition
          Delta Eig. =     0.0026807544 eV 
 
                                              current damping :  0.100
 ITERATION  ENERGY          1e-ENERGY        2e-ENERGY     RMS[dD(SAO)]   TOL
  11  -489.41822714879    -1655.8267110     667.74336536    0.527D-05 0.231D-11
                          Ediel =    -0.018775814905
          Norm of current diis error: 0.49631E-03
          max. resid. norm for Fia-block=  7.120D-05 for orbital     36a         
          max. resid. fock norm         =  7.672D-05 for orbital     37a         
          Delta Eig. =     0.0021003595 eV 
 
                                              current damping :  0.100
 ITERATION  ENERGY          1e-ENERGY        2e-ENERGY     RMS[dD(SAO)]   TOL
  12  -489.41822718995    -1655.8265056     667.74315993    0.253D-05 0.222D-11
                          Ediel =    -0.018768161534
          Norm of current diis error: 0.24394E-03
          max. resid. norm for Fia-block=  3.634D-05 for orbital     36a         
          max. resid. fock norm         =  3.712D-05 for orbital     36a         
          Delta Eig. =     0.0009979100 eV 
 
                                              current damping :  0.100
 ITERATION  ENERGY          1e-ENERGY        2e-ENERGY     RMS[dD(SAO)]   TOL
  13  -489.41822719970    -1655.8264456     667.74309986    0.111D-05 0.215D-11
                          Ediel =    -0.018765323088
          Norm of current diis error: 0.13707E-03
          max. resid. norm for Fia-block=  1.901D-05 for orbital     36a         
          max. resid. fock norm         =  2.123D-05 for orbital     37a         
          Delta Eig. =     0.0005799005 eV 
 
                                              current damping :  0.100
 ITERATION  ENERGY          1e-ENERGY        2e-ENERGY     RMS[dD(SAO)]   TOL
  14  -489.41822720309    -1655.8264422     667.74309647    0.676D-06 0.208D-11
                          Ediel =    -0.018763687282
          Norm of current diis error: 0.64673E-04
          max. resid. norm for Fia-block=  9.691D-06 for orbital     36a         
          max. resid. fock norm         =  9.901D-06 for orbital    187a         
          Delta Eig. =     0.0002629743 eV 
 
                                              current damping :  0.100
 ITERATION  ENERGY          1e-ENERGY        2e-ENERGY     RMS[dD(SAO)]   TOL
  15  -489.41822720400    -1655.8264171     667.74307137    0.395D-06 0.199D-11
                          Ediel =    -0.018763236725
          Norm of current diis error: 0.27240E-04
          max. resid. norm for Fia-block=  4.095D-06 for orbital     35a         
          max. resid. fock norm         =  1.299D-05 for orbital    131a         
 mo-orthogonalization: Cholesky decomposition
          Delta Eig. =     0.0001510069 eV 
 
                                              current damping :  0.150
 ITERATION  ENERGY          1e-ENERGY        2e-ENERGY     RMS[dD(SAO)]   TOL
  16  -489.41822720533    -1655.8264252     667.74307947    0.332D-06 0.194D-11
                          Ediel =    -0.018763111014
          Norm of current diis error: 0.11541E-04
          max. resid. norm for Fia-block=  1.694D-06 for orbital     35a         
          max. resid. fock norm         =  1.022D-05 for orbital    131a         
          Delta Eig. =     0.0001099031 eV 

 ENERGY & DENSITY CONVERGED !

 
                                              current damping :  0.200
 ITERATION  ENERGY          1e-ENERGY        2e-ENERGY     RMS[dD(SAO)]   TOL
  17  -489.41822720632    -1655.8264236     667.74307786    0.265D-06 0.194D-11
                          Ediel =    -0.018763121465
          max. resid. norm for Fia-block=  3.262D-07 for orbital     35a         
          max. resid. fock norm         =  5.974D-06 for orbital    190a         
 COSMO: write data to file cosmo_transfer.tmp

 convergence criteria satisfied after 17 iterations


   *************************************************************************
   ADC(2) - opt by CAM-B3LYP gaussian                                       
   *************************************************************************


                  ------------------------------------------ 
                 |  total energy      =   -489.41822720632  |
                  ------------------------------------------ 
                 :  kinetic energy    =    488.91394410630  :
                 :  potential energy  =   -978.33217131262  :
                 :  virial theorem    =      1.99896962746  :
                 :  wavefunction norm =      1.00000000000  :
                  .......................................... 


 <geterg> : there is no data group $energy 


 <skperg> : $end is missing 


 orbitals $scfmo  will be written to file mos

    irrep                 32a         33a         34a         35a         36a   
 eigenvalues H         -0.49091    -0.47455    -0.46129    -0.36687    -0.31655
            eV         -13.3585    -12.9132    -12.5524     -9.9832     -8.6138
 occupation              2.0000      2.0000      2.0000      2.0000      2.0000 

    irrep                 37a         38a         39a         40a         41a   
 eigenvalues H          0.04755     0.06806     0.07978     0.08344     0.10180
            eV           1.2938      1.8519      2.1710      2.2707      2.7701
 
 ==============================================================================
                                  COSMO RESULTS
 ==============================================================================
  PARAMETER:
    nppa:      1082
    nspa:        92
    nsph:        32
    nps:        665
    npspher:    311
    disex:   10.0000    
    disex2:  4409.67    
    rsolv [A]: 1.3000
    routf:     0.8500
    phsran:    0.0    
    ampran:   0.10E-04
    cavity:  closed
    epsilon:     6.253
    refind:     1.300
    fepsi:      0.7778765
  CAVITY VOLUME/AREA [a.u.]:
    surface: V1.0, A matrix: V1.0
    area:   573.40
    volume:  1039.07
  SCREENING CHARGE:
    cosmo      :  -0.025651
    correction :   0.024881
    total      :  -0.000770
  ENERGIES [a.u.]:
    Total energy            =     -489.4182272063
    Total energy + OC corr. =     -489.4184129937
    Dielectric energy       =       -0.0187631215
    Diel. energy + OC corr. =       -0.0189489089
  ELEMENT RADIUS [A]: ATOM LIST
    c  2.00: 1-6
    h  1.30: 7-10,15,16
    n  1.83: 11,14
    o  1.72: 12,13
 ==============================================================================
 
 
 
 ==============================================================================
                           electrostatic moments
 ==============================================================================
 
              nuc           elec       ->  total
 ------------------------------------------------------------------------------
                          charge      
 ------------------------------------------------------------------------------
          72.000000     -72.000000      -0.000000
 
 ------------------------------------------------------------------------------
                       dipole moment  
 ------------------------------------------------------------------------------
   x     -88.068880      91.812069       3.743190
   y       0.000009      -0.000195      -0.000186
   z      -1.879848       2.122941       0.243094
 
   | dipole moment | =     3.7511 a.u. =     9.5343 debye 
 
 ------------------------------------------------------------------------------
                     quadrupole moment
 ------------------------------------------------------------------------------
  xx    1260.675534   -1313.299793     -52.624260
  yy     261.446016    -300.108460     -38.662444
  zz       0.211247     -45.557007     -45.345759
  xy      -0.000011      -0.000285      -0.000296
  xz       2.299390      -0.733369       1.566022
  yz       0.000000      -0.000374      -0.000374
 
     1/3  trace=     -45.544154
     anisotropy=      12.395364
 
 ==============================================================================
 


    ------------------------------------------------------------------------
         total  cpu-time : 29 minutes and 52 seconds
         total wall-time : 29 minutes and 54 seconds
    ------------------------------------------------------------------------


   ****  dscf : all done  ****


    2023-03-28 14:29:57.324 

