 operating system is UNIX !
 hostname is         dlt08.abaxnet

 dscf (dlt08.abaxnet) : TURBOMOLE V6.6( 19103 ) 21 May 2014 at 15:45:05
 Copyright (C) 2014 TURBOMOLE GmbH, Karlsruhe


    2023-03-30 06:19:57.990 



                             d s c f - program

                   idea & directorship : reinhart ahlrichs
                   program development : marco haeser
                                         michael baer
                           dft version : oliver treutler


                          quantum chemistry group
                          universitaet  karlsruhe
                                  germany




                          References             
                                                 
          TURBOMOLE:                             
              R. Ahlrichs, M. Baer, M. Haeser, H. Horn, and
              C. Koelmel
              Electronic structure calculations on workstation
              computers: the program system TURBOMOLE
              Chem. Phys. Lett. 162: 165 (1989)
          Density Functional:                              
              O. Treutler and R. Ahlrichs                      
              Efficient Molecular Numerical Integration Schemes
              J. Chem. Phys. 102: 346 (1995)                   
          Parallel Version:                                
              Performance of parallel TURBOMOLE for Density    
              Functional Calculations                          
              M. v. Arnim and R. Ahlrichs                      
              J. Comp. Chem. 19: 1746 (1998)                   
                                         




              +--------------------------------------------------+
              | Atomic coordinate, charge and isotop information |
              +--------------------------------------------------+

                    atomic coordinates            atom    charge  isotop
         -1.25903854   -2.28197016   -0.03015612    c      6.000     0
         -2.55472338   -0.00000083   -0.02879221    c      6.000     0
         -1.25904288    2.28196695   -0.03016999    c      6.000     0
          1.33397593    2.28282469   -0.03272265    c      6.000     0
          2.68642343    0.00000329   -0.03279418    c      6.000     0
          1.33397780   -2.28282267   -0.03270652    c      6.000     0
         -2.30058495   -4.03537191   -0.02713902    h      1.000     0
         -2.30059039    4.03536858   -0.02716440    h      1.000     0
          2.35274324    4.05547592   -0.03591469    h      1.000     0
          2.35275259   -4.05546984   -0.03588303    h      1.000     0
         -5.27845951   -0.00000053   -0.02253990    n      7.000     0
         -6.37968780    2.02722128   -0.01988302    o      8.000     0
         -6.37969227   -2.02722011   -0.01992307    o      8.000     0
          5.25161265   -0.00000032   -0.08820951    n      7.000     0
          6.20017073    1.61336629    0.23199721    h      1.000     0
          6.20016334   -1.61337062    0.23200112    h      1.000     0
 
       center of nuclear mass  :   -1.36491958    0.00000015   -0.02966624
       center of nuclear charge:   -1.22317889    0.00000013   -0.02610899

   *************************************************************************
   ADC(2) - opt by CAM-B3LYP gaussian                                       
   *************************************************************************



              +--------------------------------------------------+
              |               basis set information              |
              +--------------------------------------------------+

              we will work with the 1s 3p 5d 7f 9g ... basis set
              ...i.e. with spherical basis functions...

   type   atoms  prim   cont   basis
   ---------------------------------------------------------------------------
    c        6     52     37   def2-TZVPD   [6s3p3d1f|12s6p3d1f]
    h        6     11      9   def2-TZVPD   [3s2p|5s2p]
    n        2     52     37   def2-TZVPD   [6s3p3d1f|12s6p3d1f]
    o        2     55     40   def2-TZVPD   [6s4p3d1f|12s7p3d1f]
   ---------------------------------------------------------------------------
   total:   16    592    430
   ---------------------------------------------------------------------------

   total number of primitive shells          :   74
   total number of contracted shells         :  162
   total number of cartesian basis functions :  490
   total number of SCF-basis functions       :  430

 ==============================================================================
                      COSMO switched on
 ==============================================================================
 COSMO: skip init. and read data from file
 This run uses frozen charges (from previous solvent iteration)
 Work to create reaction field =   1.608395382737364E-002

 integral neglect threshold       :  0.68E-11
 integral storage threshold THIZE :  0.10E-04
 integral storage threshold THIME :         5


 DENSITY CONVERGENCE CHECK SWITCHED ON !
 SCF CONVERGENCE IF RMS(delta[D]) <     0.1000000000E-07


 symmetry group of the molecule :   c1 

 the group has the following generators :
   c1(z)

    1 symmetry operations found

 there are 1 real representations :   a   

 maximum number of shells which are related by symmetry :  1


    mo occupation :
   irrep   mo's   occupied
    a      430       36
 
 number of basis functions   :          430
 number of occupied orbitals :           36
 

          ------------------------
          nuclear repulsion energy  :   498.665118521    
          ------------------------

 
          -----------------
          -S,T+V- integrals
          -----------------

 1e-integrals will be neglected if expon. factor < 0.682033E-12
 
   Difference densities algorithm switched on.
   The maximal number of linear combinations of
   difference densities is          20 .

 automatic virtual orbital shift switched on 
      shift if e(lumo)-e(homo) < 0.10000000    


 DIIS switched on: error vector is FDS-SDF
 Max. Iterations for DIIS is     :   5
 DIIS matrix (see manual) 
    Scaling factor of diagonals  :  1.200
    threshold for scaling factor :  0.000

 scf convergence criterion : increment of total energy < .1000000D-06
                  and increment of one-electron energy < .1000000D-03

  MOs are in ASCII format !


 reading orbital data $scfmo  from file mos . 

 orbital characterization : scfconv=7
 

 DSCF restart information will be dumped onto file mos

 COSMO: use frozen qcos
 
                                              current damping :  0.300
 ITERATION  ENERGY          1e-ENERGY        2e-ENERGY     RMS[dD(SAO)]   TOL
   1  -489.41792665378    -1655.8407474     667.75770223    0.000D+00 0.680D-11
                          Ediel =    -0.018163377250
          max. resid. norm for Fia-block=  2.331D-04 for orbital     31a         
          max. resid. fock norm         =  5.132D-04 for orbital    120a         
          Delta Eig. =     0.0108865729 eV 
 COSMO: use frozen qcos
 
                                              current damping :  0.250
 ITERATION  ENERGY          1e-ENERGY        2e-ENERGY     RMS[dD(SAO)]   TOL
   2  -489.41792724241    -1655.8428555     667.75980977    0.279D-04 0.431D-11
                          Ediel =    -0.018132908586
          Norm of current diis error: 0.11204E-02
          max. resid. norm for Fia-block=  8.923D-05 for orbital     31a         
          max. resid. fock norm         =  1.073D-04 for orbital     31a         
          Delta Eig. =     0.0047687343 eV 
 COSMO: use frozen qcos
 
                                              current damping :  0.200
 ITERATION  ENERGY          1e-ENERGY        2e-ENERGY     RMS[dD(SAO)]   TOL
   3  -489.41792734676    -1655.8424307     667.75938481    0.960D-05 0.341D-11
                          Ediel =    -0.018121625060
          Norm of current diis error: 0.49197E-03
          max. resid. norm for Fia-block=  4.691D-05 for orbital     36a         
          max. resid. fock norm         =  6.142D-05 for orbital     37a         
          Delta Eig. =     0.0015041101 eV 
 COSMO: use frozen qcos
 
                                              current damping :  0.250
 ITERATION  ENERGY          1e-ENERGY        2e-ENERGY     RMS[dD(SAO)]   TOL
   4  -489.41792737786    -1655.8426537     667.75960784    0.368D-05 0.294D-11
                          Ediel =    -0.018115291059
          Norm of current diis error: 0.26097E-03
          max. resid. norm for Fia-block=  2.931D-05 for orbital     36a         
          max. resid. fock norm         =  3.428D-05 for orbital     37a         
          Delta Eig. =     0.0008328169 eV 
 COSMO: use frozen qcos
 
                                              current damping :  0.300
 ITERATION  ENERGY          1e-ENERGY        2e-ENERGY     RMS[dD(SAO)]   TOL
   5  -489.41792738661    -1655.8425973     667.75955138    0.130D-05 0.269D-11
                          Ediel =    -0.018112664857
          Norm of current diis error: 0.14414E-03
          max. resid. norm for Fia-block=  1.730D-05 for orbital     36a         
          max. resid. fock norm         =  2.166D-05 for orbital     37a         
 mo-orthogonalization: Cholesky decomposition
          Delta Eig. =     0.0004770259 eV 
 COSMO: use frozen qcos
 
                                              current damping :  0.350
 ITERATION  ENERGY          1e-ENERGY        2e-ENERGY     RMS[dD(SAO)]   TOL
   6  -489.41792738956    -1655.8426006     667.75955472    0.810D-06 0.251D-11
                          Ediel =    -0.018111401382
          Norm of current diis error: 0.80143E-04
          max. resid. norm for Fia-block=  1.304D-05 for orbital     36a         
          max. resid. fock norm         =  1.760D-05 for orbital    132a         
          Delta Eig. =     0.0001954155 eV 
 COSMO: use frozen qcos
 
                                              current damping :  0.400
 ITERATION  ENERGY          1e-ENERGY        2e-ENERGY     RMS[dD(SAO)]   TOL
   7  -489.41792739082    -1655.8425859     667.75953994    0.573D-06 0.235D-11
                          Ediel =    -0.018110776110
          Norm of current diis error: 0.42809E-04
          max. resid. norm for Fia-block=  7.220D-06 for orbital     36a         
          max. resid. fock norm         =  1.482D-05 for orbital    132a         
          Delta Eig. =     0.0001633310 eV 
 COSMO: use frozen qcos

 ENERGY & DENSITY CONVERGED !

 
                                              current damping :  0.250
 ITERATION  ENERGY          1e-ENERGY        2e-ENERGY     RMS[dD(SAO)]   TOL
   8  -489.41792739047    -1655.8425826     667.75953668    0.339D-06 0.221D-11
                          Ediel =    -0.018110500863
          max. resid. norm for Fia-block=  1.659D-06 for orbital     36a         
          max. resid. fock norm         =  1.695D-05 for orbital    186a         
 COSMO: write data to file cosmotransfer

 convergence criteria satisfied after  8 iterations


   *************************************************************************
   ADC(2) - opt by CAM-B3LYP gaussian                                       
   *************************************************************************


                  ------------------------------------------ 
                 |  total energy      =   -489.41792739047  |
                  ------------------------------------------ 
                 :  kinetic energy    =    488.91422613990  :
                 :  potential energy  =   -978.33215353037  :
                 :  virial theorem    =      1.99897081569  :
                 :  wavefunction norm =      1.00000000000  :
                  .......................................... 


 orbitals $scfmo  will be written to file mos

    irrep                 32a         33a         34a         35a         36a   
 eigenvalues H         -0.48912    -0.47542    -0.45856    -0.36792    -0.31709
            eV         -13.3098    -12.9368    -12.4782    -10.0118     -8.6285
 occupation              2.0000      2.0000      2.0000      2.0000      2.0000 

    irrep                 37a         38a         39a         40a         41a   
 eigenvalues H          0.04846     0.06780     0.08060     0.08327     0.10236
            eV           1.3188      1.8450      2.1931      2.2658      2.7854
 
 ==============================================================================
                                  COSMO RESULTS
 ==============================================================================
  PARAMETER:
    nppa:      1082
    nspa:        92
    nsph:        32
    nps:        665
    npspher:    311
    disex:   10.0000    
    disex2:  4409.67    
    rsolv [A]: 1.3000
    routf:     0.8500
    phsran:    0.0    
    ampran:   0.10E-04
    cavity:  closed
    epsilon:     6.253
    refind:     1.300
    fepsi:      0.7778765
  CAVITY VOLUME/AREA [a.u.]:
    surface: V1.0, A matrix: V1.0
    area:   573.40
    volume:  1039.07
  SCREENING CHARGE:
    cosmo      :  -0.029796
    correction :   0.029124
    total      :  -0.000671
  ENERGIES [a.u.]:
    Total energy            =     -489.4179273905
    Total energy + OC corr. =     -489.4175936231
    Dielectric energy       =       -0.0181105009
    Diel. energy + OC corr. =       -0.0177767335
  ELEMENT RADIUS [A]: ATOM LIST
    c  2.00: 1-6
    h  1.30: 7-10,15,16
    n  1.83: 11,14
    o  1.72: 12,13
 ==============================================================================
 
 
 
 ==============================================================================
                           electrostatic moments
 ==============================================================================
 
              nuc           elec       ->  total
 ------------------------------------------------------------------------------
                          charge      
 ------------------------------------------------------------------------------
          72.000000     -72.000000      -0.000000
 
 ------------------------------------------------------------------------------
                       dipole moment  
 ------------------------------------------------------------------------------
   x     -88.068880      91.764414       3.695534
   y       0.000009      -0.000048      -0.000039
   z      -1.879848       2.120697       0.240850
 
   | dipole moment | =     3.7034 a.u. =     9.4130 debye 
 
 ------------------------------------------------------------------------------
                     quadrupole moment
 ------------------------------------------------------------------------------
  xx    1260.675534   -1312.869709     -52.194175
  yy     261.446016    -300.130417     -38.684402
  zz       0.211247     -45.565701     -45.354454
  xy      -0.000011      -0.000400      -0.000411
  xz       2.299390      -0.742796       1.556594
  yz       0.000000      -0.000057      -0.000057
 
     1/3  trace=     -45.411010
     anisotropy=      12.006733
 
 ==============================================================================
 


    ------------------------------------------------------------------------
         total  cpu-time : 13 minutes and  4 seconds
         total wall-time : 13 minutes and  6 seconds
    ------------------------------------------------------------------------


   ****  dscf : all done  ****


    2023-03-30 06:33:03.762 

