 operating system is UNIX !
 hostname is         dlt08.abaxnet

 dscf (dlt08.abaxnet) : TURBOMOLE V6.6( 19103 ) 21 May 2014 at 15:45:05
 Copyright (C) 2014 TURBOMOLE GmbH, Karlsruhe


    2023-03-29 06:53:36.706 



                             d s c f - program

                   idea & directorship : reinhart ahlrichs
                   program development : marco haeser
                                         michael baer
                           dft version : oliver treutler


                          quantum chemistry group
                          universitaet  karlsruhe
                                  germany




                          References             
                                                 
          TURBOMOLE:                             
              R. Ahlrichs, M. Baer, M. Haeser, H. Horn, and
              C. Koelmel
              Electronic structure calculations on workstation
              computers: the program system TURBOMOLE
              Chem. Phys. Lett. 162: 165 (1989)
          Density Functional:                              
              O. Treutler and R. Ahlrichs                      
              Efficient Molecular Numerical Integration Schemes
              J. Chem. Phys. 102: 346 (1995)                   
          Parallel Version:                                
              Performance of parallel TURBOMOLE for Density    
              Functional Calculations                          
              M. v. Arnim and R. Ahlrichs                      
              J. Comp. Chem. 19: 1746 (1998)                   
                                         




              +--------------------------------------------------+
              | Atomic coordinate, charge and isotop information |
              +--------------------------------------------------+

                    atomic coordinates            atom    charge  isotop
         -1.25903854   -2.28197016   -0.03015612    c      6.000     0
         -2.55472338   -0.00000083   -0.02879221    c      6.000     0
         -1.25904288    2.28196695   -0.03016999    c      6.000     0
          1.33397593    2.28282469   -0.03272265    c      6.000     0
          2.68642343    0.00000329   -0.03279418    c      6.000     0
          1.33397780   -2.28282267   -0.03270652    c      6.000     0
         -2.30058495   -4.03537191   -0.02713902    h      1.000     0
         -2.30059039    4.03536858   -0.02716440    h      1.000     0
          2.35274324    4.05547592   -0.03591469    h      1.000     0
          2.35275259   -4.05546984   -0.03588303    h      1.000     0
         -5.27845951   -0.00000053   -0.02253990    n      7.000     0
         -6.37968780    2.02722128   -0.01988302    o      8.000     0
         -6.37969227   -2.02722011   -0.01992307    o      8.000     0
          5.25161265   -0.00000032   -0.08820951    n      7.000     0
          6.20017073    1.61336629    0.23199721    h      1.000     0
          6.20016334   -1.61337062    0.23200112    h      1.000     0
 
       center of nuclear mass  :   -1.36491958    0.00000015   -0.02966624
       center of nuclear charge:   -1.22317889    0.00000013   -0.02610899

   *************************************************************************
   ADC(2) - opt by CAM-B3LYP gaussian                                       
   *************************************************************************



              +--------------------------------------------------+
              |               basis set information              |
              +--------------------------------------------------+

              we will work with the 1s 3p 5d 7f 9g ... basis set
              ...i.e. with spherical basis functions...

   type   atoms  prim   cont   basis
   ---------------------------------------------------------------------------
    c        6     52     37   def2-TZVPD   [6s3p3d1f|12s6p3d1f]
    h        6     11      9   def2-TZVPD   [3s2p|5s2p]
    n        2     52     37   def2-TZVPD   [6s3p3d1f|12s6p3d1f]
    o        2     55     40   def2-TZVPD   [6s4p3d1f|12s7p3d1f]
   ---------------------------------------------------------------------------
   total:   16    592    430
   ---------------------------------------------------------------------------

   total number of primitive shells          :   74
   total number of contracted shells         :  162
   total number of cartesian basis functions :  490
   total number of SCF-basis functions       :  430

 ==============================================================================
                      COSMO switched on
 ==============================================================================
 COSMO: skip init. and read data from file
 This run uses frozen charges (from previous solvent iteration)
 Work to create reaction field =   1.639709389670250E-002

 integral neglect threshold       :  0.68E-11
 integral storage threshold THIZE :  0.10E-04
 integral storage threshold THIME :         5


 DENSITY CONVERGENCE CHECK SWITCHED ON !
 SCF CONVERGENCE IF RMS(delta[D]) <     0.1000000000E-07


 symmetry group of the molecule :   c1 

 the group has the following generators :
   c1(z)

    1 symmetry operations found

 there are 1 real representations :   a   

 maximum number of shells which are related by symmetry :  1


    mo occupation :
   irrep   mo's   occupied
    a      430       36
 
 number of basis functions   :          430
 number of occupied orbitals :           36
 

          ------------------------
          nuclear repulsion energy  :   498.665118521    
          ------------------------

 
          -----------------
          -S,T+V- integrals
          -----------------

 1e-integrals will be neglected if expon. factor < 0.682033E-12
 
   Difference densities algorithm switched on.
   The maximal number of linear combinations of
   difference densities is          20 .

 automatic virtual orbital shift switched on 
      shift if e(lumo)-e(homo) < 0.10000000    


 DIIS switched on: error vector is FDS-SDF
 Max. Iterations for DIIS is     :   5
 DIIS matrix (see manual) 
    Scaling factor of diagonals  :  1.200
    threshold for scaling factor :  0.000

 scf convergence criterion : increment of total energy < .1000000D-06
                  and increment of one-electron energy < .1000000D-03

  MOs are in ASCII format !


 reading orbital data $scfmo  from file mos . 

 orbital characterization : scfconv=7
 

 DSCF restart information will be dumped onto file mos

 COSMO: use frozen qcos
 
                                              current damping :  0.300
 ITERATION  ENERGY          1e-ENERGY        2e-ENERGY     RMS[dD(SAO)]   TOL
   1  -489.41795411376    -1655.8261511     667.74307847    0.000D+00 0.680D-11
                          Ediel =    -0.018490061658
          max. resid. norm for Fia-block=  1.229D-03 for orbital     31a         
          max. resid. fock norm         =  2.786D-03 for orbital    106a         
          Delta Eig. =     0.0661618002 eV 
 COSMO: use frozen qcos
 
                                              current damping :  0.250
 ITERATION  ENERGY          1e-ENERGY        2e-ENERGY     RMS[dD(SAO)]   TOL
   2  -489.41797499448    -1655.8423177     667.75922414    0.267D-03 0.432D-11
                          Ediel =    -0.018344559755
          Norm of current diis error: 0.74984E-02
          max. resid. norm for Fia-block=  4.544D-04 for orbital     36a         
          max. resid. fock norm         =  5.901D-04 for orbital     31a         
          Delta Eig. =     0.0222282616 eV 
 COSMO: use frozen qcos
 
                                              current damping :  0.200
 ITERATION  ENERGY          1e-ENERGY        2e-ENERGY     RMS[dD(SAO)]   TOL
   3  -489.41797932723    -1655.8396713     667.75657345    0.947D-04 0.339D-11
                          Ediel =    -0.018284130951
          Norm of current diis error: 0.36722E-02
          max. resid. norm for Fia-block=  2.758D-04 for orbital     36a         
          max. resid. fock norm         =  4.088D-04 for orbital     37a         
          Delta Eig. =     0.0137572417 eV 
 COSMO: use frozen qcos
 
                                              current damping :  0.250
 ITERATION  ENERGY          1e-ENERGY        2e-ENERGY     RMS[dD(SAO)]   TOL
   4  -489.41798084884    -1655.8410791     667.75797978    0.367D-04 0.292D-11
                          Ediel =    -0.018249470378
          Norm of current diis error: 0.19720E-02
          max. resid. norm for Fia-block=  2.169D-04 for orbital     36a         
          max. resid. fock norm         =  2.495D-04 for orbital     37a         
          Delta Eig. =     0.0040959621 eV 
 COSMO: use frozen qcos
 
                                              current damping :  0.300
 ITERATION  ENERGY          1e-ENERGY        2e-ENERGY     RMS[dD(SAO)]   TOL
   5  -489.41798134245    -1655.8410505     667.75795059    0.982D-05 0.266D-11
                          Ediel =    -0.018232953850
          Norm of current diis error: 0.11157E-02
          max. resid. norm for Fia-block=  1.354D-04 for orbital     36a         
          max. resid. fock norm         =  1.599D-04 for orbital     37a         
 mo-orthogonalization: Cholesky decomposition
          Delta Eig. =     0.0028769190 eV 
 COSMO: use frozen qcos
 
                                              current damping :  0.150
 ITERATION  ENERGY          1e-ENERGY        2e-ENERGY     RMS[dD(SAO)]   TOL
   6  -489.41798152257    -1655.8409164     667.75781639    0.557D-05 0.247D-11
                          Ediel =    -0.018224779207
          Norm of current diis error: 0.59051E-03
          max. resid. norm for Fia-block=  9.773D-05 for orbital     36a         
          max. resid. fock norm         =  1.006D-04 for orbital     37a         
          Delta Eig. =     0.0009755957 eV 
 COSMO: use frozen qcos
 
                                              current damping :  0.100
 ITERATION  ENERGY          1e-ENERGY        2e-ENERGY     RMS[dD(SAO)]   TOL
   7  -489.41798158782    -1655.8408599     667.75775980    0.421D-05 0.230D-11
                          Ediel =    -0.018220049491
          Norm of current diis error: 0.25500E-03
          max. resid. norm for Fia-block=  4.264D-05 for orbital     36a         
          max. resid. fock norm         =  4.298D-05 for orbital     36a         
          Delta Eig. =     0.0008247038 eV 
 COSMO: use frozen qcos
 
                                              current damping :  0.100
 ITERATION  ENERGY          1e-ENERGY        2e-ENERGY     RMS[dD(SAO)]   TOL
   8  -489.41798159999    -1655.8408186     667.75771849    0.184D-05 0.219D-11
                          Ediel =    -0.018218526676
          Norm of current diis error: 0.88491E-04
          max. resid. norm for Fia-block=  1.486D-05 for orbital     36a         
          max. resid. fock norm         =  1.509D-05 for orbital     36a         
          Delta Eig. =     0.0002581256 eV 
 COSMO: use frozen qcos
 
                                              current damping :  0.100
 ITERATION  ENERGY          1e-ENERGY        2e-ENERGY     RMS[dD(SAO)]   TOL
   9  -489.41798160153    -1655.8408027     667.75770255    0.526D-06 0.213D-11
                          Ediel =    -0.018218267886
          Norm of current diis error: 0.35861E-04
          max. resid. norm for Fia-block=  4.462D-06 for orbital     35a         
          max. resid. fock norm         =  5.726D-06 for orbital    186a         
          Delta Eig. =     0.0001488192 eV 
 COSMO: use frozen qcos

 ENERGY & DENSITY CONVERGED !

 
                                              current damping :  0.100
 ITERATION  ENERGY          1e-ENERGY        2e-ENERGY     RMS[dD(SAO)]   TOL
  10  -489.41798160240    -1655.8408024     667.75770223    0.275D-06 0.209D-11
                          Ediel =    -0.018218325274
          max. resid. norm for Fia-block=  1.135D-06 for orbital     36a         
          max. resid. fock norm         =  6.890D-06 for orbital    186a         
 COSMO: write data to file cosmotransfer

 convergence criteria satisfied after 10 iterations


   *************************************************************************
   ADC(2) - opt by CAM-B3LYP gaussian                                       
   *************************************************************************


                  ------------------------------------------ 
                 |  total energy      =   -489.41798160240  |
                  ------------------------------------------ 
                 :  kinetic energy    =    488.91420853718  :
                 :  potential energy  =   -978.33219013958  :
                 :  virial theorem    =      1.99897066907  :
                 :  wavefunction norm =      1.00000000000  :
                  .......................................... 


 orbitals $scfmo  will be written to file mos

    irrep                 32a         33a         34a         35a         36a   
 eigenvalues H         -0.48933    -0.47522    -0.45889    -0.36768    -0.31692
            eV         -13.3156    -12.9316    -12.4870    -10.0053     -8.6239
 occupation              2.0000      2.0000      2.0000      2.0000      2.0000 

    irrep                 37a         38a         39a         40a         41a   
 eigenvalues H          0.04839     0.06791     0.08053     0.08335     0.10234
            eV           1.3167      1.8480      2.1914      2.2681      2.7850
 
 ==============================================================================
                                  COSMO RESULTS
 ==============================================================================
  PARAMETER:
    nppa:      1082
    nspa:        92
    nsph:        32
    nps:        665
    npspher:    311
    disex:   10.0000    
    disex2:  4409.67    
    rsolv [A]: 1.3000
    routf:     0.8500
    phsran:    0.0    
    ampran:   0.10E-04
    cavity:  closed
    epsilon:     6.253
    refind:     1.300
    fepsi:      0.7778765
  CAVITY VOLUME/AREA [a.u.]:
    surface: V1.0, A matrix: V1.0
    area:   573.40
    volume:  1039.07
  SCREENING CHARGE:
    cosmo      :  -0.029843
    correction :   0.029161
    total      :  -0.000682
  ENERGIES [a.u.]:
    Total energy            =     -489.4179816024
    Total energy + OC corr. =     -489.4176570178
    Dielectric energy       =       -0.0182183253
    Diel. energy + OC corr. =       -0.0178937407
  ELEMENT RADIUS [A]: ATOM LIST
    c  2.00: 1-6
    h  1.30: 7-10,15,16
    n  1.83: 11,14
    o  1.72: 12,13
 ==============================================================================
 
 
 
 ==============================================================================
                           electrostatic moments
 ==============================================================================
 
              nuc           elec       ->  total
 ------------------------------------------------------------------------------
                          charge      
 ------------------------------------------------------------------------------
          72.000000     -72.000000      -0.000000
 
 ------------------------------------------------------------------------------
                       dipole moment  
 ------------------------------------------------------------------------------
   x     -88.068880      91.773498       3.704618
   y       0.000009      -0.000090      -0.000081
   z      -1.879848       2.121115       0.241267
 
   | dipole moment | =     3.7125 a.u. =     9.4361 debye 
 
 ------------------------------------------------------------------------------
                     quadrupole moment
 ------------------------------------------------------------------------------
  xx    1260.675534   -1312.935260     -52.259726
  yy     261.446016    -300.126834     -38.680818
  zz       0.211247     -45.563544     -45.352296
  xy      -0.000011      -0.000362      -0.000373
  xz       2.299390      -0.741637       1.557754
  yz       0.000000      -0.000108      -0.000108
 
     1/3  trace=     -45.430947
     anisotropy=      12.065810
 
 ==============================================================================
 


    ------------------------------------------------------------------------
         total  cpu-time : 16 minutes and 57 seconds
         total wall-time : 16 minutes and 59 seconds
    ------------------------------------------------------------------------


   ****  dscf : all done  ****


    2023-03-29 07:10:35.519 

