 hostname is         dlt08.abaxnet
 this is node-proc. number 0 running on node dlt08.abaxnet
 the total number of node-proc. spawned is   1

 ricc2 (dlt08.abaxnet) : TURBOMOLE V6.6( 19125 ) 27 May 2014 at 14:24:19
 Copyright (C) 2014 TURBOMOLE GmbH, Karlsruhe


    2023-03-30 06:33:03.999 



                              R I C C 2 - PROGRAM

                          the quantum chemistry groups
                             at the universities in
                           Karlsruhe, Bochum & Mainz
                                   Germany



   *-----------------------------------------------------------------------*
   |                     program will use  1 thread(s)                     |
   *-----------------------------------------------------------------------*


              +--------------------------------------------------+
              | Atomic coordinate, charge and isotop information |
              +--------------------------------------------------+

                    atomic coordinates            atom    charge  isotop
         -1.25903854   -2.28197016   -0.03015612    c      6.000     0
         -2.55472338   -0.00000083   -0.02879221    c      6.000     0
         -1.25904288    2.28196695   -0.03016999    c      6.000     0
          1.33397593    2.28282469   -0.03272265    c      6.000     0
          2.68642343    0.00000329   -0.03279418    c      6.000     0
          1.33397780   -2.28282267   -0.03270652    c      6.000     0
         -2.30058495   -4.03537191   -0.02713902    h      1.000     0
         -2.30059039    4.03536858   -0.02716440    h      1.000     0
          2.35274324    4.05547592   -0.03591469    h      1.000     0
          2.35275259   -4.05546984   -0.03588303    h      1.000     0
         -5.27845951   -0.00000053   -0.02253990    n      7.000     0
         -6.37968780    2.02722128   -0.01988302    o      8.000     0
         -6.37969227   -2.02722011   -0.01992307    o      8.000     0
          5.25161265   -0.00000032   -0.08820951    n      7.000     0
          6.20017073    1.61336629    0.23199721    h      1.000     0
          6.20016334   -1.61337062    0.23200112    h      1.000     0
 
       center of nuclear mass  :   -1.36491958    0.00000015   -0.02966624
       center of nuclear charge:   -1.22317889    0.00000013   -0.02610899

              +--------------------------------------------------+
              |               basis set information              |
              +--------------------------------------------------+

              we will work with the 1s 3p 5d 7f 9g ... basis set
              ...i.e. with spherical basis functions...

   type   atoms  prim   cont   basis
   ---------------------------------------------------------------------------
    c        6     52     37   def2-TZVPD   [6s3p3d1f|12s6p3d1f]
    h        6     11      9   def2-TZVPD   [3s2p|5s2p]
    n        2     52     37   def2-TZVPD   [6s3p3d1f|12s6p3d1f]
    o        2     55     40   def2-TZVPD   [6s4p3d1f|12s7p3d1f]
   ---------------------------------------------------------------------------
   total:   16    592    430
   ---------------------------------------------------------------------------

   total number of primitive shells          :   74
   total number of contracted shells         :  162
   total number of cartesian basis functions :  490
   total number of SCF-basis functions       :  430



   =========================================================================


     restricted closed shell calculation for the wavefunction models:
               ADC(2)     - Algebraic Diagrammatic Construction to 2. Order (strict)


     global parameters for ricc2 program:

        hard restart (reuse of interm.) :  enabled 
        soft restart (reuse of vectors) :  disabled
        threshold for vector function   :    0.100000E-06
        convergence threshold energy    :    0.100000E-07
        linear dependence threshold     :    0.100000E-13
        global print level              :      1
        maximum number of iterations    :   500
        maximum number DIIS vectors     :    10
        max. dim. of reduced space      :   100
        core memory limit (MB)          :   500
        disk space limit (MB)           :   none


   =========================================================================
     "cartesian on" in $drvopt is ignored by $ricc2

    der. integral neglect threshold  :  0.10E-08
    integral neglect threshold       :  0.68E-12
    integral storage threshold THIZE :  0.10E-04
    integral storage threshold THIME :         5


                  +------------------------------------------+
                  |     Auxiliary basis set information      |
                  +------------------------------------------+

              we will work with the 1s 3p 5d 7f 9g ... basis set
              ...i.e. with spherical basis functions...

   type   atoms  prim   cont   basis
   ---------------------------------------------------------------------------
    c        6     97     92   def2-TZVPD   [9s7p5d4f1g|9s7p6d4f1g]
    h        6     32     24   def2-TZVPD   [5s3p2d|5s4p3d]
    n        2     97     92   def2-TZVPD   [9s7p5d4f1g|9s7p6d4f1g]
    o        2     97     92   def2-TZVPD   [9s7p5d4f1g|9s7p6d4f1g]
   ---------------------------------------------------------------------------
   total:   16   1162   1064
   ---------------------------------------------------------------------------

   total number of primitive shells          :   93
   total number of contracted shells         :  320
   total number of cartesian basis functions : 1306
   total number of SCF-basis functions       : 1064


 symmetry group of the molecule :   c1 

 the group has the following generators :
   c1(z)

    1 symmetry operations found

 there are 1 real representations :   a   

 maximum number of shells which are related by symmetry :  1


 The symmetry information takes   1 MB

*---------------------------------------------------------------------*
|               simplified C1 algorithm will be applied               |
*---------------------------------------------------------------------*
 ==============================================================================
                      COSMO switched on
 ==============================================================================
            ======================================================
                      COSMO settings in RICC2
                   --------------------------
             Solvent charges are equilibrated for ground state
             "cycle" indicates frozen COSMO charges,
             hence no COSMO CPHF contribution included
             COSMO linear response (LR) contribution included
             Outlying Charge Correction (OCC) is performed
             Using epsilon          =     6.253
             Using refractive index =     1.300
            ======================================================
        IMPORTANT NOTICE: The calculation of the solvent contributions will
         need the relaxed densities in general. Therefore the actual COSMO
         energies will be output only at the end of the run. Any energies
         or excitation energies quoted before that are only intermediate
         quantities and should be ignored unless you know what you are doing!

  MOs are in ASCII format !


 reading orbital data $scfmo  from file mos . 

 orbital characterization : scfconv=7
 

         --------------------------------------------------------------
                   checking mo's by calculating trace(D*S)

              number of electrons : 
                 from trace(D*S)         :   71.999999999996
                 from occupation numbers :   72.000000000000

              molecular charge           :    0.000000000000
         --------------------------------------------------------------

 time elapsed for calculating density matrices :   0.020 sec
 all orbitals will be active in the correlation treatment

  ----------------------------------------------------------------------------
  hard_restart flag is disabled because the check sum for the
  molecular orbitals "$chkmos" differs from the reference value:
  reference value:     4986246.77229812    
  computed value :     4986246.77195497    
  relative error :    0.688192028147890E-10
  tolerance      :    0.100000000000000E-11
  the calculation will proceed...
  ----------------------------------------------------------------------------


   Molecular Orbital Statistic:
   ============================

   -----------------------------
   orbitals in total:
   -----------------------------
    frozen occupied :      0
    active occupied :     36
    active virtual  :    394
    frozen virtual  :      0
    all together    :    430
   -----------------------------


     time in riccmos       cpu:  0.19 sec    wall:  0.32 sec    ratio:  0.6

     total memory allocated for calculation of (Q|P)**(-1/2) : 13 MiB


     calculation of (P|Q) ...
     time in lp2sym        cpu:  0.04 sec    wall:  0.04 sec    ratio:  1.0


     calculation of the Cholesky decomposition of (P|Q)**(-1) ...
     time in invmetri      cpu:  0.20 sec    wall:  0.28 sec    ratio:  0.7

   threshold for RMS(d[D]) in SCF was     :  0.10E-07
   integral neglect threshold             :  0.68E-12
   derivative integral neglect threshold  :  0.10E-08


 setting up bound for integral derivative estimation

 increment for numerical differentiation : 0.00050000

   =========================================================================

     Energy of reference wave function is  -489.4179273905000
     Maximum orbital residual is           0.1695195446896E-04


     Number of symmetry-nonredundant auxiliary basis functions:     1064

     Block lengths for integral files:
        frozen occupied (BOI):        0 MiB
        active occupied (BJI):        1 MiB
        active virtual  (BAI):        4 MiB
        frozen virtual  (BGI):        0 MiB
               general  (BTI):        4 MiB

   =========================================================================




   **************************************************************************
   *                                                                        *
   *          OPTIMIZATION OF THE GROUND STATE CLUSTER AMPLITUDES           *
   *                                                                        *
   **************************************************************************


   Iter.   MP2 energy       Norm(Omega)    Norm(t1)  Norm(t2)     cpu    wall
   ...........................................................................
    1   -491.4223727174    0.1616143254     0.00000   0.44534    1.26    1.38
   ...........................................................................


     time in total         cpu:  1 min 16 s  wall:  1 min 23 s  ratio:  0.9


     **********************************************************************
     *                                                                    *
     *   RHF  energy                             :   -489.4179273905      *
     *   MP2 correlation energy                  :     -2.0044453269      *
     *                                                                    *
     *   Final MP2 energy                        :   -491.4223727174      *
     *                                                                    *
     *   Norm of MP1 T2 amplitudes               :      0.4453361375      *
     *                                                                    *
     *   D1 diagnostic                           :      0.0589            *
     *                                                                    *
     **********************************************************************

 Using refractive index n                   =    1.30000000000000     
 Screening function (n**2-1)/(n**2+0.5)     =   0.315068493150685     


 **************************************************************
 *                                                            *
 *    OPTIMIZATION OF THE EXCITED STATE CLUSTER AMPLITUDES    *
 *                                                            *
 **************************************************************


  preoptimize excitation energies/vectors using CCS:

  ==================================================


 ======== LINEAR CC RESPONSE SOLVER ========

    threshold for convergence: 0.10E-02
    maximum number of simultaneous jacoby matrix transformations: 15
                                                
     summary of start vectors generation:
     -------------------------------------------
     type of solution vectors      : RE0
     symmetry                      : a  
     number of vectors requested   :    15
     number of vectors generated   :    15
       -- guessed as rhs/(e_a-e_i) :    15
     -------------------------------------------
                                                

    Iter  #Vectors  time (min)    max. residual 
    --------------------------------------------
 COSMO cphf update
 COSMO cphf update
 COSMO cphf update
 COSMO cphf update
 COSMO cphf update
 COSMO cphf update
 COSMO cphf update
 COSMO cphf update
 COSMO cphf update
 COSMO cphf update
 COSMO cphf update
 COSMO cphf update
 COSMO cphf update
 COSMO cphf update
 COSMO cphf update
      1      15         2.95     0.14E+00  (  1)
 COSMO cphf update
 COSMO cphf update
 COSMO cphf update
 COSMO cphf update
 COSMO cphf update
 COSMO cphf update
 COSMO cphf update
 COSMO cphf update
 COSMO cphf update
 COSMO cphf update
 COSMO cphf update
 COSMO cphf update
 COSMO cphf update
 COSMO cphf update
 COSMO cphf update
      2      15         3.00     0.56E-01  (  9)
 COSMO cphf update
 COSMO cphf update
 COSMO cphf update
 COSMO cphf update
 COSMO cphf update
 COSMO cphf update
 COSMO cphf update
 COSMO cphf update
 COSMO cphf update
 COSMO cphf update
 COSMO cphf update
 COSMO cphf update
 COSMO cphf update
 COSMO cphf update
 COSMO cphf update
      3      15         2.98     0.75E-01  (  7)
 COSMO cphf update
 COSMO cphf update
 COSMO cphf update
 COSMO cphf update
 COSMO cphf update
 COSMO cphf update
 COSMO cphf update
 COSMO cphf update
 COSMO cphf update
 COSMO cphf update
 COSMO cphf update
 COSMO cphf update
 COSMO cphf update
 COSMO cphf update
 COSMO cphf update
      4      15         2.96     0.15E+00  ( 13)
 COSMO cphf update
 COSMO cphf update
 COSMO cphf update
 COSMO cphf update
 COSMO cphf update
 COSMO cphf update
 COSMO cphf update
 COSMO cphf update
 COSMO cphf update
 COSMO cphf update
 COSMO cphf update
 COSMO cphf update
 COSMO cphf update
 COSMO cphf update
 COSMO cphf update
      5      15         2.98     0.16E+00  (  4)
 COSMO cphf update
 COSMO cphf update
 COSMO cphf update
 COSMO cphf update
 COSMO cphf update
 COSMO cphf update
 COSMO cphf update
 COSMO cphf update
 COSMO cphf update
 COSMO cphf update
 COSMO cphf update
 COSMO cphf update
 COSMO cphf update
 COSMO cphf update
 COSMO cphf update
  dimension of red. space became too large.
  try internal restart...
      6      15         2.97     0.88E-01  (  2)
                                                
     summary of start vectors generation:
     -------------------------------------------
     type of solution vectors      : RE0
     symmetry                      : a  
     number of vectors requested   :    15
     number of vectors generated   :    15
       -- restarted from file      :    15
     -------------------------------------------
                                                

    Iter  #Vectors  time (min)    max. residual 
    --------------------------------------------
 COSMO cphf update
 COSMO cphf update
 COSMO cphf update
 COSMO cphf update
 COSMO cphf update
 COSMO cphf update
 COSMO cphf update
 COSMO cphf update
 COSMO cphf update
 COSMO cphf update
 COSMO cphf update
 COSMO cphf update
 COSMO cphf update
 COSMO cphf update
 COSMO cphf update
      7      15         2.97     0.88E-01  (  2)
 COSMO cphf update
 COSMO cphf update
 COSMO cphf update
 COSMO cphf update
 COSMO cphf update
 COSMO cphf update
 COSMO cphf update
 COSMO cphf update
 COSMO cphf update
 COSMO cphf update
 COSMO cphf update
 COSMO cphf update
 COSMO cphf update
      8      13         2.60     0.30E-01  (  2)
 COSMO cphf update
 COSMO cphf update
 COSMO cphf update
 COSMO cphf update
 COSMO cphf update
 COSMO cphf update
 COSMO cphf update
 COSMO cphf update
 COSMO cphf update
 COSMO cphf update
      9      10         2.07     0.72E-02  (  2)
 COSMO cphf update
 COSMO cphf update
 COSMO cphf update
 COSMO cphf update
 COSMO cphf update
     10       5         1.05     0.25E-02  ( 13)
 COSMO cphf update
 COSMO cphf update
 COSMO cphf update
 COSMO cphf update
     11       4         0.89     0.11E-02  ( 13)
 COSMO cphf update
     12       1         0.34     0.75E-03  (  2)
    --------------------------------------------
    converged in 12 iterations

         Total time         27.76 minutes


 ===========================================




 Note that this is the intermediate result of a preoptimization!
 The convergence threshold was  0.1E-02 only!
 COSMO: note that the excitation energies below do not include
        the nonequilibrium contributions yet. These require the
        computation of the relaxed densities. See end of output
        for a final list of corrected excitations.


 +==================================================================+
 | sym | multi | state |          CCS excitation energies           |
 |     |       |       +--------------------------------------------+
 |     |       |       |   Hartree    |     eV       |     cm-1     |
 +==================================================================+
 | a   |   1   |   1   |    0.1841209 |      5.01018 |    40409.863 |
 | a   |   1   |   2   |    0.1960021 |      5.33349 |    43017.483 |
 | a   |   1   |   3   |    0.2049996 |      5.57832 |    44992.210 |
 | a   |   1   |   4   |    0.2108559 |      5.73768 |    46277.526 |
 | a   |   1   |   5   |    0.2300125 |      6.25896 |    50481.910 |
 | a   |   1   |   6   |    0.2473511 |      6.73077 |    54287.290 |
 | a   |   1   |   7   |    0.2580746 |      7.02257 |    56640.831 |
 | a   |   1   |   8   |    0.2596471 |      7.06536 |    56985.953 |
 | a   |   1   |   9   |    0.2621076 |      7.13231 |    57525.961 |
 | a   |   1   |  10   |    0.2662243 |      7.24433 |    58429.484 |
 | a   |   1   |  11   |    0.2795735 |      7.60758 |    61359.280 |
 | a   |   1   |  12   |    0.2831011 |      7.70357 |    62133.506 |
 | a   |   1   |  13   |    0.2861575 |      7.78674 |    62804.318 |
 | a   |   1   |  14   |    0.2973555 |      8.09146 |    65261.997 |
 | a   |   1   |  15   |    0.2975388 |      8.09644 |    65302.219 |
 +==================================================================+




  preoptimize ADC(2) excitation energies/vectors using a quasi linear algorithm:
  ==============================================================================


 ======== LINEAR CC RESPONSE SOLVER ========

    threshold for convergence: 0.10E-02
    maximum number of simultaneous jacoby matrix transformations: 15
                                                
     summary of start vectors generation:
     -------------------------------------------
     type of solution vectors      : RE0
     symmetry                      : a  
     number of vectors requested   :    15
     number of vectors generated   :    15
       -- restarted from file      :    15
     -------------------------------------------
                                                

    Iter  #Vectors  time (min)    max. residual 
    --------------------------------------------
 COSMO cphf update
 COSMO cphf update
 COSMO cphf update
 COSMO cphf update
 COSMO cphf update
 COSMO cphf update
 COSMO cphf update
 COSMO cphf update
 COSMO cphf update
 COSMO cphf update
 COSMO cphf update
 COSMO cphf update
 COSMO cphf update
 COSMO cphf update
 COSMO cphf update
 COSMO cphf update
 COSMO cphf update
 COSMO cphf update
 COSMO cphf update
 COSMO cphf update
 COSMO cphf update
 COSMO cphf update
 COSMO cphf update
 COSMO cphf update
 COSMO cphf update
 COSMO cphf update
 COSMO cphf update
 COSMO cphf update
 COSMO cphf update
 COSMO cphf update
 threshold for this macro iteration:  5.072044936036399E-002
      1      15        26.82     0.93E-01  (  1)
 COSMO cphf update
 COSMO cphf update
 COSMO cphf update
 COSMO cphf update
 COSMO cphf update
 COSMO cphf update
 COSMO cphf update
 COSMO cphf update
 COSMO cphf update
 COSMO cphf update
 COSMO cphf update
 COSMO cphf update
 COSMO cphf update
 COSMO cphf update
 COSMO cphf update
 COSMO cphf update
 ...adapted threshold to:  5.978347777044357E-002
      2       8        14.41     0.40E-01  ( 12)
                                                
     summary of start vectors generation:
     -------------------------------------------
     type of solution vectors      : RE0
     symmetry                      : a  
     number of vectors requested   :    15
     number of vectors generated   :    15
       -- restarted from file      :    15
     -------------------------------------------
                                                

    Iter  #Vectors  time (min)    max. residual 
    --------------------------------------------
 COSMO cphf update
 COSMO cphf update
 COSMO cphf update
 COSMO cphf update
 COSMO cphf update
 COSMO cphf update
 COSMO cphf update
 COSMO cphf update
 COSMO cphf update
 COSMO cphf update
 COSMO cphf update
 COSMO cphf update
 COSMO cphf update
 COSMO cphf update
 COSMO cphf update
 COSMO cphf update
 COSMO cphf update
 COSMO cphf update
 COSMO cphf update
 COSMO cphf update
 COSMO cphf update
 COSMO cphf update
 COSMO cphf update
 COSMO cphf update
 COSMO cphf update
 COSMO cphf update
 COSMO cphf update
 COSMO cphf update
 COSMO cphf update
 COSMO cphf update
 threshold for this macro iteration:  6.843501151392400E-003
      3      15        26.93     0.40E-01  ( 12)
 COSMO cphf update
 COSMO cphf update
 COSMO cphf update
 COSMO cphf update
 COSMO cphf update
 COSMO cphf update
 COSMO cphf update
 COSMO cphf update
 COSMO cphf update
 COSMO cphf update
 COSMO cphf update
 COSMO cphf update
 COSMO cphf update
 COSMO cphf update
 COSMO cphf update
 COSMO cphf update
 COSMO cphf update
 COSMO cphf update
 COSMO cphf update
 COSMO cphf update
 COSMO cphf update
 COSMO cphf update
 COSMO cphf update
 COSMO cphf update
 COSMO cphf update
 COSMO cphf update
 COSMO cphf update
 COSMO cphf update
 COSMO cphf update
 COSMO cphf update
      4      15        27.03     0.15E-01  ( 11)
 COSMO cphf update
 COSMO cphf update
 COSMO cphf update
 COSMO cphf update
 COSMO cphf update
 COSMO cphf update
 COSMO cphf update
 COSMO cphf update
 COSMO cphf update
 COSMO cphf update
 COSMO cphf update
 COSMO cphf update
 COSMO cphf update
 COSMO cphf update
 COSMO cphf update
 COSMO cphf update
 COSMO cphf update
 COSMO cphf update
 COSMO cphf update
 COSMO cphf update
 COSMO cphf update
 COSMO cphf update
 COSMO cphf update
 COSMO cphf update
 COSMO cphf update
 COSMO cphf update
 COSMO cphf update
 COSMO cphf update
      5      14        25.25     0.12E-01  ( 15)
 COSMO cphf update
 COSMO cphf update
 COSMO cphf update
 COSMO cphf update
      6       2         4.02     0.11E-01  ( 14)
 COSMO cphf update
 COSMO cphf update
      7       1         2.30     0.17E-01  ( 14)
 COSMO cphf update
 COSMO cphf update
      8       1         2.30     0.22E-01  ( 14)
 COSMO cphf update
 COSMO cphf update
      9       1         2.32     0.11E-01  ( 14)
 COSMO cphf update
 COSMO cphf update
     10       1         2.30     0.78E-02  ( 13)
 COSMO cphf update
 COSMO cphf update
     11       1         2.32     0.67E-02  ( 15)
                                                
     summary of start vectors generation:
     -------------------------------------------
     type of solution vectors      : RE0
     symmetry                      : a  
     number of vectors requested   :    15
     number of vectors generated   :    15
       -- restarted from file      :    15
     -------------------------------------------
                                                

    Iter  #Vectors  time (min)    max. residual 
    --------------------------------------------
 COSMO cphf update
 COSMO cphf update
 COSMO cphf update
 COSMO cphf update
 COSMO cphf update
 COSMO cphf update
 COSMO cphf update
 COSMO cphf update
 COSMO cphf update
 COSMO cphf update
 COSMO cphf update
 COSMO cphf update
 COSMO cphf update
 COSMO cphf update
 COSMO cphf update
 COSMO cphf update
 COSMO cphf update
 COSMO cphf update
 COSMO cphf update
 COSMO cphf update
 COSMO cphf update
 COSMO cphf update
 COSMO cphf update
 COSMO cphf update
 COSMO cphf update
 COSMO cphf update
 COSMO cphf update
 COSMO cphf update
 COSMO cphf update
 COSMO cphf update
 threshold for this macro iteration:  1.402279493511294E-002
     12      15        27.06     0.75E-02  ( 11)
                                                
     summary of start vectors generation:
     -------------------------------------------
     type of solution vectors      : RE0
     symmetry                      : a  
     number of vectors requested   :    15
     number of vectors generated   :    15
       -- restarted from file      :    15
     -------------------------------------------
                                                

    Iter  #Vectors  time (min)    max. residual 
    --------------------------------------------
 COSMO cphf update
 COSMO cphf update
 COSMO cphf update
 COSMO cphf update
 COSMO cphf update
 COSMO cphf update
 COSMO cphf update
 COSMO cphf update
 COSMO cphf update
 COSMO cphf update
 COSMO cphf update
 COSMO cphf update
 COSMO cphf update
 COSMO cphf update
 COSMO cphf update
 COSMO cphf update
 COSMO cphf update
 COSMO cphf update
 COSMO cphf update
 COSMO cphf update
 COSMO cphf update
 COSMO cphf update
 COSMO cphf update
 COSMO cphf update
 COSMO cphf update
 COSMO cphf update
 COSMO cphf update
 COSMO cphf update
 COSMO cphf update
 COSMO cphf update
 dabs(Rj-Ri):           1          11  0.118675015928741     
 dabs(Ij+Ii):           1          11  5.657016427764873E-004
 dabs(Rj-Ri):           2          11  0.115327559879586     
 dabs(Ij+Ii):           2          11  5.657016427764873E-004
 dabs(Rj-Ri):           3          11  8.993137845927263E-002
 dabs(Ij+Ii):           3          11  5.657016427764873E-004
 dabs(Rj-Ri):           4          11  8.654969519867584E-002
 dabs(Ij+Ii):           4          11  5.657016427764873E-004
 dabs(Rj-Ri):           5          11  5.996996998718027E-002
 dabs(Ij+Ii):           5          11  5.657016427764873E-004
 dabs(Rj-Ri):           6          11  4.509921149991780E-002
 dabs(Ij+Ii):           6          11  5.657016427764873E-004
 dabs(Rj-Ri):           7          11  4.317556932071095E-002
 dabs(Ij+Ii):           7          11  5.657016427764873E-004
 dabs(Rj-Ri):           8          11  3.301000482722766E-002
 dabs(Ij+Ii):           8          11  5.657016427764873E-004
 dabs(Rj-Ri):           9          11  1.986292988880495E-002
 dabs(Ij+Ii):           9          11  5.657016427764873E-004
 dabs(Rj-Ri):          10          11  1.242035750409387E-002
 dabs(Ij+Ii):          10          11  5.657016427764873E-004
 dabs(Rj-Ri):          12          11  0.000000000000000E+000
 dabs(Ij+Ii):          12          11  0.000000000000000E+000
 dabs(Rj-Ri):          13          11  8.109028102587512E-005
 dabs(Ij+Ii):          13          11  5.657016427764873E-004
 dabs(Rj-Ri):          14          11  1.448971237298213E-002
 dabs(Ij+Ii):          14          11  5.657016427764873E-004
 dabs(Rj-Ri):          15          11  1.716666597288724E-002
 dabs(Ij+Ii):          15          11  5.657016427764873E-004
 overlap matrix for complex pair:

              1             2
 
    1     0.13267663    0.02361167
    2     0.02361167    0.02082572
 real eigenvalues of metric:

              1
 
    1     0.13745675
    2     0.01604560
 eigenvectors of metric:

              1             2
 
    1     0.98011664   -0.19842223
    2     0.19842223    0.98011664
 inverse square root of overlap matrix:

              1             2
 
    1     2.90184575   -1.01074124
    2    -1.01074124    7.68983108
 recalculated overlap matrix for complex pair:

              1             2
 
    1     1.00000000   -0.00000000
    2     0.00000000    1.00000000
 dabs(Rj-Ri):           1          12  0.118675015928741     
 dabs(Ij+Ii):           1          12  5.657016427764873E-004
 dabs(Rj-Ri):           2          12  0.115327559879586     
 dabs(Ij+Ii):           2          12  5.657016427764873E-004
 dabs(Rj-Ri):           3          12  8.993137845927263E-002
 dabs(Ij+Ii):           3          12  5.657016427764873E-004
 dabs(Rj-Ri):           4          12  8.654969519867584E-002
 dabs(Ij+Ii):           4          12  5.657016427764873E-004
 dabs(Rj-Ri):           5          12  5.996996998718027E-002
 dabs(Ij+Ii):           5          12  5.657016427764873E-004
 dabs(Rj-Ri):           6          12  4.509921149991780E-002
 dabs(Ij+Ii):           6          12  5.657016427764873E-004
 dabs(Rj-Ri):           7          12  4.317556932071095E-002
 dabs(Ij+Ii):           7          12  5.657016427764873E-004
 dabs(Rj-Ri):           8          12  3.301000482722766E-002
 dabs(Ij+Ii):           8          12  5.657016427764873E-004
 dabs(Rj-Ri):           9          12  1.986292988880495E-002
 dabs(Ij+Ii):           9          12  5.657016427764873E-004
 dabs(Rj-Ri):          10          12  1.242035750409387E-002
 dabs(Ij+Ii):          10          12  5.657016427764873E-004
 dabs(Rj-Ri):          11          12  0.000000000000000E+000
 dabs(Ij+Ii):          11          12  0.000000000000000E+000
 dabs(Rj-Ri):          13          12  8.109028102587512E-005
 dabs(Ij+Ii):          13          12  5.657016427764873E-004
 dabs(Rj-Ri):          14          12  1.448971237298213E-002
 dabs(Ij+Ii):          14          12  5.657016427764873E-004
 dabs(Rj-Ri):          15          12  1.716666597288724E-002
 dabs(Ij+Ii):          15          12  5.657016427764873E-004
 overlap matrix for complex pair:

              1             2
 
    1     1.00000000    0.00000000
    2    -0.00000000    1.00000000
 real eigenvalues of metric:

              1
 
    1     1.00000000
    2     1.00000000
 eigenvectors of metric:

              1             2
 
    1     0.84673056    0.53202195
    2    -0.53202195    0.84673056
 inverse square root of overlap matrix:

              1             2
 
    1     1.00000000   -0.00000000
    2    -0.00000000    1.00000000
 recalculated overlap matrix for complex pair:

              1             2
 
    1     1.00000000    0.00000000
    2    -0.00000000    1.00000000
 warning> found low lying complex root...
 eigenvalues (imaginary parts) in redeig:

              1
 
    1     0.00000000
    2     0.00000000
    3     0.00000000
    4     0.00000000
    5     0.00000000
    6     0.00000000
    7     0.00000000
    8     0.00000000
    9     0.00000000
   10     0.00000000
   11    -0.00056570
   12     0.00056570
   13     0.00000000
   14     0.00000000
   15     0.00000000
 eigenvalues (real parts) in redeig:

              1
 
    1     0.13761350
    2     0.14096095
    3     0.16635713
    4     0.16973882
    5     0.19631854
    6     0.21118930
    7     0.21311294
    8     0.22327851
    9     0.23642558
   10     0.24386816
   11     0.25628851
   12     0.25628851
   13     0.25636960
   14     0.27077822
   15     0.27345518
 threshold for this macro iteration:  2.488898441326381E-003
     13      15        27.16     0.51E-02  ( 12)
 COSMO cphf update
 COSMO cphf update
 COSMO cphf update
 COSMO cphf update
 dabs(Rj-Ri):           1          11  0.118513740245734     
 dabs(Ij+Ii):           1          11  5.520162672879559E-004
 dabs(Rj-Ri):           2          11  0.115166319538547     
 dabs(Ij+Ii):           2          11  5.520162672879559E-004
 dabs(Rj-Ri):           3          11  8.977010118090345E-002
 dabs(Ij+Ii):           3          11  5.520162672879559E-004
 dabs(Rj-Ri):           4          11  8.638841952956958E-002
 dabs(Ij+Ii):           4          11  5.520162672879559E-004
 dabs(Rj-Ri):           5          11  5.980869430517383E-002
 dabs(Ij+Ii):           5          11  5.520162672879559E-004
 dabs(Rj-Ri):           6          11  4.493807285439352E-002
 dabs(Ij+Ii):           6          11  5.520162672879559E-004
 dabs(Rj-Ri):           7          11  4.301429363997028E-002
 dabs(Ij+Ii):           7          11  5.520162672879559E-004
 dabs(Rj-Ri):           8          11  3.284887000772291E-002
 dabs(Ij+Ii):           8          11  5.520162672879559E-004
 dabs(Rj-Ri):           9          11  1.970165634304302E-002
 dabs(Ij+Ii):           9          11  5.520162672879559E-004
 dabs(Rj-Ri):          10          11  1.225908182065777E-002
 dabs(Ij+Ii):          10          11  5.520162672879559E-004
 dabs(Rj-Ri):          12          11  0.000000000000000E+000
 dabs(Ij+Ii):          12          11  0.000000000000000E+000
 dabs(Rj-Ri):          13          11  2.399273763302179E-004
 dabs(Ij+Ii):          13          11  5.520162672879559E-004
 dabs(Rj-Ri):          14          11  1.465098801941528E-002
 dabs(Ij+Ii):          14          11  5.520162672879559E-004
 dabs(Rj-Ri):          15          11  1.732794151954137E-002
 dabs(Ij+Ii):          15          11  5.520162672879559E-004
 dabs(Rj-Ri):          16          11  5.667633315760823E-002
 dabs(Ij+Ii):          16          11  5.520162672879559E-004
 dabs(Rj-Ri):          17          11  0.105628010518579     
 dabs(Ij+Ii):          17          11  5.520162672879559E-004
 overlap matrix for complex pair:

              1             2
 
    1     0.04440910   -0.02548223
    2    -0.02548223    0.05047031
 real eigenvalues of metric:

              1
 
    1     0.02177789
    2     0.07310152
 eigenvectors of metric:

              1             2
 
    1     0.74769572   -0.66404150
    2     0.66404150    0.74769572
 inverse square root of overlap matrix:

              1             2
 
    1     5.41917837    1.52807973
    2     1.52807973    5.05570920
 recalculated overlap matrix for complex pair:

              1             2
 
    1     1.00000000    0.00000000
    2     0.00000000    1.00000000
 dabs(Rj-Ri):           1          12  0.118513740245734     
 dabs(Ij+Ii):           1          12  5.520162672879559E-004
 dabs(Rj-Ri):           2          12  0.115166319538547     
 dabs(Ij+Ii):           2          12  5.520162672879559E-004
 dabs(Rj-Ri):           3          12  8.977010118090345E-002
 dabs(Ij+Ii):           3          12  5.520162672879559E-004
 dabs(Rj-Ri):           4          12  8.638841952956958E-002
 dabs(Ij+Ii):           4          12  5.520162672879559E-004
 dabs(Rj-Ri):           5          12  5.980869430517383E-002
 dabs(Ij+Ii):           5          12  5.520162672879559E-004
 dabs(Rj-Ri):           6          12  4.493807285439352E-002
 dabs(Ij+Ii):           6          12  5.520162672879559E-004
 dabs(Rj-Ri):           7          12  4.301429363997028E-002
 dabs(Ij+Ii):           7          12  5.520162672879559E-004
 dabs(Rj-Ri):           8          12  3.284887000772291E-002
 dabs(Ij+Ii):           8          12  5.520162672879559E-004
 dabs(Rj-Ri):           9          12  1.970165634304302E-002
 dabs(Ij+Ii):           9          12  5.520162672879559E-004
 dabs(Rj-Ri):          10          12  1.225908182065777E-002
 dabs(Ij+Ii):          10          12  5.520162672879559E-004
 dabs(Rj-Ri):          11          12  0.000000000000000E+000
 dabs(Ij+Ii):          11          12  0.000000000000000E+000
 dabs(Rj-Ri):          13          12  2.399273763302179E-004
 dabs(Ij+Ii):          13          12  5.520162672879559E-004
 dabs(Rj-Ri):          14          12  1.465098801941528E-002
 dabs(Ij+Ii):          14          12  5.520162672879559E-004
 dabs(Rj-Ri):          15          12  1.732794151954137E-002
 dabs(Ij+Ii):          15          12  5.520162672879559E-004
 dabs(Rj-Ri):          16          12  5.667633315760823E-002
 dabs(Ij+Ii):          16          12  5.520162672879559E-004
 dabs(Rj-Ri):          17          12  0.105628010518579     
 dabs(Ij+Ii):          17          12  5.520162672879559E-004
 overlap matrix for complex pair:

              1             2
 
    1     1.00000000    0.00000000
    2     0.00000000    1.00000000
 real eigenvalues of metric:

              1
 
    1     1.00000000
    2     1.00000000
 eigenvectors of metric:

              1             2
 
    1     0.98992119    0.14161932
    2    -0.14161932    0.98992119
 inverse square root of overlap matrix:

              1             2
 
    1     1.00000000   -0.00000000
    2    -0.00000000    1.00000000
 recalculated overlap matrix for complex pair:

              1             2
 
    1     1.00000000    0.00000000
    2     0.00000000    1.00000000
 warning> found low lying complex root...
 eigenvalues (imaginary parts) in redeig:

              1
 
    1     0.00000000
    2     0.00000000
    3     0.00000000
    4     0.00000000
    5     0.00000000
    6     0.00000000
    7     0.00000000
    8     0.00000000
    9     0.00000000
   10     0.00000000
   11    -0.00055202
   12     0.00055202
   13     0.00000000
   14     0.00000000
   15     0.00000000
   16     0.00000000
   17     0.00000000
 eigenvalues (real parts) in redeig:

              1
 
    1     0.13761350
    2     0.14096092
    3     0.16635714
    4     0.16973882
    5     0.19631854
    6     0.21118916
    7     0.21311294
    8     0.22327837
    9     0.23642558
   10     0.24386816
   11     0.25612724
   12     0.25612724
   13     0.25636716
   14     0.27077822
   15     0.27345518
   16     0.31280357
   17     0.36175525
     14       2         4.01     0.41E-02  ( 11)
 COSMO cphf update
 COSMO cphf update
 COSMO cphf update
 COSMO cphf update
 dabs(Rj-Ri):           1          11  0.118452722028049     
 dabs(Ij+Ii):           1          11  5.330199693295954E-004
 dabs(Rj-Ri):           2          11  0.115105390673009     
 dabs(Ij+Ii):           2          11  5.330199693295954E-004
 dabs(Rj-Ri):           3          11  8.970905316846089E-002
 dabs(Ij+Ii):           3          11  5.330199693295954E-004
 dabs(Rj-Ri):           4          11  8.632740132916691E-002
 dabs(Ij+Ii):           4          11  5.330199693295954E-004
 dabs(Rj-Ri):           5          11  5.974767608907497E-002
 dabs(Ij+Ii):           5          11  5.330199693295954E-004
 dabs(Rj-Ri):           6          11  4.487704845977541E-002
 dabs(Ij+Ii):           6          11  5.330199693295954E-004
 dabs(Rj-Ri):           7          11  4.295327542580360E-002
 dabs(Ij+Ii):           7          11  5.330199693295954E-004
 dabs(Rj-Ri):           8          11  3.278784767700416E-002
 dabs(Ij+Ii):           8          11  5.330199693295954E-004
 dabs(Rj-Ri):           9          11  1.964057464788904E-002
 dabs(Ij+Ii):           9          11  5.330199693295954E-004
 dabs(Rj-Ri):          10          11  1.219806360137821E-002
 dabs(Ij+Ii):          10          11  5.330199693295954E-004
 dabs(Rj-Ri):          12          11  0.000000000000000E+000
 dabs(Ij+Ii):          12          11  0.000000000000000E+000
 dabs(Rj-Ri):          13          11  2.994993648262612E-004
 dabs(Ij+Ii):          13          11  5.330199693295954E-004
 dabs(Rj-Ri):          14          11  1.471200623647112E-002
 dabs(Ij+Ii):          14          11  5.330199693295954E-004
 dabs(Rj-Ri):          15          11  1.738895956157099E-002
 dabs(Ij+Ii):          15          11  5.330199693295954E-004
 dabs(Rj-Ri):          16          11  2.960673334336378E-002
 dabs(Ij+Ii):          16          11  5.330199693295954E-004
 dabs(Rj-Ri):          17          11  7.841115072359994E-002
 dabs(Ij+Ii):          17          11  5.330199693295954E-004
 dabs(Rj-Ri):          18          11  0.278493158444103     
 dabs(Ij+Ii):          18          11  5.330199693295954E-004
 dabs(Rj-Ri):          19          11  0.401567956896179     
 dabs(Ij+Ii):          19          11  5.330199693295954E-004
 overlap matrix for complex pair:

              1             2
 
    1     0.03211469    0.02032803
    2     0.02032803    0.05738353
 real eigenvalues of metric:

              1
 
    1     0.02081466
    2     0.06868355
 eigenvectors of metric:

              1             2
 
    1     0.87403550    0.48586207
    2    -0.48586207    0.87403550
 inverse square root of overlap matrix:

              1             2
 
    1     6.19583149   -1.32307912
    2    -1.32307912    4.55117291
 recalculated overlap matrix for complex pair:

              1             2
 
    1     1.00000000   -0.00000000
    2    -0.00000000    1.00000000
 dabs(Rj-Ri):           1          12  0.118452722028049     
 dabs(Ij+Ii):           1          12  5.330199693295954E-004
 dabs(Rj-Ri):           2          12  0.115105390673009     
 dabs(Ij+Ii):           2          12  5.330199693295954E-004
 dabs(Rj-Ri):           3          12  8.970905316846089E-002
 dabs(Ij+Ii):           3          12  5.330199693295954E-004
 dabs(Rj-Ri):           4          12  8.632740132916691E-002
 dabs(Ij+Ii):           4          12  5.330199693295954E-004
 dabs(Rj-Ri):           5          12  5.974767608907497E-002
 dabs(Ij+Ii):           5          12  5.330199693295954E-004
 dabs(Rj-Ri):           6          12  4.487704845977541E-002
 dabs(Ij+Ii):           6          12  5.330199693295954E-004
 dabs(Rj-Ri):           7          12  4.295327542580360E-002
 dabs(Ij+Ii):           7          12  5.330199693295954E-004
 dabs(Rj-Ri):           8          12  3.278784767700416E-002
 dabs(Ij+Ii):           8          12  5.330199693295954E-004
 dabs(Rj-Ri):           9          12  1.964057464788904E-002
 dabs(Ij+Ii):           9          12  5.330199693295954E-004
 dabs(Rj-Ri):          10          12  1.219806360137821E-002
 dabs(Ij+Ii):          10          12  5.330199693295954E-004
 dabs(Rj-Ri):          11          12  0.000000000000000E+000
 dabs(Ij+Ii):          11          12  0.000000000000000E+000
 dabs(Rj-Ri):          13          12  2.994993648262612E-004
 dabs(Ij+Ii):          13          12  5.330199693295954E-004
 dabs(Rj-Ri):          14          12  1.471200623647112E-002
 dabs(Ij+Ii):          14          12  5.330199693295954E-004
 dabs(Rj-Ri):          15          12  1.738895956157099E-002
 dabs(Ij+Ii):          15          12  5.330199693295954E-004
 dabs(Rj-Ri):          16          12  2.960673334336378E-002
 dabs(Ij+Ii):          16          12  5.330199693295954E-004
 dabs(Rj-Ri):          17          12  7.841115072359994E-002
 dabs(Ij+Ii):          17          12  5.330199693295954E-004
 dabs(Rj-Ri):          18          12  0.278493158444103     
 dabs(Ij+Ii):          18          12  5.330199693295954E-004
 dabs(Rj-Ri):          19          12  0.401567956896179     
 dabs(Ij+Ii):          19          12  5.330199693295954E-004
 overlap matrix for complex pair:

              1             2
 
    1     1.00000000   -0.00000000
    2    -0.00000000    1.00000000
 real eigenvalues of metric:

              1
 
    1     1.00000000
    2     1.00000000
 eigenvectors of metric:

              1             2
 
    1     0.95553211   -0.29488706
    2     0.29488706    0.95553211
 inverse square root of overlap matrix:

              1             2
 
    1     1.00000000    0.00000000
    2     0.00000000    1.00000000
 recalculated overlap matrix for complex pair:

              1             2
 
    1     1.00000000   -0.00000000
    2    -0.00000000    1.00000000
 warning> found low lying complex root...
 eigenvalues (imaginary parts) in redeig:

              1
 
    1     0.00000000
    2     0.00000000
    3     0.00000000
    4     0.00000000
    5     0.00000000
    6     0.00000000
    7     0.00000000
    8     0.00000000
    9     0.00000000
   10     0.00000000
   11    -0.00053302
   12     0.00053302
   13     0.00000000
   14     0.00000000
   15     0.00000000
   16     0.00000000
   17     0.00000000
   18     0.00000000
   19     0.00000000
 eigenvalues (real parts) in redeig:

              1
 
    1     0.13761350
    2     0.14096083
    3     0.16635717
    4     0.16973882
    5     0.19631854
    6     0.21118917
    7     0.21311294
    8     0.22327837
    9     0.23642564
   10     0.24386816
   11     0.25606622
   12     0.25606622
   13     0.25636572
   14     0.27077822
   15     0.27345518
   16     0.28567295
   17     0.33447737
   18     0.53455938
   19     0.65763418
     15       2         4.01     0.38E-02  ( 11)
 COSMO cphf update
 COSMO cphf update
 COSMO cphf update
 COSMO cphf update
 dabs(Rj-Ri):           1          11  0.118432784178014     
 dabs(Ij+Ii):           1          11  5.249853628002302E-004
 dabs(Rj-Ri):           2          11  0.115085368442738     
 dabs(Ij+Ii):           2          11  5.249853628002302E-004
 dabs(Rj-Ri):           3          11  8.968902582334018E-002
 dabs(Ij+Ii):           3          11  5.249853628002302E-004
 dabs(Rj-Ri):           4          11  8.630746350301927E-002
 dabs(Ij+Ii):           4          11  5.249853628002302E-004
 dabs(Rj-Ri):           5          11  5.972773824168501E-002
 dabs(Ij+Ii):           5          11  5.249853628002302E-004
 dabs(Rj-Ri):           6          11  4.485708121283483E-002
 dabs(Ij+Ii):           6          11  5.249853628002302E-004
 dabs(Rj-Ri):           7          11  4.293333758083775E-002
 dabs(Ij+Ii):           7          11  5.249853628002302E-004
 dabs(Rj-Ri):           8          11  3.276792419078831E-002
 dabs(Ij+Ii):           8          11  5.249853628002302E-004
 dabs(Rj-Ri):           9          11  1.962054366674607E-002
 dabs(Ij+Ii):           9          11  5.249853628002302E-004
 dabs(Rj-Ri):          10          11  1.217812575018873E-002
 dabs(Ij+Ii):          10          11  5.249853628002302E-004
 dabs(Rj-Ri):          12          11  0.000000000000000E+000
 dabs(Ij+Ii):          12          11  0.000000000000000E+000
 dabs(Rj-Ri):          13          11  3.189773438806998E-004
 dabs(Ij+Ii):          13          11  5.249853628002302E-004
 dabs(Rj-Ri):          14          11  1.473194404121447E-002
 dabs(Ij+Ii):          14          11  5.249853628002302E-004
 dabs(Rj-Ri):          15          11  1.740889711897337E-002
 dabs(Ij+Ii):          15          11  5.249853628002302E-004
 dabs(Rj-Ri):          16          11  2.327577167380368E-002
 dabs(Ij+Ii):          16          11  5.249853628002302E-004
 dabs(Rj-Ri):          17          11  6.435072643867029E-002
 dabs(Ij+Ii):          17          11  5.249853628002302E-004
 dabs(Rj-Ri):          18          11  0.155699482828053     
 dabs(Ij+Ii):          18          11  5.249853628002302E-004
 dabs(Rj-Ri):          19          11  0.189796462656332     
 dabs(Ij+Ii):          19          11  5.249853628002302E-004
 dabs(Rj-Ri):          20          11  0.630962169378473     
 dabs(Ij+Ii):          20          11  5.249853628002302E-004
 dabs(Rj-Ri):          21          11  0.995083896502141     
 dabs(Ij+Ii):          21          11  5.249853628002302E-004
 overlap matrix for complex pair:

              1             2
 
    1     0.01606031    0.00902545
    2     0.00902545    0.09247860
 real eigenvalues of metric:

              1
 
    1     0.01500882
    2     0.09353009
 eigenvectors of metric:

              1             2
 
    1     0.99328186    0.11572013
    2    -0.11572013    0.99328186
 inverse square root of overlap matrix:

              1             2
 
    1     8.09704729   -0.56238517
    2    -0.56238517    3.33534300
 recalculated overlap matrix for complex pair:

              1             2
 
    1     1.00000000   -0.00000000
    2    -0.00000000    1.00000000
 dabs(Rj-Ri):           1          12  0.118432784178014     
 dabs(Ij+Ii):           1          12  5.249853628002302E-004
 dabs(Rj-Ri):           2          12  0.115085368442738     
 dabs(Ij+Ii):           2          12  5.249853628002302E-004
 dabs(Rj-Ri):           3          12  8.968902582334018E-002
 dabs(Ij+Ii):           3          12  5.249853628002302E-004
 dabs(Rj-Ri):           4          12  8.630746350301927E-002
 dabs(Ij+Ii):           4          12  5.249853628002302E-004
 dabs(Rj-Ri):           5          12  5.972773824168501E-002
 dabs(Ij+Ii):           5          12  5.249853628002302E-004
 dabs(Rj-Ri):           6          12  4.485708121283483E-002
 dabs(Ij+Ii):           6          12  5.249853628002302E-004
 dabs(Rj-Ri):           7          12  4.293333758083775E-002
 dabs(Ij+Ii):           7          12  5.249853628002302E-004
 dabs(Rj-Ri):           8          12  3.276792419078831E-002
 dabs(Ij+Ii):           8          12  5.249853628002302E-004
 dabs(Rj-Ri):           9          12  1.962054366674607E-002
 dabs(Ij+Ii):           9          12  5.249853628002302E-004
 dabs(Rj-Ri):          10          12  1.217812575018873E-002
 dabs(Ij+Ii):          10          12  5.249853628002302E-004
 dabs(Rj-Ri):          11          12  0.000000000000000E+000
 dabs(Ij+Ii):          11          12  0.000000000000000E+000
 dabs(Rj-Ri):          13          12  3.189773438806998E-004
 dabs(Ij+Ii):          13          12  5.249853628002302E-004
 dabs(Rj-Ri):          14          12  1.473194404121447E-002
 dabs(Ij+Ii):          14          12  5.249853628002302E-004
 dabs(Rj-Ri):          15          12  1.740889711897337E-002
 dabs(Ij+Ii):          15          12  5.249853628002302E-004
 dabs(Rj-Ri):          16          12  2.327577167380368E-002
 dabs(Ij+Ii):          16          12  5.249853628002302E-004
 dabs(Rj-Ri):          17          12  6.435072643867029E-002
 dabs(Ij+Ii):          17          12  5.249853628002302E-004
 dabs(Rj-Ri):          18          12  0.155699482828053     
 dabs(Ij+Ii):          18          12  5.249853628002302E-004
 dabs(Rj-Ri):          19          12  0.189796462656332     
 dabs(Ij+Ii):          19          12  5.249853628002302E-004
 dabs(Rj-Ri):          20          12  0.630962169378473     
 dabs(Ij+Ii):          20          12  5.249853628002302E-004
 dabs(Rj-Ri):          21          12  0.995083896502141     
 dabs(Ij+Ii):          21          12  5.249853628002302E-004
 overlap matrix for complex pair:

              1             2
 
    1     1.00000000   -0.00000000
    2    -0.00000000    1.00000000
 real eigenvalues of metric:

              1
 
    1     1.00000000
    2     1.00000000
 eigenvectors of metric:

              1             2
 
    1     0.99011766    0.14023916
    2    -0.14023916    0.99011766
 inverse square root of overlap matrix:

              1             2
 
    1     1.00000000    0.00000000
    2     0.00000000    1.00000000
 recalculated overlap matrix for complex pair:

              1             2
 
    1     1.00000000   -0.00000000
    2    -0.00000000    1.00000000
 warning> found low lying complex root...
 eigenvalues (imaginary parts) in redeig:

              1
 
    1     0.00000000
    2     0.00000000
    3     0.00000000
    4     0.00000000
    5     0.00000000
    6     0.00000000
    7     0.00000000
    8     0.00000000
    9     0.00000000
   10     0.00000000
   11    -0.00052499
   12     0.00052499
   13     0.00000000
   14     0.00000000
   15     0.00000000
   16     0.00000000
   17     0.00000000
   18     0.00000000
   19     0.00000000
   20     0.00000000
   21     0.00000000
 eigenvalues (real parts) in redeig:

              1
 
    1     0.13761350
    2     0.14096091
    3     0.16635726
    4     0.16973882
    5     0.19631854
    6     0.21118920
    7     0.21311294
    8     0.22327836
    9     0.23642574
   10     0.24386816
   11     0.25604628
   12     0.25604628
   13     0.25636526
   14     0.27077822
   15     0.27345518
   16     0.27932205
   17     0.32039701
   18     0.41174576
   19     0.44584274
   20     0.88700845
   21     1.25113018
     16       2         4.00     0.22E-02  ( 11)
                                                
     summary of start vectors generation:
     -------------------------------------------
     type of solution vectors      : RE0
     symmetry                      : a  
     number of vectors requested   :    15
     number of vectors generated   :    15
       -- restarted from file      :    15
     -------------------------------------------
                                                

    Iter  #Vectors  time (min)    max. residual 
    --------------------------------------------
 COSMO cphf update
 COSMO cphf update
 COSMO cphf update
 COSMO cphf update
 COSMO cphf update
 COSMO cphf update
 COSMO cphf update
 COSMO cphf update
 COSMO cphf update
 COSMO cphf update
 COSMO cphf update
 COSMO cphf update
 COSMO cphf update
 COSMO cphf update
 COSMO cphf update
 COSMO cphf update
 COSMO cphf update
 COSMO cphf update
 COSMO cphf update
 COSMO cphf update
 COSMO cphf update
 COSMO cphf update
 COSMO cphf update
 COSMO cphf update
 COSMO cphf update
 COSMO cphf update
 COSMO cphf update
 COSMO cphf update
 COSMO cphf update
 COSMO cphf update
 threshold for this macro iteration:  1.000000000000000E-003
     17      15        26.92     0.86E-03  ( 13)
    --------------------------------------------
    converged in 17 iterations

         Total time        229.21 minutes


 ===========================================




 Note that this is the intermediate result of a preoptimization!
 The convergence threshold was  0.1E-02 only!
 COSMO: note that the excitation energies below do not include
        the nonequilibrium contributions yet. These require the
        computation of the relaxed densities. See end of output
        for a final list of corrected excitations.


 +==================================================================+
 | sym | multi | state |          ADC(2) excitation energies        |
 |     |       |       +--------------------------------------------+
 |     |       |       |   Hartree    |     eV       |     cm-1     |
 +==================================================================+
 | a   |   1   |   1   |    0.1376045 |      3.74441 |    30200.690 |
 | a   |   1   |   2   |    0.1409396 |      3.83516 |    30932.662 |
 | a   |   1   |   3   |    0.1663518 |      4.52666 |    36509.999 |
 | a   |   1   |   4   |    0.1697318 |      4.61864 |    37251.820 |
 | a   |   1   |   5   |    0.1963068 |      5.34178 |    43084.357 |
 | a   |   1   |   6   |    0.2111916 |      5.74682 |    46351.205 |
 | a   |   1   |   7   |    0.2131019 |      5.79880 |    46770.472 |
 | a   |   1   |   8   |    0.2232660 |      6.07538 |    49001.219 |
 | a   |   1   |   9   |    0.2364277 |      6.43352 |    51889.872 |
 | a   |   1   |  10   |    0.2438689 |      6.63601 |    53523.030 |
 | a   |   1   |  11   |    0.2555210 |      6.95308 |    56080.371 |
 | a   |   1   |  12   |    0.2563163 |      6.97472 |    56254.917 |
 | a   |   1   |  13   |    0.2563573 |      6.97584 |    56263.931 |
 | a   |   1   |  14   |    0.2707696 |      7.36802 |    59427.057 |
 | a   |   1   |  15   |    0.2734429 |      7.44076 |    60013.773 |
 +==================================================================+





  solve for ADC(2) excitation energies/vectors using a DIIS algorithm:
  =================================================================
                                                
     summary of start vectors generation:
     -------------------------------------------
     type of solution vectors      : RE0
     symmetry                      : a  
     number of vectors requested   :    15
     number of vectors generated   :    15
       -- restarted from file      :    15
     -------------------------------------------
                                                


 ========= DIIS CC RESPONSE SOLVER =========

    threshold for convergence:0.10E-05
    max. nb. of DIIS vectors :      10
    maximum number of simultaneous jacoby matrix transformations: 15

    Iter  #Vectors  time (min)   residual
    --------------------------------------
 COSMO cphf update
 COSMO cphf update
 COSMO cphf update
 COSMO cphf update
 COSMO cphf update
 COSMO cphf update
 COSMO cphf update
 COSMO cphf update
 COSMO cphf update
 COSMO cphf update
 COSMO cphf update
 COSMO cphf update
 COSMO cphf update
 COSMO cphf update
 COSMO cphf update
 COSMO cphf update
 COSMO cphf update
 COSMO cphf update
 COSMO cphf update
 COSMO cphf update
 COSMO cphf update
 COSMO cphf update
 COSMO cphf update
 COSMO cphf update
 COSMO cphf update
 COSMO cphf update
 COSMO cphf update
 COSMO cphf update
 COSMO cphf update
 COSMO cphf update
      1      15        27.06     0.58E-03  ( 13)    0.80E+00
 COSMO cphf update
 COSMO cphf update
 COSMO cphf update
 COSMO cphf update
 COSMO cphf update
 COSMO cphf update
 COSMO cphf update
 COSMO cphf update
 COSMO cphf update
 COSMO cphf update
 COSMO cphf update
 COSMO cphf update
 COSMO cphf update
 COSMO cphf update
 COSMO cphf update
 COSMO cphf update
 COSMO cphf update
 COSMO cphf update
 COSMO cphf update
 COSMO cphf update
 COSMO cphf update
 COSMO cphf update
 COSMO cphf update
 COSMO cphf update
 COSMO cphf update
 COSMO cphf update
 COSMO cphf update
 COSMO cphf update
 COSMO cphf update
 COSMO cphf update
      2      15        27.19     0.51E-03  ( 15)    0.93E-02
 COSMO cphf update
 COSMO cphf update
 COSMO cphf update
 COSMO cphf update
 COSMO cphf update
 COSMO cphf update
 COSMO cphf update
 COSMO cphf update
 COSMO cphf update
 COSMO cphf update
 COSMO cphf update
 COSMO cphf update
 COSMO cphf update
 COSMO cphf update
 COSMO cphf update
 COSMO cphf update
 COSMO cphf update
 COSMO cphf update
 COSMO cphf update
 COSMO cphf update
 COSMO cphf update
 COSMO cphf update
 COSMO cphf update
 COSMO cphf update
 COSMO cphf update
 COSMO cphf update
 COSMO cphf update
 COSMO cphf update
 COSMO cphf update
 COSMO cphf update
      3      15        27.16     0.49E-03  ( 15)    0.51E-01
 COSMO cphf update
 COSMO cphf update
 COSMO cphf update
 COSMO cphf update
 COSMO cphf update
 COSMO cphf update
 COSMO cphf update
 COSMO cphf update
 COSMO cphf update
 COSMO cphf update
 COSMO cphf update
 COSMO cphf update
 COSMO cphf update
 COSMO cphf update
 COSMO cphf update
 COSMO cphf update
 COSMO cphf update
 COSMO cphf update
 COSMO cphf update
 COSMO cphf update
 COSMO cphf update
 COSMO cphf update
 COSMO cphf update
 COSMO cphf update
 COSMO cphf update
 COSMO cphf update
 COSMO cphf update
 COSMO cphf update
 COSMO cphf update
 COSMO cphf update
      4      15        27.29     0.49E-03  ( 15)    0.26E+00
 COSMO cphf update
 COSMO cphf update
 COSMO cphf update
 COSMO cphf update
 COSMO cphf update
 COSMO cphf update
 COSMO cphf update
 COSMO cphf update
 COSMO cphf update
 COSMO cphf update
 COSMO cphf update
 COSMO cphf update
 COSMO cphf update
 COSMO cphf update
 COSMO cphf update
 COSMO cphf update
 COSMO cphf update
 COSMO cphf update
 COSMO cphf update
 COSMO cphf update
 COSMO cphf update
 COSMO cphf update
 COSMO cphf update
 COSMO cphf update
 COSMO cphf update
 COSMO cphf update
      5      13        23.56     0.49E-03  ( 15)    0.47E+00
 COSMO cphf update
 COSMO cphf update
 COSMO cphf update
 COSMO cphf update
 COSMO cphf update
 COSMO cphf update
 COSMO cphf update
 COSMO cphf update
 COSMO cphf update
 COSMO cphf update
 COSMO cphf update
 COSMO cphf update
 COSMO cphf update
 COSMO cphf update
 COSMO cphf update
 COSMO cphf update
 COSMO cphf update
 COSMO cphf update
 COSMO cphf update
 COSMO cphf update
 COSMO cphf update
 COSMO cphf update
 COSMO cphf update
 COSMO cphf update
      6      12        21.83     0.49E-03  ( 15)    0.79E+00
 COSMO cphf update
 COSMO cphf update
 COSMO cphf update
 COSMO cphf update
 COSMO cphf update
 COSMO cphf update
 COSMO cphf update
 COSMO cphf update
 COSMO cphf update
 COSMO cphf update
 COSMO cphf update
 COSMO cphf update
 COSMO cphf update
 COSMO cphf update
 COSMO cphf update
 COSMO cphf update
 COSMO cphf update
 COSMO cphf update
 COSMO cphf update
 COSMO cphf update
      7      10        18.29     0.49E-03  ( 15)    0.97E+00
 COSMO cphf update
 COSMO cphf update
 COSMO cphf update
 COSMO cphf update
 COSMO cphf update
 COSMO cphf update
 COSMO cphf update
 COSMO cphf update
 COSMO cphf update
 COSMO cphf update
 COSMO cphf update
 COSMO cphf update
 COSMO cphf update
 COSMO cphf update
 COSMO cphf update
 COSMO cphf update
      8       8        14.38     0.49E-03  ( 15)    0.11E+01
 COSMO cphf update
 COSMO cphf update
 COSMO cphf update
 COSMO cphf update
 COSMO cphf update
 COSMO cphf update
 COSMO cphf update
 COSMO cphf update
 COSMO cphf update
 COSMO cphf update
 COSMO cphf update
 COSMO cphf update
 COSMO cphf update
 COSMO cphf update
      9       7        12.67     0.49E-03  ( 15)    0.15E+01
 COSMO cphf update
 COSMO cphf update
 COSMO cphf update
 COSMO cphf update
 COSMO cphf update
 COSMO cphf update
 COSMO cphf update
 COSMO cphf update
 COSMO cphf update
 COSMO cphf update
     10       5         9.20     0.49E-03  ( 15)    0.15E+01
 COSMO cphf update
 COSMO cphf update
 COSMO cphf update
 COSMO cphf update
 COSMO cphf update
 COSMO cphf update
 COSMO cphf update
 COSMO cphf update
 COSMO cphf update
 COSMO cphf update
     11       5         9.17     0.47E-03  ( 15)    0.16E+01
 COSMO cphf update
 COSMO cphf update
 COSMO cphf update
 COSMO cphf update
 COSMO cphf update
 COSMO cphf update
 COSMO cphf update
 COSMO cphf update
 COSMO cphf update
 COSMO cphf update
     12       5         9.27     0.47E-03  ( 15)    0.16E+01
 COSMO cphf update
 COSMO cphf update
 COSMO cphf update
 COSMO cphf update
 COSMO cphf update
 COSMO cphf update
 COSMO cphf update
 COSMO cphf update
 COSMO cphf update
 COSMO cphf update
     13       5         9.18     0.47E-03  ( 15)    0.17E+01
 COSMO cphf update
 COSMO cphf update
 COSMO cphf update
 COSMO cphf update
 COSMO cphf update
 COSMO cphf update
 COSMO cphf update
 COSMO cphf update
 COSMO cphf update
 COSMO cphf update
     14       5         9.17     0.47E-03  ( 15)    0.14E+01
 COSMO cphf update
 COSMO cphf update
 COSMO cphf update
 COSMO cphf update
 COSMO cphf update
 COSMO cphf update
 COSMO cphf update
 COSMO cphf update
 COSMO cphf update
 COSMO cphf update
     15       5         9.28     0.47E-03  ( 15)    0.38E+00
 COSMO cphf update
 COSMO cphf update
 COSMO cphf update
 COSMO cphf update
 COSMO cphf update
 COSMO cphf update
 COSMO cphf update
 COSMO cphf update
 COSMO cphf update
 COSMO cphf update
     16       5         9.22     0.47E-03  ( 15)    0.60E-02
 COSMO cphf update
 COSMO cphf update
 COSMO cphf update
 COSMO cphf update
 COSMO cphf update
 COSMO cphf update
 COSMO cphf update
 COSMO cphf update
 COSMO cphf update
 COSMO cphf update
     17       5      1066.77     0.47E-03  ( 15)    0.17E-01
 COSMO cphf update
 COSMO cphf update
 COSMO cphf update
 COSMO cphf update
 COSMO cphf update
 COSMO cphf update
 COSMO cphf update
 COSMO cphf update
 COSMO cphf update
 COSMO cphf update
     18       5         9.20     0.46E-03  ( 15)    0.10E-01
 COSMO cphf update
 COSMO cphf update
 COSMO cphf update
 COSMO cphf update
 COSMO cphf update
 COSMO cphf update
 COSMO cphf update
 COSMO cphf update
 COSMO cphf update
 COSMO cphf update
     19       5         9.26     0.46E-03  ( 15)    0.16E-01
 COSMO cphf update
 COSMO cphf update
 COSMO cphf update
 COSMO cphf update
 COSMO cphf update
 COSMO cphf update
 COSMO cphf update
 COSMO cphf update
     20       4         7.48     0.44E-03  ( 15)    0.73E-02
 COSMO cphf update
 COSMO cphf update
 COSMO cphf update
 COSMO cphf update
 COSMO cphf update
 COSMO cphf update
 COSMO cphf update
 COSMO cphf update
     21       4         7.47     0.42E-03  ( 15)    0.21E-01
 COSMO cphf update
 COSMO cphf update
 COSMO cphf update
 COSMO cphf update
 COSMO cphf update
 COSMO cphf update
 COSMO cphf update
 COSMO cphf update
     22       4         7.54     0.36E-03  ( 15)    0.67E-02
 COSMO cphf update
 COSMO cphf update
 COSMO cphf update
 COSMO cphf update
 COSMO cphf update
 COSMO cphf update
 COSMO cphf update
 COSMO cphf update
     23       4         7.45     0.34E-03  ( 15)    0.52E-02
 COSMO cphf update
 COSMO cphf update
 COSMO cphf update
 COSMO cphf update
 COSMO cphf update
 COSMO cphf update
 COSMO cphf update
 COSMO cphf update
     24       4         7.51     0.32E-03  ( 15)    0.54E-02
 COSMO cphf update
 COSMO cphf update
 COSMO cphf update
 COSMO cphf update
 COSMO cphf update
 COSMO cphf update
     25       3         5.68     0.31E-03  ( 15)    0.51E-02
 COSMO cphf update
 COSMO cphf update
 COSMO cphf update
 COSMO cphf update
 COSMO cphf update
 COSMO cphf update
     26       3         5.72     0.29E-03  ( 15)    0.52E-02
 COSMO cphf update
 COSMO cphf update
 COSMO cphf update
 COSMO cphf update
     27       2         4.00     0.25E-03  ( 15)    0.52E-02
 COSMO cphf update
 COSMO cphf update
 COSMO cphf update
 COSMO cphf update
     28       2         4.00     0.21E-03  ( 15)    0.51E-02
 COSMO cphf update
 COSMO cphf update
 COSMO cphf update
 COSMO cphf update
     29       2         4.00     0.18E-03  ( 15)    0.51E-02
 COSMO cphf update
 COSMO cphf update
 COSMO cphf update
 COSMO cphf update
     30       2         4.03     0.18E-03  ( 15)    0.51E-02
 COSMO cphf update
 COSMO cphf update
 COSMO cphf update
 COSMO cphf update
     31       2         4.01     0.18E-03  ( 15)    0.51E-02
 COSMO cphf update
 COSMO cphf update
 COSMO cphf update
 COSMO cphf update
     32       2         3.99     0.18E-03  ( 15)    0.51E-02
 COSMO cphf update
 COSMO cphf update
 COSMO cphf update
 COSMO cphf update
     33       2         4.01     0.18E-03  ( 15)    0.51E-02
 COSMO cphf update
 COSMO cphf update
 COSMO cphf update
 COSMO cphf update
     34       2         4.00     0.17E-03  ( 15)    0.51E-02
 COSMO cphf update
 COSMO cphf update
 COSMO cphf update
 COSMO cphf update
     35       2         4.01     0.16E-03  ( 15)    0.51E-02
 COSMO cphf update
 COSMO cphf update
 COSMO cphf update
 COSMO cphf update
     36       2         4.00     0.15E-03  ( 15)    0.51E-02
 COSMO cphf update
 COSMO cphf update
 COSMO cphf update
 COSMO cphf update
     37       2         4.02     0.14E-03  ( 15)    0.51E-02
 COSMO cphf update
 COSMO cphf update
 COSMO cphf update
 COSMO cphf update
     38       2         4.01     0.13E-03  ( 15)    0.51E-02
 COSMO cphf update
 COSMO cphf update
 COSMO cphf update
 COSMO cphf update
     39       2         4.04     0.11E-03  ( 15)    0.52E-02
 COSMO cphf update
 COSMO cphf update
 COSMO cphf update
 COSMO cphf update
     40       2         3.99     0.89E-04  ( 15)    0.51E-02
 COSMO cphf update
 COSMO cphf update
 COSMO cphf update
 COSMO cphf update
     41       2         4.02     0.75E-04  ( 15)    0.52E-02
 COSMO cphf update
 COSMO cphf update
 COSMO cphf update
 COSMO cphf update
     42       2         3.99     0.63E-04  ( 15)    0.51E-02
 COSMO cphf update
 COSMO cphf update
 COSMO cphf update
 COSMO cphf update
     43       2         4.03     0.47E-04  ( 15)    0.51E-02
 COSMO cphf update
 COSMO cphf update
 COSMO cphf update
 COSMO cphf update
     44       2         4.00     0.41E-04  ( 15)    0.51E-02
 COSMO cphf update
 COSMO cphf update
 COSMO cphf update
 COSMO cphf update
     45       2         4.00     0.39E-04  ( 15)    0.51E-02
 COSMO cphf update
 COSMO cphf update
 COSMO cphf update
 COSMO cphf update
     46       2         4.01     0.39E-04  ( 15)    0.51E-02
 COSMO cphf update
 COSMO cphf update
 COSMO cphf update
 COSMO cphf update
     47       2         4.01     0.39E-04  ( 15)    0.51E-02
 COSMO cphf update
 COSMO cphf update
 COSMO cphf update
 COSMO cphf update
     48       2         4.00     0.39E-04  ( 15)    0.51E-02
 COSMO cphf update
 COSMO cphf update
 COSMO cphf update
 COSMO cphf update
     49       2         4.01     0.39E-04  ( 15)    0.51E-02
 COSMO cphf update
 COSMO cphf update
 COSMO cphf update
 COSMO cphf update
     50       2         4.01     0.39E-04  ( 15)    0.51E-02
 COSMO cphf update
 COSMO cphf update
 COSMO cphf update
 COSMO cphf update
     51       2         4.00     0.39E-04  ( 15)    0.51E-02
 COSMO cphf update
 COSMO cphf update
 COSMO cphf update
 COSMO cphf update
     52       2         3.99     0.38E-04  ( 15)    0.51E-02
 COSMO cphf update
 COSMO cphf update
 COSMO cphf update
 COSMO cphf update
     53       2         3.99     0.38E-04  ( 15)    0.51E-02
 COSMO cphf update
 COSMO cphf update
     54       1         2.33     0.37E-04  ( 15)    0.51E-02
 COSMO cphf update
 COSMO cphf update
     55       1         2.30     0.37E-04  ( 15)    0.51E-02
 COSMO cphf update
 COSMO cphf update
     56       1         2.29     0.36E-04  ( 15)    0.51E-02
 COSMO cphf update
 COSMO cphf update
     57       1         2.29     0.36E-04  ( 15)    0.51E-02
 COSMO cphf update
 COSMO cphf update
     58       1         2.30     0.36E-04  ( 15)    0.51E-02
 COSMO cphf update
 COSMO cphf update
     59       1         2.31     0.36E-04  ( 15)    0.51E-02
 COSMO cphf update
 COSMO cphf update
     60       1         2.30     0.35E-04  ( 15)    0.51E-02
 COSMO cphf update
 COSMO cphf update
     61       1         2.29     0.33E-04  ( 15)    0.51E-02
 COSMO cphf update
 COSMO cphf update
     62       1         2.30     0.31E-04  ( 15)    0.51E-02
 COSMO cphf update
 COSMO cphf update
     63       1         2.30     0.28E-04  ( 15)    0.51E-02
 COSMO cphf update
 COSMO cphf update
     64       1         2.33     0.25E-04  ( 15)    0.51E-02
 COSMO cphf update
 COSMO cphf update
     65       1         2.30     0.23E-04  ( 15)    0.51E-02
 COSMO cphf update
 COSMO cphf update
     66       1         2.31     0.22E-04  ( 15)    0.51E-02
 COSMO cphf update
 COSMO cphf update
     67       1         2.29     0.22E-04  ( 15)    0.51E-02
 COSMO cphf update
 COSMO cphf update
     68       1         2.29     0.22E-04  ( 15)    0.51E-02
 COSMO cphf update
 COSMO cphf update
     69       1         2.31     0.21E-04  ( 15)    0.51E-02
 COSMO cphf update
 COSMO cphf update
     70       1         2.30     0.21E-04  ( 15)    0.51E-02
 COSMO cphf update
 COSMO cphf update
     71       1         2.31     0.21E-04  ( 15)    0.51E-02
 COSMO cphf update
 COSMO cphf update
     72       1         2.29     0.21E-04  ( 15)    0.51E-02
 COSMO cphf update
 COSMO cphf update
     73       1         2.29     0.21E-04  ( 15)    0.51E-02
 COSMO cphf update
 COSMO cphf update
     74       1         2.30     0.21E-04  ( 15)    0.51E-02
 COSMO cphf update
 COSMO cphf update
     75       1         2.31     0.21E-04  ( 15)    0.51E-02
 COSMO cphf update
 COSMO cphf update
     76       1         2.30     0.21E-04  ( 15)    0.51E-02
 COSMO cphf update
 COSMO cphf update
     77       1         2.30     0.21E-04  ( 15)    0.51E-02
 COSMO cphf update
 COSMO cphf update
     78       1         2.30     0.21E-04  ( 15)    0.51E-02
 COSMO cphf update
 COSMO cphf update
     79       1         2.31     0.21E-04  ( 15)    0.51E-02
 COSMO cphf update
 COSMO cphf update
     80       1         2.31     0.21E-04  ( 15)    0.51E-02
 COSMO cphf update
 COSMO cphf update
     81       1         2.29     0.21E-04  ( 15)    0.51E-02
 COSMO cphf update
 COSMO cphf update
     82       1         2.30     0.21E-04  ( 15)    0.51E-02
 COSMO cphf update
 COSMO cphf update
     83       1         2.30     0.21E-04  ( 15)    0.51E-02
 COSMO cphf update
 COSMO cphf update
     84       1         2.31     0.21E-04  ( 15)    0.51E-02
 COSMO cphf update
 COSMO cphf update
     85       1         2.30     0.21E-04  ( 15)    0.51E-02
 COSMO cphf update
 COSMO cphf update
     86       1         2.31     0.21E-04  ( 15)    0.51E-02
 COSMO cphf update
 COSMO cphf update
     87       1         2.31     0.20E-04  ( 15)    0.51E-02
 COSMO cphf update
 COSMO cphf update
     88       1         2.30     0.20E-04  ( 15)    0.51E-02
 COSMO cphf update
 COSMO cphf update
     89       1         2.29     0.20E-04  ( 15)    0.51E-02
 COSMO cphf update
 COSMO cphf update
     90       1         2.30     0.20E-04  ( 15)    0.51E-02
 COSMO cphf update
 COSMO cphf update
     91       1         2.31     0.20E-04  ( 15)    0.51E-02
 COSMO cphf update
 COSMO cphf update
     92       1         2.29     0.20E-04  ( 15)    0.51E-02
 COSMO cphf update
 COSMO cphf update
     93       1         2.30     0.20E-04  ( 15)    0.51E-02
 COSMO cphf update
 COSMO cphf update
     94       1         2.29     0.20E-04  ( 15)    0.51E-02
 COSMO cphf update
 COSMO cphf update
     95       1         2.29     0.20E-04  ( 15)    0.51E-02
 COSMO cphf update
 COSMO cphf update
     96       1         2.31     0.20E-04  ( 15)    0.51E-02
 COSMO cphf update
 COSMO cphf update
     97       1         2.29     0.19E-04  ( 15)    0.51E-02
 COSMO cphf update
 COSMO cphf update
     98       1         2.30     0.19E-04  ( 15)    0.51E-02
 COSMO cphf update
 COSMO cphf update
     99       1         2.29     0.18E-04  ( 15)    0.51E-02
 COSMO cphf update
 COSMO cphf update
    100       1         2.30     0.17E-04  ( 15)    0.51E-02
 COSMO cphf update
 COSMO cphf update
    101       1         2.29     0.16E-04  ( 15)    0.51E-02
 COSMO cphf update
 COSMO cphf update
    102       1         2.29     0.14E-04  ( 15)    0.51E-02
 COSMO cphf update
 COSMO cphf update
    103       1         2.31     0.12E-04  ( 15)    0.51E-02
 COSMO cphf update
 COSMO cphf update
    104       1         2.29     0.97E-05  ( 15)    0.51E-02
 COSMO cphf update
 COSMO cphf update
    105       1         2.29     0.83E-05  ( 15)    0.51E-02
 COSMO cphf update
 COSMO cphf update
    106       1         2.32     0.71E-05  ( 15)    0.51E-02
 COSMO cphf update
 COSMO cphf update
    107       1         2.30     0.65E-05  ( 15)    0.51E-02
 COSMO cphf update
 COSMO cphf update
    108       1         2.30     0.60E-05  ( 15)    0.51E-02
 COSMO cphf update
 COSMO cphf update
    109       1         2.29     0.57E-05  ( 15)    0.51E-02
 COSMO cphf update
 COSMO cphf update
    110       1         2.29     0.53E-05  ( 15)    0.51E-02
 COSMO cphf update
 COSMO cphf update
    111       1         2.30     0.49E-05  ( 15)    0.51E-02
 COSMO cphf update
 COSMO cphf update
    112       1         2.31     0.45E-05  ( 15)    0.51E-02
 COSMO cphf update
 COSMO cphf update
    113       1         2.29     0.42E-05  ( 15)    0.51E-02
 COSMO cphf update
 COSMO cphf update
    114       1         2.30     0.40E-05  ( 15)    0.51E-02
 COSMO cphf update
 COSMO cphf update
    115       1         2.30     0.37E-05  ( 15)    0.51E-02
 COSMO cphf update
 COSMO cphf update
    116       1         2.31     0.37E-05  ( 15)    0.51E-02
 COSMO cphf update
 COSMO cphf update
    117       1         2.30     0.37E-05  ( 15)    0.51E-02
 COSMO cphf update
 COSMO cphf update
    118       1         2.30     0.37E-05  ( 15)    0.51E-02
 COSMO cphf update
 COSMO cphf update
    119       1         2.29     0.37E-05  ( 15)    0.51E-02
 COSMO cphf update
 COSMO cphf update
    120       1         2.29     0.36E-05  ( 15)    0.51E-02
 COSMO cphf update
 COSMO cphf update
    121       1         2.30     0.36E-05  ( 15)    0.51E-02
 COSMO cphf update
 COSMO cphf update
    122       1         2.30     0.37E-05  ( 15)    0.51E-02
 COSMO cphf update
 COSMO cphf update
    123       1         2.30     0.37E-05  ( 15)    0.51E-02
 COSMO cphf update
 COSMO cphf update
    124       1         2.29     0.36E-05  ( 15)    0.51E-02
 COSMO cphf update
 COSMO cphf update
    125       1         2.28     0.36E-05  ( 15)    0.51E-02
 COSMO cphf update
 COSMO cphf update
    126       1         2.29     0.36E-05  ( 15)    0.51E-02
 COSMO cphf update
 COSMO cphf update
    127       1         2.29     0.36E-05  ( 15)    0.51E-02
 COSMO cphf update
 COSMO cphf update
    128       1         2.30     0.36E-05  ( 15)    0.51E-02
 COSMO cphf update
 COSMO cphf update
    129       1         2.29     0.36E-05  ( 15)    0.51E-02
 COSMO cphf update
 COSMO cphf update
    130       1         2.29     0.36E-05  ( 15)    0.51E-02
 COSMO cphf update
 COSMO cphf update
    131       1         2.29     0.36E-05  ( 15)    0.51E-02
 COSMO cphf update
 COSMO cphf update
    132       1         2.29     0.36E-05  ( 15)    0.51E-02
 COSMO cphf update
 COSMO cphf update
    133       1         2.30     0.36E-05  ( 15)    0.51E-02
 COSMO cphf update
 COSMO cphf update
    134       1         2.29     0.36E-05  ( 15)    0.51E-02
 COSMO cphf update
 COSMO cphf update
    135       1         2.30     0.36E-05  ( 15)    0.51E-02
 COSMO cphf update
 COSMO cphf update
    136       1         2.29     0.36E-05  ( 15)    0.51E-02
 COSMO cphf update
 COSMO cphf update
    137       1         2.29     0.36E-05  ( 15)    0.51E-02
 COSMO cphf update
 COSMO cphf update
    138       1         2.31     0.35E-05  ( 15)    0.51E-02
 COSMO cphf update
 COSMO cphf update
    139       1         2.29     0.34E-05  ( 15)    0.51E-02
 COSMO cphf update
 COSMO cphf update
    140       1         2.30     0.31E-05  ( 15)    0.51E-02
 COSMO cphf update
 COSMO cphf update
    141       1         2.30     0.29E-05  ( 15)    0.51E-02
 COSMO cphf update
 COSMO cphf update
    142       1         2.29     0.27E-05  ( 15)    0.51E-02
 COSMO cphf update
 COSMO cphf update
    143       1         2.31     0.25E-05  ( 15)    0.51E-02
 COSMO cphf update
 COSMO cphf update
    144       1         2.30     0.23E-05  ( 15)    0.51E-02
 COSMO cphf update
 COSMO cphf update
    145       1         2.30     0.22E-05  ( 15)    0.51E-02
 COSMO cphf update
 COSMO cphf update
    146       1         2.33     0.21E-05  ( 15)    0.51E-02
 COSMO cphf update
 COSMO cphf update
    147       1         2.31     0.20E-05  ( 15)    0.51E-02
 COSMO cphf update
 COSMO cphf update
    148       1         2.30     0.17E-05  ( 15)    0.51E-02
 COSMO cphf update
 COSMO cphf update
    149       1         2.29     0.13E-05  ( 15)    0.51E-02
 COSMO cphf update
 COSMO cphf update
    150       1         2.31     0.94E-06  ( 15)    0.51E-02
    --------------------------------------
    converged in 150 iterations

   Total time       1729.16 minutes


 ===========================================


 COSMO: note that the excitation energies below do not include
        the nonequilibrium contributions yet. These require the
        computation of the relaxed densities. See end of output
        for a final list of corrected excitations.



 +================================================================================+
 | sym | multi | state |          ADC(2) excitation energies    |  %t1   |  %t2   |
 |     |       |       +----------------------------------------+--------+--------+
 |     |       |       |   Hartree    |    eV      |    cm-1    |    %   |    %   |
 +================================================================================+
 | a   |   1   |   1   |    0.1376054 |    3.74443 |  30200.885 |  89.70 |  10.30 |
 | a   |   1   |   2   |    0.1409433 |    3.83526 |  30933.484 |  87.79 |  12.21 |
 | a   |   1   |   3   |    0.1663522 |    4.52667 |  36510.089 |  90.13 |   9.87 |
 | a   |   1   |   4   |    0.1697323 |    4.61865 |  37251.925 |  89.80 |  10.20 |
 | a   |   1   |   5   |    0.1963081 |    5.34181 |  43084.639 |  88.42 |  11.58 |
 | a   |   1   |   6   |    0.2111914 |    5.74681 |  46351.147 |  91.98 |   8.02 |
 | a   |   1   |   7   |    0.2131029 |    5.79883 |  46770.687 |  88.84 |  11.16 |
[...]
 | E_exci (ground to x state)      |     0.23642710  |
 | Correction for fast part of RF  |    -0.00127148  |
 | Correction for update of eq. RF |     0.00001318  |
 +---------------------------------+-----------------+


  +=========================================================================+
  |  Excited state reached by transition:                   model: ADC(2)   |
  |    number, symmetry, multiplicity:   10 a    1                          |
  |    frequency :   0.2438680281 a.u.     6.63599 e.V.     53522.8 rcm     |
  +=========================================================================+

      Total energy of excited state:    -491.1785046893

   +-----------------+-----------------+-----------------+-----------------+
   | operator        | expect. value   | electr. contrib.| diff to gr.st.  |
   +-----------------+-----------------+-----------------+-----------------+
   | xdiplen (unrel) |      2.83083893 |     90.89971883 |     -0.83416683 |
   | xdiplen (relax) |      2.43909184 |     90.50797173 |       ---       |
   | ydiplen (unrel) |      0.00152294 |      0.00151357 |      0.00156321 |
   | ydiplen (relax) |      0.00135868 |      0.00134932 |       ---       |
   | zdiplen (unrel) |      0.12314280 |      2.00299034 |     -0.11495335 |
   | zdiplen (relax) |      0.13602298 |      2.01587052 |       ---       |
   +-----------------+-----------------+-----------------+-----------------+


     Analysis of relaxed properties:
     ===============================


     dipole moment:
     --------------

     x      2.43909184
     y      0.00135868
     z      0.13602298

     | dipole moment | =      2.44288213 a.u. =      6.20918643 debye
 


     Analysis of unrelaxed properties:
     =================================


     dipole moment:
     --------------

     x      2.83083893
     y      0.00152294
     z      0.12314280

     | dipole moment | =      2.83351646 a.u. =      7.20207978 debye
 

 +---------------------------------+-----------------+
 |   Nonequilibrium solvation      |                 |
 +---------------------------------+-----------------+
 |   E_x_(y) is the total free energy of target      |
 |   state x in the reaction field (RF)              |
 |   equilibrated for state y                        |
 +---------------------------------+-----------------+
 | E_x_(y)                         |  -491.18104039  |
 | E_x_(y) (+OCC)                  |  -491.18338795  |
 | Outlying charge correction(OCC) |    -0.00234756  |
 | E_SCF with RF of state y        |  -489.41792755  |
 | E_corr (ground state)           |    -2.00444533  |
 | E_exci (ground to x state)      |     0.24386803  |
 | Correction for fast part of RF  |    -0.00253583  |
 | Correction for update of eq. RF |     0.00000029  |
 +---------------------------------+-----------------+


  +=========================================================================+
  |  Excited state reached by transition:                   model: ADC(2)   |
  |    number, symmetry, multiplicity:   11 a    1                          |
  |    frequency :   0.2555862485 a.u.     6.95486 e.V.     56094.7 rcm     |
  +=========================================================================+

      Total energy of excited state:    -491.1667864689

   +-----------------+-----------------+-----------------+-----------------+
   | operator        | expect. value   | electr. contrib.| diff to gr.st.  |
   +-----------------+-----------------+-----------------+-----------------+
   | xdiplen (unrel) |      5.42104000 |     93.48991989 |      1.75603423 |
   | xdiplen (relax) |      5.08814334 |     93.15702324 |       ---       |
   | ydiplen (unrel) |     -0.00073901 |     -0.00074837 |     -0.00069874 |
   | ydiplen (relax) |     -0.00062321 |     -0.00063258 |       ---       |
   | zdiplen (unrel) |      0.15752612 |      2.03737367 |     -0.08057003 |
   | zdiplen (relax) |      0.16839323 |      2.04824077 |       ---       |
   +-----------------+-----------------+-----------------+-----------------+


     Analysis of relaxed properties:
     ===============================


     dipole moment:
     --------------

     x      5.08814334
     y     -0.00062321
     z      0.16839323

     | dipole moment | =      5.09092913 a.u. =     12.93984991 debye
 


     Analysis of unrelaxed properties:
     =================================


     dipole moment:
     --------------

     x      5.42104000
     y     -0.00073901
     z      0.15752612

     | dipole moment | =      5.42332828 a.u. =     13.78472421 debye
 

 +---------------------------------+-----------------+
 |   Nonequilibrium solvation      |                 |
 +---------------------------------+-----------------+
 |   E_x_(y) is the total free energy of target      |
 |   state x in the reaction field (RF)              |
 |   equilibrated for state y                        |
 +---------------------------------+-----------------+
 | E_x_(y)                         |  -491.16792656  |
 | E_x_(y) (+OCC)                  |  -491.16816988  |
 | Outlying charge correction(OCC) |    -0.00024332  |
 | E_SCF with RF of state y        |  -489.41792755  |
 | E_corr (ground state)           |    -2.00444533  |
 | E_exci (ground to x state)      |     0.25558625  |
 | Correction for fast part of RF  |    -0.00117546  |
 | Correction for update of eq. RF |     0.00003553  |
 +---------------------------------+-----------------+


  +=========================================================================+
  |  Excited state reached by transition:                   model: ADC(2)   |
  |    number, symmetry, multiplicity:   12 a    1                          |
  |    frequency :   0.2562833859 a.u.     6.97383 e.V.     56247.7 rcm     |
  +=========================================================================+

      Total energy of excited state:    -491.1660893315

   +-----------------+-----------------+-----------------+-----------------+
   | operator        | expect. value   | electr. contrib.| diff to gr.st.  |
   +-----------------+-----------------+-----------------+-----------------+
   | xdiplen (unrel) |      5.04562774 |     93.11450763 |      1.38062198 |
   | xdiplen (relax) |      4.51028022 |     92.57916011 |       ---       |
   | ydiplen (unrel) |     -0.00131628 |     -0.00132564 |     -0.00127601 |
   | ydiplen (relax) |     -0.00121578 |     -0.00122514 |       ---       |
   | zdiplen (unrel) |      0.24361728 |      2.12346482 |      0.00552112 |
   | zdiplen (relax) |      0.24287816 |      2.12272570 |       ---       |
   +-----------------+-----------------+-----------------+-----------------+


     Analysis of relaxed properties:
     ===============================


     dipole moment:
     --------------

     x      4.51028022
     y     -0.00121578
     z      0.24287816

     | dipole moment | =      4.51681514 a.u. =     11.48059784 debye
 


     Analysis of unrelaxed properties:
     =================================


     dipole moment:
     --------------

     x      5.04562774
     y     -0.00131628
     z      0.24361728

     | dipole moment | =      5.05150576 a.u. =     12.83964571 debye
 

 +---------------------------------+-----------------+
 |   Nonequilibrium solvation      |                 |
 +---------------------------------+-----------------+
 |   E_x_(y) is the total free energy of target      |
 |   state x in the reaction field (RF)              |
 |   equilibrated for state y                        |
 +---------------------------------+-----------------+
 | E_x_(y)                         |  -491.16767355  |
 | E_x_(y) (+OCC)                  |  -491.16883168  |
 | Outlying charge correction(OCC) |    -0.00115814  |
 | E_SCF with RF of state y        |  -489.41792755  |
 | E_corr (ground state)           |    -2.00444533  |
 | E_exci (ground to x state)      |     0.25628339  |
 | Correction for fast part of RF  |    -0.00159727  |
 | Correction for update of eq. RF |     0.00001322  |
 +---------------------------------+-----------------+


  +=========================================================================+
  |  Excited state reached by transition:                   model: ADC(2)   |
  |    number, symmetry, multiplicity:   13 a    1                          |
  |    frequency :   0.2563387775 a.u.     6.97533 e.V.     56259.9 rcm     |
  +=========================================================================+

      Total energy of excited state:    -491.1660339399

   +-----------------+-----------------+-----------------+-----------------+
   | operator        | expect. value   | electr. contrib.| diff to gr.st.  |
   +-----------------+-----------------+-----------------+-----------------+
   | xdiplen (unrel) |      4.43620059 |     92.50508048 |      0.77119482 |
   | xdiplen (relax) |      3.90010626 |     91.96898615 |       ---       |
   | ydiplen (unrel) |     -0.00013817 |     -0.00014753 |     -0.00009790 |
   | ydiplen (relax) |     -0.00003545 |     -0.00004482 |       ---       |
   | zdiplen (unrel) |      0.21960308 |      2.09945062 |     -0.01849308 |
   | zdiplen (relax) |      0.22237145 |      2.10221900 |       ---       |
   +-----------------+-----------------+-----------------+-----------------+


     Analysis of relaxed properties:
     ===============================


     dipole moment:
     --------------

     x      3.90010626
     y     -0.00003545
     z      0.22237145

     | dipole moment | =      3.90644057 a.u. =      9.92918058 debye
 


     Analysis of unrelaxed properties:
     =================================


     dipole moment:
     --------------

     x      4.43620059
     y     -0.00013817
     z      0.21960308

     | dipole moment | =      4.44163272 a.u. =     11.28950320 debye
 

 +---------------------------------+-----------------+
 |   Nonequilibrium solvation      |                 |
 +---------------------------------+-----------------+
 |   E_x_(y) is the total free energy of target      |
 |   state x in the reaction field (RF)              |
 |   equilibrated for state y                        |
 +---------------------------------+-----------------+
 | E_x_(y)                         |  -491.16619432  |
 | E_x_(y) (+OCC)                  |  -491.16642660  |
 | Outlying charge correction(OCC) |    -0.00023228  |
 | E_SCF with RF of state y        |  -489.41792755  |
 | E_corr (ground state)           |    -2.00444533  |
 | E_exci (ground to x state)      |     0.25633878  |
 | Correction for fast part of RF  |    -0.00016769  |
 | Correction for update of eq. RF |     0.00000747  |
 +---------------------------------+-----------------+


  +=========================================================================+
  |  Excited state reached by transition:                   model: ADC(2)   |
  |    number, symmetry, multiplicity:   14 a    1                          |
  |    frequency :   0.2707627782 a.u.     7.36783 e.V.     59425.6 rcm     |
  +=========================================================================+

      Total energy of excited state:    -491.1516099392

   +-----------------+-----------------+-----------------+-----------------+
   | operator        | expect. value   | electr. contrib.| diff to gr.st.  |
   +-----------------+-----------------+-----------------+-----------------+
   | xdiplen (unrel) |      3.36200534 |     91.43088524 |     -0.30300042 |
   | xdiplen (relax) |      3.08461523 |     91.15349512 |       ---       |
   | ydiplen (unrel) |     -0.00001034 |     -0.00001970 |      0.00002993 |
   | ydiplen (relax) |     -0.00003289 |     -0.00004225 |       ---       |
   | zdiplen (unrel) |      0.17295806 |      2.05280560 |     -0.06513810 |
   | zdiplen (relax) |      0.17269723 |      2.05254477 |       ---       |
   +-----------------+-----------------+-----------------+-----------------+


     Analysis of relaxed properties:
     ===============================


     dipole moment:
     --------------

     x      3.08461523
     y     -0.00003289
     z      0.17269723

     | dipole moment | =      3.08944582 a.u. =      7.85258726 debye
 


     Analysis of unrelaxed properties:
     =================================


     dipole moment:
     --------------

     x      3.36200534
     y     -0.00001034
     z      0.17295806

     | dipole moment | =      3.36645131 a.u. =      8.55666492 debye
 

 +---------------------------------+-----------------+
 |   Nonequilibrium solvation      |                 |
 +---------------------------------+-----------------+
 |   E_x_(y) is the total free energy of target      |
 |   state x in the reaction field (RF)              |
 |   equilibrated for state y                        |
 +---------------------------------+-----------------+
 | E_x_(y)                         |  -491.15226017  |
 | E_x_(y) (+OCC)                  |  -491.15240261  |
 | Outlying charge correction(OCC) |    -0.00014244  |
 | E_SCF with RF of state y        |  -489.41792755  |
 | E_corr (ground state)           |    -2.00444533  |
 | E_exci (ground to x state)      |     0.27076278  |
 | Correction for fast part of RF  |    -0.00065459  |
 | Correction for update of eq. RF |     0.00000452  |
 +---------------------------------+-----------------+


  +=========================================================================+
  |  Excited state reached by transition:                   model: ADC(2)   |
  |    number, symmetry, multiplicity:   15 a    1                          |
  |    frequency :   0.2734632054 a.u.     7.44131 e.V.     60018.2 rcm     |
  +=========================================================================+

      Total energy of excited state:    -491.1489095119

   +-----------------+-----------------+-----------------+-----------------+
   | operator        | expect. value   | electr. contrib.| diff to gr.st.  |
   +-----------------+-----------------+-----------------+-----------------+
   | xdiplen (unrel) |      5.37216779 |     93.44104768 |      1.70716202 |
   | xdiplen (relax) |      4.76343754 |     92.83231744 |       ---       |
   | ydiplen (unrel) |     -0.00626350 |     -0.00627286 |     -0.00622323 |
   | ydiplen (relax) |     -0.00569286 |     -0.00570223 |       ---       |
   | zdiplen (unrel) |      0.11584470 |      1.99569224 |     -0.12225146 |
   | zdiplen (relax) |      0.12959079 |      2.00943833 |       ---       |
   +-----------------+-----------------+-----------------+-----------------+


     Analysis of relaxed properties:
     ===============================


     dipole moment:
     --------------

     x      4.76343754
     y     -0.00569286
     z      0.12959079

     | dipole moment | =      4.76520340 a.u. =     12.11193777 debye
 


     Analysis of unrelaxed properties:
     =================================


     dipole moment:
     --------------

     x      5.37216779
     y     -0.00626350
     z      0.11584470

     | dipole moment | =      5.37342033 a.u. =     13.65787085 debye
 

 +---------------------------------+-----------------+
 |   Nonequilibrium solvation      |                 |
 +---------------------------------+-----------------+
 |   E_x_(y) is the total free energy of target      |
 |   state x in the reaction field (RF)              |
 |   equilibrated for state y                        |
 +---------------------------------+-----------------+
 | E_x_(y)                         |  -491.15148386  |
 | E_x_(y) (+OCC)                  |  -491.15314252  |
 | Outlying charge correction(OCC) |    -0.00165866  |
 | E_SCF with RF of state y        |  -489.41792755  |
 | E_corr (ground state)           |    -2.00444533  |
 | E_exci (ground to x state)      |     0.27346321  |
 | Correction for fast part of RF  |    -0.00259891  |
 | Correction for update of eq. RF |     0.00002472  |
 +---------------------------------+-----------------+
 Exporting excited state densities


 =============================================
 | SUMMARY OF RELAXED EXCITATIONS WITH COSMO |
 =============================================

 Explanation of the quantities below:

       E(diff)_x = E_x - E*_y
       E(exci)_x = E_x - E_gs

  E_x  : noneq.        energy of state x
  E*_y : eq.           energy of state y
  E_gs : noneq. or eq. energy of groundstate
  OCC  : outlying charge correction

 The * in column 'sym' marks the equilibrated state

 +=================================================================================+
 | sym | multi | state | COSMO-ADC(2) energy differences                           |
 |     |       |       +-----------------------------------------------------------+
 |     |       |       | E(Total)/au. |  E(diff)/eV  |  E(exci)/eV  |E(exc(OCC))/eV|
 +=================================================================================+
 |*a   |   1   |   0   | -491.4223729 |            - |            - |            - |
 +-----+-------+-------+--------------+--------------+--------------+--------------+
 | a   |   1   |   1   | -491.2851795 |      3.73322 |      3.73322 |      3.73323 |
 +-----+-------+-------+--------------+--------------+--------------+--------------+
 | a   |   1   |   2   | -491.2851152 |      3.73497 |      3.73497 |      3.72917 |
 +-----+-------+-------+--------------+--------------+--------------+--------------+
 | a   |   1   |   3   | -491.2565471 |      4.51235 |      4.51235 |      4.51183 |
 +-----+-------+-------+--------------+--------------+--------------+--------------+
 | a   |   1   |   4   | -491.2528842 |      4.61202 |      4.61202 |      4.61142 |
 +-----+-------+-------+--------------+--------------+--------------+--------------+
 | a   |   1   |   5   | -491.2271536 |      5.31219 |      5.31219 |      5.30957 |
 +-----+-------+-------+--------------+--------------+--------------+--------------+
 | a   |   1   |   6   | -491.2120310 |      5.72369 |      5.72369 |      5.70953 |
 +-----+-------+-------+--------------+--------------+--------------+--------------+
 | a   |   1   |   7   | -491.2093240 |      5.79736 |      5.79736 |      5.79653 |
 +-----+-------+-------+--------------+--------------+--------------+--------------+
 | a   |   1   |   8   | -491.2000867 |      6.04871 |      6.04871 |      6.04848 |
 +-----+-------+-------+--------------+--------------+--------------+--------------+
 | a   |   1   |   9   | -491.1872041 |      6.39927 |      6.39927 |      6.38881 |
 +-----+-------+-------+--------------+--------------+--------------+--------------+
 | a   |   1   |  10   | -491.1810404 |      6.56699 |      6.56699 |      6.50906 |
 +-----+-------+-------+--------------+--------------+--------------+--------------+
 | a   |   1   |  11   | -491.1679266 |      6.92384 |      6.92384 |      6.92316 |
 +-----+-------+-------+--------------+--------------+--------------+--------------+
 | a   |   1   |  12   | -491.1676735 |      6.93072 |      6.93072 |      6.90515 |
 +-----+-------+-------+--------------+--------------+--------------+--------------+
 | a   |   1   |  13   | -491.1661943 |      6.97097 |      6.97097 |      6.97060 |
 +-----+-------+-------+--------------+--------------+--------------+--------------+
 | a   |   1   |  14   | -491.1522602 |      7.35014 |      7.35014 |      7.35221 |
 +-----+-------+-------+--------------+--------------+--------------+--------------+
 | a   |   1   |  15   | -491.1514839 |      7.37126 |      7.37126 |      7.33208 |
 +=================================================================================+



    ------------------------------------------------------------------------
         total  cpu-time : 19 hours 28 minutes and  8 seconds
         total wall-time :   1 days 15 hours  3 minutes and 44 seconds
    ------------------------------------------------------------------------


   ****  ricc2 : all done  ****


    2023-03-31 21:36:48.411 

