 hostname is         dlt08.abaxnet
 this is node-proc. number 0 running on node dlt08.abaxnet
 the total number of node-proc. spawned is   1

 ricc2 (dlt08.abaxnet) : TURBOMOLE V6.6( 19125 ) 27 May 2014 at 14:24:19
 Copyright (C) 2014 TURBOMOLE GmbH, Karlsruhe


    2023-03-29 07:10:35.676 



                              R I C C 2 - PROGRAM

                          the quantum chemistry groups
                             at the universities in
                           Karlsruhe, Bochum & Mainz
                                   Germany



   *-----------------------------------------------------------------------*
   |                     program will use  1 thread(s)                     |
   *-----------------------------------------------------------------------*


              +--------------------------------------------------+
              | Atomic coordinate, charge and isotop information |
              +--------------------------------------------------+

                    atomic coordinates            atom    charge  isotop
         -1.25903854   -2.28197016   -0.03015612    c      6.000     0
         -2.55472338   -0.00000083   -0.02879221    c      6.000     0
         -1.25904288    2.28196695   -0.03016999    c      6.000     0
          1.33397593    2.28282469   -0.03272265    c      6.000     0
          2.68642343    0.00000329   -0.03279418    c      6.000     0
          1.33397780   -2.28282267   -0.03270652    c      6.000     0
         -2.30058495   -4.03537191   -0.02713902    h      1.000     0
         -2.30059039    4.03536858   -0.02716440    h      1.000     0
          2.35274324    4.05547592   -0.03591469    h      1.000     0
          2.35275259   -4.05546984   -0.03588303    h      1.000     0
         -5.27845951   -0.00000053   -0.02253990    n      7.000     0
         -6.37968780    2.02722128   -0.01988302    o      8.000     0
         -6.37969227   -2.02722011   -0.01992307    o      8.000     0
          5.25161265   -0.00000032   -0.08820951    n      7.000     0
          6.20017073    1.61336629    0.23199721    h      1.000     0
          6.20016334   -1.61337062    0.23200112    h      1.000     0
 
       center of nuclear mass  :   -1.36491958    0.00000015   -0.02966624
       center of nuclear charge:   -1.22317889    0.00000013   -0.02610899

              +--------------------------------------------------+
              |               basis set information              |
              +--------------------------------------------------+

              we will work with the 1s 3p 5d 7f 9g ... basis set
              ...i.e. with spherical basis functions...

   type   atoms  prim   cont   basis
   ---------------------------------------------------------------------------
    c        6     52     37   def2-TZVPD   [6s3p3d1f|12s6p3d1f]
    h        6     11      9   def2-TZVPD   [3s2p|5s2p]
    n        2     52     37   def2-TZVPD   [6s3p3d1f|12s6p3d1f]
    o        2     55     40   def2-TZVPD   [6s4p3d1f|12s7p3d1f]
   ---------------------------------------------------------------------------
   total:   16    592    430
   ---------------------------------------------------------------------------

   total number of primitive shells          :   74
   total number of contracted shells         :  162
   total number of cartesian basis functions :  490
   total number of SCF-basis functions       :  430



   =========================================================================


     restricted closed shell calculation for the wavefunction models:
               ADC(2)     - Algebraic Diagrammatic Construction to 2. Order (strict)


     global parameters for ricc2 program:

        hard restart (reuse of interm.) :  enabled 
        soft restart (reuse of vectors) :  disabled
        threshold for vector function   :    0.100000E-06
        convergence threshold energy    :    0.100000E-07
        linear dependence threshold     :    0.100000E-13
        global print level              :      1
        maximum number of iterations    :   500
        maximum number DIIS vectors     :    10
        max. dim. of reduced space      :   100
        core memory limit (MB)          :   500
        disk space limit (MB)           :   none


   =========================================================================
     "cartesian on" in $drvopt is ignored by $ricc2

    der. integral neglect threshold  :  0.10E-08
    integral neglect threshold       :  0.68E-12
    integral storage threshold THIZE :  0.10E-04
    integral storage threshold THIME :         5


                  +------------------------------------------+
                  |     Auxiliary basis set information      |
                  +------------------------------------------+

              we will work with the 1s 3p 5d 7f 9g ... basis set
              ...i.e. with spherical basis functions...

   type   atoms  prim   cont   basis
   ---------------------------------------------------------------------------
    c        6     97     92   def2-TZVPD   [9s7p5d4f1g|9s7p6d4f1g]
    h        6     32     24   def2-TZVPD   [5s3p2d|5s4p3d]
    n        2     97     92   def2-TZVPD   [9s7p5d4f1g|9s7p6d4f1g]
    o        2     97     92   def2-TZVPD   [9s7p5d4f1g|9s7p6d4f1g]
   ---------------------------------------------------------------------------
   total:   16   1162   1064
   ---------------------------------------------------------------------------

   total number of primitive shells          :   93
   total number of contracted shells         :  320
   total number of cartesian basis functions : 1306
   total number of SCF-basis functions       : 1064


 symmetry group of the molecule :   c1 

 the group has the following generators :
   c1(z)

    1 symmetry operations found

 there are 1 real representations :   a   

 maximum number of shells which are related by symmetry :  1


 The symmetry information takes   1 MB

*---------------------------------------------------------------------*
|               simplified C1 algorithm will be applied               |
*---------------------------------------------------------------------*
 ==============================================================================
                      COSMO switched on
 ==============================================================================
            ======================================================
                      COSMO settings in RICC2
                   --------------------------
             Solvent charges are equilibrated for ground state
             "cycle" indicates frozen COSMO charges,
             hence no COSMO CPHF contribution included
             COSMO linear response (LR) contribution included
             Outlying Charge Correction (OCC) is performed
             Using epsilon          =     6.253
             Using refractive index =     1.300
            ======================================================
        IMPORTANT NOTICE: The calculation of the solvent contributions will
         need the relaxed densities in general. Therefore the actual COSMO
         energies will be output only at the end of the run. Any energies
         or excitation energies quoted before that are only intermediate
         quantities and should be ignored unless you know what you are doing!

  MOs are in ASCII format !


 reading orbital data $scfmo  from file mos . 

 orbital characterization : scfconv=7
 

         --------------------------------------------------------------
                   checking mo's by calculating trace(D*S)

              number of electrons : 
                 from trace(D*S)         :   71.999999999997
                 from occupation numbers :   72.000000000000

              molecular charge           :    0.000000000000
         --------------------------------------------------------------

 time elapsed for calculating density matrices :   0.020 sec
 all orbitals will be active in the correlation treatment

  ----------------------------------------------------------------------------
  hard_restart flag is disabled because the check sum for the
  molecular orbitals "$chkmos" differs from the reference value:
  reference value:     4986246.77212335    
  computed value :     4986246.77229812    
  relative error :    0.350504376727362E-10
  tolerance      :    0.100000000000000E-11
  the calculation will proceed...
  ----------------------------------------------------------------------------


   Molecular Orbital Statistic:
   ============================

   -----------------------------
   orbitals in total:
   -----------------------------
    frozen occupied :      0
    active occupied :     36
    active virtual  :    394
    frozen virtual  :      0
    all together    :    430
   -----------------------------


     time in riccmos       cpu:  0.19 sec    wall:  0.32 sec    ratio:  0.6

     total memory allocated for calculation of (Q|P)**(-1/2) : 13 MiB


     calculation of (P|Q) ...
     time in lp2sym        cpu:  0.04 sec    wall:  0.03 sec    ratio:  1.0


     calculation of the Cholesky decomposition of (P|Q)**(-1) ...
     time in invmetri      cpu:  0.20 sec    wall:  0.28 sec    ratio:  0.7

   threshold for RMS(d[D]) in SCF was     :  0.10E-07
   integral neglect threshold             :  0.68E-12
   derivative integral neglect threshold  :  0.10E-08


 setting up bound for integral derivative estimation

 increment for numerical differentiation : 0.00050000

   =========================================================================

     Energy of reference wave function is  -489.4179816024000
     Maximum orbital residual is           0.6890400499779E-05


     Number of symmetry-nonredundant auxiliary basis functions:     1064

     Block lengths for integral files:
        frozen occupied (BOI):        0 MiB
        active occupied (BJI):        1 MiB
        active virtual  (BAI):        4 MiB
        frozen virtual  (BGI):        0 MiB
               general  (BTI):        4 MiB

   =========================================================================




   **************************************************************************
   *                                                                        *
   *          OPTIMIZATION OF THE GROUND STATE CLUSTER AMPLITUDES           *
   *                                                                        *
   **************************************************************************


   Iter.   MP2 energy       Norm(Omega)    Norm(t1)  Norm(t2)     cpu    wall
   ...........................................................................
    1   -491.4223681485    0.1616027039     0.00000   0.44531    1.27    1.39
   ...........................................................................


     time in total         cpu:  1 min 16 s  wall:  1 min 23 s  ratio:  0.9


     **********************************************************************
     *                                                                    *
     *   RHF  energy                             :   -489.4179816024      *
     *   MP2 correlation energy                  :     -2.0043865461      *
     *                                                                    *
     *   Final MP2 energy                        :   -491.4223681485      *
     *                                                                    *
     *   Norm of MP1 T2 amplitudes               :      0.4453075786      *
     *                                                                    *
     *   D1 diagnostic                           :      0.0589            *
     *                                                                    *
     **********************************************************************

 Using refractive index n                   =    1.30000000000000     
 Screening function (n**2-1)/(n**2+0.5)     =   0.315068493150685     


 **************************************************************
 *                                                            *
 *    OPTIMIZATION OF THE EXCITED STATE CLUSTER AMPLITUDES    *
 *                                                            *
 **************************************************************


  preoptimize excitation energies/vectors using CCS:

  ==================================================


 ======== LINEAR CC RESPONSE SOLVER ========

    threshold for convergence: 0.10E-02
    maximum number of simultaneous jacoby matrix transformations: 15
                                                
     summary of start vectors generation:
     -------------------------------------------
     type of solution vectors      : RE0
     symmetry                      : a  
     number of vectors requested   :    15
     number of vectors generated   :    15
       -- guessed as rhs/(e_a-e_i) :    15
     -------------------------------------------
                                                

    Iter  #Vectors  time (min)    max. residual 
    --------------------------------------------
 COSMO cphf update
 COSMO cphf update
 COSMO cphf update
 COSMO cphf update
 COSMO cphf update
 COSMO cphf update
 COSMO cphf update
 COSMO cphf update
 COSMO cphf update
 COSMO cphf update
 COSMO cphf update
 COSMO cphf update
 COSMO cphf update
 COSMO cphf update
 COSMO cphf update
      1      15         3.20     0.14E+00  (  1)
 COSMO cphf update
 COSMO cphf update
 COSMO cphf update
 COSMO cphf update
 COSMO cphf update
 COSMO cphf update
 COSMO cphf update
 COSMO cphf update
 COSMO cphf update
 COSMO cphf update
 COSMO cphf update
 COSMO cphf update
 COSMO cphf update
 COSMO cphf update
 COSMO cphf update
      2      15         3.18     0.55E-01  (  9)
 COSMO cphf update
 COSMO cphf update
 COSMO cphf update
 COSMO cphf update
 COSMO cphf update
 COSMO cphf update
 COSMO cphf update
 COSMO cphf update
 COSMO cphf update
 COSMO cphf update
 COSMO cphf update
 COSMO cphf update
 COSMO cphf update
 COSMO cphf update
 COSMO cphf update
      3      15         3.08     0.75E-01  (  7)
 COSMO cphf update
 COSMO cphf update
 COSMO cphf update
 COSMO cphf update
 COSMO cphf update
 COSMO cphf update
 COSMO cphf update
 COSMO cphf update
 COSMO cphf update
 COSMO cphf update
 COSMO cphf update
 COSMO cphf update
 COSMO cphf update
 COSMO cphf update
 COSMO cphf update
      4      15         3.00     0.15E+00  ( 13)
 COSMO cphf update
 COSMO cphf update
 COSMO cphf update
 COSMO cphf update
 COSMO cphf update
 COSMO cphf update
 COSMO cphf update
 COSMO cphf update
 COSMO cphf update
 COSMO cphf update
 COSMO cphf update
 COSMO cphf update
 COSMO cphf update
 COSMO cphf update
 COSMO cphf update
      5      15         3.03     0.16E+00  (  4)
 COSMO cphf update
 COSMO cphf update
 COSMO cphf update
 COSMO cphf update
 COSMO cphf update
 COSMO cphf update
 COSMO cphf update
 COSMO cphf update
 COSMO cphf update
 COSMO cphf update
 COSMO cphf update
 COSMO cphf update
 COSMO cphf update
 COSMO cphf update
 COSMO cphf update
  dimension of red. space became too large.
  try internal restart...
      6      15         2.99     0.88E-01  (  2)
                                                
     summary of start vectors generation:
     -------------------------------------------
     type of solution vectors      : RE0
     symmetry                      : a  
     number of vectors requested   :    15
     number of vectors generated   :    15
       -- restarted from file      :    15
     -------------------------------------------
                                                

    Iter  #Vectors  time (min)    max. residual 
    --------------------------------------------
 COSMO cphf update
 COSMO cphf update
 COSMO cphf update
 COSMO cphf update
 COSMO cphf update
 COSMO cphf update
 COSMO cphf update
 COSMO cphf update
 COSMO cphf update
 COSMO cphf update
 COSMO cphf update
 COSMO cphf update
 COSMO cphf update
 COSMO cphf update
 COSMO cphf update
      7      15         2.98     0.88E-01  (  2)
 COSMO cphf update
 COSMO cphf update
 COSMO cphf update
 COSMO cphf update
 COSMO cphf update
 COSMO cphf update
 COSMO cphf update
 COSMO cphf update
 COSMO cphf update
 COSMO cphf update
 COSMO cphf update
 COSMO cphf update
 COSMO cphf update
      8      13         2.65     0.30E-01  (  2)
 COSMO cphf update
 COSMO cphf update
 COSMO cphf update
 COSMO cphf update
 COSMO cphf update
 COSMO cphf update
 COSMO cphf update
 COSMO cphf update
 COSMO cphf update
 COSMO cphf update
      9      10         2.11     0.72E-02  (  2)
 COSMO cphf update
 COSMO cphf update
 COSMO cphf update
 COSMO cphf update
 COSMO cphf update
     10       5         1.05     0.25E-02  ( 13)
 COSMO cphf update
 COSMO cphf update
 COSMO cphf update
 COSMO cphf update
     11       4         0.91     0.11E-02  ( 13)
 COSMO cphf update
     12       1         0.34     0.75E-03  (  2)
    --------------------------------------------
    converged in 12 iterations

         Total time         28.55 minutes


 ===========================================




 Note that this is the intermediate result of a preoptimization!
 The convergence threshold was  0.1E-02 only!
 COSMO: note that the excitation energies below do not include
        the nonequilibrium contributions yet. These require the
        computation of the relaxed densities. See end of output
        for a final list of corrected excitations.


 +==================================================================+
 | sym | multi | state |          CCS excitation energies           |
 |     |       |       +--------------------------------------------+
 |     |       |       |   Hartree    |     eV       |     cm-1     |
 +==================================================================+
 | a   |   1   |   1   |    0.1839505 |      5.00555 |    40372.472 |
 | a   |   1   |   2   |    0.1961285 |      5.33693 |    43045.220 |
 | a   |   1   |   3   |    0.2049721 |      5.57757 |    44986.177 |
 | a   |   1   |   4   |    0.2109604 |      5.74053 |    46300.463 |
 | a   |   1   |   5   |    0.2300515 |      6.26002 |    50490.463 |
 | a   |   1   |   6   |    0.2472898 |      6.72910 |    54273.841 |
 | a   |   1   |   7   |    0.2580419 |      7.02168 |    56633.648 |
 | a   |   1   |   8   |    0.2595691 |      7.06323 |    56968.826 |
 | a   |   1   |   9   |    0.2620948 |      7.13196 |    57523.167 |
 | a   |   1   |  10   |    0.2662483 |      7.24498 |    58434.741 |
 | a   |   1   |  11   |    0.2795766 |      7.60766 |    61359.961 |
 | a   |   1   |  12   |    0.2830899 |      7.70327 |    62131.048 |
 | a   |   1   |  13   |    0.2861194 |      7.78570 |    62795.939 |
 | a   |   1   |  14   |    0.2972644 |      8.08897 |    65241.988 |
 | a   |   1   |  15   |    0.2973203 |      8.09050 |    65254.265 |
 +==================================================================+




  preoptimize ADC(2) excitation energies/vectors using a quasi linear algorithm:
  ==============================================================================


 ======== LINEAR CC RESPONSE SOLVER ========

    threshold for convergence: 0.10E-02
    maximum number of simultaneous jacoby matrix transformations: 15
                                                
     summary of start vectors generation:
     -------------------------------------------
     type of solution vectors      : RE0
     symmetry                      : a  
     number of vectors requested   :    15
     number of vectors generated   :    15
       -- restarted from file      :    15
     -------------------------------------------
                                                

    Iter  #Vectors  time (min)    max. residual 
    --------------------------------------------
 COSMO cphf update
 COSMO cphf update
 COSMO cphf update
 COSMO cphf update
 COSMO cphf update
 COSMO cphf update
 COSMO cphf update
 COSMO cphf update
 COSMO cphf update
 COSMO cphf update
 COSMO cphf update
 COSMO cphf update
 COSMO cphf update
 COSMO cphf update
 COSMO cphf update
 COSMO cphf update
 COSMO cphf update
 COSMO cphf update
 COSMO cphf update
 COSMO cphf update
 COSMO cphf update
 COSMO cphf update
 COSMO cphf update
 COSMO cphf update
 COSMO cphf update
 COSMO cphf update
 COSMO cphf update
 COSMO cphf update
 COSMO cphf update
 COSMO cphf update
 threshold for this macro iteration:  5.116173793233295E-002
      1      15        27.16     0.93E-01  (  1)
 COSMO cphf update
 COSMO cphf update
 COSMO cphf update
 COSMO cphf update
 COSMO cphf update
 COSMO cphf update
 COSMO cphf update
 COSMO cphf update
 COSMO cphf update
 COSMO cphf update
 COSMO cphf update
 COSMO cphf update
 COSMO cphf update
 COSMO cphf update
 COSMO cphf update
 COSMO cphf update
 ...adapted threshold to:  6.022819912671859E-002
      2       8        14.44     0.40E-01  ( 12)
                                                
     summary of start vectors generation:
     -------------------------------------------
     type of solution vectors      : RE0
     symmetry                      : a  
     number of vectors requested   :    15
     number of vectors generated   :    15
       -- restarted from file      :    15
     -------------------------------------------
                                                

    Iter  #Vectors  time (min)    max. residual 
    --------------------------------------------
 COSMO cphf update
 COSMO cphf update
 COSMO cphf update
 COSMO cphf update
 COSMO cphf update
 COSMO cphf update
 COSMO cphf update
 COSMO cphf update
 COSMO cphf update
 COSMO cphf update
 COSMO cphf update
 COSMO cphf update
 COSMO cphf update
 COSMO cphf update
 COSMO cphf update
 COSMO cphf update
 COSMO cphf update
 COSMO cphf update
 COSMO cphf update
 COSMO cphf update
 COSMO cphf update
 COSMO cphf update
 COSMO cphf update
 COSMO cphf update
 COSMO cphf update
 COSMO cphf update
 COSMO cphf update
 COSMO cphf update
 COSMO cphf update
 COSMO cphf update
 threshold for this macro iteration:  6.849108009365029E-003
      3      15        27.16     0.40E-01  ( 12)
 COSMO cphf update
 COSMO cphf update
 COSMO cphf update
 COSMO cphf update
 COSMO cphf update
 COSMO cphf update
 COSMO cphf update
 COSMO cphf update
 COSMO cphf update
 COSMO cphf update
 COSMO cphf update
 COSMO cphf update
 COSMO cphf update
 COSMO cphf update
 COSMO cphf update
 COSMO cphf update
 COSMO cphf update
 COSMO cphf update
 COSMO cphf update
 COSMO cphf update
 COSMO cphf update
 COSMO cphf update
 COSMO cphf update
 COSMO cphf update
 COSMO cphf update
 COSMO cphf update
 COSMO cphf update
 COSMO cphf update
 COSMO cphf update
 COSMO cphf update
      4      15        27.40     0.15E-01  ( 11)
 COSMO cphf update
 COSMO cphf update
 COSMO cphf update
 COSMO cphf update
 COSMO cphf update
 COSMO cphf update
 COSMO cphf update
 COSMO cphf update
 COSMO cphf update
 COSMO cphf update
 COSMO cphf update
 COSMO cphf update
 COSMO cphf update
 COSMO cphf update
 COSMO cphf update
 COSMO cphf update
 COSMO cphf update
 COSMO cphf update
 COSMO cphf update
 COSMO cphf update
 COSMO cphf update
 COSMO cphf update
 COSMO cphf update
 COSMO cphf update
 COSMO cphf update
 COSMO cphf update
 COSMO cphf update
 COSMO cphf update
      5      14        25.25     0.12E-01  ( 15)
 COSMO cphf update
 COSMO cphf update
 COSMO cphf update
 COSMO cphf update
      6       2         3.99     0.11E-01  ( 14)
 COSMO cphf update
 COSMO cphf update
      7       1         2.30     0.17E-01  ( 14)
 COSMO cphf update
 COSMO cphf update
      8       1         2.31     0.22E-01  ( 14)
 COSMO cphf update
 COSMO cphf update
      9       1         2.30     0.11E-01  ( 13)
 COSMO cphf update
 COSMO cphf update
     10       1         2.30     0.76E-02  ( 13)
 COSMO cphf update
 COSMO cphf update
     11       1         2.30     0.66E-02  (  4)
                                                
     summary of start vectors generation:
     -------------------------------------------
     type of solution vectors      : RE0
     symmetry                      : a  
     number of vectors requested   :    15
     number of vectors generated   :    15
       -- restarted from file      :    15
     -------------------------------------------
                                                

    Iter  #Vectors  time (min)    max. residual 
    --------------------------------------------
 COSMO cphf update
 COSMO cphf update
 COSMO cphf update
 COSMO cphf update
 COSMO cphf update
 COSMO cphf update
 COSMO cphf update
 COSMO cphf update
 COSMO cphf update
 COSMO cphf update
 COSMO cphf update
 COSMO cphf update
 COSMO cphf update
 COSMO cphf update
 COSMO cphf update
 COSMO cphf update
 COSMO cphf update
 COSMO cphf update
 COSMO cphf update
 COSMO cphf update
 COSMO cphf update
 COSMO cphf update
 COSMO cphf update
 COSMO cphf update
 COSMO cphf update
 COSMO cphf update
 COSMO cphf update
 COSMO cphf update
 COSMO cphf update
 COSMO cphf update
 threshold for this macro iteration:  1.378623630927378E-002
     12      15        26.98     0.71E-02  ( 11)
                                                
     summary of start vectors generation:
     -------------------------------------------
     type of solution vectors      : RE0
     symmetry                      : a  
     number of vectors requested   :    15
     number of vectors generated   :    15
       -- restarted from file      :    15
     -------------------------------------------
                                                

    Iter  #Vectors  time (min)    max. residual 
    --------------------------------------------
 COSMO cphf update
 COSMO cphf update
 COSMO cphf update
 COSMO cphf update
 COSMO cphf update
 COSMO cphf update
 COSMO cphf update
 COSMO cphf update
 COSMO cphf update
 COSMO cphf update
 COSMO cphf update
 COSMO cphf update
 COSMO cphf update
 COSMO cphf update
 COSMO cphf update
 COSMO cphf update
 COSMO cphf update
 COSMO cphf update
 COSMO cphf update
 COSMO cphf update
 COSMO cphf update
 COSMO cphf update
 COSMO cphf update
 COSMO cphf update
 COSMO cphf update
 COSMO cphf update
 COSMO cphf update
 COSMO cphf update
 COSMO cphf update
 COSMO cphf update
 dabs(Rj-Ri):           1          11  0.118349868564745     
 dabs(Ij+Ii):           1          11  6.557562665245225E-004
 dabs(Rj-Ri):           2          11  0.115386808802015     
 dabs(Ij+Ii):           2          11  6.557562665245225E-004
 dabs(Rj-Ri):           3          11  8.959202153359086E-002
 dabs(Ij+Ii):           3          11  6.557562665245225E-004
 dabs(Rj-Ri):           4          11  8.632967882309231E-002
 dabs(Ij+Ii):           4          11  6.557562665245225E-004
 dabs(Rj-Ri):           5          11  5.991125184666093E-002
 dabs(Ij+Ii):           5          11  6.557562665245225E-004
 dabs(Rj-Ri):           6          11  4.483393681308956E-002
 dabs(Ij+Ii):           6          11  6.557562665245225E-004
 dabs(Rj-Ri):           7          11  4.297556788730950E-002
 dabs(Ij+Ii):           7          11  6.557562665245225E-004
 dabs(Rj-Ri):           8          11  3.288475721391176E-002
 dabs(Ij+Ii):           8          11  6.557562665245225E-004
 dabs(Rj-Ri):           9          11  1.967029292023773E-002
 dabs(Ij+Ii):           9          11  6.557562665245225E-004
 dabs(Rj-Ri):          10          11  1.218587946129260E-002
 dabs(Ij+Ii):          10          11  6.557562665245225E-004
 dabs(Rj-Ri):          12          11  0.000000000000000E+000
 dabs(Ij+Ii):          12          11  0.000000000000000E+000
 dabs(Rj-Ri):          13          11  3.111766015768680E-004
 dabs(Ij+Ii):          13          11  6.557562665245225E-004
 dabs(Rj-Ri):          14          11  1.469644937119241E-002
 dabs(Ij+Ii):          14          11  6.557562665245225E-004
 dabs(Rj-Ri):          15          11  1.740229625054940E-002
 dabs(Ij+Ii):          15          11  6.557562665245225E-004
 overlap matrix for complex pair:

              1             2
 
    1     0.16557557   -0.02388702
    2    -0.02388702    0.01787000
 real eigenvalues of metric:

              1
 
    1     0.16934252
    2     0.01410305
 eigenvectors of metric:

              1             2
 
    1     0.98779278    0.15577361
    2    -0.15577361    0.98779278
 inverse square root of overlap matrix:

              1             2
 
    1     2.57542313    0.92177807
    2     0.92177807    8.27524599
 recalculated overlap matrix for complex pair:

              1             2
 
    1     1.00000000    0.00000000
    2    -0.00000000    1.00000000
 dabs(Rj-Ri):           1          12  0.118349868564745     
 dabs(Ij+Ii):           1          12  6.557562665245225E-004
 dabs(Rj-Ri):           2          12  0.115386808802015     
 dabs(Ij+Ii):           2          12  6.557562665245225E-004
 dabs(Rj-Ri):           3          12  8.959202153359086E-002
 dabs(Ij+Ii):           3          12  6.557562665245225E-004
 dabs(Rj-Ri):           4          12  8.632967882309231E-002
 dabs(Ij+Ii):           4          12  6.557562665245225E-004
 dabs(Rj-Ri):           5          12  5.991125184666093E-002
 dabs(Ij+Ii):           5          12  6.557562665245225E-004
 dabs(Rj-Ri):           6          12  4.483393681308956E-002
 dabs(Ij+Ii):           6          12  6.557562665245225E-004
 dabs(Rj-Ri):           7          12  4.297556788730950E-002
 dabs(Ij+Ii):           7          12  6.557562665245225E-004
 dabs(Rj-Ri):           8          12  3.288475721391176E-002
 dabs(Ij+Ii):           8          12  6.557562665245225E-004
 dabs(Rj-Ri):           9          12  1.967029292023773E-002
 dabs(Ij+Ii):           9          12  6.557562665245225E-004
 dabs(Rj-Ri):          10          12  1.218587946129260E-002
 dabs(Ij+Ii):          10          12  6.557562665245225E-004
 dabs(Rj-Ri):          11          12  0.000000000000000E+000
 dabs(Ij+Ii):          11          12  0.000000000000000E+000
 dabs(Rj-Ri):          13          12  3.111766015768680E-004
 dabs(Ij+Ii):          13          12  6.557562665245225E-004
 dabs(Rj-Ri):          14          12  1.469644937119241E-002
 dabs(Ij+Ii):          14          12  6.557562665245225E-004
 dabs(Rj-Ri):          15          12  1.740229625054940E-002
 dabs(Ij+Ii):          15          12  6.557562665245225E-004
 overlap matrix for complex pair:

              1             2
 
    1     1.00000000   -0.00000000
    2     0.00000000    1.00000000
 real eigenvalues of metric:

              1
 
    1     1.00000000
    2     1.00000000
 eigenvectors of metric:

              1             2
 
    1     0.99667039    0.08153614
    2    -0.08153614    0.99667039
 inverse square root of overlap matrix:

              1             2
 
    1     1.00000000    0.00000000
    2     0.00000000    1.00000000
 recalculated overlap matrix for complex pair:

              1             2
 
    1     1.00000000   -0.00000000
    2     0.00000000    1.00000000
 warning> found low lying complex root...
 eigenvalues (imaginary parts) in redeig:

              1
 
    1     0.00000000
    2     0.00000000
    3     0.00000000
    4     0.00000000
    5     0.00000000
    6     0.00000000
    7     0.00000000
    8     0.00000000
    9     0.00000000
   10     0.00000000
   11    -0.00065576
   12     0.00065576
   13     0.00000000
   14     0.00000000
   15     0.00000000
 eigenvalues (real parts) in redeig:

              1
 
    1     0.13769874
    2     0.14066180
    3     0.16645659
    4     0.16971893
    5     0.19613736
    6     0.21121468
    7     0.21307304
    8     0.22316386
    9     0.23637832
   10     0.24386273
   11     0.25604861
   12     0.25604861
   13     0.25635979
   14     0.27074506
   15     0.27345091
 threshold for this macro iteration:  2.984054453120000E-003
     13      15        27.14     0.56E-02  ( 12)
 COSMO cphf update
 COSMO cphf update
 dabs(Rj-Ri):           1          11  0.118272947236743     
 dabs(Ij+Ii):           1          11  6.363753801637239E-004
 dabs(Rj-Ri):           2          11  0.115309883240544     
 dabs(Ij+Ii):           2          11  6.363753801637239E-004
 dabs(Rj-Ri):           3          11  8.951510116919173E-002
 dabs(Ij+Ii):           3          11  6.363753801637239E-004
 dabs(Rj-Ri):           4          11  8.625275749632377E-002
 dabs(Ij+Ii):           4          11  6.363753801637239E-004
 dabs(Rj-Ri):           5          11  5.983433051861617E-002
 dabs(Ij+Ii):           5          11  6.363753801637239E-004
 dabs(Rj-Ri):           6          11  4.475701546691124E-002
 dabs(Ij+Ii):           6          11  6.363753801637239E-004
 dabs(Rj-Ri):           7          11  4.289864655919384E-002
 dabs(Ij+Ii):           7          11  6.363753801637239E-004
 dabs(Rj-Ri):           8          11  3.280785831996680E-002
 dabs(Ij+Ii):           8          11  6.363753801637239E-004
 dabs(Rj-Ri):           9          11  1.959337835342800E-002
 dabs(Ij+Ii):           9          11  6.363753801637239E-004
 dabs(Rj-Ri):          10          11  1.210895808275864E-002
 dabs(Ij+Ii):          10          11  6.363753801637239E-004
 dabs(Rj-Ri):          12          11  0.000000000000000E+000
 dabs(Ij+Ii):          12          11  0.000000000000000E+000
 dabs(Rj-Ri):          13          11  3.892583889814616E-004
 dabs(Ij+Ii):          13          11  6.363753801637239E-004
 dabs(Rj-Ri):          14          11  1.477337069186579E-002
 dabs(Ij+Ii):          14          11  6.363753801637239E-004
 dabs(Rj-Ri):          15          11  1.747823849402391E-002
 dabs(Ij+Ii):          15          11  6.363753801637239E-004
 dabs(Rj-Ri):          16          11  0.150324881673152     
 dabs(Ij+Ii):          16          11  6.363753801637239E-004
 overlap matrix for complex pair:

              1             2
 
    1     0.07991178    0.05126669
    2     0.05126669    0.06434913
 real eigenvalues of metric:

              1
 
    1     0.12398431
    2     0.02027660
 eigenvectors of metric:

              1             2
 
    1     0.75830819   -0.65189622
    2     0.65189622    0.75830819
 inverse square root of overlap matrix:

              1             2
 
    1     4.61749870   -2.06766088
    2    -2.06766088    5.24516334
 recalculated overlap matrix for complex pair:

              1             2
 
    1     1.00000000    0.00000000
    2     0.00000000    1.00000000
 dabs(Rj-Ri):           1          12  0.118272947236743     
 dabs(Ij+Ii):           1          12  6.363753801637239E-004
 dabs(Rj-Ri):           2          12  0.115309883240544     
 dabs(Ij+Ii):           2          12  6.363753801637239E-004
 dabs(Rj-Ri):           3          12  8.951510116919173E-002
 dabs(Ij+Ii):           3          12  6.363753801637239E-004
 dabs(Rj-Ri):           4          12  8.625275749632377E-002
 dabs(Ij+Ii):           4          12  6.363753801637239E-004
 dabs(Rj-Ri):           5          12  5.983433051861617E-002
 dabs(Ij+Ii):           5          12  6.363753801637239E-004
 dabs(Rj-Ri):           6          12  4.475701546691124E-002
 dabs(Ij+Ii):           6          12  6.363753801637239E-004
 dabs(Rj-Ri):           7          12  4.289864655919384E-002
 dabs(Ij+Ii):           7          12  6.363753801637239E-004
 dabs(Rj-Ri):           8          12  3.280785831996680E-002
 dabs(Ij+Ii):           8          12  6.363753801637239E-004
 dabs(Rj-Ri):           9          12  1.959337835342800E-002
 dabs(Ij+Ii):           9          12  6.363753801637239E-004
 dabs(Rj-Ri):          10          12  1.210895808275864E-002
 dabs(Ij+Ii):          10          12  6.363753801637239E-004
 dabs(Rj-Ri):          11          12  0.000000000000000E+000
 dabs(Ij+Ii):          11          12  0.000000000000000E+000
 dabs(Rj-Ri):          13          12  3.892583889814616E-004
 dabs(Ij+Ii):          13          12  6.363753801637239E-004
 dabs(Rj-Ri):          14          12  1.477337069186579E-002
 dabs(Ij+Ii):          14          12  6.363753801637239E-004
 dabs(Rj-Ri):          15          12  1.747823849402391E-002
 dabs(Ij+Ii):          15          12  6.363753801637239E-004
 dabs(Rj-Ri):          16          12  0.150324881673152     
 dabs(Ij+Ii):          16          12  6.363753801637239E-004
 overlap matrix for complex pair:

              1             2
 
    1     1.00000000    0.00000000
    2     0.00000000    1.00000000
 real eigenvalues of metric:

              1
 
    1     1.00000000
    2     1.00000000
 eigenvectors of metric:

              1             2
 
    1     0.98029402   -0.19754403
    2     0.19754403    0.98029402
 inverse square root of overlap matrix:

              1             2
 
    1     1.00000000   -0.00000000
    2    -0.00000000    1.00000000
 recalculated overlap matrix for complex pair:

              1             2
 
    1     1.00000000   -0.00000000
    2     0.00000000    1.00000000
 warning> found low lying complex root...
 eigenvalues (imaginary parts) in redeig:

              1
 
    1     0.00000000
    2     0.00000000
    3     0.00000000
    4     0.00000000
    5     0.00000000
    6     0.00000000
    7     0.00000000
    8     0.00000000
    9     0.00000000
   10     0.00000000
   11    -0.00063638
   12     0.00063638
   13     0.00000000
   14     0.00000000
   15     0.00000000
   16     0.00000000
 eigenvalues (real parts) in redeig:

              1
 
    1     0.13769874
    2     0.14066181
    3     0.16645659
    4     0.16971893
    5     0.19613736
    6     0.21121468
    7     0.21307304
    8     0.22316383
    9     0.23637831
   10     0.24386273
   11     0.25597169
   12     0.25597169
   13     0.25636095
   14     0.27074506
   15     0.27344993
   16     0.40629657
     14       1         2.30     0.30E-02  ( 11)
                                                
     summary of start vectors generation:
     -------------------------------------------
     type of solution vectors      : RE0
     symmetry                      : a  
     number of vectors requested   :    15
     number of vectors generated   :    15
       -- restarted from file      :    15
     -------------------------------------------
                                                

    Iter  #Vectors  time (min)    max. residual 
    --------------------------------------------
 COSMO cphf update
 COSMO cphf update
 COSMO cphf update
 COSMO cphf update
 COSMO cphf update
 COSMO cphf update
 COSMO cphf update
 COSMO cphf update
 COSMO cphf update
 COSMO cphf update
 COSMO cphf update
 COSMO cphf update
 COSMO cphf update
 COSMO cphf update
 COSMO cphf update
 COSMO cphf update
 COSMO cphf update
 COSMO cphf update
 COSMO cphf update
 COSMO cphf update
 COSMO cphf update
 COSMO cphf update
 COSMO cphf update
 COSMO cphf update
 COSMO cphf update
 COSMO cphf update
 COSMO cphf update
 COSMO cphf update
 COSMO cphf update
 COSMO cphf update
 threshold for this macro iteration:  1.000000000000000E-003
     15      15        27.33     0.15E-02  ( 11)
 COSMO cphf update
 COSMO cphf update
 COSMO cphf update
 COSMO cphf update
     16       2         4.04     0.13E-02  ( 11)
 COSMO cphf update
 COSMO cphf update
     17       1         2.32     0.75E-03  ( 11)
    --------------------------------------------
    converged in 17 iterations

         Total time        227.07 minutes


 ===========================================




 Note that this is the intermediate result of a preoptimization!
 The convergence threshold was  0.1E-02 only!
 COSMO: note that the excitation energies below do not include
        the nonequilibrium contributions yet. These require the
        computation of the relaxed densities. See end of output
        for a final list of corrected excitations.


 +==================================================================+
 | sym | multi | state |          ADC(2) excitation energies        |
 |     |       |       +--------------------------------------------+
 |     |       |       |   Hartree    |     eV       |     cm-1     |
 +==================================================================+
 | a   |   1   |   1   |    0.1376897 |      3.74673 |    30219.398 |
 | a   |   1   |   2   |    0.1406399 |      3.82701 |    30866.886 |
 | a   |   1   |   3   |    0.1664513 |      4.52937 |    36531.832 |
 | a   |   1   |   4   |    0.1697119 |      4.61809 |    37247.446 |
 | a   |   1   |   5   |    0.1961255 |      5.33685 |    43044.571 |
 | a   |   1   |   6   |    0.2112172 |      5.74751 |    46356.810 |
 | a   |   1   |   7   |    0.2130620 |      5.79771 |    46761.707 |
 | a   |   1   |   8   |    0.2231505 |      6.07223 |    48975.876 |
 | a   |   1   |   9   |    0.2363807 |      6.43225 |    51879.564 |
 | a   |   1   |  10   |    0.2438632 |      6.63586 |    53521.786 |
 | a   |   1   |  11   |    0.2552692 |      6.94623 |    56025.113 |
 | a   |   1   |  12   |    0.2562403 |      6.97265 |    56238.249 |
 | a   |   1   |  13   |    0.2563454 |      6.97551 |    56261.305 |
 | a   |   1   |  14   |    0.2707367 |      7.36712 |    59419.836 |
 | a   |   1   |  15   |    0.2734548 |      7.44108 |    60016.390 |
 +==================================================================+





  solve for ADC(2) excitation energies/vectors using a DIIS algorithm:
  =================================================================
                                                
     summary of start vectors generation:
     -------------------------------------------
     type of solution vectors      : RE0
     symmetry                      : a  
     number of vectors requested   :    15
     number of vectors generated   :    15
       -- restarted from file      :    15
     -------------------------------------------
                                                


 ========= DIIS CC RESPONSE SOLVER =========

    threshold for convergence:0.10E-05
    max. nb. of DIIS vectors :      10
    maximum number of simultaneous jacoby matrix transformations: 15

    Iter  #Vectors  time (min)   residual
    --------------------------------------
 COSMO cphf update
 COSMO cphf update
 COSMO cphf update
 COSMO cphf update
 COSMO cphf update
 COSMO cphf update
 COSMO cphf update
 COSMO cphf update
 COSMO cphf update
 COSMO cphf update
 COSMO cphf update
 COSMO cphf update
 COSMO cphf update
 COSMO cphf update
 COSMO cphf update
 COSMO cphf update
 COSMO cphf update
 COSMO cphf update
 COSMO cphf update
 COSMO cphf update
 COSMO cphf update
 COSMO cphf update
 COSMO cphf update
 COSMO cphf update
 COSMO cphf update
 COSMO cphf update
 COSMO cphf update
 COSMO cphf update
 COSMO cphf update
 COSMO cphf update
      1      15        27.17     0.43E-03  ( 15)    0.67E+00
 COSMO cphf update
 COSMO cphf update
 COSMO cphf update
 COSMO cphf update
 COSMO cphf update
 COSMO cphf update
 COSMO cphf update
 COSMO cphf update
 COSMO cphf update
 COSMO cphf update
 COSMO cphf update
 COSMO cphf update
 COSMO cphf update
 COSMO cphf update
 COSMO cphf update
 COSMO cphf update
 COSMO cphf update
 COSMO cphf update
 COSMO cphf update
 COSMO cphf update
 COSMO cphf update
 COSMO cphf update
 COSMO cphf update
 COSMO cphf update
 COSMO cphf update
 COSMO cphf update
 COSMO cphf update
 COSMO cphf update
 COSMO cphf update
 COSMO cphf update
      2      15        26.91     0.34E-03  ( 15)    0.13E-01
 COSMO cphf update
 COSMO cphf update
 COSMO cphf update
 COSMO cphf update
 COSMO cphf update
 COSMO cphf update
 COSMO cphf update
 COSMO cphf update
 COSMO cphf update
 COSMO cphf update
 COSMO cphf update
 COSMO cphf update
 COSMO cphf update
 COSMO cphf update
 COSMO cphf update
 COSMO cphf update
 COSMO cphf update
 COSMO cphf update
 COSMO cphf update
 COSMO cphf update
 COSMO cphf update
 COSMO cphf update
 COSMO cphf update
 COSMO cphf update
 COSMO cphf update
 COSMO cphf update
 COSMO cphf update
 COSMO cphf update
 COSMO cphf update
 COSMO cphf update
      3      15        27.11     0.29E-03  ( 15)    0.56E-01
 COSMO cphf update
 COSMO cphf update
 COSMO cphf update
 COSMO cphf update
 COSMO cphf update
 COSMO cphf update
 COSMO cphf update
 COSMO cphf update
 COSMO cphf update
 COSMO cphf update
 COSMO cphf update
 COSMO cphf update
 COSMO cphf update
 COSMO cphf update
 COSMO cphf update
 COSMO cphf update
 COSMO cphf update
 COSMO cphf update
 COSMO cphf update
 COSMO cphf update
 COSMO cphf update
 COSMO cphf update
 COSMO cphf update
 COSMO cphf update
 COSMO cphf update
 COSMO cphf update
 COSMO cphf update
 COSMO cphf update
 COSMO cphf update
 COSMO cphf update
      4      15        27.08     0.30E-03  ( 15)    0.53E-01
 COSMO cphf update
 COSMO cphf update
 COSMO cphf update
 COSMO cphf update
 COSMO cphf update
 COSMO cphf update
 COSMO cphf update
 COSMO cphf update
 COSMO cphf update
 COSMO cphf update
 COSMO cphf update
 COSMO cphf update
 COSMO cphf update
 COSMO cphf update
 COSMO cphf update
 COSMO cphf update
 COSMO cphf update
 COSMO cphf update
 COSMO cphf update
 COSMO cphf update
 COSMO cphf update
 COSMO cphf update
 COSMO cphf update
 COSMO cphf update
 COSMO cphf update
 COSMO cphf update
 COSMO cphf update
 COSMO cphf update
      5      14        25.22     0.29E-03  ( 15)    0.26E-01
 COSMO cphf update
 COSMO cphf update
 COSMO cphf update
 COSMO cphf update
 COSMO cphf update
 COSMO cphf update
 COSMO cphf update
 COSMO cphf update
 COSMO cphf update
 COSMO cphf update
 COSMO cphf update
 COSMO cphf update
 COSMO cphf update
 COSMO cphf update
 COSMO cphf update
 COSMO cphf update
 COSMO cphf update
 COSMO cphf update
 COSMO cphf update
 COSMO cphf update
 COSMO cphf update
 COSMO cphf update
      6      11        20.07     0.23E-03  ( 15)    0.81E-02
 COSMO cphf update
 COSMO cphf update
 COSMO cphf update
 COSMO cphf update
 COSMO cphf update
 COSMO cphf update
 COSMO cphf update
 COSMO cphf update
 COSMO cphf update
 COSMO cphf update
 COSMO cphf update
 COSMO cphf update
 COSMO cphf update
 COSMO cphf update
 COSMO cphf update
 COSMO cphf update
 COSMO cphf update
 COSMO cphf update
 COSMO cphf update
 COSMO cphf update
      7      10        18.25     0.15E-03  ( 15)    0.24E-01
 COSMO cphf update
 COSMO cphf update
 COSMO cphf update
 COSMO cphf update
 COSMO cphf update
 COSMO cphf update
 COSMO cphf update
 COSMO cphf update
 COSMO cphf update
 COSMO cphf update
 COSMO cphf update
 COSMO cphf update
 COSMO cphf update
 COSMO cphf update
 COSMO cphf update
 COSMO cphf update
      8       8        14.36     0.10E-03  ( 15)    0.71E-01
 COSMO cphf update
 COSMO cphf update
 COSMO cphf update
 COSMO cphf update
 COSMO cphf update
 COSMO cphf update
 COSMO cphf update
 COSMO cphf update
 COSMO cphf update
 COSMO cphf update
 COSMO cphf update
 COSMO cphf update
 COSMO cphf update
 COSMO cphf update
      9       7        12.73     0.83E-04  ( 13)    0.26E+00
 COSMO cphf update
 COSMO cphf update
 COSMO cphf update
 COSMO cphf update
 COSMO cphf update
 COSMO cphf update
 COSMO cphf update
 COSMO cphf update
 COSMO cphf update
 COSMO cphf update
 COSMO cphf update
 COSMO cphf update
     10       6        10.91     0.71E-04  ( 13)    0.84E-01
 COSMO cphf update
 COSMO cphf update
 COSMO cphf update
 COSMO cphf update
 COSMO cphf update
 COSMO cphf update
 COSMO cphf update
 COSMO cphf update
 COSMO cphf update
 COSMO cphf update
     11       5         9.13     0.53E-04  ( 13)    0.10E+00
 COSMO cphf update
 COSMO cphf update
 COSMO cphf update
 COSMO cphf update
 COSMO cphf update
 COSMO cphf update
 COSMO cphf update
 COSMO cphf update
 COSMO cphf update
 COSMO cphf update
     12       5         9.20     0.36E-04  ( 13)    0.99E-02
 COSMO cphf update
 COSMO cphf update
 COSMO cphf update
 COSMO cphf update
 COSMO cphf update
 COSMO cphf update
 COSMO cphf update
 COSMO cphf update
 COSMO cphf update
 COSMO cphf update
     13       5         9.19     0.29E-04  ( 15)    0.56E-02
 COSMO cphf update
 COSMO cphf update
 COSMO cphf update
 COSMO cphf update
 COSMO cphf update
 COSMO cphf update
 COSMO cphf update
 COSMO cphf update
 COSMO cphf update
 COSMO cphf update
     14       5         9.20     0.29E-04  ( 15)    0.46E-02
 COSMO cphf update
 COSMO cphf update
 COSMO cphf update
 COSMO cphf update
 COSMO cphf update
 COSMO cphf update
 COSMO cphf update
 COSMO cphf update
 COSMO cphf update
 COSMO cphf update
     15       5         9.24     0.29E-04  ( 15)    0.46E-02
 COSMO cphf update
 COSMO cphf update
 COSMO cphf update
 COSMO cphf update
 COSMO cphf update
 COSMO cphf update
 COSMO cphf update
 COSMO cphf update
 COSMO cphf update
 COSMO cphf update
     16       5         9.14     0.29E-04  ( 15)    0.47E-02
 COSMO cphf update
 COSMO cphf update
 COSMO cphf update
 COSMO cphf update
 COSMO cphf update
 COSMO cphf update
 COSMO cphf update
 COSMO cphf update
     17       4         7.49     0.28E-04  ( 15)    0.45E-02
 COSMO cphf update
 COSMO cphf update
 COSMO cphf update
 COSMO cphf update
 COSMO cphf update
 COSMO cphf update
     18       3         5.72     0.28E-04  ( 15)    0.45E-02
 COSMO cphf update
 COSMO cphf update
 COSMO cphf update
 COSMO cphf update
 COSMO cphf update
 COSMO cphf update
     19       3         5.71     0.27E-04  ( 15)    0.45E-02
 COSMO cphf update
 COSMO cphf update
 COSMO cphf update
 COSMO cphf update
 COSMO cphf update
 COSMO cphf update
     20       3         5.72     0.26E-04  ( 15)    0.45E-02
 COSMO cphf update
 COSMO cphf update
 COSMO cphf update
 COSMO cphf update
     21       2         4.01     0.25E-04  ( 15)    0.45E-02
 COSMO cphf update
 COSMO cphf update
 COSMO cphf update
 COSMO cphf update
     22       2         4.01     0.25E-04  ( 15)    0.45E-02
 COSMO cphf update
 COSMO cphf update
 COSMO cphf update
 COSMO cphf update
     23       2         4.01     0.24E-04  ( 15)    0.45E-02
 COSMO cphf update
 COSMO cphf update
 COSMO cphf update
 COSMO cphf update
     24       2         3.99     0.22E-04  ( 15)    0.45E-02
 COSMO cphf update
 COSMO cphf update
 COSMO cphf update
 COSMO cphf update
     25       2         3.99     0.18E-04  ( 15)    0.45E-02
 COSMO cphf update
 COSMO cphf update
 COSMO cphf update
 COSMO cphf update
     26       2         4.01     0.16E-04  ( 15)    0.45E-02
 COSMO cphf update
 COSMO cphf update
 COSMO cphf update
 COSMO cphf update
     27       2         4.03     0.13E-04  ( 14)    0.45E-02
 COSMO cphf update
 COSMO cphf update
 COSMO cphf update
 COSMO cphf update
     28       2         3.99     0.12E-04  ( 14)    0.45E-02
 COSMO cphf update
 COSMO cphf update
 COSMO cphf update
 COSMO cphf update
     29       2         4.01     0.12E-04  ( 14)    0.45E-02
 COSMO cphf update
 COSMO cphf update
 COSMO cphf update
 COSMO cphf update
     30       2         4.00     0.11E-04  ( 14)    0.45E-02
 COSMO cphf update
 COSMO cphf update
 COSMO cphf update
 COSMO cphf update
     31       2         4.01     0.10E-04  ( 14)    0.45E-02
 COSMO cphf update
 COSMO cphf update
 COSMO cphf update
 COSMO cphf update
     32       2         4.01     0.95E-05  ( 14)    0.45E-02
 COSMO cphf update
 COSMO cphf update
 COSMO cphf update
 COSMO cphf update
     33       2         4.03     0.92E-05  ( 14)    0.45E-02
 COSMO cphf update
 COSMO cphf update
 COSMO cphf update
 COSMO cphf update
     34       2         4.01     0.89E-05  ( 14)    0.45E-02
 COSMO cphf update
 COSMO cphf update
 COSMO cphf update
 COSMO cphf update
     35       2         4.02     0.84E-05  ( 14)    0.45E-02
 COSMO cphf update
 COSMO cphf update
 COSMO cphf update
 COSMO cphf update
     36       2         4.02     0.77E-05  ( 15)    0.45E-02
 COSMO cphf update
 COSMO cphf update
 COSMO cphf update
 COSMO cphf update
     37       2         4.02     0.77E-05  ( 15)    0.45E-02
 COSMO cphf update
 COSMO cphf update
 COSMO cphf update
 COSMO cphf update
     38       2         4.04     0.77E-05  ( 15)    0.45E-02
 COSMO cphf update
 COSMO cphf update
 COSMO cphf update
 COSMO cphf update
     39       2         4.00     0.77E-05  ( 15)    0.45E-02
 COSMO cphf update
 COSMO cphf update
 COSMO cphf update
 COSMO cphf update
     40       2         4.02     0.77E-05  ( 15)    0.45E-02
 COSMO cphf update
 COSMO cphf update
 COSMO cphf update
 COSMO cphf update
     41       2         4.02     0.77E-05  ( 15)    0.45E-02
 COSMO cphf update
 COSMO cphf update
 COSMO cphf update
 COSMO cphf update
     42       2         4.01     0.77E-05  ( 15)    0.45E-02
 COSMO cphf update
 COSMO cphf update
 COSMO cphf update
 COSMO cphf update
     43       2         3.99     0.78E-05  ( 15)    0.45E-02
 COSMO cphf update
 COSMO cphf update
 COSMO cphf update
 COSMO cphf update
     44       2         4.01     0.78E-05  ( 15)    0.45E-02
 COSMO cphf update
 COSMO cphf update
 COSMO cphf update
 COSMO cphf update
     45       2         4.01     0.79E-05  ( 15)    0.45E-02
 COSMO cphf update
 COSMO cphf update
 COSMO cphf update
 COSMO cphf update
     46       2         4.00     0.80E-05  ( 15)    0.45E-02
 COSMO cphf update
 COSMO cphf update
 COSMO cphf update
 COSMO cphf update
     47       2         4.00     0.80E-05  ( 15)    0.45E-02
 COSMO cphf update
 COSMO cphf update
 COSMO cphf update
 COSMO cphf update
     48       2         4.01     0.81E-05  ( 15)    0.45E-02
 COSMO cphf update
 COSMO cphf update
 COSMO cphf update
 COSMO cphf update
     49       2         4.02     0.81E-05  ( 15)    0.45E-02
 COSMO cphf update
 COSMO cphf update
 COSMO cphf update
 COSMO cphf update
     50       2         4.02     0.82E-05  ( 15)    0.45E-02
 COSMO cphf update
 COSMO cphf update
 COSMO cphf update
 COSMO cphf update
     51       2         4.00     0.82E-05  ( 15)    0.45E-02
 COSMO cphf update
 COSMO cphf update
 COSMO cphf update
 COSMO cphf update
     52       2         3.99     0.81E-05  ( 15)    0.45E-02
 COSMO cphf update
 COSMO cphf update
 COSMO cphf update
 COSMO cphf update
     53       2         4.00     0.80E-05  ( 15)    0.45E-02
 COSMO cphf update
 COSMO cphf update
 COSMO cphf update
 COSMO cphf update
     54       2         3.99     0.76E-05  ( 15)    0.45E-02
 COSMO cphf update
 COSMO cphf update
 COSMO cphf update
 COSMO cphf update
     55       2         3.99     0.73E-05  ( 15)    0.45E-02
 COSMO cphf update
 COSMO cphf update
 COSMO cphf update
 COSMO cphf update
     56       2         4.02     0.74E-05  ( 15)    0.45E-02
 COSMO cphf update
 COSMO cphf update
 COSMO cphf update
 COSMO cphf update
     57       2         4.00     0.71E-05  ( 15)    0.45E-02
 COSMO cphf update
 COSMO cphf update
 COSMO cphf update
 COSMO cphf update
     58       2         4.02     0.67E-05  ( 15)    0.45E-02
 COSMO cphf update
 COSMO cphf update
 COSMO cphf update
 COSMO cphf update
     59       2         4.02     0.61E-05  ( 15)    0.45E-02
 COSMO cphf update
 COSMO cphf update
 COSMO cphf update
 COSMO cphf update
     60       2         4.01     0.50E-05  ( 15)    0.45E-02
 COSMO cphf update
 COSMO cphf update
 COSMO cphf update
 COSMO cphf update
     61       2         3.99     0.40E-05  ( 15)    0.45E-02
 COSMO cphf update
 COSMO cphf update
 COSMO cphf update
 COSMO cphf update
     62       2         4.00     0.37E-05  ( 15)    0.45E-02
 COSMO cphf update
 COSMO cphf update
 COSMO cphf update
 COSMO cphf update
     63       2         4.03     0.35E-05  ( 15)    0.45E-02
 COSMO cphf update
 COSMO cphf update
 COSMO cphf update
 COSMO cphf update
     64       2         4.02     0.34E-05  ( 15)    0.45E-02
 COSMO cphf update
 COSMO cphf update
     65       1         2.31     0.33E-05  ( 15)    0.45E-02
 COSMO cphf update
 COSMO cphf update
     66       1         2.31     0.33E-05  ( 15)    0.45E-02
 COSMO cphf update
 COSMO cphf update
     67       1         2.29     0.33E-05  ( 15)    0.45E-02
 COSMO cphf update
 COSMO cphf update
     68       1         2.35     0.33E-05  ( 15)    0.45E-02
 COSMO cphf update
 COSMO cphf update
     69       1         2.29     0.33E-05  ( 15)    0.45E-02
 COSMO cphf update
 COSMO cphf update
     70       1         2.29     0.33E-05  ( 15)    0.45E-02
 COSMO cphf update
 COSMO cphf update
     71       1         2.30     0.32E-05  ( 15)    0.45E-02
 COSMO cphf update
 COSMO cphf update
     72       1         2.30     0.30E-05  ( 15)    0.45E-02
 COSMO cphf update
 COSMO cphf update
     73       1         2.29     0.29E-05  ( 15)    0.45E-02
 COSMO cphf update
 COSMO cphf update
     74       1         2.30     0.28E-05  ( 15)    0.45E-02
 COSMO cphf update
 COSMO cphf update
     75       1         2.29     0.28E-05  ( 15)    0.45E-02
 COSMO cphf update
 COSMO cphf update
     76       1         2.30     0.28E-05  ( 15)    0.45E-02
 COSMO cphf update
 COSMO cphf update
     77       1         2.31     0.28E-05  ( 15)    0.45E-02
 COSMO cphf update
 COSMO cphf update
     78       1         2.31     0.28E-05  ( 15)    0.45E-02
 COSMO cphf update
 COSMO cphf update
     79       1         2.31     0.28E-05  ( 15)    0.45E-02
 COSMO cphf update
 COSMO cphf update
     80       1         2.30     0.28E-05  ( 15)    0.45E-02
 COSMO cphf update
 COSMO cphf update
     81       1         2.30     0.28E-05  ( 15)    0.45E-02
 COSMO cphf update
 COSMO cphf update
     82       1         2.31     0.28E-05  ( 15)    0.45E-02
 COSMO cphf update
 COSMO cphf update
     83       1         2.29     0.28E-05  ( 15)    0.45E-02
 COSMO cphf update
 COSMO cphf update
     84       1         2.31     0.27E-05  ( 15)    0.45E-02
 COSMO cphf update
 COSMO cphf update
     85       1         2.29     0.27E-05  ( 15)    0.45E-02
 COSMO cphf update
 COSMO cphf update
     86       1         2.31     0.27E-05  ( 15)    0.45E-02
 COSMO cphf update
 COSMO cphf update
     87       1         2.29     0.27E-05  ( 15)    0.45E-02
 COSMO cphf update
 COSMO cphf update
     88       1         2.30     0.27E-05  ( 15)    0.45E-02
 COSMO cphf update
 COSMO cphf update
     89       1         2.29     0.26E-05  ( 15)    0.45E-02
 COSMO cphf update
 COSMO cphf update
     90       1         2.30     0.26E-05  ( 15)    0.45E-02
 COSMO cphf update
 COSMO cphf update
     91       1         2.29     0.25E-05  ( 15)    0.45E-02
 COSMO cphf update
 COSMO cphf update
     92       1         2.28     0.25E-05  ( 15)    0.45E-02
 COSMO cphf update
 COSMO cphf update
     93       1         2.30     0.24E-05  ( 15)    0.45E-02
 COSMO cphf update
 COSMO cphf update
     94       1         2.29     0.21E-05  ( 15)    0.45E-02
 COSMO cphf update
 COSMO cphf update
     95       1         2.29     0.19E-05  ( 15)    0.45E-02
 COSMO cphf update
 COSMO cphf update
     96       1         2.30     0.17E-05  ( 15)    0.45E-02
 COSMO cphf update
 COSMO cphf update
     97       1         2.29     0.15E-05  ( 15)    0.45E-02
 COSMO cphf update
 COSMO cphf update
     98       1         2.29     0.14E-05  ( 15)    0.45E-02
 COSMO cphf update
 COSMO cphf update
     99       1         2.30     0.14E-05  ( 15)    0.45E-02
 COSMO cphf update
 COSMO cphf update
    100       1         2.29     0.13E-05  ( 15)    0.45E-02
 COSMO cphf update
 COSMO cphf update
    101       1         2.28     0.13E-05  ( 15)    0.45E-02
 COSMO cphf update
 COSMO cphf update
    102       1         2.30     0.13E-05  ( 15)    0.45E-02
 COSMO cphf update
 COSMO cphf update
    103       1         2.31     0.13E-05  ( 15)    0.45E-02
 COSMO cphf update
 COSMO cphf update
    104       1         2.30     0.13E-05  ( 15)    0.45E-02
 COSMO cphf update
 COSMO cphf update
    105       1         2.28     0.13E-05  ( 15)    0.45E-02
 COSMO cphf update
 COSMO cphf update
    106       1         2.30     0.13E-05  ( 15)    0.45E-02
 COSMO cphf update
 COSMO cphf update
    107       1         2.30     0.13E-05  ( 15)    0.45E-02
 COSMO cphf update
 COSMO cphf update
    108       1         2.29     0.13E-05  ( 15)    0.45E-02
 COSMO cphf update
 COSMO cphf update
    109       1         2.29     0.13E-05  ( 15)    0.45E-02
 COSMO cphf update
 COSMO cphf update
    110       1         2.29     0.13E-05  ( 15)    0.45E-02
 COSMO cphf update
 COSMO cphf update
    111       1         2.29     0.13E-05  ( 15)    0.45E-02
 COSMO cphf update
 COSMO cphf update
    112       1         2.30     0.13E-05  ( 15)    0.45E-02
 COSMO cphf update
 COSMO cphf update
    113       1         2.28     0.13E-05  ( 15)    0.45E-02
 COSMO cphf update
 COSMO cphf update
    114       1         2.28     0.13E-05  ( 15)    0.45E-02
 COSMO cphf update
 COSMO cphf update
    115       1         2.30     0.13E-05  ( 15)    0.45E-02
 COSMO cphf update
 COSMO cphf update
    116       1         2.29     0.13E-05  ( 15)    0.45E-02
 COSMO cphf update
 COSMO cphf update
    117       1         2.30     0.13E-05  ( 15)    0.45E-02
 COSMO cphf update
 COSMO cphf update
    118       1         2.30     0.13E-05  ( 15)    0.45E-02
 COSMO cphf update
 COSMO cphf update
    119       1         2.30     0.13E-05  ( 15)    0.45E-02
 COSMO cphf update
 COSMO cphf update
    120       1         2.31     0.13E-05  ( 15)    0.45E-02
 COSMO cphf update
 COSMO cphf update
    121       1         2.31     0.13E-05  ( 15)    0.45E-02
 COSMO cphf update
 COSMO cphf update
    122       1         2.31     0.13E-05  ( 15)    0.45E-02
 COSMO cphf update
 COSMO cphf update
    123       1         2.30     0.13E-05  ( 15)    0.45E-02
 COSMO cphf update
 COSMO cphf update
    124       1         2.29     0.12E-05  ( 15)    0.45E-02
 COSMO cphf update
 COSMO cphf update
    125       1         2.31     0.12E-05  ( 15)    0.45E-02
 COSMO cphf update
 COSMO cphf update
    126       1         2.30     0.12E-05  ( 15)    0.45E-02
 COSMO cphf update
 COSMO cphf update
    127       1         2.31     0.12E-05  ( 15)    0.45E-02
 COSMO cphf update
 COSMO cphf update
    128       1         2.30     0.12E-05  ( 15)    0.45E-02
 COSMO cphf update
 COSMO cphf update
    129       1         2.30     0.12E-05  ( 15)    0.45E-02
 COSMO cphf update
 COSMO cphf update
    130       1         2.31     0.12E-05  ( 15)    0.45E-02
 COSMO cphf update
 COSMO cphf update
    131       1         2.30     0.12E-05  ( 15)    0.45E-02
 COSMO cphf update
 COSMO cphf update
    132       1         2.30     0.12E-05  ( 15)    0.45E-02
 COSMO cphf update
 COSMO cphf update
    133       1         2.30     0.12E-05  ( 15)    0.45E-02
 COSMO cphf update
 COSMO cphf update
    134       1         2.30     0.12E-05  ( 15)    0.45E-02
 COSMO cphf update
 COSMO cphf update
    135       1         2.30     0.12E-05  ( 15)    0.45E-02
 COSMO cphf update
 COSMO cphf update
    136       1         2.29     0.12E-05  ( 15)    0.45E-02
 COSMO cphf update
 COSMO cphf update
    137       1         2.30     0.12E-05  ( 15)    0.45E-02
 COSMO cphf update
 COSMO cphf update
    138       1         2.29     0.12E-05  ( 15)    0.45E-02
 COSMO cphf update
 COSMO cphf update
    139       1         2.31     0.12E-05  ( 15)    0.45E-02
 COSMO cphf update
 COSMO cphf update
    140       1         2.29     0.12E-05  ( 15)    0.45E-02
 COSMO cphf update
 COSMO cphf update
    141       1         2.29     0.12E-05  ( 15)    0.45E-02
 COSMO cphf update
 COSMO cphf update
    142       1         2.29     0.12E-05  ( 15)    0.45E-02
 COSMO cphf update
 COSMO cphf update
    143       1         2.29     0.12E-05  ( 15)    0.45E-02
 COSMO cphf update
 COSMO cphf update
    144       1         2.29     0.12E-05  ( 15)    0.45E-02
 COSMO cphf update
 COSMO cphf update
    145       1         2.29     0.12E-05  ( 15)    0.45E-02
 COSMO cphf update
 COSMO cphf update
    146       1         2.29     0.12E-05  ( 15)    0.45E-02
 COSMO cphf update
 COSMO cphf update
    147       1         2.29     0.12E-05  ( 15)    0.45E-02
 COSMO cphf update
 COSMO cphf update
    148       1         2.29     0.12E-05  ( 15)    0.45E-02
 COSMO cphf update
 COSMO cphf update
    149       1         2.29     0.12E-05  ( 15)    0.45E-02
 COSMO cphf update
 COSMO cphf update
    150       1         2.28     0.12E-05  ( 15)    0.45E-02
 COSMO cphf update
 COSMO cphf update
    151       1         2.29     0.12E-05  ( 15)    0.45E-02
 COSMO cphf update
 COSMO cphf update
    152       1         2.29     0.12E-05  ( 15)    0.45E-02
 COSMO cphf update
 COSMO cphf update
    153       1         2.29     0.12E-05  ( 15)    0.45E-02
 COSMO cphf update
 COSMO cphf update
    154       1         2.30     0.12E-05  ( 15)    0.45E-02
 COSMO cphf update
 COSMO cphf update
    155       1         2.29     0.12E-05  ( 15)    0.45E-02
 COSMO cphf update
 COSMO cphf update
    156       1         2.29     0.12E-05  ( 15)    0.45E-02
 COSMO cphf update
 COSMO cphf update
    157       1         2.31     0.12E-05  ( 15)    0.45E-02
 COSMO cphf update
 COSMO cphf update
    158       1         2.30     0.12E-05  ( 15)    0.45E-02
 COSMO cphf update
 COSMO cphf update
    159       1         2.29     0.12E-05  ( 15)    0.45E-02
 COSMO cphf update
 COSMO cphf update
    160       1         2.30     0.12E-05  ( 15)    0.45E-02
 COSMO cphf update
 COSMO cphf update
    161       1         2.31     0.12E-05  ( 15)    0.45E-02
 COSMO cphf update
 COSMO cphf update
    162       1         2.31     0.12E-05  ( 15)    0.45E-02
 COSMO cphf update
 COSMO cphf update
    163       1         2.29     0.12E-05  ( 15)    0.45E-02
 COSMO cphf update
 COSMO cphf update
    164       1         2.29     0.12E-05  ( 15)    0.45E-02
 COSMO cphf update
 COSMO cphf update
    165       1         2.29     0.12E-05  ( 15)    0.45E-02
 COSMO cphf update
 COSMO cphf update
    166       1         2.29     0.12E-05  ( 15)    0.45E-02
 COSMO cphf update
 COSMO cphf update
    167       1         2.30     0.12E-05  ( 15)    0.45E-02
 COSMO cphf update
 COSMO cphf update
    168       1         2.30     0.12E-05  ( 15)    0.45E-02
 COSMO cphf update
 COSMO cphf update
    169       1         2.29     0.12E-05  ( 15)    0.45E-02
 COSMO cphf update
 COSMO cphf update
    170       1         2.29     0.12E-05  ( 15)    0.45E-02
 COSMO cphf update
 COSMO cphf update
    171       1         2.30     0.12E-05  ( 15)    0.45E-02
 COSMO cphf update
 COSMO cphf update
    172       1         2.29     0.12E-05  ( 15)    0.45E-02
 COSMO cphf update
 COSMO cphf update
    173       1         2.30     0.12E-05  ( 15)    0.45E-02
 COSMO cphf update
 COSMO cphf update
    174       1         2.29     0.12E-05  ( 15)    0.45E-02
 COSMO cphf update
 COSMO cphf update
    175       1         2.29     0.12E-05  ( 15)    0.45E-02
 COSMO cphf update
 COSMO cphf update
    176       1         2.29     0.12E-05  ( 15)    0.45E-02
 COSMO cphf update
 COSMO cphf update
    177       1         2.29     0.12E-05  ( 15)    0.45E-02
 COSMO cphf update
 COSMO cphf update
    178       1         2.28     0.12E-05  ( 15)    0.45E-02
 COSMO cphf update
 COSMO cphf update
    179       1         2.31     0.12E-05  ( 15)    0.45E-02
 COSMO cphf update
 COSMO cphf update
    180       1         2.29     0.12E-05  ( 15)    0.45E-02
 COSMO cphf update
 COSMO cphf update
    181       1         2.30     0.12E-05  ( 15)    0.45E-02
 COSMO cphf update
 COSMO cphf update
    182       1         2.31     0.12E-05  ( 15)    0.45E-02
 COSMO cphf update
 COSMO cphf update
    183       1         2.30     0.12E-05  ( 15)    0.45E-02
 COSMO cphf update
 COSMO cphf update
    184       1         2.30     0.11E-05  ( 15)    0.45E-02
 COSMO cphf update
 COSMO cphf update
    185       1         2.29     0.11E-05  ( 15)    0.45E-02
 COSMO cphf update
 COSMO cphf update
    186       1         2.32     0.11E-05  ( 15)    0.45E-02
 COSMO cphf update
 COSMO cphf update
    187       1         2.30     0.11E-05  ( 15)    0.45E-02
 COSMO cphf update
 COSMO cphf update
    188       1         2.30     0.11E-05  ( 15)    0.45E-02
 COSMO cphf update
 COSMO cphf update
    189       1         2.29     0.11E-05  ( 15)    0.45E-02
 COSMO cphf update
 COSMO cphf update
    190       1         2.31     0.11E-05  ( 15)    0.45E-02
 COSMO cphf update
 COSMO cphf update
    191       1         2.29     0.10E-05  ( 15)    0.45E-02
 COSMO cphf update
 COSMO cphf update
    192       1         2.30     0.10E-05  ( 15)    0.45E-02
 COSMO cphf update
 COSMO cphf update
    193       1         2.30     0.10E-05  ( 15)    0.45E-02
 COSMO cphf update
 COSMO cphf update
    194       1         2.30     0.10E-05  ( 15)    0.45E-02
 COSMO cphf update
 COSMO cphf update
    195       1         2.31     0.11E-05  ( 15)    0.45E-02
 COSMO cphf update
 COSMO cphf update
    196       1         2.30     0.11E-05  ( 15)    0.45E-02
 COSMO cphf update
 COSMO cphf update
    197       1         2.29     0.10E-05  ( 15)    0.45E-02
 COSMO cphf update
 COSMO cphf update
    198       1         2.31     0.10E-05  ( 15)    0.45E-02
 COSMO cphf update
 COSMO cphf update
    199       1         2.30     0.10E-05  ( 15)    0.45E-02
 COSMO cphf update
 COSMO cphf update
    200       1         2.29     0.10E-05  ( 15)    0.45E-02
    --------------------------------------
    converged in 200 iterations

   Total time        778.37 minutes


 ===========================================


 COSMO: note that the excitation energies below do not include
        the nonequilibrium contributions yet. These require the
        computation of the relaxed densities. See end of output
        for a final list of corrected excitations.



 +================================================================================+
 | sym | multi | state |          ADC(2) excitation energies    |  %t1   |  %t2   |
 |     |       |       +----------------------------------------+--------+--------+
 |     |       |       |   Hartree    |    eV      |    cm-1    |    %   |    %   |
 +================================================================================+
 | a   |   1   |   1   |    0.1376906 |    3.74675 |  30219.593 |  89.70 |  10.30 |
 | a   |   1   |   2   |    0.1406436 |    3.82711 |  30867.694 |  87.78 |  12.22 |
 | a   |   1   |   3   |    0.1664517 |    4.52938 |  36531.919 |  90.13 |   9.87 |
 | a   |   1   |   4   |    0.1697123 |    4.61811 |  37247.551 |  89.80 |  10.20 |
 | a   |   1   |   5   |    0.1961268 |    5.33688 |  43044.857 |  88.41 |  11.59 |
 | a   |   1   |   6   |    0.2112168 |    5.74750 |  46356.728 |  91.98 |   8.02 |
 | a   |   1   |   7   |    0.2130630 |    5.79774 |  46761.924 |  88.84 |  11.16 |
 | a   |   1   |   8   |    0.2231534 |    6.07231 |  48976.504 |  89.67 |  10.33 |
 | a   |   1   |   9   |    0.2363800 |    6.43223 |  51879.420 |  91.48 |   8.52 |
 | a   |   1   |  10   |    0.2438624 |    6.63583 |  53521.608 |  91.49 |   8.51 |
 | a   |   1   |  11   |    0.2553882 |    6.94947 |  56051.225 |  86.26 |  13.74 |
 | a   |   1   |  12   |    0.2562227 |    6.97217 |  56234.377 |  90.57 |   9.43 |
 | a   |   1   |  13   |    0.2563361 |    6.97526 |  56259.274 |  91.49 |   8.51 |
 | a   |   1   |  14   |    0.2707298 |    7.36693 |  59418.330 |  92.07 |   7.93 |
 | a   |   1   |  15   |    0.2734540 |    7.44106 |  60016.224 |  91.03 |   8.97 |
 +================================================================================+


       Energy:     0.1376906 H      3.74675 eV    30219.593 cm-1

     +=======================================================================+
     | type: RE0                    symmetry: a               state:    1    |
     +-----------------------+-----------------------+-----------------------+
     | occ. orb.  index spin | vir. orb.  index spin |  coeff/|amp|     %    |
     +=======================+=======================+=======================+
     |   32 a       32       |   37 a       37       |   0.91261      83.3   |
     |   32 a       32       |   49 a       49       |  -0.31939      10.2   |
     |   32 a       32       |   54 a       54       |  -0.15140       2.3   |
     +=======================+=======================+=======================+
     norm of printed elements:  0.95780


       Energy:     0.1406436 H      3.82711 eV    30867.694 cm-1

     +=======================================================================+
     | type: RE0                    symmetry: a               state:    2    |
     +-----------------------+-----------------------+-----------------------+
     | occ. orb.  index spin | vir. orb.  index spin |  coeff/|amp|     %    |
     +=======================+=======================+=======================+
     |   36 a       36       |   37 a       37       |   0.96665      93.4   |
     |   36 a       36       |   45 a       45       |  -0.11992       1.4   |
     |   36 a       36       |   49 a       49       |  -0.08837       0.8   |
     +=======================+=======================+=======================+
     norm of printed elements:  0.95660


       Energy:     0.1664517 H      4.52938 eV    36531.919 cm-1

     +=======================================================================+
     | type: RE0                    symmetry: a               state:    3    |
     +-----------------------+-----------------------+-----------------------+
     | occ. orb.  index spin | vir. orb.  index spin |  coeff/|amp|     %    |
     +=======================+=======================+=======================+
     |   31 a       31       |   37 a       37       |   0.90950      82.7   |
     |   31 a       31       |   49 a       49       |  -0.30485       9.3   |
     |   31 a       31       |   54 a       54       |  -0.14309       2.0   |
     |   28 a       28       |   37 a       37       |  -0.12776       1.6   |
     +=======================+=======================+=======================+
     norm of printed elements:  0.95692


       Energy:     0.1697123 H      4.61811 eV    37247.551 cm-1

     +=======================================================================+
     | type: RE0                    symmetry: a               state:    4    |
     +-----------------------+-----------------------+-----------------------+
     | occ. orb.  index spin | vir. orb.  index spin |  coeff/|amp|     %    |
     +=======================+=======================+=======================+
     |   36 a       36       |   43 a       43       |   0.80335      64.5   |
     |   35 a       35       |   37 a       37       |  -0.51035      26.0   |
     |   35 a       35       |   45 a       45       |   0.14349       2.1   |
     |   36 a       36       |   50 a       50       |   0.12184       1.5   |
     |   36 a       36       |   41 a       41       |  -0.11007       1.2   |
     +=======================+=======================+=======================+
     norm of printed elements:  0.95337


       Energy:     0.1961268 H      5.33688 eV    43044.857 cm-1

     +=======================================================================+
     | type: RE0                    symmetry: a               state:    5    |
     +-----------------------+-----------------------+-----------------------+
     | occ. orb.  index spin | vir. orb.  index spin |  coeff/|amp|     %    |
     +=======================+=======================+=======================+
     |   35 a       35       |   37 a       37       |   0.74132      55.0   |
     |   36 a       36       |   43 a       43       |   0.44552      19.8   |
     |   34 a       34       |   37 a       37       |   0.42508      18.1   |
     |   34 a       34       |   49 a       49       |  -0.11221       1.3   |
     |   33 a       33       |   43 a       43       |   0.09186       0.8   |
     |   35 a       35       |   49 a       49       |  -0.08351       0.7   |
     +=======================+=======================+=======================+
     norm of printed elements:  0.95674


       Energy:     0.2112168 H      5.74750 eV    46356.728 cm-1

     +=======================================================================+
     | type: RE0                    symmetry: a               state:    6    |
     +-----------------------+-----------------------+-----------------------+
     | occ. orb.  index spin | vir. orb.  index spin |  coeff/|amp|     %    |
     +=======================+=======================+=======================+
     |   36 a       36       |   38 a       38       |   0.85574      73.2   |
     |   36 a       36       |   39 a       39       |   0.37537      14.1   |
     |   36 a       36       |   44 a       44       |  -0.14526       2.1   |
     |   36 a       36       |   64 a       64       |  -0.14353       2.1   |
     |   33 a       33       |   38 a       38       |   0.12665       1.6   |
     |   33 a       33       |   39 a       39       |   0.11865       1.4   |
     |   36 a       36       |   63 a       63       |   0.08017       0.6   |
     +=======================+=======================+=======================+
     norm of printed elements:  0.95143


       Energy:     0.2130630 H      5.79774 eV    46761.924 cm-1

     +=======================================================================+
     | type: RE0                    symmetry: a               state:    7    |
     +-----------------------+-----------------------+-----------------------+
     | occ. orb.  index spin | vir. orb.  index spin |  coeff/|amp|     %    |
     +=======================+=======================+=======================+
     |   34 a       34       |   37 a       37       |  -0.83632      69.9   |
     |   35 a       35       |   37 a       37       |   0.36545      13.4   |
     |   36 a       36       |   43 a       43       |   0.21991       4.8   |
     |   34 a       34       |   49 a       49       |   0.20386       4.2   |
     |   33 a       33       |   43 a       43       |   0.11075       1.2   |
     |   34 a       34       |   54 a       54       |   0.09392       0.9   |
     |   36 a       36       |   50 a       50       |   0.05981       0.4   |
     |   35 a       35       |   45 a       45       |  -0.05205       0.3   |
     +=======================+=======================+=======================+
     norm of printed elements:  0.95027


       Energy:     0.2231534 H      6.07231 eV    48976.504 cm-1

     +=======================================================================+
     | type: RE0                    symmetry: a               state:    8    |
     +-----------------------+-----------------------+-----------------------+
     | occ. orb.  index spin | vir. orb.  index spin |  coeff/|amp|     %    |
     +=======================+=======================+=======================+
     |   36 a       36       |   49 a       49       |   0.74949      56.2   |
     |   36 a       36       |   45 a       45       |  -0.42568      18.1   |
     |   33 a       33       |   37 a       37       |   0.28038       7.9   |
     |   36 a       36       |   54 a       54       |   0.20331       4.1   |
     |   35 a       35       |   43 a       43       |   0.19082       3.6   |
     |   36 a       36       |   60 a       60       |  -0.18390       3.4   |
     |   33 a       33       |   49 a       49       |   0.07904       0.6   |
     |   33 a       33       |   45 a       45       |  -0.07229       0.5   |
     |   29 a       29       |   49 a       49       |  -0.06641       0.4   |
     |   36 a       36       |   72 a       72       |  -0.06396       0.4   |
     +=======================+=======================+=======================+
     norm of printed elements:  0.95310


       Energy:     0.2363800 H      6.43223 eV    51879.420 cm-1

     +=======================================================================+
     | type: RE0                    symmetry: a               state:    9    |
     +-----------------------+-----------------------+-----------------------+
     | occ. orb.  index spin | vir. orb.  index spin |  coeff/|amp|     %    |
     +=======================+=======================+=======================+
     |   36 a       36       |   39 a       39       |   0.65949      43.5   |
[...]
 | E_exci (ground to x state)      |     0.23638003  |
 | Correction for fast part of RF  |    -0.00127559  |
 | Correction for update of eq. RF |     0.00004750  |
 +---------------------------------+-----------------+


  +=========================================================================+
  |  Excited state reached by transition:                   model: ADC(2)   |
  |    number, symmetry, multiplicity:   10 a    1                          |
  |    frequency :   0.2438623887 a.u.     6.63583 e.V.     53521.6 rcm     |
  +=========================================================================+

      Total energy of excited state:    -491.1785057597

   +-----------------+-----------------+-----------------+-----------------+
   | operator        | expect. value   | electr. contrib.| diff to gr.st.  |
   +-----------------+-----------------+-----------------+-----------------+
   | xdiplen (unrel) |      2.84254765 |     90.91142754 |     -0.83174011 |
   | xdiplen (relax) |      2.45112887 |     90.52000876 |       ---       |
   | ydiplen (unrel) |      0.00153759 |      0.00152823 |      0.00162010 |
   | ydiplen (relax) |      0.00136153 |      0.00135216 |       ---       |
   | zdiplen (unrel) |      0.12392678 |      2.00377432 |     -0.11459082 |
   | zdiplen (relax) |      0.13676000 |      2.01660754 |       ---       |
   +-----------------+-----------------+-----------------+-----------------+


     Analysis of relaxed properties:
     ===============================


     dipole moment:
     --------------

     x      2.45112887
     y      0.00136153
     z      0.13676000

     | dipole moment | =      2.45494152 a.u. =      6.23983836 debye
 


     Analysis of unrelaxed properties:
     =================================


     dipole moment:
     --------------

     x      2.84254765
     y      0.00153759
     z      0.12392678

     | dipole moment | =      2.84524820 a.u. =      7.23189889 debye
 

 +---------------------------------+-----------------+
 |   Nonequilibrium solvation      |                 |
 +---------------------------------+-----------------+
 |   E_x_(y) is the total free energy of target      |
 |   state x in the reaction field (RF)              |
 |   equilibrated for state y                        |
 +---------------------------------+-----------------+
 | E_x_(y)                         |  -491.18104010  |
 | E_x_(y) (+OCC)                  |  -491.18338727  |
 | Outlying charge correction(OCC) |    -0.00234717  |
 | E_SCF with RF of state y        |  -489.41798618  |
 | E_corr (ground state)           |    -2.00438655  |
 | E_exci (ground to x state)      |     0.24386239  |
 | Correction for fast part of RF  |    -0.00253531  |
 | Correction for update of eq. RF |     0.00000555  |
 +---------------------------------+-----------------+


  +=========================================================================+
  |  Excited state reached by transition:                   model: ADC(2)   |
  |    number, symmetry, multiplicity:   11 a    1                          |
  |    frequency :   0.2553881712 a.u.     6.94947 e.V.     56051.2 rcm     |
  +=========================================================================+

      Total energy of excited state:    -491.1669799773

   +-----------------+-----------------+-----------------+-----------------+
   | operator        | expect. value   | electr. contrib.| diff to gr.st.  |
   +-----------------+-----------------+-----------------+-----------------+
   | xdiplen (unrel) |      5.90873082 |     93.97761071 |      2.23444307 |
   | xdiplen (relax) |      5.53794300 |     93.60682289 |       ---       |
   | ydiplen (unrel) |     -0.00044950 |     -0.00045886 |     -0.00036699 |
   | ydiplen (relax) |     -0.00041649 |     -0.00042585 |       ---       |
   | zdiplen (unrel) |      0.17269305 |      2.05254059 |     -0.06582454 |
   | zdiplen (relax) |      0.18323857 |      2.06308611 |       ---       |
   +-----------------+-----------------+-----------------+-----------------+


     Analysis of relaxed properties:
     ===============================


     dipole moment:
     --------------

     x      5.53794300
     y     -0.00041649
     z      0.18323857

     | dipole moment | =      5.54097367 a.u. =     14.08374892 debye
 


     Analysis of unrelaxed properties:
     =================================


     dipole moment:
     --------------

     x      5.90873082
     y     -0.00044950
     z      0.17269305

     | dipole moment | =      5.91125393 a.u. =     15.02490738 debye
 

 +---------------------------------+-----------------+
 |   Nonequilibrium solvation      |                 |
 +---------------------------------+-----------------+
 |   E_x_(y) is the total free energy of target      |
 |   state x in the reaction field (RF)              |
 |   equilibrated for state y                        |
 +---------------------------------+-----------------+
 | E_x_(y)                         |  -491.16855145  |
 | E_x_(y) (+OCC)                  |  -491.16883252  |
 | Outlying charge correction(OCC) |    -0.00028107  |
 | E_SCF with RF of state y        |  -489.41798618  |
 | E_corr (ground state)           |    -2.00438655  |
 | E_exci (ground to x state)      |     0.25538817  |
 | Correction for fast part of RF  |    -0.00178732  |
 | Correction for update of eq. RF |     0.00022042  |
 +---------------------------------+-----------------+


  +=========================================================================+
  |  Excited state reached by transition:                   model: ADC(2)   |
  |    number, symmetry, multiplicity:   12 a    1                          |
  |    frequency :   0.2562226750 a.u.     6.97217 e.V.     56234.4 rcm     |
  +=========================================================================+

      Total energy of excited state:    -491.1661454735

   +-----------------+-----------------+-----------------+-----------------+
   | operator        | expect. value   | electr. contrib.| diff to gr.st.  |
   +-----------------+-----------------+-----------------+-----------------+
   | xdiplen (unrel) |      5.00431502 |     93.07319491 |      1.33002727 |
   | xdiplen (relax) |      4.39494793 |     92.46382782 |       ---       |
   | ydiplen (unrel) |     -0.00151084 |     -0.00152020 |     -0.00142833 |
   | ydiplen (relax) |     -0.00134512 |     -0.00135448 |       ---       |
   | zdiplen (unrel) |      0.20704311 |      2.08689065 |     -0.03147448 |
   | zdiplen (relax) |      0.20903734 |      2.08888488 |       ---       |
   +-----------------+-----------------+-----------------+-----------------+


     Analysis of relaxed properties:
     ===============================


     dipole moment:
     --------------

     x      4.39494793
     y     -0.00134512
     z      0.20903734

     | dipole moment | =      4.39991656 a.u. =     11.18347131 debye
 


     Analysis of unrelaxed properties:
     =================================


     dipole moment:
     --------------

     x      5.00431502
     y     -0.00151084
     z      0.20704311

     | dipole moment | =      5.00859641 a.u. =     12.73058103 debye
 

 +---------------------------------+-----------------+
 |   Nonequilibrium solvation      |                 |
 +---------------------------------+-----------------+
 |   E_x_(y) is the total free energy of target      |
 |   state x in the reaction field (RF)              |
 |   equilibrated for state y                        |
 +---------------------------------+-----------------+
 | E_x_(y)                         |  -491.16691819  |
 | E_x_(y) (+OCC)                  |  -491.16747794  |
 | Outlying charge correction(OCC) |    -0.00055974  |
 | E_SCF with RF of state y        |  -489.41798618  |
 | E_corr (ground state)           |    -2.00438655  |
 | E_exci (ground to x state)      |     0.25622267  |
 | Correction for fast part of RF  |    -0.00082209  |
 | Correction for update of eq. RF |     0.00005396  |
 +---------------------------------+-----------------+


  +=========================================================================+
  |  Excited state reached by transition:                   model: ADC(2)   |
  |    number, symmetry, multiplicity:   13 a    1                          |
  |    frequency :   0.2563361136 a.u.     6.97526 e.V.     56259.3 rcm     |
  +=========================================================================+

      Total energy of excited state:    -491.1660320349

   +-----------------+-----------------+-----------------+-----------------+
   | operator        | expect. value   | electr. contrib.| diff to gr.st.  |
   +-----------------+-----------------+-----------------+-----------------+
   | xdiplen (unrel) |      4.16776744 |     92.23664733 |      0.49347968 |
   | xdiplen (relax) |      3.68794766 |     91.75682755 |       ---       |
   | ydiplen (unrel) |     -0.00031129 |     -0.00032065 |     -0.00022878 |
   | ydiplen (relax) |     -0.00020057 |     -0.00020993 |       ---       |
   | zdiplen (unrel) |      0.24238211 |      2.12222966 |      0.00386452 |
   | zdiplen (relax) |      0.24338374 |      2.12323129 |       ---       |
   +-----------------+-----------------+-----------------+-----------------+


     Analysis of relaxed properties:
     ===============================


     dipole moment:
     --------------

     x      3.68794766
     y     -0.00020057
     z      0.24338374

     | dipole moment | =      3.69596992 a.u. =      9.39421759 debye
 


     Analysis of unrelaxed properties:
     =================================


     dipole moment:
     --------------

     x      4.16776744
     y     -0.00031129
     z      0.24238211

     | dipole moment | =      4.17480953 a.u. =     10.61130637 debye
 

 +---------------------------------+-----------------+
 |   Nonequilibrium solvation      |                 |
 +---------------------------------+-----------------+
 |   E_x_(y) is the total free energy of target      |
 |   state x in the reaction field (RF)              |
 |   equilibrated for state y                        |
 +---------------------------------+-----------------+
 | E_x_(y)                         |  -491.16648236  |
 | E_x_(y) (+OCC)                  |  -491.16702658  |
 | Outlying charge correction(OCC) |    -0.00054422  |
 | E_SCF with RF of state y        |  -489.41798618  |
 | E_corr (ground state)           |    -2.00438655  |
 | E_exci (ground to x state)      |     0.25633611  |
 | Correction for fast part of RF  |    -0.00043789  |
 | Correction for update of eq. RF |    -0.00000785  |
 +---------------------------------+-----------------+


  +=========================================================================+
  |  Excited state reached by transition:                   model: ADC(2)   |
  |    number, symmetry, multiplicity:   14 a    1                          |
  |    frequency :   0.2707298320 a.u.     7.36693 e.V.     59418.3 rcm     |
  +=========================================================================+

      Total energy of excited state:    -491.1516383165

   +-----------------+-----------------+-----------------+-----------------+
   | operator        | expect. value   | electr. contrib.| diff to gr.st.  |
   +-----------------+-----------------+-----------------+-----------------+
   | xdiplen (unrel) |      3.39125386 |     91.46013375 |     -0.28303389 |
   | xdiplen (relax) |      3.11182214 |     91.18070203 |       ---       |
   | ydiplen (unrel) |     -0.00021652 |     -0.00022589 |     -0.00013402 |
   | ydiplen (relax) |     -0.00022453 |     -0.00023389 |       ---       |
   | zdiplen (unrel) |      0.17391952 |      2.05376706 |     -0.06459807 |
   | zdiplen (relax) |      0.17359694 |      2.05344448 |       ---       |
   +-----------------+-----------------+-----------------+-----------------+


     Analysis of relaxed properties:
     ===============================


     dipole moment:
     --------------

     x      3.11182214
     y     -0.00022453
     z      0.17359694

     | dipole moment | =      3.11666055 a.u. =      7.92176019 debye
 


     Analysis of unrelaxed properties:
     =================================


     dipole moment:
     --------------

     x      3.39125386
     y     -0.00021652
     z      0.17391952

     | dipole moment | =      3.39571065 a.u. =      8.63103473 debye
 

 +---------------------------------+-----------------+
 |   Nonequilibrium solvation      |                 |
 +---------------------------------+-----------------+
 |   E_x_(y) is the total free energy of target      |
 |   state x in the reaction field (RF)              |
 |   equilibrated for state y                        |
 +---------------------------------+-----------------+
 | E_x_(y)                         |  -491.15226435  |
 | E_x_(y) (+OCC)                  |  -491.15239819  |
 | Outlying charge correction(OCC) |    -0.00013383  |
 | E_SCF with RF of state y        |  -489.41798618  |
 | E_corr (ground state)           |    -2.00438655  |
 | E_exci (ground to x state)      |     0.27072983  |
 | Correction for fast part of RF  |    -0.00065488  |
 | Correction for update of eq. RF |     0.00003343  |
 +---------------------------------+-----------------+


  +=========================================================================+
  |  Excited state reached by transition:                   model: ADC(2)   |
  |    number, symmetry, multiplicity:   15 a    1                          |
  |    frequency :   0.2734540387 a.u.     7.44106 e.V.     60016.2 rcm     |
  +=========================================================================+

      Total energy of excited state:    -491.1489141098

   +-----------------+-----------------+-----------------+-----------------+
   | operator        | expect. value   | electr. contrib.| diff to gr.st.  |
   +-----------------+-----------------+-----------------+-----------------+
   | xdiplen (unrel) |      7.15106662 |     95.21994651 |      3.47677887 |
   | xdiplen (relax) |      6.44963122 |     94.51851112 |       ---       |
   | ydiplen (unrel) |      0.01614174 |      0.01613238 |      0.01622425 |
   | ydiplen (relax) |      0.01462378 |      0.01461441 |       ---       |
   | zdiplen (unrel) |      0.12508575 |      2.00493330 |     -0.11343184 |
   | zdiplen (relax) |      0.13449066 |      2.01433821 |       ---       |
   +-----------------+-----------------+-----------------+-----------------+


     Analysis of relaxed properties:
     ===============================


     dipole moment:
     --------------

     x      6.44963122
     y      0.01462378
     z      0.13449066

     | dipole moment | =      6.45104988 a.u. =     16.39693169 debye
 


     Analysis of unrelaxed properties:
     =================================


     dipole moment:
     --------------

     x      7.15106662
     y      0.01614174
     z      0.12508575

     | dipole moment | =      7.15217874 a.u. =     18.17902335 debye
 

 +---------------------------------+-----------------+
 |   Nonequilibrium solvation      |                 |
 +---------------------------------+-----------------+
 |   E_x_(y) is the total free energy of target      |
 |   state x in the reaction field (RF)              |
 |   equilibrated for state y                        |
 +---------------------------------+-----------------+
 | E_x_(y)                         |  -491.15176863  |
 | E_x_(y) (+OCC)                  |  -491.15328719  |
 | Outlying charge correction(OCC) |    -0.00151856  |
 | E_SCF with RF of state y        |  -489.41798618  |
 | E_corr (ground state)           |    -2.00438655  |
 | E_exci (ground to x state)      |     0.27345404  |
 | Correction for fast part of RF  |    -0.00311029  |
 | Correction for update of eq. RF |     0.00026035  |
 +---------------------------------+-----------------+
 Exporting excited state densities


 =============================================
 | SUMMARY OF RELAXED EXCITATIONS WITH COSMO |
 =============================================

 Explanation of the quantities below:

       E(diff)_x = E_x - E*_y
       E(exci)_x = E_x - E_gs

  E_x  : noneq.        energy of state x
  E*_y : eq.           energy of state y
  E_gs : noneq. or eq. energy of groundstate
  OCC  : outlying charge correction

 The * in column 'sym' marks the equilibrated state

 +=================================================================================+
 | sym | multi | state | COSMO-ADC(2) energy differences                           |
 |     |       |       +-----------------------------------------------------------+
 |     |       |       | E(Total)/au. |  E(diff)/eV  |  E(exci)/eV  |E(exc(OCC))/eV|
 +=================================================================================+
 |*a   |   1   |   0   | -491.4223727 |            - |            - |            - |
 +-----+-------+-------+--------------+--------------+--------------+--------------+
 | a   |   1   |   1   | -491.2851613 |      3.73371 |      3.73371 |      3.73372 |
 +-----+-------+-------+--------------+--------------+--------------+--------------+
 | a   |   1   |   2   | -491.2851865 |      3.73303 |      3.73303 |      3.72720 |
 +-----+-------+-------+--------------+--------------+--------------+--------------+
 | a   |   1   |   3   | -491.2565261 |      4.51292 |      4.51292 |      4.51239 |
 +-----+-------+-------+--------------+--------------+--------------+--------------+
 | a   |   1   |   4   | -491.2528841 |      4.61202 |      4.61202 |      4.61143 |
 +-----+-------+-------+--------------+--------------+--------------+--------------+
 | a   |   1   |   5   | -491.2272142 |      5.31053 |      5.31053 |      5.30789 |
 +-----+-------+-------+--------------+--------------+--------------+--------------+
 | a   |   1   |   6   | -491.2120234 |      5.72390 |      5.72390 |      5.70977 |
 +-----+-------+-------+--------------+--------------+--------------+--------------+
 | a   |   1   |   7   | -491.2093290 |      5.79721 |      5.79721 |      5.79642 |
 +-----+-------+-------+--------------+--------------+--------------+--------------+
 | a   |   1   |   8   | -491.2001057 |      6.04819 |      6.04819 |      6.04796 |
 +-----+-------+-------+--------------+--------------+--------------+--------------+
 | a   |   1   |   9   | -491.1872208 |      6.39881 |      6.39881 |      6.38851 |
 +-----+-------+-------+--------------+--------------+--------------+--------------+
 | a   |   1   |  10   | -491.1810401 |      6.56699 |      6.56699 |      6.50912 |
 +-----+-------+-------+--------------+--------------+--------------+--------------+
 | a   |   1   |  11   | -491.1685515 |      6.90683 |      6.90683 |      6.90518 |
 +-----+-------+-------+--------------+--------------+--------------+--------------+
 | a   |   1   |  12   | -491.1669182 |      6.95127 |      6.95127 |      6.94204 |
 +-----+-------+-------+--------------+--------------+--------------+--------------+
 | a   |   1   |  13   | -491.1664824 |      6.96313 |      6.96313 |      6.95432 |
 +-----+-------+-------+--------------+--------------+--------------+--------------+
 | a   |   1   |  14   | -491.1522644 |      7.35002 |      7.35002 |      7.35238 |
 +-----+-------+-------+--------------+--------------+--------------+--------------+
 | a   |   1   |  15   | -491.1517686 |      7.36351 |      7.36351 |      7.32819 |
 +=================================================================================+



    ------------------------------------------------------------------------
         total  cpu-time : 21 hours  6 minutes and 28 seconds
         total wall-time : 23 hours  9 minutes and 21 seconds
    ------------------------------------------------------------------------


   ****  ricc2 : all done  ****


    2023-03-30 06:19:56.856 

