 hostname is         dlt08.abaxnet
 this is node-proc. number 0 running on node dlt08.abaxnet
 the total number of node-proc. spawned is   1

 ricc2 (dlt08.abaxnet) : TURBOMOLE V6.6( 19125 ) 27 May 2014 at 14:24:19
 Copyright (C) 2014 TURBOMOLE GmbH, Karlsruhe


    2023-04-03 21:59:07.222 



                              R I C C 2 - PROGRAM

                          the quantum chemistry groups
                             at the universities in
                           Karlsruhe, Bochum & Mainz
                                   Germany



   *-----------------------------------------------------------------------*
   |                     program will use  1 thread(s)                     |
   *-----------------------------------------------------------------------*


              +--------------------------------------------------+
              | Atomic coordinate, charge and isotop information |
              +--------------------------------------------------+

                    atomic coordinates            atom    charge  isotop
         -1.25903854   -2.28197016   -0.03015612    c      6.000     0
         -2.55472338   -0.00000083   -0.02879221    c      6.000     0
         -1.25904288    2.28196695   -0.03016999    c      6.000     0
          1.33397593    2.28282469   -0.03272265    c      6.000     0
          2.68642343    0.00000329   -0.03279418    c      6.000     0
          1.33397780   -2.28282267   -0.03270652    c      6.000     0
         -2.30058495   -4.03537191   -0.02713902    h      1.000     0
         -2.30059039    4.03536858   -0.02716440    h      1.000     0
          2.35274324    4.05547592   -0.03591469    h      1.000     0
          2.35275259   -4.05546984   -0.03588303    h      1.000     0
         -5.27845951   -0.00000053   -0.02253990    n      7.000     0
         -6.37968780    2.02722128   -0.01988302    o      8.000     0
         -6.37969227   -2.02722011   -0.01992307    o      8.000     0
          5.25161265   -0.00000032   -0.08820951    n      7.000     0
          6.20017073    1.61336629    0.23199721    h      1.000     0
          6.20016334   -1.61337062    0.23200112    h      1.000     0
 
       center of nuclear mass  :   -1.36491958    0.00000015   -0.02966624
       center of nuclear charge:   -1.22317889    0.00000013   -0.02610899

              +--------------------------------------------------+
              |               basis set information              |
              +--------------------------------------------------+

              we will work with the 1s 3p 5d 7f 9g ... basis set
              ...i.e. with spherical basis functions...

   type   atoms  prim   cont   basis
   ---------------------------------------------------------------------------
    c        6     52     37   def2-TZVPD   [6s3p3d1f|12s6p3d1f]
    h        6     11      9   def2-TZVPD   [3s2p|5s2p]
    n        2     52     37   def2-TZVPD   [6s3p3d1f|12s6p3d1f]
    o        2     55     40   def2-TZVPD   [6s4p3d1f|12s7p3d1f]
   ---------------------------------------------------------------------------
   total:   16    592    430
   ---------------------------------------------------------------------------

   total number of primitive shells          :   74
   total number of contracted shells         :  162
   total number of cartesian basis functions :  490
   total number of SCF-basis functions       :  430



   =========================================================================


     restricted closed shell calculation for the wavefunction models:
               ADC(2)     - Algebraic Diagrammatic Construction to 2. Order (strict)


     global parameters for ricc2 program:

        hard restart (reuse of interm.) :  enabled 
        soft restart (reuse of vectors) :  disabled
        threshold for vector function   :    0.100000E-06
        convergence threshold energy    :    0.100000E-07
        linear dependence threshold     :    0.100000E-13
        global print level              :      1
        maximum number of iterations    :   500
        maximum number DIIS vectors     :    10
        max. dim. of reduced space      :   100
        core memory limit (MB)          :   500
        disk space limit (MB)           :   none


   =========================================================================
     "cartesian on" in $drvopt is ignored by $ricc2

    der. integral neglect threshold  :  0.10E-08
    integral neglect threshold       :  0.68E-12
    integral storage threshold THIZE :  0.10E-04
    integral storage threshold THIME :         5


                  +------------------------------------------+
                  |     Auxiliary basis set information      |
                  +------------------------------------------+

              we will work with the 1s 3p 5d 7f 9g ... basis set
              ...i.e. with spherical basis functions...

   type   atoms  prim   cont   basis
   ---------------------------------------------------------------------------
    c        6     97     92   def2-TZVPD   [9s7p5d4f1g|9s7p6d4f1g]
    h        6     32     24   def2-TZVPD   [5s3p2d|5s4p3d]
    n        2     97     92   def2-TZVPD   [9s7p5d4f1g|9s7p6d4f1g]
    o        2     97     92   def2-TZVPD   [9s7p5d4f1g|9s7p6d4f1g]
   ---------------------------------------------------------------------------
   total:   16   1162   1064
   ---------------------------------------------------------------------------

   total number of primitive shells          :   93
   total number of contracted shells         :  320
   total number of cartesian basis functions : 1306
   total number of SCF-basis functions       : 1064


 symmetry group of the molecule :   c1 

 the group has the following generators :
   c1(z)

    1 symmetry operations found

 there are 1 real representations :   a   

 maximum number of shells which are related by symmetry :  1


 The symmetry information takes   1 MB

*---------------------------------------------------------------------*
|               simplified C1 algorithm will be applied               |
*---------------------------------------------------------------------*
 ==============================================================================
                      COSMO switched on
 ==============================================================================
            ======================================================
                      COSMO settings in RICC2
                   --------------------------
             Solvent charges are equilibrated for ground state
             "cycle" indicates frozen COSMO charges,
             hence no COSMO CPHF contribution included
             COSMO linear response (LR) contribution included
             Outlying Charge Correction (OCC) is performed
             Using epsilon          =     6.253
             Using refractive index =     1.300
            ======================================================
        IMPORTANT NOTICE: The calculation of the solvent contributions will
         need the relaxed densities in general. Therefore the actual COSMO
         energies will be output only at the end of the run. Any energies
         or excitation energies quoted before that are only intermediate
         quantities and should be ignored unless you know what you are doing!

  MOs are in ASCII format !


 reading orbital data $scfmo  from file mos . 

 orbital characterization : scfconv=7
 

         --------------------------------------------------------------
                   checking mo's by calculating trace(D*S)

              number of electrons : 
                 from trace(D*S)         :   71.999999999994
                 from occupation numbers :   72.000000000000

              molecular charge           :    0.000000000000
         --------------------------------------------------------------

 time elapsed for calculating density matrices :   0.019 sec
 all orbitals will be active in the correlation treatment

  ----------------------------------------------------------------------------
  hard_restart flag is disabled because the check sum for the
  molecular orbitals "$chkmos" differs from the reference value:
  reference value:     4986246.77237028    
  computed value :     4986246.77229986    
  relative error :    0.141234260992357E-10
  tolerance      :    0.100000000000000E-11
  the calculation will proceed...
  ----------------------------------------------------------------------------


   Molecular Orbital Statistic:
   ============================

   -----------------------------
   orbitals in total:
   -----------------------------
    frozen occupied :      0
    active occupied :     36
    active virtual  :    394
    frozen virtual  :      0
    all together    :    430
   -----------------------------


     time in riccmos       cpu:  0.18 sec    wall:  0.32 sec    ratio:  0.6

     total memory allocated for calculation of (Q|P)**(-1/2) : 13 MiB


     calculation of (P|Q) ...
     time in lp2sym        cpu:  0.03 sec    wall:  0.03 sec    ratio:  1.0


     calculation of the Cholesky decomposition of (P|Q)**(-1) ...
     time in invmetri      cpu:  0.20 sec    wall:  0.28 sec    ratio:  0.7

   threshold for RMS(d[D]) in SCF was     :  0.10E-07
   integral neglect threshold             :  0.68E-12
   derivative integral neglect threshold  :  0.10E-08


 setting up bound for integral derivative estimation

 increment for numerical differentiation : 0.00050000

   =========================================================================

     Energy of reference wave function is  -489.4179166730000
     Maximum orbital residual is           0.1421442644934E-04


     Number of symmetry-nonredundant auxiliary basis functions:     1064

     Block lengths for integral files:
        frozen occupied (BOI):        0 MiB
        active occupied (BJI):        1 MiB
        active virtual  (BAI):        4 MiB
        frozen virtual  (BGI):        0 MiB
               general  (BTI):        4 MiB

   =========================================================================




   **************************************************************************
   *                                                                        *
   *          OPTIMIZATION OF THE GROUND STATE CLUSTER AMPLITUDES           *
   *                                                                        *
   **************************************************************************


   Iter.   MP2 energy       Norm(Omega)    Norm(t1)  Norm(t2)     cpu    wall
   ...........................................................................
    1   -491.4223730722    0.1616167727     0.00000   0.44534    1.27    1.39
   ...........................................................................


     time in total         cpu:  1 min 16 s  wall:  1 min 24 s  ratio:  0.9


     **********************************************************************
     *                                                                    *
     *   RHF  energy                             :   -489.4179166730      *
     *   MP2 correlation energy                  :     -2.0044563992      *
     *                                                                    *
     *   Final MP2 energy                        :   -491.4223730722      *
     *                                                                    *
     *   Norm of MP1 T2 amplitudes               :      0.4453425146      *
     *                                                                    *
     *   D1 diagnostic                           :      0.0589            *
     *                                                                    *
     **********************************************************************

 Using refractive index n                   =    1.30000000000000     
 Screening function (n**2-1)/(n**2+0.5)     =   0.315068493150685     


 **************************************************************
 *                                                            *
 *    OPTIMIZATION OF THE EXCITED STATE CLUSTER AMPLITUDES    *
 *                                                            *
 **************************************************************


  preoptimize excitation energies/vectors using CCS:

  ==================================================


 ======== LINEAR CC RESPONSE SOLVER ========

    threshold for convergence: 0.10E-02
    maximum number of simultaneous jacoby matrix transformations: 15
                                                
     summary of start vectors generation:
     -------------------------------------------
     type of solution vectors      : RE0
     symmetry                      : a  
     number of vectors requested   :    15
     number of vectors generated   :    15
       -- guessed as rhs/(e_a-e_i) :    15
     -------------------------------------------
                                                

    Iter  #Vectors  time (min)    max. residual 
    --------------------------------------------
 COSMO cphf update
 COSMO cphf update
 COSMO cphf update
 COSMO cphf update
 COSMO cphf update
 COSMO cphf update
 COSMO cphf update
 COSMO cphf update
 COSMO cphf update
 COSMO cphf update
 COSMO cphf update
 COSMO cphf update
 COSMO cphf update
 COSMO cphf update
 COSMO cphf update
      1      15         3.15     0.14E+00  (  1)
 COSMO cphf update
 COSMO cphf update
 COSMO cphf update
 COSMO cphf update
 COSMO cphf update
 COSMO cphf update
 COSMO cphf update
 COSMO cphf update
 COSMO cphf update
 COSMO cphf update
 COSMO cphf update
 COSMO cphf update
 COSMO cphf update
 COSMO cphf update
 COSMO cphf update
      2      15         3.23     0.56E-01  (  9)
 COSMO cphf update
 COSMO cphf update
 COSMO cphf update
 COSMO cphf update
 COSMO cphf update
 COSMO cphf update
 COSMO cphf update
 COSMO cphf update
 COSMO cphf update
 COSMO cphf update
 COSMO cphf update
 COSMO cphf update
 COSMO cphf update
 COSMO cphf update
 COSMO cphf update
      3      15         3.15     0.75E-01  (  7)
 COSMO cphf update
 COSMO cphf update
 COSMO cphf update
 COSMO cphf update
 COSMO cphf update
 COSMO cphf update
 COSMO cphf update
 COSMO cphf update
 COSMO cphf update
 COSMO cphf update
 COSMO cphf update
 COSMO cphf update
 COSMO cphf update
 COSMO cphf update
 COSMO cphf update
      4      15         3.18     0.15E+00  ( 13)
 COSMO cphf update
 COSMO cphf update
 COSMO cphf update
 COSMO cphf update
 COSMO cphf update
 COSMO cphf update
 COSMO cphf update
 COSMO cphf update
 COSMO cphf update
 COSMO cphf update
 COSMO cphf update
 COSMO cphf update
 COSMO cphf update
 COSMO cphf update
 COSMO cphf update
      5      15         3.21     0.16E+00  (  4)
 COSMO cphf update
 COSMO cphf update
 COSMO cphf update
 COSMO cphf update
 COSMO cphf update
 COSMO cphf update
 COSMO cphf update
 COSMO cphf update
 COSMO cphf update
 COSMO cphf update
 COSMO cphf update
 COSMO cphf update
 COSMO cphf update
 COSMO cphf update
 COSMO cphf update
  dimension of red. space became too large.
  try internal restart...
      6      15         3.13     0.88E-01  (  2)
                                                
     summary of start vectors generation:
     -------------------------------------------
     type of solution vectors      : RE0
     symmetry                      : a  
     number of vectors requested   :    15
     number of vectors generated   :    15
       -- restarted from file      :    15
     -------------------------------------------
                                                

    Iter  #Vectors  time (min)    max. residual 
    --------------------------------------------
 COSMO cphf update
 COSMO cphf update
 COSMO cphf update
 COSMO cphf update
 COSMO cphf update
 COSMO cphf update
 COSMO cphf update
 COSMO cphf update
 COSMO cphf update
 COSMO cphf update
 COSMO cphf update
 COSMO cphf update
 COSMO cphf update
 COSMO cphf update
 COSMO cphf update
      7      15         3.13     0.88E-01  (  2)
 COSMO cphf update
 COSMO cphf update
 COSMO cphf update
 COSMO cphf update
 COSMO cphf update
 COSMO cphf update
 COSMO cphf update
 COSMO cphf update
 COSMO cphf update
 COSMO cphf update
 COSMO cphf update
 COSMO cphf update
 COSMO cphf update
      8      13         2.77     0.30E-01  (  2)
 COSMO cphf update
 COSMO cphf update
 COSMO cphf update
 COSMO cphf update
 COSMO cphf update
 COSMO cphf update
 COSMO cphf update
 COSMO cphf update
 COSMO cphf update
 COSMO cphf update
      9      10         2.18     0.72E-02  (  2)
 COSMO cphf update
 COSMO cphf update
 COSMO cphf update
 COSMO cphf update
 COSMO cphf update
     10       5         1.11     0.25E-02  ( 13)
 COSMO cphf update
 COSMO cphf update
 COSMO cphf update
 COSMO cphf update
     11       4         0.90     0.10E-02  ( 13)
 COSMO cphf update
     12       1         0.35     0.75E-03  (  2)
    --------------------------------------------
    converged in 12 iterations

         Total time         29.50 minutes


 ===========================================




 Note that this is the intermediate result of a preoptimization!
 The convergence threshold was  0.1E-02 only!
 COSMO: note that the excitation energies below do not include
        the nonequilibrium contributions yet. These require the
        computation of the relaxed densities. See end of output
        for a final list of corrected excitations.


 +==================================================================+
 | sym | multi | state |          CCS excitation energies           |
 |     |       |       +--------------------------------------------+
 |     |       |       |   Hartree    |     eV       |     cm-1     |
 +==================================================================+
 | a   |   1   |   1   |    0.1841668 |      5.01143 |    40419.930 |
 | a   |   1   |   2   |    0.1959720 |      5.33267 |    43010.885 |
 | a   |   1   |   3   |    0.2050091 |      5.57858 |    44994.292 |
 | a   |   1   |   4   |    0.2108311 |      5.73701 |    46272.083 |
 | a   |   1   |   5   |    0.2299997 |      6.25861 |    50479.093 |
 | a   |   1   |   6   |    0.2473686 |      6.73124 |    54291.136 |
 | a   |   1   |   7   |    0.2580847 |      7.02284 |    56643.050 |
 | a   |   1   |   8   |    0.2596666 |      7.06589 |    56990.225 |
 | a   |   1   |   9   |    0.2621073 |      7.13230 |    57525.910 |
 | a   |   1   |  10   |    0.2662197 |      7.24421 |    58428.479 |
 | a   |   1   |  11   |    0.2795761 |      7.60765 |    61359.860 |
 | a   |   1   |  12   |    0.2831018 |      7.70359 |    62133.666 |
 | a   |   1   |  13   |    0.2861687 |      7.78705 |    62806.765 |
 | a   |   1   |  14   |    0.2973824 |      8.09219 |    65267.892 |
 | a   |   1   |  15   |    0.2975914 |      8.09787 |    65313.757 |
 +==================================================================+




  preoptimize ADC(2) excitation energies/vectors using a quasi linear algorithm:
  ==============================================================================


 ======== LINEAR CC RESPONSE SOLVER ========

    threshold for convergence: 0.10E-02
    maximum number of simultaneous jacoby matrix transformations: 15
                                                
     summary of start vectors generation:
     -------------------------------------------
     type of solution vectors      : RE0
     symmetry                      : a  
     number of vectors requested   :    15
     number of vectors generated   :    15
       -- restarted from file      :    15
     -------------------------------------------
                                                

    Iter  #Vectors  time (min)    max. residual 
    --------------------------------------------
 COSMO cphf update
 COSMO cphf update
 COSMO cphf update
 COSMO cphf update
 COSMO cphf update
 COSMO cphf update
 COSMO cphf update
 COSMO cphf update
 COSMO cphf update
 COSMO cphf update
 COSMO cphf update
 COSMO cphf update
 COSMO cphf update
 COSMO cphf update
 COSMO cphf update
 COSMO cphf update
 COSMO cphf update
 COSMO cphf update
 COSMO cphf update
 COSMO cphf update
 COSMO cphf update
 COSMO cphf update
 COSMO cphf update
 COSMO cphf update
 COSMO cphf update
 COSMO cphf update
 COSMO cphf update
 COSMO cphf update
 COSMO cphf update
 COSMO cphf update
 threshold for this macro iteration:  5.060798851927767E-002
      1      15        27.05     0.93E-01  (  1)
 COSMO cphf update
 COSMO cphf update
 COSMO cphf update
 COSMO cphf update
 COSMO cphf update
 COSMO cphf update
 COSMO cphf update
 COSMO cphf update
 COSMO cphf update
 COSMO cphf update
 COSMO cphf update
 COSMO cphf update
 COSMO cphf update
 COSMO cphf update
 COSMO cphf update
 COSMO cphf update
 ...adapted threshold to:  5.966938552245679E-002
      2       8        14.42     0.40E-01  ( 12)
                                                
     summary of start vectors generation:
     -------------------------------------------
     type of solution vectors      : RE0
     symmetry                      : a  
     number of vectors requested   :    15
     number of vectors generated   :    15
       -- restarted from file      :    15
     -------------------------------------------
                                                

    Iter  #Vectors  time (min)    max. residual 
    --------------------------------------------
 COSMO cphf update
 COSMO cphf update
 COSMO cphf update
 COSMO cphf update
 COSMO cphf update
 COSMO cphf update
 COSMO cphf update
 COSMO cphf update
 COSMO cphf update
 COSMO cphf update
 COSMO cphf update
 COSMO cphf update
 COSMO cphf update
 COSMO cphf update
 COSMO cphf update
 COSMO cphf update
 COSMO cphf update
 COSMO cphf update
 COSMO cphf update
 COSMO cphf update
 COSMO cphf update
 COSMO cphf update
 COSMO cphf update
 COSMO cphf update
 COSMO cphf update
 COSMO cphf update
 COSMO cphf update
 COSMO cphf update
 COSMO cphf update
 COSMO cphf update
 threshold for this macro iteration:  6.842334843476655E-003
      3      15        27.14     0.40E-01  ( 12)
 COSMO cphf update
 COSMO cphf update
 COSMO cphf update
 COSMO cphf update
 COSMO cphf update
 COSMO cphf update
 COSMO cphf update
 COSMO cphf update
 COSMO cphf update
 COSMO cphf update
 COSMO cphf update
 COSMO cphf update
 COSMO cphf update
 COSMO cphf update
 COSMO cphf update
 COSMO cphf update
 COSMO cphf update
 COSMO cphf update
 COSMO cphf update
 COSMO cphf update
 COSMO cphf update
 COSMO cphf update
 COSMO cphf update
 COSMO cphf update
 COSMO cphf update
 COSMO cphf update
 COSMO cphf update
 COSMO cphf update
 COSMO cphf update
 COSMO cphf update
      4      15        27.10     0.15E-01  ( 11)
 COSMO cphf update
 COSMO cphf update
 COSMO cphf update
 COSMO cphf update
 COSMO cphf update
 COSMO cphf update
 COSMO cphf update
 COSMO cphf update
 COSMO cphf update
 COSMO cphf update
 COSMO cphf update
 COSMO cphf update
 COSMO cphf update
 COSMO cphf update
 COSMO cphf update
 COSMO cphf update
 COSMO cphf update
 COSMO cphf update
 COSMO cphf update
 COSMO cphf update
 COSMO cphf update
 COSMO cphf update
 COSMO cphf update
 COSMO cphf update
 COSMO cphf update
 COSMO cphf update
 COSMO cphf update
 COSMO cphf update
      5      14        25.33     0.12E-01  ( 15)
 COSMO cphf update
 COSMO cphf update
 COSMO cphf update
 COSMO cphf update
      6       2         3.97     0.11E-01  ( 14)
 COSMO cphf update
 COSMO cphf update
      7       1         2.28     0.17E-01  ( 14)
 COSMO cphf update
 COSMO cphf update
      8       1         2.30     0.22E-01  ( 14)
 COSMO cphf update
 COSMO cphf update
      9       1         2.29     0.11E-01  ( 14)
 COSMO cphf update
 COSMO cphf update
     10       1         2.28     0.78E-02  ( 13)
 COSMO cphf update
 COSMO cphf update
     11       1         2.28     0.67E-02  ( 15)
                                                
     summary of start vectors generation:
     -------------------------------------------
     type of solution vectors      : RE0
     symmetry                      : a  
     number of vectors requested   :    15
     number of vectors generated   :    15
       -- restarted from file      :    15
     -------------------------------------------
                                                

    Iter  #Vectors  time (min)    max. residual 
    --------------------------------------------
 COSMO cphf update
 COSMO cphf update
 COSMO cphf update
 COSMO cphf update
 COSMO cphf update
 COSMO cphf update
 COSMO cphf update
 COSMO cphf update
 COSMO cphf update
 COSMO cphf update
 COSMO cphf update
 COSMO cphf update
 COSMO cphf update
 COSMO cphf update
 COSMO cphf update
 COSMO cphf update
 COSMO cphf update
 COSMO cphf update
 COSMO cphf update
 COSMO cphf update
 COSMO cphf update
 COSMO cphf update
 COSMO cphf update
 COSMO cphf update
 COSMO cphf update
 COSMO cphf update
 COSMO cphf update
 COSMO cphf update
 COSMO cphf update
 COSMO cphf update
 threshold for this macro iteration:  1.407932464925360E-002
     12      15        27.30     0.75E-02  ( 11)
                                                
     summary of start vectors generation:
     -------------------------------------------
     type of solution vectors      : RE0
     symmetry                      : a  
     number of vectors requested   :    15
     number of vectors generated   :    15
       -- restarted from file      :    15
     -------------------------------------------
                                                

    Iter  #Vectors  time (min)    max. residual 
    --------------------------------------------
 COSMO cphf update
 COSMO cphf update
 COSMO cphf update
 COSMO cphf update
 COSMO cphf update
 COSMO cphf update
 COSMO cphf update
 COSMO cphf update
 COSMO cphf update
 COSMO cphf update
 COSMO cphf update
 COSMO cphf update
 COSMO cphf update
 COSMO cphf update
 COSMO cphf update
 COSMO cphf update
 COSMO cphf update
 COSMO cphf update
 COSMO cphf update
 COSMO cphf update
 COSMO cphf update
 COSMO cphf update
 COSMO cphf update
 COSMO cphf update
 COSMO cphf update
 COSMO cphf update
 COSMO cphf update
 COSMO cphf update
 COSMO cphf update
 COSMO cphf update
 dabs(Rj-Ri):           1          11  0.118728466970973     
 dabs(Ij+Ii):           1          11  5.456598181111545E-004
 dabs(Rj-Ri):           2          11  0.115280414846206     
 dabs(Ij+Ii):           2          11  5.456598181111545E-004
 dabs(Rj-Ri):           3          11  8.998800955594735E-002
 dabs(Ij+Ii):           3          11  5.456598181111545E-004
 dabs(Rj-Ri):           4          11  8.657582383471751E-002
 dabs(Ij+Ii):           4          11  5.456598181111545E-004
 dabs(Rj-Ri):           5          11  5.995601955812652E-002
 dabs(Ij+Ii):           5          11  5.456598181111545E-004
 dabs(Rj-Ri):           6          11  4.514168730634607E-002
 dabs(Ij+Ii):           6          11  5.456598181111545E-004
 dabs(Rj-Ri):           7          11  4.319786130905057E-002
 dabs(Ij+Ii):           7          11  5.456598181111545E-004
 dabs(Rj-Ri):           8          11  3.301059943212947E-002
 dabs(Ij+Ii):           8          11  5.456598181111545E-004
 dabs(Rj-Ri):           9          11  1.987806728358252E-002
 dabs(Ij+Ii):           9          11  5.456598181111545E-004
 dabs(Rj-Ri):          10          11  1.245211844190472E-002
 dabs(Ij+Ii):          10          11  5.456598181111545E-004
 dabs(Rj-Ri):          12          11  0.000000000000000E+000
 dabs(Ij+Ii):          12          11  0.000000000000000E+000
 dabs(Rj-Ri):          13          11  5.505780038583818E-005
 dabs(Ij+Ii):          13          11  5.456598181111545E-004
 dabs(Rj-Ri):          14          11  1.446304395747150E-002
 dabs(Ij+Ii):          14          11  5.456598181111545E-004
 dabs(Rj-Ri):          15          11  1.716473829500498E-002
 dabs(Ij+Ii):          15          11  5.456598181111545E-004
 overlap matrix for complex pair:

              1             2
 
    1     0.01665428    0.02716156
    2     0.02716156    0.27174678
 real eigenvalues of metric:

              1
 
    1     0.01379426
    2     0.27460680
 eigenvectors of metric:

              1             2
 
    1     0.99450198    0.10471780
    2    -0.10471780    0.99450198
 inverse square root of overlap matrix:

              1             2
 
    1     8.44189634   -0.68796738
    2    -0.68796738    1.98073064
 recalculated overlap matrix for complex pair:

              1             2
 
    1     1.00000000    0.00000000
    2     0.00000000    1.00000000
 dabs(Rj-Ri):           1          12  0.118728466970973     
 dabs(Ij+Ii):           1          12  5.456598181111545E-004
 dabs(Rj-Ri):           2          12  0.115280414846206     
 dabs(Ij+Ii):           2          12  5.456598181111545E-004
 dabs(Rj-Ri):           3          12  8.998800955594735E-002
 dabs(Ij+Ii):           3          12  5.456598181111545E-004
 dabs(Rj-Ri):           4          12  8.657582383471751E-002
 dabs(Ij+Ii):           4          12  5.456598181111545E-004
 dabs(Rj-Ri):           5          12  5.995601955812652E-002
 dabs(Ij+Ii):           5          12  5.456598181111545E-004
 dabs(Rj-Ri):           6          12  4.514168730634607E-002
 dabs(Ij+Ii):           6          12  5.456598181111545E-004
 dabs(Rj-Ri):           7          12  4.319786130905057E-002
 dabs(Ij+Ii):           7          12  5.456598181111545E-004
 dabs(Rj-Ri):           8          12  3.301059943212947E-002
 dabs(Ij+Ii):           8          12  5.456598181111545E-004
 dabs(Rj-Ri):           9          12  1.987806728358252E-002
 dabs(Ij+Ii):           9          12  5.456598181111545E-004
 dabs(Rj-Ri):          10          12  1.245211844190472E-002
 dabs(Ij+Ii):          10          12  5.456598181111545E-004
 dabs(Rj-Ri):          11          12  0.000000000000000E+000
 dabs(Ij+Ii):          11          12  0.000000000000000E+000
 dabs(Rj-Ri):          13          12  5.505780038583818E-005
 dabs(Ij+Ii):          13          12  5.456598181111545E-004
 dabs(Rj-Ri):          14          12  1.446304395747150E-002
 dabs(Ij+Ii):          14          12  5.456598181111545E-004
 dabs(Rj-Ri):          15          12  1.716473829500498E-002
 dabs(Ij+Ii):          15          12  5.456598181111545E-004
 overlap matrix for complex pair:

              1             2
 
    1     1.00000000    0.00000000
    2     0.00000000    1.00000000
 real eigenvalues of metric:

              1
 
    1     1.00000000
    2     1.00000000
 eigenvectors of metric:

              1             2
 
    1     0.99997718    0.00675630
    2    -0.00675630    0.99997718
 inverse square root of overlap matrix:

              1             2
 
    1     1.00000000   -0.00000000
    2    -0.00000000    1.00000000
 recalculated overlap matrix for complex pair:

              1             2
 
    1     1.00000000    0.00000000
    2     0.00000000    1.00000000
 warning> found low lying complex root...
 eigenvalues (imaginary parts) in redeig:

              1
 
    1     0.00000000
    2     0.00000000
    3     0.00000000
    4     0.00000000
    5     0.00000000
    6     0.00000000
    7     0.00000000
    8     0.00000000
    9     0.00000000
   10     0.00000000
   11    -0.00054566
   12     0.00054566
   13     0.00000000
   14     0.00000000
   15     0.00000000
 eigenvalues (real parts) in redeig:

              1
 
    1     0.13759188
    2     0.14103993
    3     0.16633234
    4     0.16974452
    5     0.19636433
    6     0.21117866
    7     0.21312249
    8     0.22330975
    9     0.23644228
   10     0.24386823
   11     0.25632035
   12     0.25632035
   13     0.25637540
   14     0.27078339
   15     0.27348509
 threshold for this macro iteration:  2.452570490882544E-003
     13      15        27.11     0.54E-02  ( 11)
 COSMO cphf update
 COSMO cphf update
 dabs(Rj-Ri):           1          11  0.118574663360944     
 dabs(Ij+Ii):           1          11  5.462386533123212E-004
 dabs(Rj-Ri):           2          11  0.115126645257853     
 dabs(Ij+Ii):           2          11  5.462386533123212E-004
 dabs(Rj-Ri):           3          11  8.983420727850447E-002
 dabs(Ij+Ii):           3          11  5.462386533123212E-004
 dabs(Rj-Ri):           4          11  8.642202024419623E-002
 dabs(Ij+Ii):           4          11  5.462386533123212E-004
 dabs(Rj-Ri):           5          11  5.980221594941407E-002
 dabs(Ij+Ii):           5          11  5.462386533123212E-004
 dabs(Rj-Ri):           6          11  4.498788957371994E-002
 dabs(Ij+Ii):           6          11  5.462386533123212E-004
 dabs(Rj-Ri):           7          11  4.304405770275876E-002
 dabs(Ij+Ii):           7          11  5.462386533123212E-004
 dabs(Rj-Ri):           8          11  3.285686017329034E-002
 dabs(Ij+Ii):           8          11  5.462386533123212E-004
 dabs(Rj-Ri):           9          11  1.972423605002510E-002
 dabs(Ij+Ii):           9          11  5.462386533123212E-004
 dabs(Rj-Ri):          10          11  1.229831483144028E-002
 dabs(Ij+Ii):          10          11  5.462386533123212E-004
 dabs(Rj-Ri):          12          11  0.000000000000000E+000
 dabs(Ij+Ii):          12          11  0.000000000000000E+000
 dabs(Rj-Ri):          13          11  2.097738874973221E-004
 dabs(Ij+Ii):          13          11  5.462386533123212E-004
 dabs(Rj-Ri):          14          11  1.461684758094967E-002
 dabs(Ij+Ii):          14          11  5.462386533123212E-004
 dabs(Rj-Ri):          15          11  1.731854171529695E-002
 dabs(Ij+Ii):          15          11  5.462386533123212E-004
 dabs(Rj-Ri):          16          11  6.878543819914201E-002
 dabs(Ij+Ii):          16          11  5.462386533123212E-004
 overlap matrix for complex pair:

              1             2
 
    1     0.29802033    0.03640984
    2     0.03640984    0.01875366
 real eigenvalues of metric:

              1
 
    1     0.30268926
    2     0.01408473
 eigenvectors of metric:

              1             2
 
    1     0.99187821   -0.12719124
    2     0.12719124    0.99187821
 inverse square root of overlap matrix:

              1             2
 
    1     1.92452259   -0.83371298
    2    -0.83371298    8.31917509
 recalculated overlap matrix for complex pair:

              1             2
 
    1     1.00000000   -0.00000000
    2    -0.00000000    1.00000000
 dabs(Rj-Ri):           1          12  0.118574663360944     
 dabs(Ij+Ii):           1          12  5.462386533123212E-004
 dabs(Rj-Ri):           2          12  0.115126645257853     
 dabs(Ij+Ii):           2          12  5.462386533123212E-004
 dabs(Rj-Ri):           3          12  8.983420727850447E-002
 dabs(Ij+Ii):           3          12  5.462386533123212E-004
 dabs(Rj-Ri):           4          12  8.642202024419623E-002
 dabs(Ij+Ii):           4          12  5.462386533123212E-004
 dabs(Rj-Ri):           5          12  5.980221594941407E-002
 dabs(Ij+Ii):           5          12  5.462386533123212E-004
 dabs(Rj-Ri):           6          12  4.498788957371994E-002
 dabs(Ij+Ii):           6          12  5.462386533123212E-004
 dabs(Rj-Ri):           7          12  4.304405770275876E-002
 dabs(Ij+Ii):           7          12  5.462386533123212E-004
 dabs(Rj-Ri):           8          12  3.285686017329034E-002
 dabs(Ij+Ii):           8          12  5.462386533123212E-004
 dabs(Rj-Ri):           9          12  1.972423605002510E-002
 dabs(Ij+Ii):           9          12  5.462386533123212E-004
 dabs(Rj-Ri):          10          12  1.229831483144028E-002
 dabs(Ij+Ii):          10          12  5.462386533123212E-004
 dabs(Rj-Ri):          11          12  0.000000000000000E+000
 dabs(Ij+Ii):          11          12  0.000000000000000E+000
 dabs(Rj-Ri):          13          12  2.097738874973221E-004
 dabs(Ij+Ii):          13          12  5.462386533123212E-004
 dabs(Rj-Ri):          14          12  1.461684758094967E-002
 dabs(Ij+Ii):          14          12  5.462386533123212E-004
 dabs(Rj-Ri):          15          12  1.731854171529695E-002
 dabs(Ij+Ii):          15          12  5.462386533123212E-004
 dabs(Rj-Ri):          16          12  6.878543819914201E-002
 dabs(Ij+Ii):          16          12  5.462386533123212E-004
 overlap matrix for complex pair:

              1             2
 
    1     1.00000000   -0.00000000
    2    -0.00000000    1.00000000
 real eigenvalues of metric:

              1
 
    1     1.00000000
    2     1.00000000
 eigenvectors of metric:

              1             2
 
    1     0.82681298    0.56247694
    2    -0.56247694    0.82681298
 inverse square root of overlap matrix:

              1             2
 
    1     1.00000000    0.00000000
    2     0.00000000    1.00000000
 recalculated overlap matrix for complex pair:

              1             2
 
    1     1.00000000   -0.00000000
    2     0.00000000    1.00000000
 warning> found low lying complex root...
 eigenvalues (imaginary parts) in redeig:

              1
 
    1     0.00000000
    2     0.00000000
    3     0.00000000
    4     0.00000000
    5     0.00000000
    6     0.00000000
    7     0.00000000
    8     0.00000000
    9     0.00000000
   10     0.00000000
   11    -0.00054624
   12     0.00054624
   13     0.00000000
   14     0.00000000
   15     0.00000000
   16     0.00000000
 eigenvalues (real parts) in redeig:

              1
 
    1     0.13759188
    2     0.14103990
    3     0.16633234
    4     0.16974452
    5     0.19636433
    6     0.21117865
    7     0.21312249
    8     0.22330968
    9     0.23644231
   10     0.24386823
   11     0.25616654
   12     0.25616654
   13     0.25637632
   14     0.27078339
   15     0.27348509
   16     0.32495198
     14       1         2.30     0.54E-02  ( 12)
 COSMO cphf update
 COSMO cphf update
 dabs(Rj-Ri):           1          11  0.118516279674322     
 dabs(Ij+Ii):           1          11  5.303439722722712E-004
 dabs(Rj-Ri):           2          11  0.115068314955126     
 dabs(Ij+Ii):           2          11  5.303439722722712E-004
 dabs(Rj-Ri):           3          11  8.977582460948272E-002
 dabs(Ij+Ii):           3          11  5.303439722722712E-004
 dabs(Rj-Ri):           4          11  8.636363658078156E-002
 dabs(Ij+Ii):           4          11  5.303439722722712E-004
 dabs(Rj-Ri):           5          11  5.974383226499613E-002
 dabs(Ij+Ii):           5          11  5.303439722722712E-004
 dabs(Rj-Ri):           6          11  4.492951217583263E-002
 dabs(Ij+Ii):           6          11  5.303439722722712E-004
 dabs(Rj-Ri):           7          11  4.298567402150316E-002
 dabs(Ij+Ii):           7          11  5.303439722722712E-004
 dabs(Rj-Ri):           8          11  3.279847435400526E-002
 dabs(Ij+Ii):           8          11  5.303439722722712E-004
 dabs(Rj-Ri):           9          11  1.966579723417330E-002
 dabs(Ij+Ii):           9          11  5.303439722722712E-004
 dabs(Rj-Ri):          10          11  1.223993114310024E-002
 dabs(Ij+Ii):          10          11  5.303439722722712E-004
 dabs(Rj-Ri):          12          11  0.000000000000000E+000
 dabs(Ij+Ii):          12          11  0.000000000000000E+000
 dabs(Rj-Ri):          13          11  2.677973519981114E-004
 dabs(Ij+Ii):          13          11  5.303439722722712E-004
 dabs(Rj-Ri):          14          11  1.467523127648040E-002
 dabs(Ij+Ii):          14          11  5.303439722722712E-004
 dabs(Rj-Ri):          15          11  1.737692510552791E-002
 dabs(Ij+Ii):          15          11  5.303439722722712E-004
 dabs(Rj-Ri):          16          11  3.419666363959811E-002
 dabs(Ij+Ii):          16          11  5.303439722722712E-004
 dabs(Rj-Ri):          17          11  0.301815703974716     
 dabs(Ij+Ii):          17          11  5.303439722722712E-004
 overlap matrix for complex pair:

              1             2
 
    1     0.01136252   -0.00757132
    2    -0.00757132    0.27689132
 real eigenvalues of metric:

              1
 
    1     0.01114681
    2     0.27710703
 eigenvectors of metric:

              1             2
 
    1     0.99959438   -0.02847943
    2     0.02847943    0.99959438
 inverse square root of overlap matrix:

              1             2
 
    1     9.46549012    0.21555792
    2     0.21555792    1.90580298
 recalculated overlap matrix for complex pair:

              1             2
 
    1     1.00000000   -0.00000000
    2    -0.00000000    1.00000000
 dabs(Rj-Ri):           1          12  0.118516279674322     
 dabs(Ij+Ii):           1          12  5.303439722722712E-004
 dabs(Rj-Ri):           2          12  0.115068314955126     
 dabs(Ij+Ii):           2          12  5.303439722722712E-004
 dabs(Rj-Ri):           3          12  8.977582460948272E-002
 dabs(Ij+Ii):           3          12  5.303439722722712E-004
 dabs(Rj-Ri):           4          12  8.636363658078156E-002
 dabs(Ij+Ii):           4          12  5.303439722722712E-004
 dabs(Rj-Ri):           5          12  5.974383226499613E-002
 dabs(Ij+Ii):           5          12  5.303439722722712E-004
 dabs(Rj-Ri):           6          12  4.492951217583263E-002
 dabs(Ij+Ii):           6          12  5.303439722722712E-004
 dabs(Rj-Ri):           7          12  4.298567402150316E-002
 dabs(Ij+Ii):           7          12  5.303439722722712E-004
 dabs(Rj-Ri):           8          12  3.279847435400526E-002
 dabs(Ij+Ii):           8          12  5.303439722722712E-004
 dabs(Rj-Ri):           9          12  1.966579723417330E-002
 dabs(Ij+Ii):           9          12  5.303439722722712E-004
 dabs(Rj-Ri):          10          12  1.223993114310024E-002
 dabs(Ij+Ii):          10          12  5.303439722722712E-004
 dabs(Rj-Ri):          11          12  0.000000000000000E+000
 dabs(Ij+Ii):          11          12  0.000000000000000E+000
 dabs(Rj-Ri):          13          12  2.677973519981114E-004
 dabs(Ij+Ii):          13          12  5.303439722722712E-004
 dabs(Rj-Ri):          14          12  1.467523127648040E-002
 dabs(Ij+Ii):          14          12  5.303439722722712E-004
 dabs(Rj-Ri):          15          12  1.737692510552791E-002
 dabs(Ij+Ii):          15          12  5.303439722722712E-004
 dabs(Rj-Ri):          16          12  3.419666363959811E-002
 dabs(Ij+Ii):          16          12  5.303439722722712E-004
 dabs(Rj-Ri):          17          12  0.301815703974716     
 dabs(Ij+Ii):          17          12  5.303439722722712E-004
 overlap matrix for complex pair:

              1             2
 
    1     1.00000000   -0.00000000
    2    -0.00000000    1.00000000
 real eigenvalues of metric:

              1
 
    1     1.00000000
    2     1.00000000
 eigenvectors of metric:

              1             2
 
    1     0.99707942    0.07637160
    2    -0.07637160    0.99707942
 inverse square root of overlap matrix:

              1             2
 
    1     1.00000000    0.00000000
    2     0.00000000    1.00000000
 recalculated overlap matrix for complex pair:

              1             2
 
    1     1.00000000   -0.00000000
    2    -0.00000000    1.00000000
 warning> found low lying complex root...
 eigenvalues (imaginary parts) in redeig:

              1
 
    1     0.00000000
    2     0.00000000
    3     0.00000000
    4     0.00000000
    5     0.00000000
    6     0.00000000
    7     0.00000000
    8     0.00000000
    9     0.00000000
   10     0.00000000
   11    -0.00053034
   12     0.00053034
   13     0.00000000
   14     0.00000000
   15     0.00000000
   16     0.00000000
   17     0.00000000
 eigenvalues (real parts) in redeig:

              1
 
    1     0.13759188
    2     0.14103984
    3     0.16633234
    4     0.16974452
    5     0.19636433
    6     0.21117865
    7     0.21312249
    8     0.22330969
    9     0.23644236
   10     0.24386823
   11     0.25610816
   12     0.25610816
   13     0.25637596
   14     0.27078339
   15     0.27348508
   16     0.29030482
   17     0.55792386
     15       1         2.31     0.55E-02  ( 11)
 COSMO cphf update
 COSMO cphf update
 dabs(Rj-Ri):           1          11  0.118492916251276     
 dabs(Ij+Ii):           1          11  5.215517941740852E-004
 dabs(Rj-Ri):           2          11  0.115044958417132     
 dabs(Ij+Ii):           2          11  5.215517941740852E-004
 dabs(Rj-Ri):           3          11  8.975246113711866E-002
 dabs(Ij+Ii):           3          11  5.215517941740852E-004
 dabs(Rj-Ri):           4          11  8.634027317781628E-002
 dabs(Ij+Ii):           4          11  5.215517941740852E-004
 dabs(Rj-Ri):           5          11  5.972046884459070E-002
 dabs(Ij+Ii):           5          11  5.215517941740852E-004
 dabs(Rj-Ri):           6          11  4.490614278465904E-002
 dabs(Ij+Ii):           6          11  5.215517941740852E-004
 dabs(Rj-Ri):           7          11  4.296231060380490E-002
 dabs(Ij+Ii):           7          11  5.215517941740852E-004
 dabs(Rj-Ri):           8          11  3.277510985855417E-002
 dabs(Ij+Ii):           8          11  5.215517941740852E-004
 dabs(Rj-Ri):           9          11  1.964236139199332E-002
 dabs(Ij+Ii):           9          11  5.215517941740852E-004
 dabs(Rj-Ri):          10          11  1.221656771834270E-002
 dabs(Ij+Ii):          10          11  5.215517941740852E-004
 dabs(Rj-Ri):          12          11  0.000000000000000E+000
 dabs(Ij+Ii):          12          11  0.000000000000000E+000
 dabs(Rj-Ri):          13          11  2.907199904431113E-004
 dabs(Ij+Ii):          13          11  5.215517941740852E-004
 dabs(Rj-Ri):          14          11  1.469859464306733E-002
 dabs(Ij+Ii):          14          11  5.215517941740852E-004
 dabs(Rj-Ri):          15          11  1.740028800211335E-002
 dabs(Ij+Ii):          15          11  5.215517941740852E-004
 dabs(Rj-Ri):          16          11  2.496184015249259E-002
 dabs(Ij+Ii):          16          11  5.215517941740852E-004
 dabs(Rj-Ri):          17          11  0.184298555385502     
 dabs(Ij+Ii):          17          11  5.215517941740852E-004
 dabs(Rj-Ri):          18          11  0.879665176990026     
 dabs(Ij+Ii):          18          11  5.215517941740852E-004
 overlap matrix for complex pair:

              1             2
 
    1     0.15488644    0.00033160
    2     0.00033160    0.01211504
 real eigenvalues of metric:

              1
 
    1     0.15488721
    2     0.01211427
 eigenvectors of metric:

              1             2
 
    1     0.99999730   -0.00232255
    2     0.00232255    0.99999730
 inverse square root of overlap matrix:

              1             2
 
    1     2.54096250   -0.01520021
    2    -0.01520021    9.08551724
 recalculated overlap matrix for complex pair:

              1             2
 
    1     1.00000000   -0.00000000
    2    -0.00000000    1.00000000
 dabs(Rj-Ri):           1          12  0.118492916251276     
 dabs(Ij+Ii):           1          12  5.215517941740852E-004
 dabs(Rj-Ri):           2          12  0.115044958417132     
 dabs(Ij+Ii):           2          12  5.215517941740852E-004
 dabs(Rj-Ri):           3          12  8.975246113711866E-002
 dabs(Ij+Ii):           3          12  5.215517941740852E-004
 dabs(Rj-Ri):           4          12  8.634027317781628E-002
 dabs(Ij+Ii):           4          12  5.215517941740852E-004
 dabs(Rj-Ri):           5          12  5.972046884459070E-002
 dabs(Ij+Ii):           5          12  5.215517941740852E-004
 dabs(Rj-Ri):           6          12  4.490614278465904E-002
 dabs(Ij+Ii):           6          12  5.215517941740852E-004
 dabs(Rj-Ri):           7          12  4.296231060380490E-002
 dabs(Ij+Ii):           7          12  5.215517941740852E-004
 dabs(Rj-Ri):           8          12  3.277510985855417E-002
 dabs(Ij+Ii):           8          12  5.215517941740852E-004
 dabs(Rj-Ri):           9          12  1.964236139199332E-002
 dabs(Ij+Ii):           9          12  5.215517941740852E-004
 dabs(Rj-Ri):          10          12  1.221656771834270E-002
 dabs(Ij+Ii):          10          12  5.215517941740852E-004
 dabs(Rj-Ri):          11          12  0.000000000000000E+000
 dabs(Ij+Ii):          11          12  0.000000000000000E+000
 dabs(Rj-Ri):          13          12  2.907199904431113E-004
 dabs(Ij+Ii):          13          12  5.215517941740852E-004
 dabs(Rj-Ri):          14          12  1.469859464306733E-002
 dabs(Ij+Ii):          14          12  5.215517941740852E-004
 dabs(Rj-Ri):          15          12  1.740028800211335E-002
 dabs(Ij+Ii):          15          12  5.215517941740852E-004
 dabs(Rj-Ri):          16          12  2.496184015249259E-002
 dabs(Ij+Ii):          16          12  5.215517941740852E-004
 dabs(Rj-Ri):          17          12  0.184298555385502     
 dabs(Ij+Ii):          17          12  5.215517941740852E-004
 dabs(Rj-Ri):          18          12  0.879665176990026     
 dabs(Ij+Ii):          18          12  5.215517941740852E-004
 overlap matrix for complex pair:

              1             2
 
    1     1.00000000   -0.00000000
    2    -0.00000000    1.00000000
 real eigenvalues of metric:

              1
 
    1     1.00000000
    2     1.00000000
 eigenvectors of metric:

              1             2
 
    1     0.83228328   -0.55435056
    2     0.55435056    0.83228328
 inverse square root of overlap matrix:

              1             2
 
    1     1.00000000    0.00000000
    2     0.00000000    1.00000000
 recalculated overlap matrix for complex pair:

              1             2
 
    1     1.00000000    0.00000000
    2     0.00000000    1.00000000
 warning> found low lying complex root...
 eigenvalues (imaginary parts) in redeig:

              1
 
    1     0.00000000
    2     0.00000000
    3     0.00000000
    4     0.00000000
    5     0.00000000
    6     0.00000000
    7     0.00000000
    8     0.00000000
    9     0.00000000
   10     0.00000000
   11    -0.00052155
   12     0.00052155
   13     0.00000000
   14     0.00000000
   15     0.00000000
   16     0.00000000
   17     0.00000000
   18     0.00000000
 eigenvalues (real parts) in redeig:

              1
 
    1     0.13759188
    2     0.14103984
    3     0.16633234
    4     0.16974452
    5     0.19636433
    6     0.21117865
    7     0.21312249
    8     0.22330969
    9     0.23644243
   10     0.24386823
   11     0.25608480
   12     0.25608480
   13     0.25637552
   14     0.27078339
   15     0.27348508
   16     0.28104664
   17     0.44038335
   18     1.13574997
     16       1         2.30     0.26E-02  ( 12)
 COSMO cphf update
 COSMO cphf update
 dabs(Rj-Ri):           1          11  0.118487611806878     
 dabs(Ij+Ii):           1          11  5.193355708287106E-004
 dabs(Rj-Ri):           2          11  0.115039680213371     
 dabs(Ij+Ii):           2          11  5.193355708287106E-004
 dabs(Rj-Ri):           3          11  8.974715690911594E-002
 dabs(Ij+Ii):           3          11  5.193355708287106E-004
 dabs(Rj-Ri):           4          11  8.633496875652574E-002
 dabs(Ij+Ii):           4          11  5.193355708287106E-004
 dabs(Rj-Ri):           5          11  5.971516440417435E-002
 dabs(Ij+Ii):           5          11  5.193355708287106E-004
 dabs(Rj-Ri):           6          11  4.490083393449720E-002
 dabs(Ij+Ii):           6          11  5.193355708287106E-004
 dabs(Rj-Ri):           7          11  4.295700616545028E-002
 dabs(Ij+Ii):           7          11  5.193355708287106E-004
 dabs(Rj-Ri):           8          11  3.276977841092643E-002
 dabs(Ij+Ii):           8          11  5.193355708287106E-004
 dabs(Rj-Ri):           9          11  1.963701740291146E-002
 dabs(Ij+Ii):           9          11  5.193355708287106E-004
 dabs(Rj-Ri):          10          11  1.221126327239799E-002
 dabs(Ij+Ii):          10          11  5.193355708287106E-004
 dabs(Rj-Ri):          12          11  0.000000000000000E+000
 dabs(Ij+Ii):          12          11  0.000000000000000E+000
 dabs(Rj-Ri):          13          11  2.961469365541092E-004
 dabs(Ij+Ii):          13          11  5.193355708287106E-004
 dabs(Rj-Ri):          14          11  1.470389898801361E-002
 dabs(Ij+Ii):          14          11  5.193355708287106E-004
 dabs(Rj-Ri):          15          11  1.740559209603448E-002
 dabs(Ij+Ii):          15          11  5.193355708287106E-004
 dabs(Rj-Ri):          16          11  2.252840507083931E-002
 dabs(Ij+Ii):          16          11  5.193355708287106E-004
 dabs(Rj-Ri):          17          11  0.134129691566806     
 dabs(Ij+Ii):          17          11  5.193355708287106E-004
 dabs(Rj-Ri):          18          11  0.345149571220274     
 dabs(Ij+Ii):          18          11  5.193355708287106E-004
 dabs(Rj-Ri):          19          11   1.37624137193978     
 dabs(Ij+Ii):          19          11  5.193355708287106E-004
 overlap matrix for complex pair:

              1             2
 
    1     0.04157271    0.02164695
    2     0.02164695    0.04638781
 real eigenvalues of metric:

              1
 
    1     0.02219983
    2     0.06576068
 eigenvectors of metric:

              1             2
 
    1     0.74516350    0.66688182
    2    -0.66688182    0.74516350
 inverse square root of overlap matrix:

              1             2
 
    1     5.46099456   -1.39739119
    2    -1.39739119    5.15016213
 recalculated overlap matrix for complex pair:

              1             2
 
    1     1.00000000   -0.00000000
    2     0.00000000    1.00000000
 dabs(Rj-Ri):           1          12  0.118487611806878     
 dabs(Ij+Ii):           1          12  5.193355708287106E-004
 dabs(Rj-Ri):           2          12  0.115039680213371     
 dabs(Ij+Ii):           2          12  5.193355708287106E-004
 dabs(Rj-Ri):           3          12  8.974715690911594E-002
 dabs(Ij+Ii):           3          12  5.193355708287106E-004
 dabs(Rj-Ri):           4          12  8.633496875652574E-002
 dabs(Ij+Ii):           4          12  5.193355708287106E-004
 dabs(Rj-Ri):           5          12  5.971516440417435E-002
 dabs(Ij+Ii):           5          12  5.193355708287106E-004
 dabs(Rj-Ri):           6          12  4.490083393449720E-002
 dabs(Ij+Ii):           6          12  5.193355708287106E-004
 dabs(Rj-Ri):           7          12  4.295700616545028E-002
 dabs(Ij+Ii):           7          12  5.193355708287106E-004
 dabs(Rj-Ri):           8          12  3.276977841092643E-002
 dabs(Ij+Ii):           8          12  5.193355708287106E-004
 dabs(Rj-Ri):           9          12  1.963701740291146E-002
 dabs(Ij+Ii):           9          12  5.193355708287106E-004
 dabs(Rj-Ri):          10          12  1.221126327239799E-002
 dabs(Ij+Ii):          10          12  5.193355708287106E-004
 dabs(Rj-Ri):          11          12  0.000000000000000E+000
 dabs(Ij+Ii):          11          12  0.000000000000000E+000
 dabs(Rj-Ri):          13          12  2.961469365541092E-004
 dabs(Ij+Ii):          13          12  5.193355708287106E-004
 dabs(Rj-Ri):          14          12  1.470389898801361E-002
 dabs(Ij+Ii):          14          12  5.193355708287106E-004
 dabs(Rj-Ri):          15          12  1.740559209603448E-002
 dabs(Ij+Ii):          15          12  5.193355708287106E-004
 dabs(Rj-Ri):          16          12  2.252840507083931E-002
 dabs(Ij+Ii):          16          12  5.193355708287106E-004
 dabs(Rj-Ri):          17          12  0.134129691566806     
 dabs(Ij+Ii):          17          12  5.193355708287106E-004
 dabs(Rj-Ri):          18          12  0.345149571220274     
 dabs(Ij+Ii):          18          12  5.193355708287106E-004
 dabs(Rj-Ri):          19          12   1.37624137193978     
 dabs(Ij+Ii):          19          12  5.193355708287106E-004
 overlap matrix for complex pair:

              1             2
 
    1     1.00000000    0.00000000
    2    -0.00000000    1.00000000
 real eigenvalues of metric:

              1
 
    1     1.00000000
    2     1.00000000
 eigenvectors of metric:

              1             2
 
    1     0.82246963    0.56880903
    2    -0.56880903    0.82246963
 inverse square root of overlap matrix:

              1             2
 
    1     1.00000000   -0.00000000
    2    -0.00000000    1.00000000
 recalculated overlap matrix for complex pair:

              1             2
 
    1     1.00000000   -0.00000000
    2    -0.00000000    1.00000000
 warning> found low lying complex root...
 eigenvalues (imaginary parts) in redeig:

              1
 
    1     0.00000000
    2     0.00000000
    3     0.00000000
    4     0.00000000
    5     0.00000000
    6     0.00000000
    7     0.00000000
    8     0.00000000
    9     0.00000000
   10     0.00000000
   11    -0.00051934
   12     0.00051934
   13     0.00000000
   14     0.00000000
   15     0.00000000
   16     0.00000000
   17     0.00000000
   18     0.00000000
   19     0.00000000
 eigenvalues (real parts) in redeig:

              1
 
    1     0.13759188
    2     0.14103981
    3     0.16633233
    4     0.16974452
    5     0.19636433
    6     0.21117866
    7     0.21312249
    8     0.22330971
    9     0.23644247
   10     0.24386823
   11     0.25607949
   12     0.25607949
   13     0.25637564
   14     0.27078339
   15     0.27348508
   16     0.27860790
   17     0.39020918
   18     0.60122906
   19     1.63232086
     17       1         2.30     0.16E-02  ( 13)
                                                
     summary of start vectors generation:
     -------------------------------------------
     type of solution vectors      : RE0
     symmetry                      : a  
     number of vectors requested   :    15
     number of vectors generated   :    15
       -- restarted from file      :    15
     -------------------------------------------
                                                

    Iter  #Vectors  time (min)    max. residual 
    --------------------------------------------
 COSMO cphf update
 COSMO cphf update
 COSMO cphf update
 COSMO cphf update
 COSMO cphf update
 COSMO cphf update
 COSMO cphf update
 COSMO cphf update
 COSMO cphf update
 COSMO cphf update
 COSMO cphf update
 COSMO cphf update
 COSMO cphf update
 COSMO cphf update
 COSMO cphf update
 COSMO cphf update
 COSMO cphf update
 COSMO cphf update
 COSMO cphf update
 COSMO cphf update
 COSMO cphf update
 COSMO cphf update
 COSMO cphf update
 COSMO cphf update
 COSMO cphf update
 COSMO cphf update
 COSMO cphf update
 COSMO cphf update
 COSMO cphf update
 COSMO cphf update
 threshold for this macro iteration:  1.000000000000000E-003
     18      15        27.03     0.94E-03  ( 13)
    --------------------------------------------
    converged in 18 iterations

         Total time        227.13 minutes


 ===========================================




 Note that this is the intermediate result of a preoptimization!
 The convergence threshold was  0.1E-02 only!
 COSMO: note that the excitation energies below do not include
        the nonequilibrium contributions yet. These require the
        computation of the relaxed densities. See end of output
        for a final list of corrected excitations.


 +==================================================================+
 | sym | multi | state |          ADC(2) excitation energies        |
 |     |       |       +--------------------------------------------+
 |     |       |       |   Hartree    |     eV       |     cm-1     |
 +==================================================================+
 | a   |   1   |   1   |    0.1375829 |      3.74382 |    30195.946 |
 | a   |   1   |   2   |    0.1410187 |      3.83731 |    30950.018 |
 | a   |   1   |   3   |    0.1663270 |      4.52599 |    36504.559 |
 | a   |   1   |   4   |    0.1697375 |      4.61879 |    37253.075 |
 | a   |   1   |   5   |    0.1963526 |      5.34303 |    43094.411 |
 | a   |   1   |   6   |    0.2111810 |      5.74653 |    46348.875 |
 | a   |   1   |   7   |    0.2131115 |      5.79906 |    46772.568 |
 | a   |   1   |   8   |    0.2232968 |      6.07621 |    49007.973 |
 | a   |   1   |   9   |    0.2364444 |      6.43398 |    51893.538 |
 | a   |   1   |  10   |    0.2438689 |      6.63601 |    53523.046 |
 | a   |   1   |  11   |    0.2555622 |      6.95420 |    56089.425 |
 | a   |   1   |  12   |    0.2563330 |      6.97518 |    56258.589 |
 | a   |   1   |  13   |    0.2563777 |      6.97639 |    56268.404 |
 | a   |   1   |  14   |    0.2707748 |      7.36816 |    59428.190 |
 | a   |   1   |  15   |    0.2734728 |      7.44157 |    60020.339 |
 +==================================================================+





  solve for ADC(2) excitation energies/vectors using a DIIS algorithm:
  =================================================================
                                                
     summary of start vectors generation:
     -------------------------------------------
     type of solution vectors      : RE0
     symmetry                      : a  
     number of vectors requested   :    15
     number of vectors generated   :    15
       -- restarted from file      :    15
     -------------------------------------------
                                                


 ========= DIIS CC RESPONSE SOLVER =========

    threshold for convergence:0.10E-05
    max. nb. of DIIS vectors :      10
    maximum number of simultaneous jacoby matrix transformations: 15

    Iter  #Vectors  time (min)   residual
    --------------------------------------
 COSMO cphf update
 COSMO cphf update
 COSMO cphf update
 COSMO cphf update
 COSMO cphf update
 COSMO cphf update
 COSMO cphf update
 COSMO cphf update
 COSMO cphf update
 COSMO cphf update
 COSMO cphf update
 COSMO cphf update
 COSMO cphf update
 COSMO cphf update
 COSMO cphf update
 COSMO cphf update
 COSMO cphf update
 COSMO cphf update
 COSMO cphf update
 COSMO cphf update
 COSMO cphf update
 COSMO cphf update
 COSMO cphf update
 COSMO cphf update
 COSMO cphf update
 COSMO cphf update
 COSMO cphf update
 COSMO cphf update
 COSMO cphf update
 COSMO cphf update
      1      15        27.13     0.12E-02  ( 12)    0.18E+01
 COSMO cphf update
 COSMO cphf update
 COSMO cphf update
 COSMO cphf update
 COSMO cphf update
 COSMO cphf update
 COSMO cphf update
 COSMO cphf update
 COSMO cphf update
 COSMO cphf update
 COSMO cphf update
 COSMO cphf update
 COSMO cphf update
 COSMO cphf update
 COSMO cphf update
 COSMO cphf update
 COSMO cphf update
 COSMO cphf update
 COSMO cphf update
 COSMO cphf update
 COSMO cphf update
 COSMO cphf update
 COSMO cphf update
 COSMO cphf update
 COSMO cphf update
 COSMO cphf update
 COSMO cphf update
 COSMO cphf update
 COSMO cphf update
 COSMO cphf update
 dabs(Rj-Ri):           1          12  0.118771366252977     
 dabs(Ij+Ii):           1          12  1.336823339833864E-005
 dabs(Rj-Ri):           2          12  0.115333236707373     
 dabs(Ij+Ii):           2          12  1.336823339833864E-005
 dabs(Rj-Ri):           3          12  9.002769139500533E-002
 dabs(Ij+Ii):           3          12  1.336823339833864E-005
 dabs(Rj-Ri):           4          12  8.661711992944837E-002
 dabs(Ij+Ii):           4          12  1.336823339833864E-005
 dabs(Rj-Ri):           5          12  6.000125443773455E-002
 dabs(Ij+Ii):           5          12  1.336823339833864E-005
 dabs(Rj-Ri):           6          12  4.517433731093284E-002
 dabs(Ij+Ii):           6          12  1.336823339833864E-005
 dabs(Rj-Ri):           7          12  4.324260991472373E-002
 dabs(Ij+Ii):           7          12  1.336823339833864E-005
 dabs(Rj-Ri):           8          12  3.305613409762953E-002
 dabs(Ij+Ii):           8          12  1.336823339833864E-005
 dabs(Rj-Ri):           9          12  1.991117672992629E-002
 dabs(Ij+Ii):           9          12  1.336823339833864E-005
 dabs(Rj-Ri):          10          12  1.248691621797643E-002
 dabs(Ij+Ii):          10          12  1.336823339833864E-005
 dabs(Rj-Ri):          11          12  7.280460980199077E-004
 dabs(Ij+Ii):          11          12  1.336823339833864E-005
 dabs(Rj-Ri):          13          12  0.000000000000000E+000
 dabs(Ij+Ii):          13          12  0.000000000000000E+000
 dabs(Rj-Ri):          14          12  1.441591348424043E-002
 dabs(Ij+Ii):          14          12  1.336823339833864E-005
 dabs(Rj-Ri):          15          12  1.710971040862574E-002
 dabs(Ij+Ii):          15          12  1.336823339833864E-005
 overlap matrix for complex pair:

              1             2
 
    1     0.77334384    0.25914150
    2     0.25914150    0.24958499
 real eigenvalues of metric:

              1
 
    1     0.87988693
    2     0.14304190
 eigenvectors of metric:

              1             2
 
    1     0.92488182   -0.38025467
    2     0.38025467    0.92488182
 inverse square root of overlap matrix:

              1             2
 
    1     1.29423646   -0.55495728
    2    -0.55495728    2.41587770
 recalculated overlap matrix for complex pair:

              1             2
 
    1     1.00000000   -0.00000000
    2    -0.00000000    1.00000000
 dabs(Rj-Ri):           1          13  0.118771366252977     
 dabs(Ij+Ii):           1          13  1.336823339833864E-005
 dabs(Rj-Ri):           2          13  0.115333236707373     
 dabs(Ij+Ii):           2          13  1.336823339833864E-005
 dabs(Rj-Ri):           3          13  9.002769139500533E-002
 dabs(Ij+Ii):           3          13  1.336823339833864E-005
 dabs(Rj-Ri):           4          13  8.661711992944837E-002
 dabs(Ij+Ii):           4          13  1.336823339833864E-005
 dabs(Rj-Ri):           5          13  6.000125443773455E-002
 dabs(Ij+Ii):           5          13  1.336823339833864E-005
 dabs(Rj-Ri):           6          13  4.517433731093284E-002
 dabs(Ij+Ii):           6          13  1.336823339833864E-005
 dabs(Rj-Ri):           7          13  4.324260991472373E-002
 dabs(Ij+Ii):           7          13  1.336823339833864E-005
 dabs(Rj-Ri):           8          13  3.305613409762953E-002
 dabs(Ij+Ii):           8          13  1.336823339833864E-005
 dabs(Rj-Ri):           9          13  1.991117672992629E-002
 dabs(Ij+Ii):           9          13  1.336823339833864E-005
 dabs(Rj-Ri):          10          13  1.248691621797643E-002
 dabs(Ij+Ii):          10          13  1.336823339833864E-005
 dabs(Rj-Ri):          11          13  7.280460980199077E-004
 dabs(Ij+Ii):          11          13  1.336823339833864E-005
 dabs(Rj-Ri):          12          13  0.000000000000000E+000
 dabs(Ij+Ii):          12          13  0.000000000000000E+000
 dabs(Rj-Ri):          14          13  1.441591348424043E-002
 dabs(Ij+Ii):          14          13  1.336823339833864E-005
 dabs(Rj-Ri):          15          13  1.710971040862574E-002
 dabs(Ij+Ii):          15          13  1.336823339833864E-005
 overlap matrix for complex pair:

              1             2
 
    1     1.00000000   -0.00000000
    2    -0.00000000    1.00000000
 real eigenvalues of metric:

              1
 
    1     1.00000000
    2     1.00000000
 eigenvectors of metric:

              1             2
 
    1     0.98249937    0.18626589
    2    -0.18626589    0.98249937
 inverse square root of overlap matrix:

              1             2
 
    1     1.00000000    0.00000000
    2     0.00000000    1.00000000
 recalculated overlap matrix for complex pair:

              1             2
 
    1     1.00000000   -0.00000000
    2    -0.00000000    1.00000000
 warning> found low lying complex root...
 eigenvalues (imaginary parts) in redeig:

              1
 
    1     0.00000000
    2     0.00000000
    3     0.00000000
    4     0.00000000
    5     0.00000000
    6     0.00000000
    7     0.00000000
    8     0.00000000
    9     0.00000000
   10     0.00000000
   11     0.00000000
   12    -0.00001337
   13     0.00001337
   14     0.00000000
   15     0.00000000
 eigenvalues (real parts) in redeig:

              1
 
    1     0.13758373
    2     0.14102186
    3     0.16632740
    4     0.16973798
    5     0.19635384
    6     0.21118076
    7     0.21311249
    8     0.22329896
    9     0.23644392
   10     0.24386818
   11     0.25562705
   12     0.25635510
   13     0.25635510
   14     0.27077101
   15     0.27346481
      2      15        27.17     0.14E-02  ( 13)    0.11E+01
 COSMO cphf update
 COSMO cphf update
 COSMO cphf update
 COSMO cphf update
 COSMO cphf update
 COSMO cphf update
 COSMO cphf update
 COSMO cphf update
 COSMO cphf update
 COSMO cphf update
 COSMO cphf update
 COSMO cphf update
 COSMO cphf update
 COSMO cphf update
 COSMO cphf update
 COSMO cphf update
 COSMO cphf update
 COSMO cphf update
 COSMO cphf update
 COSMO cphf update
 COSMO cphf update
 COSMO cphf update
 COSMO cphf update
 COSMO cphf update
 COSMO cphf update
 COSMO cphf update
 COSMO cphf update
 COSMO cphf update
 COSMO cphf update
 COSMO cphf update
      3      15        26.94     0.11E-02  ( 12)    0.15E+01
 COSMO cphf update
 COSMO cphf update
 COSMO cphf update
 COSMO cphf update
 COSMO cphf update
 COSMO cphf update
 COSMO cphf update
 COSMO cphf update
 COSMO cphf update
 COSMO cphf update
 COSMO cphf update
 COSMO cphf update
 COSMO cphf update
 COSMO cphf update
 COSMO cphf update
 COSMO cphf update
 COSMO cphf update
 COSMO cphf update
 COSMO cphf update
 COSMO cphf update
 COSMO cphf update
 COSMO cphf update
 COSMO cphf update
 COSMO cphf update
 COSMO cphf update
 COSMO cphf update
 COSMO cphf update
 COSMO cphf update
 COSMO cphf update
 COSMO cphf update
      4      15        27.05     0.49E-03  ( 15)    0.89E+00
 COSMO cphf update
 COSMO cphf update
 COSMO cphf update
 COSMO cphf update
 COSMO cphf update
 COSMO cphf update
 COSMO cphf update
 COSMO cphf update
 COSMO cphf update
 COSMO cphf update
 COSMO cphf update
 COSMO cphf update
 COSMO cphf update
 COSMO cphf update
 COSMO cphf update
 COSMO cphf update
 COSMO cphf update
 COSMO cphf update
 COSMO cphf update
 COSMO cphf update
 COSMO cphf update
 COSMO cphf update
 COSMO cphf update
 COSMO cphf update
 COSMO cphf update
 COSMO cphf update
      5      13        23.71     0.60E-03  ( 12)    0.19E+01
 COSMO cphf update
 COSMO cphf update
 COSMO cphf update
 COSMO cphf update
 COSMO cphf update
 COSMO cphf update
 COSMO cphf update
 COSMO cphf update
 COSMO cphf update
 COSMO cphf update
 COSMO cphf update
 COSMO cphf update
 COSMO cphf update
 COSMO cphf update
 COSMO cphf update
 COSMO cphf update
 COSMO cphf update
 COSMO cphf update
 COSMO cphf update
 COSMO cphf update
 COSMO cphf update
 COSMO cphf update
 COSMO cphf update
 COSMO cphf update
      6      12        21.90     0.49E-03  ( 15)    0.10E+01
 COSMO cphf update
 COSMO cphf update
 COSMO cphf update
 COSMO cphf update
 COSMO cphf update
 COSMO cphf update
 COSMO cphf update
 COSMO cphf update
 COSMO cphf update
 COSMO cphf update
 COSMO cphf update
 COSMO cphf update
 COSMO cphf update
 COSMO cphf update
 COSMO cphf update
 COSMO cphf update
 COSMO cphf update
 COSMO cphf update
 COSMO cphf update
 COSMO cphf update
      7      10        18.36     0.17E-02  ( 13)    0.20E+01
 COSMO cphf update
 COSMO cphf update
 COSMO cphf update
 COSMO cphf update
 COSMO cphf update
 COSMO cphf update
 COSMO cphf update
 COSMO cphf update
 COSMO cphf update
 COSMO cphf update
 COSMO cphf update
 COSMO cphf update
 COSMO cphf update
 COSMO cphf update
 COSMO cphf update
 COSMO cphf update
      8       8        14.46     0.24E-02  ( 13)    0.20E+01
 COSMO cphf update
 COSMO cphf update
 COSMO cphf update
 COSMO cphf update
 COSMO cphf update
 COSMO cphf update
 COSMO cphf update
 COSMO cphf update
 COSMO cphf update
 COSMO cphf update
 COSMO cphf update
 COSMO cphf update
 COSMO cphf update
 COSMO cphf update
 COSMO cphf update
 COSMO cphf update
      9       8        14.43     0.49E-03  ( 15)    0.96E+00
 COSMO cphf update
 COSMO cphf update
 COSMO cphf update
 COSMO cphf update
 COSMO cphf update
 COSMO cphf update
 COSMO cphf update
 COSMO cphf update
 COSMO cphf update
 COSMO cphf update
     10       5         9.23     0.49E-03  ( 15)    0.66E+00
 COSMO cphf update
 COSMO cphf update
 COSMO cphf update
 COSMO cphf update
 COSMO cphf update
 COSMO cphf update
 COSMO cphf update
 COSMO cphf update
 COSMO cphf update
 COSMO cphf update
     11       5         9.20     0.49E-03  ( 15)    0.88E+00
 COSMO cphf update
 COSMO cphf update
 COSMO cphf update
 COSMO cphf update
 COSMO cphf update
 COSMO cphf update
 COSMO cphf update
 COSMO cphf update
 COSMO cphf update
 COSMO cphf update
 dabs(Rj-Ri):           1          12  0.118764313184476     
 dabs(Ij+Ii):           1          12  4.210207020484198E-005
 dabs(Rj-Ri):           2          12  0.115326002082258     
 dabs(Ij+Ii):           2          12  4.210207020484198E-005
 dabs(Rj-Ri):           3          12  9.002064851907274E-002
 dabs(Ij+Ii):           3          12  4.210207020484198E-005
 dabs(Rj-Ri):           4          12  8.661006008552946E-002
 dabs(Ij+Ii):           4          12  4.210207020484198E-005
 dabs(Rj-Ri):           5          12  5.999419092376801E-002
 dabs(Ij+Ii):           5          12  4.210207020484198E-005
 dabs(Rj-Ri):           6          12  4.516732197164100E-002
 dabs(Ij+Ii):           6          12  4.210207020484198E-005
 dabs(Rj-Ri):           7          12  4.323557105841841E-002
 dabs(Ij+Ii):           7          12  4.210207020484198E-005
 dabs(Rj-Ri):           8          12  3.304866648228746E-002
 dabs(Ij+Ii):           8          12  4.210207020484198E-005
 dabs(Rj-Ri):           9          12  1.990423814755504E-002
 dabs(Ij+Ii):           9          12  4.210207020484198E-005
 dabs(Rj-Ri):          10          12  1.247994762842616E-002
 dabs(Ij+Ii):          10          12  4.210207020484198E-005
 dabs(Rj-Ri):          11          12  7.205144250844731E-004
 dabs(Ij+Ii):          11          12  4.210207020484198E-005
 dabs(Rj-Ri):          13          12  0.000000000000000E+000
 dabs(Ij+Ii):          13          12  0.000000000000000E+000
 dabs(Rj-Ri):          14          12  1.442015154027915E-002
 dabs(Ij+Ii):          14          12  4.210207020484198E-005
 dabs(Rj-Ri):          15          12  1.709948651030124E-002
 dabs(Ij+Ii):          15          12  4.210207020484198E-005
 overlap matrix for complex pair:

              1             2
 
    1     0.02584041   -0.05003923
    2    -0.05003923    1.74722687
 real eigenvalues of metric:

              1
 
    1     0.02438704
    2     1.74868024
 eigenvectors of metric:

              1             2
 
    1     0.99957847   -0.02903238
    2     0.02903238    0.99957847
 inverse square root of overlap matrix:

              1             2
 
    1     6.39878493    0.16388633
    2     0.16388633    0.76097416
 recalculated overlap matrix for complex pair:

              1             2
 
    1     1.00000000    0.00000000
    2     0.00000000    1.00000000
 dabs(Rj-Ri):           1          13  0.118764313184476     
 dabs(Ij+Ii):           1          13  4.210207020484198E-005
 dabs(Rj-Ri):           2          13  0.115326002082258     
 dabs(Ij+Ii):           2          13  4.210207020484198E-005
 dabs(Rj-Ri):           3          13  9.002064851907274E-002
 dabs(Ij+Ii):           3          13  4.210207020484198E-005
 dabs(Rj-Ri):           4          13  8.661006008552946E-002
 dabs(Ij+Ii):           4          13  4.210207020484198E-005
 dabs(Rj-Ri):           5          13  5.999419092376801E-002
 dabs(Ij+Ii):           5          13  4.210207020484198E-005
 dabs(Rj-Ri):           6          13  4.516732197164100E-002
 dabs(Ij+Ii):           6          13  4.210207020484198E-005
 dabs(Rj-Ri):           7          13  4.323557105841841E-002
 dabs(Ij+Ii):           7          13  4.210207020484198E-005
 dabs(Rj-Ri):           8          13  3.304866648228746E-002
 dabs(Ij+Ii):           8          13  4.210207020484198E-005
 dabs(Rj-Ri):           9          13  1.990423814755504E-002
 dabs(Ij+Ii):           9          13  4.210207020484198E-005
 dabs(Rj-Ri):          10          13  1.247994762842616E-002
 dabs(Ij+Ii):          10          13  4.210207020484198E-005
 dabs(Rj-Ri):          11          13  7.205144250844731E-004
 dabs(Ij+Ii):          11          13  4.210207020484198E-005
 dabs(Rj-Ri):          12          13  0.000000000000000E+000
 dabs(Ij+Ii):          12          13  0.000000000000000E+000
 dabs(Rj-Ri):          14          13  1.442015154027915E-002
 dabs(Ij+Ii):          14          13  4.210207020484198E-005
 dabs(Rj-Ri):          15          13  1.709948651030124E-002
 dabs(Ij+Ii):          15          13  4.210207020484198E-005
 overlap matrix for complex pair:

              1             2
 
    1     1.00000000    0.00000000
    2     0.00000000    1.00000000
 real eigenvalues of metric:

              1
 
    1     1.00000000
    2     1.00000000
 eigenvectors of metric:

              1             2
 
    1     0.99208167   -0.12559446
    2     0.12559446    0.99208167
 inverse square root of overlap matrix:

              1             2
 
    1     1.00000000   -0.00000000
    2    -0.00000000    1.00000000
 recalculated overlap matrix for complex pair:

              1             2
 
    1     1.00000000    0.00000000
    2     0.00000000    1.00000000
 warning> found low lying complex root...
 eigenvalues (imaginary parts) in redeig:

              1
 
    1     0.00000000
    2     0.00000000
    3     0.00000000
    4     0.00000000
    5     0.00000000
    6     0.00000000
    7     0.00000000
    8     0.00000000
    9     0.00000000
   10     0.00000000
   11     0.00000000
   12    -0.00004210
   13     0.00004210
   14     0.00000000
   15     0.00000000
 eigenvalues (real parts) in redeig:

              1
 
    1     0.13758374
    2     0.14102205
    3     0.16632741
    4     0.16973799
    5     0.19635386
    6     0.21118073
    7     0.21311248
    8     0.22329939
    9     0.23644382
   10     0.24386811
   11     0.25562754
   12     0.25634805
   13     0.25634805
   14     0.27076821
   15     0.27344754
     12       5         9.21     0.49E-03  ( 15)    0.18E+01
 COSMO cphf update
 COSMO cphf update
 COSMO cphf update
 COSMO cphf update
 COSMO cphf update
 COSMO cphf update
 COSMO cphf update
 COSMO cphf update
 COSMO cphf update
 COSMO cphf update
 dabs(Rj-Ri):           1          12  0.118787094791489     
 dabs(Ij+Ii):           1          12  1.081504299592112E-004
 dabs(Rj-Ri):           2          12  0.115348782460046     
 dabs(Ij+Ii):           2          12  1.081504299592112E-004
 dabs(Rj-Ri):           3          12  9.004343012584137E-002
 dabs(Ij+Ii):           3          12  1.081504299592112E-004
 dabs(Rj-Ri):           4          12  8.663284169355065E-002
 dabs(Ij+Ii):           4          12  1.081504299592112E-004
 dabs(Rj-Ri):           5          12  6.001697253001928E-002
 dabs(Ij+Ii):           5          12  1.081504299592112E-004
 dabs(Rj-Ri):           6          12  4.519010333622453E-002
 dabs(Ij+Ii):           6          12  1.081504299592112E-004
 dabs(Rj-Ri):           7          12  4.325835266545777E-002
 dabs(Ij+Ii):           7          12  1.081504299592112E-004
 dabs(Rj-Ri):           8          12  3.307144815694532E-002
 dabs(Ij+Ii):           8          12  1.081504299592112E-004
 dabs(Rj-Ri):           9          12  1.992701988976311E-002
 dabs(Ij+Ii):           9          12  1.081504299592112E-004
 dabs(Rj-Ri):          10          12  1.250272924060097E-002
 dabs(Ij+Ii):          10          12  1.081504299592112E-004
 dabs(Rj-Ri):          11          12  7.441202138801506E-004
 dabs(Ij+Ii):          11          12  1.081504299592112E-004
 dabs(Rj-Ri):          13          12  0.000000000000000E+000
 dabs(Ij+Ii):          13          12  0.000000000000000E+000
 dabs(Rj-Ri):          14          12  1.439733361529266E-002
 dabs(Ij+Ii):          14          12  1.081504299592112E-004
[...]
 | E_exci (ground to x state)      |     0.23644382  |
 | Correction for fast part of RF  |    -0.00127037  |
 | Correction for update of eq. RF |     0.00000094  |
 +---------------------------------+-----------------+


  +=========================================================================+
  |  Excited state reached by transition:                   model: ADC(2)   |
  |    number, symmetry, multiplicity:   10 a    1                          |
  |    frequency :   0.2438681034 a.u.     6.63599 e.V.     53522.9 rcm     |
  +=========================================================================+

      Total energy of excited state:    -491.1785049689

   +-----------------+-----------------+-----------------+-----------------+
   | operator        | expect. value   | electr. contrib.| diff to gr.st.  |
   +-----------------+-----------------+-----------------+-----------------+
   | xdiplen (unrel) |      2.82514201 |     90.89402190 |     -0.83703292 |
   | xdiplen (relax) |      2.43361575 |     90.50249564 |       ---       |
   | ydiplen (unrel) |      0.00157569 |      0.00156633 |      0.00160119 |
   | ydiplen (relax) |      0.00140762 |      0.00139825 |       ---       |
   | zdiplen (unrel) |      0.12288520 |      2.00273274 |     -0.11509214 |
   | zdiplen (relax) |      0.13579887 |      2.01564641 |       ---       |
   +-----------------+-----------------+-----------------+-----------------+


     Analysis of relaxed properties:
     ===============================


     dipole moment:
     --------------

     x      2.43361575
     y      0.00140762
     z      0.13579887

     | dipole moment | =      2.43740208 a.u. =      6.19525755 debye
 


     Analysis of unrelaxed properties:
     =================================


     dipole moment:
     --------------

     x      2.82514201
     y      0.00157569
     z      0.12288520

     | dipole moment | =      2.82781375 a.u. =      7.18758494 debye
 

 +---------------------------------+-----------------+
 |   Nonequilibrium solvation      |                 |
 +---------------------------------+-----------------+
 |   E_x_(y) is the total free energy of target      |
 |   state x in the reaction field (RF)              |
 |   equilibrated for state y                        |
 +---------------------------------+-----------------+
 | E_x_(y)                         |  -491.18104102  |
 | E_x_(y) (+OCC)                  |  -491.18338975  |
 | Outlying charge correction(OCC) |    -0.00234873  |
 | E_SCF with RF of state y        |  -489.41791667  |
 | E_corr (ground state)           |    -2.00445640  |
 | E_exci (ground to x state)      |     0.24386810  |
 | Correction for fast part of RF  |    -0.00253605  |
 | Correction for update of eq. RF |    -0.00000000  |
 +---------------------------------+-----------------+


  +=========================================================================+
  |  Excited state reached by transition:                   model: ADC(2)   |
  |    number, symmetry, multiplicity:   11 a    1                          |
  |    frequency :   0.2556276411 a.u.     6.95598 e.V.     56103.8 rcm     |
  +=========================================================================+

      Total energy of excited state:    -491.1667454311

   +-----------------+-----------------+-----------------+-----------------+
   | operator        | expect. value   | electr. contrib.| diff to gr.st.  |
   +-----------------+-----------------+-----------------+-----------------+
   | xdiplen (unrel) |      5.27620118 |     93.34508107 |      1.61402626 |
   | xdiplen (relax) |      4.95183452 |     93.02071442 |       ---       |
   | ydiplen (unrel) |     -0.00083001 |     -0.00083937 |     -0.00080451 |
   | ydiplen (relax) |     -0.00069487 |     -0.00070424 |       ---       |
   | zdiplen (unrel) |      0.15422300 |      2.03407054 |     -0.08375434 |
   | zdiplen (relax) |      0.16503080 |      2.04487834 |       ---       |
   +-----------------+-----------------+-----------------+-----------------+


     Analysis of relaxed properties:
     ===============================


     dipole moment:
     --------------

     x      4.95183452
     y     -0.00069487
     z      0.16503080

     | dipole moment | =      4.95458382 a.u. =     12.59329473 debye
 


     Analysis of unrelaxed properties:
     =================================


     dipole moment:
     --------------

     x      5.27620118
     y     -0.00083001
     z      0.15422300

     | dipole moment | =      5.27845473 a.u. =     13.41649240 debye
 

 +---------------------------------+-----------------+
 |   Nonequilibrium solvation      |                 |
 +---------------------------------+-----------------+
 |   E_x_(y) is the total free energy of target      |
 |   state x in the reaction field (RF)              |
 |   equilibrated for state y                        |
 +---------------------------------+-----------------+
 | E_x_(y)                         |  -491.16776378  |
 | E_x_(y) (+OCC)                  |  -491.16800315  |
 | Outlying charge correction(OCC) |    -0.00023937  |
 | E_SCF with RF of state y        |  -489.41791667  |
 | E_corr (ground state)           |    -2.00445640  |
 | E_exci (ground to x state)      |     0.25562764  |
 | Correction for fast part of RF  |    -0.00102020  |
 | Correction for update of eq. RF |     0.00000184  |
 +---------------------------------+-----------------+


  +=========================================================================+
  |  Excited state reached by transition:                   model: ADC(2)   |
  |    number, symmetry, multiplicity:   12 a    1                          |
  |    frequency :   0.2562964708 a.u.     6.97418 e.V.     56250.6 rcm     |
  +=========================================================================+

      Total energy of excited state:    -491.1660766014

   +-----------------+-----------------+-----------------+-----------------+
   | operator        | expect. value   | electr. contrib.| diff to gr.st.  |
   +-----------------+-----------------+-----------------+-----------------+
   | xdiplen (unrel) |      4.65392406 |     92.72280395 |      0.99174913 |
   | xdiplen (relax) |      4.19852908 |     92.26740897 |       ---       |
   | ydiplen (unrel) |     -0.00111712 |     -0.00112648 |     -0.00109161 |
   | ydiplen (relax) |     -0.00099240 |     -0.00100176 |       ---       |
   | zdiplen (unrel) |      0.25485317 |      2.13470071 |      0.01687583 |
   | zdiplen (relax) |      0.25318783 |      2.13303537 |       ---       |
   +-----------------+-----------------+-----------------+-----------------+


     Analysis of relaxed properties:
     ===============================


     dipole moment:
     --------------

     x      4.19852908
     y     -0.00099240
     z      0.25318783

     | dipole moment | =      4.20615638 a.u. =     10.69098211 debye
 


     Analysis of unrelaxed properties:
     =================================


     dipole moment:
     --------------

     x      4.65392406
     y     -0.00111712
     z      0.25485317

     | dipole moment | =      4.66089696 a.u. =     11.84681728 debye
 

 +---------------------------------+-----------------+
 |   Nonequilibrium solvation      |                 |
 +---------------------------------+-----------------+
 |   E_x_(y) is the total free energy of target      |
 |   state x in the reaction field (RF)              |
 |   equilibrated for state y                        |
 +---------------------------------+-----------------+
 | E_x_(y)                         |  -491.16759428  |
 | E_x_(y) (+OCC)                  |  -491.16892100  |
 | Outlying charge correction(OCC) |    -0.00132672  |
 | E_SCF with RF of state y        |  -489.41791667  |
 | E_corr (ground state)           |    -2.00445640  |
 | E_exci (ground to x state)      |     0.25629647  |
 | Correction for fast part of RF  |    -0.00151845  |
 | Correction for update of eq. RF |     0.00000077  |
 +---------------------------------+-----------------+


  +=========================================================================+
  |  Excited state reached by transition:                   model: ADC(2)   |
  |    number, symmetry, multiplicity:   13 a    1                          |
  |    frequency :   0.2563527861 a.u.     6.97571 e.V.     56262.9 rcm     |
  +=========================================================================+

      Total energy of excited state:    -491.1660202861

   +-----------------+-----------------+-----------------+-----------------+
   | operator        | expect. value   | electr. contrib.| diff to gr.st.  |
   +-----------------+-----------------+-----------------+-----------------+
   | xdiplen (unrel) |      4.85693397 |     92.92581386 |      1.19475905 |
   | xdiplen (relax) |      4.27484696 |     92.34372685 |       ---       |
   | ydiplen (unrel) |     -0.00026678 |     -0.00027614 |     -0.00024128 |
   | ydiplen (relax) |     -0.00019930 |     -0.00020866 |       ---       |
   | zdiplen (unrel) |      0.21141936 |      2.09126690 |     -0.02655798 |
   | zdiplen (relax) |      0.21471651 |      2.09456405 |       ---       |
   +-----------------+-----------------+-----------------+-----------------+


     Analysis of relaxed properties:
     ===============================


     dipole moment:
     --------------

     x      4.27484696
     y     -0.00019930
     z      0.21471651

     | dipole moment | =      4.28023595 a.u. =     10.87927358 debye
 


     Analysis of unrelaxed properties:
     =================================


     dipole moment:
     --------------

     x      4.85693397
     y     -0.00026678
     z      0.21141936

     | dipole moment | =      4.86153328 a.u. =     12.35678387 debye
 

 +---------------------------------+-----------------+
 |   Nonequilibrium solvation      |                 |
 +---------------------------------+-----------------+
 |   E_x_(y) is the total free energy of target      |
 |   state x in the reaction field (RF)              |
 |   equilibrated for state y                        |
 +---------------------------------+-----------------+
 | E_x_(y)                         |  -491.16634051  |
 | E_x_(y) (+OCC)                  |  -491.16657650  |
 | Outlying charge correction(OCC) |    -0.00023598  |
 | E_SCF with RF of state y        |  -489.41791667  |
 | E_corr (ground state)           |    -2.00445640  |
 | E_exci (ground to x state)      |     0.25635279  |
 | Correction for fast part of RF  |    -0.00032117  |
 | Correction for update of eq. RF |     0.00000094  |
 +---------------------------------+-----------------+


  +=========================================================================+
  |  Excited state reached by transition:                   model: ADC(2)   |
  |    number, symmetry, multiplicity:   14 a    1                          |
  |    frequency :   0.2707679172 a.u.     7.36797 e.V.     59426.7 rcm     |
  +=========================================================================+

      Total energy of excited state:    -491.1516051550

   +-----------------+-----------------+-----------------+-----------------+
   | operator        | expect. value   | electr. contrib.| diff to gr.st.  |
   +-----------------+-----------------+-----------------+-----------------+
   | xdiplen (unrel) |      3.35160675 |     91.42048664 |     -0.31056817 |
   | xdiplen (relax) |      3.07508074 |     91.14396063 |       ---       |
   | ydiplen (unrel) |     -0.00000543 |     -0.00001480 |      0.00002007 |
   | ydiplen (relax) |     -0.00003536 |     -0.00004473 |       ---       |
   | zdiplen (unrel) |      0.17265338 |      2.05250092 |     -0.06532396 |
   | zdiplen (relax) |      0.17242995 |      2.05227749 |       ---       |
   +-----------------+-----------------+-----------------+-----------------+


     Analysis of relaxed properties:
     ===============================


     dipole moment:
     --------------

     x      3.07508074
     y     -0.00003536
     z      0.17242995

     | dipole moment | =      3.07991130 a.u. =      7.82835294 debye
 


     Analysis of unrelaxed properties:
     =================================


     dipole moment:
     --------------

     x      3.35160675
     y     -0.00000543
     z      0.17265338

     | dipole moment | =      3.35605080 a.u. =      8.53022947 debye
 

 +---------------------------------+-----------------+
 |   Nonequilibrium solvation      |                 |
 +---------------------------------+-----------------+
 |   E_x_(y) is the total free energy of target      |
 |   state x in the reaction field (RF)              |
 |   equilibrated for state y                        |
 +---------------------------------+-----------------+
 | E_x_(y)                         |  -491.15226008  |
 | E_x_(y) (+OCC)                  |  -491.15240500  |
 | Outlying charge correction(OCC) |    -0.00014492  |
 | E_SCF with RF of state y        |  -489.41791667  |
 | E_corr (ground state)           |    -2.00445640  |
 | E_exci (ground to x state)      |     0.27076792  |
 | Correction for fast part of RF  |    -0.00065493  |
 | Correction for update of eq. RF |     0.00000001  |
 +---------------------------------+-----------------+


  +=========================================================================+
  |  Excited state reached by transition:                   model: ADC(2)   |
  |    number, symmetry, multiplicity:   15 a    1                          |
  |    frequency :   0.2734938863 a.u.     7.44215 e.V.     60025.0 rcm     |
  +=========================================================================+

      Total energy of excited state:    -491.1488791859

   +-----------------+-----------------+-----------------+-----------------+
   | operator        | expect. value   | electr. contrib.| diff to gr.st.  |
   +-----------------+-----------------+-----------------+-----------------+
   | xdiplen (unrel) |      5.36752534 |     93.43640524 |      1.70535042 |
   | xdiplen (relax) |      4.75873108 |     92.82761097 |       ---       |
   | ydiplen (unrel) |     -0.00625565 |     -0.00626502 |     -0.00623015 |
   | ydiplen (relax) |     -0.00567590 |     -0.00568527 |       ---       |
   | zdiplen (unrel) |      0.11577873 |      1.99562628 |     -0.12219861 |
   | zdiplen (relax) |      0.12952180 |      2.00936934 |       ---       |
   +-----------------+-----------------+-----------------+-----------------+


     Analysis of relaxed properties:
     ===============================


     dipole moment:
     --------------

     x      4.75873108
     y     -0.00567590
     z      0.12952180

     | dipole moment | =      4.76049678 a.u. =     12.09997474 debye
 


     Analysis of unrelaxed properties:
     =================================


     dipole moment:
     --------------

     x      5.36752534
     y     -0.00625565
     z      0.11577873

     | dipole moment | =      5.36877753 a.u. =     13.64607004 debye
 

 +---------------------------------+-----------------+
 |   Nonequilibrium solvation      |                 |
 +---------------------------------+-----------------+
 |   E_x_(y) is the total free energy of target      |
 |   state x in the reaction field (RF)              |
 |   equilibrated for state y                        |
 +---------------------------------+-----------------+
 | E_x_(y)                         |  -491.15147583  |
 | E_x_(y) (+OCC)                  |  -491.15313551  |
 | Outlying charge correction(OCC) |    -0.00165967  |
 | E_SCF with RF of state y        |  -489.41791667  |
 | E_corr (ground state)           |    -2.00445640  |
 | E_exci (ground to x state)      |     0.27349389  |
 | Correction for fast part of RF  |    -0.00259813  |
 | Correction for update of eq. RF |     0.00000148  |
 +---------------------------------+-----------------+
 Exporting excited state densities


 =============================================
 | SUMMARY OF RELAXED EXCITATIONS WITH COSMO |
 =============================================

 Explanation of the quantities below:

       E(diff)_x = E_x - E*_y
       E(exci)_x = E_x - E_gs

  E_x  : noneq.        energy of state x
  E*_y : eq.           energy of state y
  E_gs : noneq. or eq. energy of groundstate
  OCC  : outlying charge correction

 The * in column 'sym' marks the equilibrated state

 +=================================================================================+
 | sym | multi | state | COSMO-ADC(2) energy differences                           |
 |     |       |       +-----------------------------------------------------------+
 |     |       |       | E(Total)/au. |  E(diff)/eV  |  E(exci)/eV  |E(exc(OCC))/eV|
 +=================================================================================+
 |*a   |   1   |   0   | -491.4223731 |            - |            - |            - |
 +-----+-------+-------+--------------+--------------+--------------+--------------+
 | a   |   1   |   1   | -491.2851846 |      3.73309 |      3.73309 |      3.73309 |
 +-----+-------+-------+--------------+--------------+--------------+--------------+
 | a   |   1   |   2   | -491.2850949 |      3.73553 |      3.73553 |      3.72974 |
 +-----+-------+-------+--------------+--------------+--------------+--------------+
 | a   |   1   |   3   | -491.2565526 |      4.51221 |      4.51221 |      4.51168 |
 +-----+-------+-------+--------------+--------------+--------------+--------------+
 | a   |   1   |   4   | -491.2528836 |      4.61204 |      4.61204 |      4.61144 |
 +-----+-------+-------+--------------+--------------+--------------+--------------+
 | a   |   1   |   5   | -491.2271370 |      5.31264 |      5.31264 |      5.31003 |
 +-----+-------+-------+--------------+--------------+--------------+--------------+
 | a   |   1   |   6   | -491.2120348 |      5.72359 |      5.72359 |      5.70939 |
 +-----+-------+-------+--------------+--------------+--------------+--------------+
 | a   |   1   |   7   | -491.2093232 |      5.79738 |      5.79738 |      5.79655 |
 +-----+-------+-------+--------------+--------------+--------------+--------------+
 | a   |   1   |   8   | -491.2000804 |      6.04889 |      6.04889 |      6.04866 |
 +-----+-------+-------+--------------+--------------+--------------+--------------+
 | a   |   1   |   9   | -491.1871987 |      6.39942 |      6.39942 |      6.38893 |
 +-----+-------+-------+--------------+--------------+--------------+--------------+
 | a   |   1   |  10   | -491.1810410 |      6.56698 |      6.56698 |      6.50900 |
 +-----+-------+-------+--------------+--------------+--------------+--------------+
 | a   |   1   |  11   | -491.1677638 |      6.92827 |      6.92827 |      6.92769 |
 +-----+-------+-------+--------------+--------------+--------------+--------------+
 | a   |   1   |  12   | -491.1675943 |      6.93288 |      6.93288 |      6.90272 |
 +-----+-------+-------+--------------+--------------+--------------+--------------+
 | a   |   1   |  13   | -491.1663405 |      6.96700 |      6.96700 |      6.96652 |
 +-----+-------+-------+--------------+--------------+--------------+--------------+
 | a   |   1   |  14   | -491.1522601 |      7.35015 |      7.35015 |      7.35214 |
 +-----+-------+-------+--------------+--------------+--------------+--------------+
 | a   |   1   |  15   | -491.1514758 |      7.37149 |      7.37149 |      7.33226 |
 +=================================================================================+



    ------------------------------------------------------------------------
         total  cpu-time : 23 hours  9 minutes and 21 seconds
         total wall-time :   1 days  1 hours 18 minutes and 54 seconds
    ------------------------------------------------------------------------


   ****  ricc2 : all done  ****


    2023-04-04 23:18:01.526 

