 hostname is         dlt08.abaxnet
 this is node-proc. number 0 running on node dlt08.abaxnet
 the total number of node-proc. spawned is   1

 ricc2 (dlt08.abaxnet) : TURBOMOLE V6.6( 19125 ) 27 May 2014 at 14:24:19
 Copyright (C) 2014 TURBOMOLE GmbH, Karlsruhe


    2023-03-28 14:35:02.554 



                              R I C C 2 - PROGRAM

                          the quantum chemistry groups
                             at the universities in
                           Karlsruhe, Bochum & Mainz
                                   Germany



   *-----------------------------------------------------------------------*
   |                     program will use  1 thread(s)                     |
   *-----------------------------------------------------------------------*


              +--------------------------------------------------+
              | Atomic coordinate, charge and isotop information |
              +--------------------------------------------------+

                    atomic coordinates            atom    charge  isotop
         -1.25903854   -2.28197016   -0.03015612    c      6.000     0
         -2.55472338   -0.00000083   -0.02879221    c      6.000     0
         -1.25904288    2.28196695   -0.03016999    c      6.000     0
          1.33397593    2.28282469   -0.03272265    c      6.000     0
          2.68642343    0.00000329   -0.03279418    c      6.000     0
          1.33397780   -2.28282267   -0.03270652    c      6.000     0
         -2.30058495   -4.03537191   -0.02713902    h      1.000     0
         -2.30059039    4.03536858   -0.02716440    h      1.000     0
          2.35274324    4.05547592   -0.03591469    h      1.000     0
          2.35275259   -4.05546984   -0.03588303    h      1.000     0
         -5.27845951   -0.00000053   -0.02253990    n      7.000     0
         -6.37968780    2.02722128   -0.01988302    o      8.000     0
         -6.37969227   -2.02722011   -0.01992307    o      8.000     0
          5.25161265   -0.00000032   -0.08820951    n      7.000     0
          6.20017073    1.61336629    0.23199721    h      1.000     0
          6.20016334   -1.61337062    0.23200112    h      1.000     0
 
       center of nuclear mass  :   -1.36491958    0.00000015   -0.02966624
       center of nuclear charge:   -1.22317889    0.00000013   -0.02610899

              +--------------------------------------------------+
              |               basis set information              |
              +--------------------------------------------------+

              we will work with the 1s 3p 5d 7f 9g ... basis set
              ...i.e. with spherical basis functions...

   type   atoms  prim   cont   basis
   ---------------------------------------------------------------------------
    c        6     52     37   def2-TZVPD   [6s3p3d1f|12s6p3d1f]
    h        6     11      9   def2-TZVPD   [3s2p|5s2p]
    n        2     52     37   def2-TZVPD   [6s3p3d1f|12s6p3d1f]
    o        2     55     40   def2-TZVPD   [6s4p3d1f|12s7p3d1f]
   ---------------------------------------------------------------------------
   total:   16    592    430
   ---------------------------------------------------------------------------

   total number of primitive shells          :   74
   total number of contracted shells         :  162
   total number of cartesian basis functions :  490
   total number of SCF-basis functions       :  430



   =========================================================================


     restricted closed shell calculation for the wavefunction models:
               ADC(2)     - Algebraic Diagrammatic Construction to 2. Order (strict)


     global parameters for ricc2 program:

        hard restart (reuse of interm.) :  disabled
        soft restart (reuse of vectors) :  disabled
        threshold for vector function   :    0.100000E-06
        convergence threshold energy    :    0.100000E-07
        linear dependence threshold     :    0.100000E-13
        global print level              :      1
        maximum number of iterations    :   500
        maximum number DIIS vectors     :    10
        max. dim. of reduced space      :   100
        core memory limit (MB)          :   500
        disk space limit (MB)           :   none


   =========================================================================
     "cartesian on" in $drvopt is ignored by $ricc2

    der. integral neglect threshold  :  0.10E-08
    integral neglect threshold       :  0.68E-12
    integral storage threshold THIZE :  0.10E-04
    integral storage threshold THIME :         5


                  +------------------------------------------+
                  |     Auxiliary basis set information      |
                  +------------------------------------------+

              we will work with the 1s 3p 5d 7f 9g ... basis set
              ...i.e. with spherical basis functions...

   type   atoms  prim   cont   basis
   ---------------------------------------------------------------------------
    c        6     97     92   def2-TZVPD   [9s7p5d4f1g|9s7p6d4f1g]
    h        6     32     24   def2-TZVPD   [5s3p2d|5s4p3d]
    n        2     97     92   def2-TZVPD   [9s7p5d4f1g|9s7p6d4f1g]
    o        2     97     92   def2-TZVPD   [9s7p5d4f1g|9s7p6d4f1g]
   ---------------------------------------------------------------------------
   total:   16   1162   1064
   ---------------------------------------------------------------------------

   total number of primitive shells          :   93
   total number of contracted shells         :  320
   total number of cartesian basis functions : 1306
   total number of SCF-basis functions       : 1064


 symmetry group of the molecule :   c1 

 the group has the following generators :
   c1(z)

    1 symmetry operations found

 there are 1 real representations :   a   

 maximum number of shells which are related by symmetry :  1


 The symmetry information takes   1 MB

*---------------------------------------------------------------------*
|               simplified C1 algorithm will be applied               |
*---------------------------------------------------------------------*
 ==============================================================================
                      COSMO switched on
 ==============================================================================
            ======================================================
                      COSMO settings in RICC2
                   --------------------------
             Solvent charges are equilibrated for ground state
             "cycle" indicates frozen COSMO charges,
             hence no COSMO CPHF contribution included
             COSMO linear response (LR) contribution included
             Outlying Charge Correction (OCC) is performed
             Using epsilon          =     6.253
             Using refractive index =     1.300
            ======================================================
        IMPORTANT NOTICE: The calculation of the solvent contributions will
         need the relaxed densities in general. Therefore the actual COSMO
         energies will be output only at the end of the run. Any energies
         or excitation energies quoted before that are only intermediate
         quantities and should be ignored unless you know what you are doing!

  MOs are in ASCII format !


 reading orbital data $scfmo  from file mos . 

 orbital characterization : scfconv=7
 

         --------------------------------------------------------------
                   checking mo's by calculating trace(D*S)

              number of electrons : 
                 from trace(D*S)         :   71.999999999995
                 from occupation numbers :   72.000000000000

              molecular charge           :    0.000000000000
         --------------------------------------------------------------

 time elapsed for calculating density matrices :   0.020 sec
 all orbitals will be active in the correlation treatment


   Molecular Orbital Statistic:
   ============================

   -----------------------------
   orbitals in total:
   -----------------------------
    frozen occupied :      0
    active occupied :     36
    active virtual  :    394
    frozen virtual  :      0
    all together    :    430
   -----------------------------


     time in riccmos       cpu:  0.19 sec    wall:  0.33 sec    ratio:  0.6

     total memory allocated for calculation of (Q|P)**(-1/2) : 13 MiB


     calculation of (P|Q) ...
     time in lp2sym        cpu:  0.03 sec    wall:  0.03 sec    ratio:  1.0


     calculation of the Cholesky decomposition of (P|Q)**(-1) ...
     time in invmetri      cpu:  0.19 sec    wall:  0.28 sec    ratio:  0.7

   threshold for RMS(d[D]) in SCF was     :  0.10E-07
   integral neglect threshold             :  0.68E-12
   derivative integral neglect threshold  :  0.10E-08


 setting up bound for integral derivative estimation

 increment for numerical differentiation : 0.00050000

   =========================================================================

     Energy of reference wave function is  -489.4182272013000
     Maximum orbital residual is           0.1455231010767E-04


     Number of symmetry-nonredundant auxiliary basis functions:     1064

     Block lengths for integral files:
        frozen occupied (BOI):        0 MiB
        active occupied (BJI):        1 MiB
        active virtual  (BAI):        4 MiB
        frozen virtual  (BGI):        0 MiB
               general  (BTI):        4 MiB

   =========================================================================




   **************************************************************************
   *                                                                        *
   *          OPTIMIZATION OF THE GROUND STATE CLUSTER AMPLITUDES           *
   *                                                                        *
   **************************************************************************


   Iter.   MP2 energy       Norm(Omega)    Norm(t1)  Norm(t2)     cpu    wall
   ...........................................................................
    1   -491.4220655774    0.1615160141     0.00000   0.44513    1.25    1.37
   ...........................................................................


     time in total         cpu:  1 min 15 s  wall:  1 min 22 s  ratio:  0.9


     **********************************************************************
     *                                                                    *
     *   RHF  energy                             :   -489.4182272013      *
     *   MP2 correlation energy                  :     -2.0038383761      *
     *                                                                    *
     *   Final MP2 energy                        :   -491.4220655774      *
     *                                                                    *
     *   Norm of MP1 T2 amplitudes               :      0.4451296891      *
     *                                                                    *
     *   D1 diagnostic                           :      0.0589            *
     *                                                                    *
     **********************************************************************

 Using refractive index n                   =    1.30000000000000     
 Screening function (n**2-1)/(n**2+0.5)     =   0.315068493150685     


 **************************************************************
 *                                                            *
 *    OPTIMIZATION OF THE EXCITED STATE CLUSTER AMPLITUDES    *
 *                                                            *
 **************************************************************


  preoptimize excitation energies/vectors using CCS:

  ==================================================


 ======== LINEAR CC RESPONSE SOLVER ========

    threshold for convergence: 0.10E-02
    maximum number of simultaneous jacoby matrix transformations: 15
                                                
     summary of start vectors generation:
     -------------------------------------------
     type of solution vectors      : RE0
     symmetry                      : a  
     number of vectors requested   :    15
     number of vectors generated   :    15
       -- guessed as rhs/(e_a-e_i) :    15
     -------------------------------------------
                                                

    Iter  #Vectors  time (min)    max. residual 
    --------------------------------------------
 COSMO cphf update
 COSMO cphf update
 COSMO cphf update
 COSMO cphf update
 COSMO cphf update
 COSMO cphf update
 COSMO cphf update
 COSMO cphf update
 COSMO cphf update
 COSMO cphf update
 COSMO cphf update
 COSMO cphf update
 COSMO cphf update
 COSMO cphf update
 COSMO cphf update
      1      15         2.90     0.14E+00  (  1)
 COSMO cphf update
 COSMO cphf update
 COSMO cphf update
 COSMO cphf update
 COSMO cphf update
 COSMO cphf update
 COSMO cphf update
 COSMO cphf update
 COSMO cphf update
 COSMO cphf update
 COSMO cphf update
 COSMO cphf update
 COSMO cphf update
 COSMO cphf update
 COSMO cphf update
      2      15         2.93     0.52E-01  (  9)
 COSMO cphf update
 COSMO cphf update
 COSMO cphf update
 COSMO cphf update
 COSMO cphf update
 COSMO cphf update
 COSMO cphf update
 COSMO cphf update
 COSMO cphf update
 COSMO cphf update
 COSMO cphf update
 COSMO cphf update
 COSMO cphf update
 COSMO cphf update
 COSMO cphf update
      3      15         2.96     0.77E-01  (  7)
 COSMO cphf update
 COSMO cphf update
 COSMO cphf update
 COSMO cphf update
 COSMO cphf update
 COSMO cphf update
 COSMO cphf update
 COSMO cphf update
 COSMO cphf update
 COSMO cphf update
 COSMO cphf update
 COSMO cphf update
 COSMO cphf update
 COSMO cphf update
 COSMO cphf update
      4      15         2.98     0.15E+00  ( 13)
 COSMO cphf update
 COSMO cphf update
 COSMO cphf update
 COSMO cphf update
 COSMO cphf update
 COSMO cphf update
 COSMO cphf update
 COSMO cphf update
 COSMO cphf update
 COSMO cphf update
 COSMO cphf update
 COSMO cphf update
 COSMO cphf update
 COSMO cphf update
 COSMO cphf update
      5      15         2.96     0.17E+00  ( 15)
 COSMO cphf update
 COSMO cphf update
 COSMO cphf update
 COSMO cphf update
 COSMO cphf update
 COSMO cphf update
 COSMO cphf update
 COSMO cphf update
 COSMO cphf update
 COSMO cphf update
 COSMO cphf update
 COSMO cphf update
 COSMO cphf update
 COSMO cphf update
 COSMO cphf update
  dimension of red. space became too large.
  try internal restart...
      6      15         2.98     0.90E-01  (  3)
                                                
     summary of start vectors generation:
     -------------------------------------------
     type of solution vectors      : RE0
     symmetry                      : a  
     number of vectors requested   :    15
     number of vectors generated   :    15
       -- restarted from file      :    15
     -------------------------------------------
                                                

    Iter  #Vectors  time (min)    max. residual 
    --------------------------------------------
 COSMO cphf update
 COSMO cphf update
 COSMO cphf update
 COSMO cphf update
 COSMO cphf update
 COSMO cphf update
 COSMO cphf update
 COSMO cphf update
 COSMO cphf update
 COSMO cphf update
 COSMO cphf update
 COSMO cphf update
 COSMO cphf update
 COSMO cphf update
 COSMO cphf update
      7      15         2.97     0.90E-01  (  3)
 COSMO cphf update
 COSMO cphf update
 COSMO cphf update
 COSMO cphf update
 COSMO cphf update
 COSMO cphf update
 COSMO cphf update
 COSMO cphf update
 COSMO cphf update
 COSMO cphf update
 COSMO cphf update
 COSMO cphf update
 COSMO cphf update
      8      13         2.62     0.31E-01  (  2)
 COSMO cphf update
 COSMO cphf update
 COSMO cphf update
 COSMO cphf update
 COSMO cphf update
 COSMO cphf update
 COSMO cphf update
 COSMO cphf update
 COSMO cphf update
 COSMO cphf update
      9      10         2.06     0.73E-02  (  2)
 COSMO cphf update
 COSMO cphf update
 COSMO cphf update
 COSMO cphf update
 COSMO cphf update
 COSMO cphf update
     10       6         1.22     0.25E-02  (  2)
 COSMO cphf update
 COSMO cphf update
 COSMO cphf update
 COSMO cphf update
     11       4         0.86     0.11E-02  ( 13)
 COSMO cphf update
     12       1         0.34     0.77E-03  (  2)
    --------------------------------------------
    converged in 12 iterations

         Total time         27.80 minutes


 ===========================================




 Note that this is the intermediate result of a preoptimization!
 The convergence threshold was  0.1E-02 only!
 COSMO: note that the excitation energies below do not include
        the nonequilibrium contributions yet. These require the
        computation of the relaxed densities. See end of output
        for a final list of corrected excitations.


 +==================================================================+
 | sym | multi | state |          CCS excitation energies           |
 |     |       |       +--------------------------------------------+
 |     |       |       |   Hartree    |     eV       |     cm-1     |
 +==================================================================+
 | a   |   1   |   1   |    0.1830957 |      4.98229 |    40184.861 |
 | a   |   1   |   2   |    0.1968751 |      5.35724 |    43209.081 |
 | a   |   1   |   3   |    0.2049212 |      5.57619 |    44975.011 |
 | a   |   1   |   4   |    0.2114624 |      5.75419 |    46410.639 |
 | a   |   1   |   5   |    0.2303249 |      6.26746 |    50550.476 |
 | a   |   1   |   6   |    0.2470581 |      6.72279 |    54222.989 |
 | a   |   1   |   7   |    0.2579485 |      7.01914 |    56613.161 |
 | a   |   1   |   8   |    0.2592432 |      7.05437 |    56897.310 |
 | a   |   1   |   9   |    0.2621010 |      7.13213 |    57524.509 |
 | a   |   1   |  10   |    0.2665251 |      7.25252 |    58495.491 |
 | a   |   1   |  11   |    0.2797975 |      7.61368 |    61408.459 |
 | a   |   1   |  12   |    0.2830868 |      7.70318 |    62130.371 |
 | a   |   1   |  13   |    0.2859614 |      7.78141 |    62761.271 |
 | a   |   1   |  14   |    0.2961895 |      8.05973 |    65006.074 |
 | a   |   1   |  15   |    0.2970201 |      8.08233 |    65188.385 |
 +==================================================================+




  preoptimize ADC(2) excitation energies/vectors using a quasi linear algorithm:
  ==============================================================================


 ======== LINEAR CC RESPONSE SOLVER ========

    threshold for convergence: 0.10E-02
    maximum number of simultaneous jacoby matrix transformations: 15
                                                
     summary of start vectors generation:
     -------------------------------------------
     type of solution vectors      : RE0
     symmetry                      : a  
     number of vectors requested   :    15
     number of vectors generated   :    15
       -- restarted from file      :    15
     -------------------------------------------
                                                

    Iter  #Vectors  time (min)    max. residual 
    --------------------------------------------
 COSMO cphf update
 COSMO cphf update
 COSMO cphf update
 COSMO cphf update
 COSMO cphf update
 COSMO cphf update
 COSMO cphf update
 COSMO cphf update
 COSMO cphf update
 COSMO cphf update
 COSMO cphf update
 COSMO cphf update
 COSMO cphf update
 COSMO cphf update
 COSMO cphf update
 COSMO cphf update
 COSMO cphf update
 COSMO cphf update
 COSMO cphf update
 COSMO cphf update
 COSMO cphf update
 COSMO cphf update
 COSMO cphf update
 COSMO cphf update
 COSMO cphf update
 COSMO cphf update
 COSMO cphf update
 COSMO cphf update
 COSMO cphf update
 COSMO cphf update
 threshold for this macro iteration:  5.336030611254589E-002
      1      15        27.91     0.93E-01  (  2)
 COSMO cphf update
 COSMO cphf update
 COSMO cphf update
 COSMO cphf update
 COSMO cphf update
 COSMO cphf update
 COSMO cphf update
 COSMO cphf update
 COSMO cphf update
 COSMO cphf update
 COSMO cphf update
 COSMO cphf update
 COSMO cphf update
 COSMO cphf update
 ...adapted threshold to:  6.272692925371987E-002
      2       7        12.62     0.53E-01  ( 11)
                                                
     summary of start vectors generation:
     -------------------------------------------
     type of solution vectors      : RE0
     symmetry                      : a  
     number of vectors requested   :    15
     number of vectors generated   :    15
       -- restarted from file      :    15
     -------------------------------------------
                                                

    Iter  #Vectors  time (min)    max. residual 
    --------------------------------------------
 COSMO cphf update
 COSMO cphf update
 COSMO cphf update
 COSMO cphf update
 COSMO cphf update
 COSMO cphf update
 COSMO cphf update
 COSMO cphf update
 COSMO cphf update
 COSMO cphf update
 COSMO cphf update
 COSMO cphf update
 COSMO cphf update
 COSMO cphf update
 COSMO cphf update
 COSMO cphf update
 COSMO cphf update
 COSMO cphf update
 COSMO cphf update
 COSMO cphf update
 COSMO cphf update
 COSMO cphf update
 COSMO cphf update
 COSMO cphf update
 COSMO cphf update
 COSMO cphf update
 COSMO cphf update
 COSMO cphf update
 COSMO cphf update
 COSMO cphf update
 threshold for this macro iteration:  6.895757493080329E-003
      3      15        26.98     0.54E-01  ( 11)
 COSMO cphf update
 COSMO cphf update
 COSMO cphf update
 COSMO cphf update
 COSMO cphf update
 COSMO cphf update
 COSMO cphf update
 COSMO cphf update
 COSMO cphf update
 COSMO cphf update
 COSMO cphf update
 COSMO cphf update
 COSMO cphf update
 COSMO cphf update
 COSMO cphf update
 COSMO cphf update
 COSMO cphf update
 COSMO cphf update
 COSMO cphf update
 COSMO cphf update
 COSMO cphf update
 COSMO cphf update
 COSMO cphf update
 COSMO cphf update
 COSMO cphf update
 COSMO cphf update
 COSMO cphf update
 COSMO cphf update
 COSMO cphf update
 COSMO cphf update
      4      15        26.89     0.24E-01  ( 12)
 COSMO cphf update
 COSMO cphf update
 COSMO cphf update
 COSMO cphf update
 COSMO cphf update
 COSMO cphf update
 COSMO cphf update
 COSMO cphf update
 COSMO cphf update
 COSMO cphf update
 COSMO cphf update
 COSMO cphf update
 COSMO cphf update
 COSMO cphf update
 COSMO cphf update
 COSMO cphf update
 COSMO cphf update
 COSMO cphf update
 COSMO cphf update
 COSMO cphf update
 COSMO cphf update
 COSMO cphf update
 COSMO cphf update
 COSMO cphf update
 COSMO cphf update
 COSMO cphf update
 COSMO cphf update
 COSMO cphf update
      5      14        25.28     0.12E-01  ( 14)
 COSMO cphf update
 COSMO cphf update
 COSMO cphf update
 COSMO cphf update
 COSMO cphf update
 COSMO cphf update
      6       3         5.69     0.11E-01  ( 14)
 COSMO cphf update
 COSMO cphf update
      7       1         2.30     0.27E-01  ( 14)
 COSMO cphf update
 COSMO cphf update
      8       1         2.31     0.20E-01  ( 13)
 COSMO cphf update
 COSMO cphf update
 COSMO cphf update
 COSMO cphf update
      9       2         4.00     0.10E-01  ( 13)
 COSMO cphf update
 COSMO cphf update
     10       1         2.28     0.66E-02  (  4)
                                                
     summary of start vectors generation:
     -------------------------------------------
     type of solution vectors      : RE0
     symmetry                      : a  
     number of vectors requested   :    15
     number of vectors generated   :    15
       -- restarted from file      :    15
     -------------------------------------------
                                                

    Iter  #Vectors  time (min)    max. residual 
    --------------------------------------------
 COSMO cphf update
 COSMO cphf update
 COSMO cphf update
 COSMO cphf update
 COSMO cphf update
 COSMO cphf update
 COSMO cphf update
 COSMO cphf update
 COSMO cphf update
 COSMO cphf update
 COSMO cphf update
 COSMO cphf update
 COSMO cphf update
 COSMO cphf update
 COSMO cphf update
 COSMO cphf update
 COSMO cphf update
 COSMO cphf update
 COSMO cphf update
 COSMO cphf update
 COSMO cphf update
 COSMO cphf update
 COSMO cphf update
 COSMO cphf update
 COSMO cphf update
 COSMO cphf update
 COSMO cphf update
 COSMO cphf update
 COSMO cphf update
 COSMO cphf update
 threshold for this macro iteration:  1.171562537734089E-002
     11      15        27.04     0.62E-02  ( 11)
                                                
     summary of start vectors generation:
     -------------------------------------------
     type of solution vectors      : RE0
     symmetry                      : a  
     number of vectors requested   :    15
     number of vectors generated   :    15
       -- restarted from file      :    15
     -------------------------------------------
                                                

    Iter  #Vectors  time (min)    max. residual 
    --------------------------------------------
 COSMO cphf update
 COSMO cphf update
 COSMO cphf update
 COSMO cphf update
 COSMO cphf update
 COSMO cphf update
 COSMO cphf update
 COSMO cphf update
 COSMO cphf update
 COSMO cphf update
 COSMO cphf update
 COSMO cphf update
 COSMO cphf update
 COSMO cphf update
 COSMO cphf update
 COSMO cphf update
 COSMO cphf update
 COSMO cphf update
 COSMO cphf update
 COSMO cphf update
 COSMO cphf update
 COSMO cphf update
 COSMO cphf update
 COSMO cphf update
 COSMO cphf update
 COSMO cphf update
 COSMO cphf update
 COSMO cphf update
 COSMO cphf update
 COSMO cphf update
 threshold for this macro iteration:  2.714428564615567E-003
     12      15        26.95     0.36E-02  ( 11)
 COSMO cphf update
 COSMO cphf update
     13       1         2.29     0.20E-02  ( 11)
                                                
     summary of start vectors generation:
     -------------------------------------------
     type of solution vectors      : RE0
     symmetry                      : a  
     number of vectors requested   :    15
     number of vectors generated   :    15
       -- restarted from file      :    15
     -------------------------------------------
                                                

    Iter  #Vectors  time (min)    max. residual 
    --------------------------------------------
 COSMO cphf update
 COSMO cphf update
 COSMO cphf update
 COSMO cphf update
 COSMO cphf update
 COSMO cphf update
 COSMO cphf update
 COSMO cphf update
 COSMO cphf update
 COSMO cphf update
 COSMO cphf update
 COSMO cphf update
 COSMO cphf update
 COSMO cphf update
 COSMO cphf update
 COSMO cphf update
 COSMO cphf update
 COSMO cphf update
 COSMO cphf update
 COSMO cphf update
 COSMO cphf update
 COSMO cphf update
 COSMO cphf update
 COSMO cphf update
 COSMO cphf update
 COSMO cphf update
 COSMO cphf update
 COSMO cphf update
 COSMO cphf update
 COSMO cphf update
 threshold for this macro iteration:  1.000000000000000E-003
     14      15        26.90     0.28E-02  ( 11)
 COSMO cphf update
 COSMO cphf update
 COSMO cphf update
 COSMO cphf update
     15       2         4.00     0.20E-02  ( 11)
 COSMO cphf update
 COSMO cphf update
     16       1         2.29     0.12E-02  ( 11)
 COSMO cphf update
 COSMO cphf update
     17       1         2.28     0.96E-03  ( 13)
    --------------------------------------------
    converged in 17 iterations

         Total time        228.03 minutes


 ===========================================




 Note that this is the intermediate result of a preoptimization!
 The convergence threshold was  0.1E-02 only!
 COSMO: note that the excitation energies below do not include
        the nonequilibrium contributions yet. These require the
        computation of the relaxed densities. See end of output
        for a final list of corrected excitations.


 +==================================================================+
 | sym | multi | state |          ADC(2) excitation energies        |
 |     |       |       +--------------------------------------------+
 |     |       |       |   Hartree    |     eV       |     cm-1     |
 +==================================================================+
 | a   |   1   |   1   |    0.1380830 |      3.75743 |    30305.714 |
 | a   |   1   |   2   |    0.1389909 |      3.78213 |    30504.973 |
 | a   |   1   |   3   |    0.1668263 |      4.53957 |    36614.131 |
 | a   |   1   |   4   |    0.1695936 |      4.61488 |    37221.503 |
 | a   |   1   |   5   |    0.1951110 |      5.30924 |    42821.917 |
 | a   |   1   |   6   |    0.2113890 |      5.75219 |    46394.530 |
 | a   |   1   |   7   |    0.2128667 |      5.79240 |    46718.848 |
 | a   |   1   |   8   |    0.2224835 |      6.05408 |    48829.486 |
 | a   |   1   |   9   |    0.2363188 |      6.43056 |    51865.988 |
 | a   |   1   |  10   |    0.2439491 |      6.63819 |    53540.642 |
 | a   |   1   |  11   |    0.2539174 |      6.90944 |    55728.422 |
 | a   |   1   |  12   |    0.2561560 |      6.97036 |    56219.733 |
 | a   |   1   |  13   |    0.2565382 |      6.98076 |    56303.635 |
 | a   |   1   |  14   |    0.2705705 |      7.36260 |    59383.356 |
 | a   |   1   |  15   |    0.2720826 |      7.40374 |    59715.234 |
 +==================================================================+





  solve for ADC(2) excitation energies/vectors using a DIIS algorithm:
  =================================================================
                                                
     summary of start vectors generation:
     -------------------------------------------
     type of solution vectors      : RE0
     symmetry                      : a  
     number of vectors requested   :    15
     number of vectors generated   :    15
       -- restarted from file      :    15
     -------------------------------------------
                                                


 ========= DIIS CC RESPONSE SOLVER =========

    threshold for convergence:0.10E-05
    max. nb. of DIIS vectors :      10
    maximum number of simultaneous jacoby matrix transformations: 15

    Iter  #Vectors  time (min)   residual
    --------------------------------------
 COSMO cphf update
 COSMO cphf update
 COSMO cphf update
 COSMO cphf update
 COSMO cphf update
 COSMO cphf update
 COSMO cphf update
 COSMO cphf update
 COSMO cphf update
 COSMO cphf update
 COSMO cphf update
 COSMO cphf update
 COSMO cphf update
 COSMO cphf update
 COSMO cphf update
 COSMO cphf update
 COSMO cphf update
 COSMO cphf update
 COSMO cphf update
 COSMO cphf update
 COSMO cphf update
 COSMO cphf update
 COSMO cphf update
 COSMO cphf update
 COSMO cphf update
 COSMO cphf update
 COSMO cphf update
 COSMO cphf update
 COSMO cphf update
 COSMO cphf update
      1      15        27.13     0.45E-03  ( 11)    0.24E+00
 COSMO cphf update
 COSMO cphf update
 COSMO cphf update
 COSMO cphf update
 COSMO cphf update
 COSMO cphf update
 COSMO cphf update
 COSMO cphf update
 COSMO cphf update
 COSMO cphf update
 COSMO cphf update
 COSMO cphf update
 COSMO cphf update
 COSMO cphf update
 COSMO cphf update
 COSMO cphf update
 COSMO cphf update
 COSMO cphf update
 COSMO cphf update
 COSMO cphf update
 COSMO cphf update
 COSMO cphf update
 COSMO cphf update
 COSMO cphf update
 COSMO cphf update
 COSMO cphf update
 COSMO cphf update
 COSMO cphf update
 COSMO cphf update
 COSMO cphf update
      2      15        27.03     0.31E-03  ( 13)    0.52E-02
 COSMO cphf update
 COSMO cphf update
 COSMO cphf update
 COSMO cphf update
 COSMO cphf update
 COSMO cphf update
 COSMO cphf update
 COSMO cphf update
 COSMO cphf update
 COSMO cphf update
 COSMO cphf update
 COSMO cphf update
 COSMO cphf update
 COSMO cphf update
 COSMO cphf update
 COSMO cphf update
 COSMO cphf update
 COSMO cphf update
 COSMO cphf update
 COSMO cphf update
 COSMO cphf update
 COSMO cphf update
 COSMO cphf update
 COSMO cphf update
 COSMO cphf update
 COSMO cphf update
 COSMO cphf update
 COSMO cphf update
 COSMO cphf update
 COSMO cphf update
      3      15        26.99     0.25E-03  ( 15)    0.99E-02
 COSMO cphf update
 COSMO cphf update
 COSMO cphf update
 COSMO cphf update
 COSMO cphf update
 COSMO cphf update
 COSMO cphf update
 COSMO cphf update
 COSMO cphf update
 COSMO cphf update
 COSMO cphf update
 COSMO cphf update
 COSMO cphf update
 COSMO cphf update
 COSMO cphf update
 COSMO cphf update
 COSMO cphf update
 COSMO cphf update
 COSMO cphf update
 COSMO cphf update
 COSMO cphf update
 COSMO cphf update
 COSMO cphf update
 COSMO cphf update
 COSMO cphf update
 COSMO cphf update
 COSMO cphf update
 COSMO cphf update
 COSMO cphf update
 COSMO cphf update
      4      15        26.95     0.25E-03  ( 15)    0.77E-02
 COSMO cphf update
 COSMO cphf update
 COSMO cphf update
 COSMO cphf update
 COSMO cphf update
 COSMO cphf update
 COSMO cphf update
 COSMO cphf update
 COSMO cphf update
 COSMO cphf update
 COSMO cphf update
 COSMO cphf update
 COSMO cphf update
 COSMO cphf update
 COSMO cphf update
 COSMO cphf update
 COSMO cphf update
 COSMO cphf update
 COSMO cphf update
 COSMO cphf update
 COSMO cphf update
 COSMO cphf update
 COSMO cphf update
 COSMO cphf update
 COSMO cphf update
 COSMO cphf update
      5      13        23.47     0.22E-03  ( 15)    0.48E-02
 COSMO cphf update
 COSMO cphf update
 COSMO cphf update
 COSMO cphf update
 COSMO cphf update
 COSMO cphf update
 COSMO cphf update
 COSMO cphf update
 COSMO cphf update
 COSMO cphf update
 COSMO cphf update
 COSMO cphf update
 COSMO cphf update
 COSMO cphf update
 COSMO cphf update
 COSMO cphf update
 COSMO cphf update
 COSMO cphf update
 COSMO cphf update
 COSMO cphf update
 COSMO cphf update
 COSMO cphf update
      6      11        20.12     0.16E-03  ( 15)    0.37E-02
 COSMO cphf update
 COSMO cphf update
 COSMO cphf update
 COSMO cphf update
 COSMO cphf update
 COSMO cphf update
 COSMO cphf update
 COSMO cphf update
 COSMO cphf update
 COSMO cphf update
 COSMO cphf update
 COSMO cphf update
 COSMO cphf update
 COSMO cphf update
 COSMO cphf update
 COSMO cphf update
 COSMO cphf update
 COSMO cphf update
 COSMO cphf update
 COSMO cphf update
      7      10        18.24     0.11E-03  ( 15)    0.38E-02
 COSMO cphf update
 COSMO cphf update
 COSMO cphf update
 COSMO cphf update
 COSMO cphf update
 COSMO cphf update
 COSMO cphf update
 COSMO cphf update
 COSMO cphf update
 COSMO cphf update
 COSMO cphf update
 COSMO cphf update
 COSMO cphf update
 COSMO cphf update
 COSMO cphf update
 COSMO cphf update
      8       8        14.30     0.79E-04  ( 13)    0.40E-02
 COSMO cphf update
 COSMO cphf update
 COSMO cphf update
 COSMO cphf update
 COSMO cphf update
 COSMO cphf update
 COSMO cphf update
 COSMO cphf update
 COSMO cphf update
 COSMO cphf update
 COSMO cphf update
 COSMO cphf update
 COSMO cphf update
 COSMO cphf update
      9       7        12.57     0.66E-04  ( 13)    0.39E-02
 COSMO cphf update
 COSMO cphf update
 COSMO cphf update
 COSMO cphf update
 COSMO cphf update
 COSMO cphf update
 COSMO cphf update
 COSMO cphf update
 COSMO cphf update
 COSMO cphf update
 COSMO cphf update
 COSMO cphf update
 COSMO cphf update
 COSMO cphf update
     10       7        12.59     0.37E-04  ( 13)    0.37E-02
 COSMO cphf update
 COSMO cphf update
 COSMO cphf update
 COSMO cphf update
 COSMO cphf update
 COSMO cphf update
 COSMO cphf update
 COSMO cphf update
 COSMO cphf update
 COSMO cphf update
     11       5         9.14     0.30E-04  ( 14)    0.34E-02
 COSMO cphf update
 COSMO cphf update
 COSMO cphf update
 COSMO cphf update
 COSMO cphf update
 COSMO cphf update
 COSMO cphf update
 COSMO cphf update
 COSMO cphf update
 COSMO cphf update
     12       5         9.13     0.28E-04  ( 14)    0.34E-02
 COSMO cphf update
 COSMO cphf update
 COSMO cphf update
 COSMO cphf update
 COSMO cphf update
 COSMO cphf update
 COSMO cphf update
 COSMO cphf update
 COSMO cphf update
 COSMO cphf update
     13       5         9.12     0.26E-04  ( 14)    0.33E-02
 COSMO cphf update
 COSMO cphf update
 COSMO cphf update
 COSMO cphf update
 COSMO cphf update
 COSMO cphf update
 COSMO cphf update
 COSMO cphf update
 COSMO cphf update
 COSMO cphf update
     14       5         9.14     0.25E-04  ( 14)    0.34E-02
 COSMO cphf update
 COSMO cphf update
 COSMO cphf update
 COSMO cphf update
 COSMO cphf update
 COSMO cphf update
     15       3         5.69     0.25E-04  ( 14)    0.33E-02
 COSMO cphf update
 COSMO cphf update
 COSMO cphf update
 COSMO cphf update
 COSMO cphf update
 COSMO cphf update
     16       3         5.66     0.25E-04  ( 14)    0.33E-02
 COSMO cphf update
 COSMO cphf update
 COSMO cphf update
 COSMO cphf update
     17       2         3.98     0.25E-04  ( 14)    0.33E-02
 COSMO cphf update
 COSMO cphf update
 COSMO cphf update
 COSMO cphf update
     18       2         3.97     0.23E-04  ( 14)    0.33E-02
 COSMO cphf update
 COSMO cphf update
 COSMO cphf update
 COSMO cphf update
     19       2         3.97     0.23E-04  ( 14)    0.33E-02
 COSMO cphf update
 COSMO cphf update
 COSMO cphf update
 COSMO cphf update
     20       2         3.96     0.22E-04  ( 14)    0.33E-02
 COSMO cphf update
 COSMO cphf update
 COSMO cphf update
 COSMO cphf update
     21       2         3.99     0.22E-04  ( 14)    0.33E-02
 COSMO cphf update
 COSMO cphf update
 COSMO cphf update
 COSMO cphf update
     22       2         3.98     0.22E-04  ( 14)    0.33E-02
 COSMO cphf update
 COSMO cphf update
 COSMO cphf update
 COSMO cphf update
     23       2         3.97     0.22E-04  ( 14)    0.33E-02
 COSMO cphf update
 COSMO cphf update
 COSMO cphf update
 COSMO cphf update
     24       2         3.97     0.22E-04  ( 14)    0.33E-02
 COSMO cphf update
 COSMO cphf update
 COSMO cphf update
 COSMO cphf update
     25       2         4.00     0.22E-04  ( 14)    0.33E-02
 COSMO cphf update
 COSMO cphf update
 COSMO cphf update
 COSMO cphf update
     26       2         3.97     0.22E-04  ( 14)    0.33E-02
 COSMO cphf update
 COSMO cphf update
 COSMO cphf update
 COSMO cphf update
     27       2         3.97     0.22E-04  ( 14)    0.33E-02
 COSMO cphf update
 COSMO cphf update
 COSMO cphf update
 COSMO cphf update
     28       2         3.97     0.21E-04  ( 14)    0.33E-02
 COSMO cphf update
 COSMO cphf update
     29       1         2.28     0.20E-04  ( 14)    0.33E-02
 COSMO cphf update
 COSMO cphf update
     30       1         2.27     0.20E-04  ( 14)    0.33E-02
 COSMO cphf update
 COSMO cphf update
     31       1         2.28     0.19E-04  ( 14)    0.33E-02
 COSMO cphf update
 COSMO cphf update
     32       1         2.27     0.19E-04  ( 14)    0.33E-02
 COSMO cphf update
 COSMO cphf update
     33       1         2.27     0.18E-04  ( 14)    0.33E-02
 COSMO cphf update
 COSMO cphf update
     34       1         2.27     0.17E-04  ( 14)    0.33E-02
 COSMO cphf update
 COSMO cphf update
     35       1         2.30     0.16E-04  ( 14)    0.33E-02
 COSMO cphf update
 COSMO cphf update
     36       1         2.28     0.16E-04  ( 14)    0.33E-02
 COSMO cphf update
 COSMO cphf update
     37       1         2.30     0.16E-04  ( 14)    0.33E-02
 COSMO cphf update
 COSMO cphf update
     38       1         2.27     0.16E-04  ( 14)    0.33E-02
 COSMO cphf update
 COSMO cphf update
     39       1         2.27     0.16E-04  ( 14)    0.33E-02
 COSMO cphf update
 COSMO cphf update
     40       1         2.28     0.16E-04  ( 14)    0.33E-02
 COSMO cphf update
 COSMO cphf update
     41       1         2.32     0.16E-04  ( 14)    0.33E-02
 COSMO cphf update
 COSMO cphf update
     42       1         2.28     0.16E-04  ( 14)    0.33E-02
 COSMO cphf update
 COSMO cphf update
     43       1         2.27     0.15E-04  ( 14)    0.33E-02
 COSMO cphf update
 COSMO cphf update
     44       1         2.27     0.14E-04  ( 14)    0.33E-02
 COSMO cphf update
 COSMO cphf update
     45       1         2.27     0.12E-04  ( 14)    0.33E-02
 COSMO cphf update
 COSMO cphf update
     46       1         2.27     0.84E-05  ( 14)    0.33E-02
 COSMO cphf update
 COSMO cphf update
     47       1         2.28     0.57E-05  ( 14)    0.33E-02
 COSMO cphf update
 COSMO cphf update
     48       1         2.27     0.39E-05  ( 14)    0.33E-02
 COSMO cphf update
 COSMO cphf update
     49       1         2.27     0.30E-05  ( 14)    0.33E-02
 COSMO cphf update
 COSMO cphf update
     50       1         2.28     0.27E-05  ( 14)    0.33E-02
 COSMO cphf update
 COSMO cphf update
     51       1         2.28     0.23E-05  ( 14)    0.33E-02
 COSMO cphf update
 COSMO cphf update
     52       1         2.28     0.17E-05  ( 14)    0.33E-02
 COSMO cphf update
 COSMO cphf update
     53       1         2.29     0.14E-05  ( 14)    0.33E-02
 COSMO cphf update
 COSMO cphf update
     54       1         2.27     0.11E-05  ( 14)    0.33E-02
 COSMO cphf update
 COSMO cphf update
     55       1         2.28     0.96E-06  ( 14)    0.33E-02
    --------------------------------------
    converged in  55 iterations

   Total time        366.52 minutes


 ===========================================


 COSMO: note that the excitation energies below do not include
        the nonequilibrium contributions yet. These require the
        computation of the relaxed densities. See end of output
        for a final list of corrected excitations.



 +================================================================================+
 | sym | multi | state |          ADC(2) excitation energies    |  %t1   |  %t2   |
 |     |       |       +----------------------------------------+--------+--------+
 |     |       |       |   Hartree    |    eV      |    cm-1    |    %   |    %   |
 +================================================================================+
 | a   |   1   |   1   |    0.1380839 |    3.75745 |  30305.911 |  89.71 |  10.29 |
 | a   |   1   |   2   |    0.1389947 |    3.78224 |  30505.814 |  87.72 |  12.28 |
 | a   |   1   |   3   |    0.1668267 |    4.53958 |  36614.219 |  90.15 |   9.85 |
 | a   |   1   |   4   |    0.1695942 |    4.61489 |  37221.617 |  89.76 |  10.24 |
 | a   |   1   |   5   |    0.1951124 |    5.30928 |  42822.226 |  88.35 |  11.65 |
 | a   |   1   |   6   |    0.2113887 |    5.75218 |  46394.449 |  91.97 |   8.03 |
 | a   |   1   |   7   |    0.2128678 |    5.79243 |  46719.075 |  88.88 |  11.12 |
 | a   |   1   |   8   |    0.2224860 |    6.05415 |  48830.043 |  89.70 |  10.30 |
 | a   |   1   |   9   |    0.2363190 |    6.43057 |  51866.030 |  91.46 |   8.54 |
 | a   |   1   |  10   |    0.2439483 |    6.63817 |  53540.465 |  91.49 |   8.51 |
 | a   |   1   |  11   |    0.2538721 |    6.90821 |  55718.486 |  85.33 |  14.67 |
 | a   |   1   |  12   |    0.2561861 |    6.97118 |  56226.350 |  91.72 |   8.28 |
 | a   |   1   |  13   |    0.2565564 |    6.98126 |  56307.624 |  91.30 |   8.70 |
 | a   |   1   |  14   |    0.2705653 |    7.36246 |  59382.214 |  92.06 |   7.94 |
 | a   |   1   |  15   |    0.2720832 |    7.40376 |  59715.359 |  91.01 |   8.99 |
 +================================================================================+


       Energy:     0.1380839 H      3.75745 eV    30305.911 cm-1

     +=======================================================================+
     | type: RE0                    symmetry: a               state:    1    |
     +-----------------------+-----------------------+-----------------------+
     | occ. orb.  index spin | vir. orb.  index spin |  coeff/|amp|     %    |
     +=======================+=======================+=======================+
     |   32 a       32       |   37 a       37       |   0.91212      83.2   |
     |   32 a       32       |   49 a       49       |  -0.31453       9.9   |
     |   32 a       32       |   54 a       54       |  -0.14886       2.2   |
     +=======================+=======================+=======================+
     norm of printed elements:  0.95305


       Energy:     0.1389947 H      3.78224 eV    30505.814 cm-1

     +=======================================================================+
     | type: RE0                    symmetry: a               state:    2    |
     +-----------------------+-----------------------+-----------------------+
     | occ. orb.  index spin | vir. orb.  index spin |  coeff/|amp|     %    |
     +=======================+=======================+=======================+
     |   36 a       36       |   37 a       37       |   0.96647      93.4   |
     |   36 a       36       |   45 a       45       |  -0.12285       1.5   |
     |   36 a       36       |   49 a       49       |  -0.08921       0.8   |
     +=======================+=======================+=======================+
     norm of printed elements:  0.95712


       Energy:     0.1668267 H      4.53958 eV    36614.219 cm-1

     +=======================================================================+
     | type: RE0                    symmetry: a               state:    3    |
     +-----------------------+-----------------------+-----------------------+
     | occ. orb.  index spin | vir. orb.  index spin |  coeff/|amp|     %    |
     +=======================+=======================+=======================+
     |   31 a       31       |   37 a       37       |   0.91007      82.8   |
     |   31 a       31       |   49 a       49       |  -0.30062       9.0   |
     |   31 a       31       |   54 a       54       |  -0.14093       2.0   |
     |   28 a       28       |   37 a       37       |  -0.13084       1.7   |
     +=======================+=======================+=======================+
     norm of printed elements:  0.95557


       Energy:     0.1695942 H      4.61489 eV    37221.617 cm-1

     +=======================================================================+
     | type: RE0                    symmetry: a               state:    4    |
     +-----------------------+-----------------------+-----------------------+
     | occ. orb.  index spin | vir. orb.  index spin |  coeff/|amp|     %    |
     +=======================+=======================+=======================+
     |   36 a       36       |   43 a       43       |   0.79296      62.9   |
     |   35 a       35       |   37 a       37       |  -0.53332      28.4   |
     |   35 a       35       |   45 a       45       |   0.14669       2.2   |
     |   36 a       36       |   50 a       50       |   0.12371       1.5   |
     +=======================+=======================+=======================+
     norm of printed elements:  0.95004


       Energy:     0.1951124 H      5.30928 eV    42822.226 cm-1

     +=======================================================================+
     | type: RE0                    symmetry: a               state:    5    |
     +-----------------------+-----------------------+-----------------------+
     | occ. orb.  index spin | vir. orb.  index spin |  coeff/|amp|     %    |
     +=======================+=======================+=======================+
     |   35 a       35       |   37 a       37       |   0.74137      55.0   |
     |   36 a       36       |   43 a       43       |   0.47892      22.9   |
     |   34 a       34       |   37 a       37       |   0.39065      15.3   |
     |   34 a       34       |   49 a       49       |  -0.10302       1.1   |
     |   33 a       33       |   43 a       43       |   0.09406       0.9   |
     +=======================+=======================+=======================+
     norm of printed elements:  0.95106


       Energy:     0.2113887 H      5.75218 eV    46394.449 cm-1

     +=======================================================================+
     | type: RE0                    symmetry: a               state:    6    |
     +-----------------------+-----------------------+-----------------------+
     | occ. orb.  index spin | vir. orb.  index spin |  coeff/|amp|     %    |
     +=======================+=======================+=======================+
     |   36 a       36       |   38 a       38       |   0.83635      69.9   |
     |   36 a       36       |   39 a       39       |   0.41628      17.3   |
     |   36 a       36       |   44 a       44       |  -0.14523       2.1   |
     |   36 a       36       |   64 a       64       |  -0.14363       2.1   |
     |   33 a       33       |   39 a       39       |   0.12290       1.5   |
     |   33 a       33       |   38 a       38       |   0.12128       1.5   |
     |   36 a       36       |   63 a       63       |   0.08152       0.7   |
     +=======================+=======================+=======================+
     norm of printed elements:  0.95095


       Energy:     0.2128678 H      5.79243 eV    46719.075 cm-1

     +=======================================================================+
     | type: RE0                    symmetry: a               state:    7    |
     +-----------------------+-----------------------+-----------------------+
     | occ. orb.  index spin | vir. orb.  index spin |  coeff/|amp|     %    |
     +=======================+=======================+=======================+
     |   34 a       34       |   37 a       37       |  -0.85338      72.8   |
     |   35 a       35       |   37 a       37       |   0.33082      10.9   |
     |   36 a       36       |   43 a       43       |   0.20826       4.3   |
     |   34 a       34       |   49 a       49       |   0.20745       4.3   |
     |   33 a       33       |   43 a       43       |   0.10501       1.1   |
     |   34 a       34       |   54 a       54       |   0.09560       0.9   |
     |   36 a       36       |   50 a       50       |   0.05977       0.4   |
     |   32 a       32       |   39 a       39       |   0.04811       0.2   |
     |   35 a       35       |   45 a       45       |  -0.04795       0.2   |
     +=======================+=======================+=======================+
     norm of printed elements:  0.95246


       Energy:     0.2224860 H      6.05415 eV    48830.043 cm-1

     +=======================================================================+
     | type: RE0                    symmetry: a               state:    8    |
     +-----------------------+-----------------------+-----------------------+
     | occ. orb.  index spin | vir. orb.  index spin |  coeff/|amp|     %    |
     +=======================+=======================+=======================+
     |   36 a       36       |   49 a       49       |   0.75343      56.8   |
     |   36 a       36       |   45 a       45       |  -0.41666      17.4   |
     |   33 a       33       |   37 a       37       |   0.28397       8.1   |
     |   36 a       36       |   54 a       54       |   0.20290       4.1   |
     |   35 a       35       |   43 a       43       |   0.19356       3.7   |
     |   36 a       36       |   60 a       60       |  -0.18122       3.3   |
     |   33 a       33       |   49 a       49       |   0.08110       0.7   |
     |   33 a       33       |   45 a       45       |  -0.07332       0.5   |
     |   36 a       36       |   72 a       72       |  -0.06685       0.4   |
     |   29 a       29       |   49 a       49       |  -0.06680       0.4   |
     +=======================+=======================+=======================+
     norm of printed elements:  0.95426


       Energy:     0.2363190 H      6.43057 eV    51866.030 cm-1

     +=======================================================================+
     | type: RE0                    symmetry: a               state:    9    |
     +-----------------------+-----------------------+-----------------------+
     | occ. orb.  index spin | vir. orb.  index spin |  coeff/|amp|     %    |
     +=======================+=======================+=======================+
     |   36 a       36       |   39 a       39       |  -0.63009      39.7   |
     |   36 a       36       |   42 a       42       |   0.54508      29.7   |
     |   36 a       36       |   38 a       38       |   0.35987      13.0   |
     |   36 a       36       |   44 a       44       |  -0.26736       7.1   |
     |   36 a       36       |   64 a       64       |  -0.12314       1.5   |
     |   33 a       33       |   42 a       42       |   0.11167       1.2   |
     |   36 a       36       |   69 a       69       |   0.10578       1.1   |
     |   33 a       33       |   39 a       39       |  -0.10444       1.1   |
     |   36 a       36       |   58 a       58       |   0.10407       1.1   |
     +=======================+=======================+=======================+
     norm of printed elements:  0.95568


       Energy:     0.2439483 H      6.63817 eV    53540.465 cm-1

     +=======================================================================+
     | type: RE0                    symmetry: a               state:   10    |
     +-----------------------+-----------------------+-----------------------+
     | occ. orb.  index spin | vir. orb.  index spin |  coeff/|amp|     %    |
     +=======================+=======================+=======================+
     |   36 a       36       |   40 a       40       |   0.84936      72.1   |
     |   36 a       36       |   41 a       41       |  -0.42257      17.9   |
     |   36 a       36       |   68 a       68       |   0.13175       1.7   |
     |   35 a       35       |   38 a       38       |   0.11325       1.3   |
     |   36 a       36       |   66 a       66       |  -0.10836       1.2   |
     |   33 a       33       |   41 a       41       |  -0.09912       1.0   |
     +=======================+=======================+=======================+
     norm of printed elements:  0.95173


       Energy:     0.2538721 H      6.90821 eV    55718.486 cm-1

     +=======================================================================+
     | type: RE0                    symmetry: a               state:   11    |
     +-----------------------+-----------------------+-----------------------+
     | occ. orb.  index spin | vir. orb.  index spin |  coeff/|amp|     %    |
     +=======================+=======================+=======================+
     |   33 a       33       |   37 a       37       |   0.89890      80.8   |
     |   36 a       36       |   49 a       49       |  -0.25266       6.4   |
     |   36 a       36       |   45 a       45       |   0.16649       2.8   |
     |   35 a       35       |   43 a       43       |   0.15107       2.3   |
     |   33 a       33       |   45 a       45       |  -0.12447       1.5   |
     |   29 a       29       |   37 a       37       |   0.10704       1.1   |
     |   33 a       33       |   49 a       49       |  -0.07751       0.6   |
     +=======================+=======================+=======================+
     norm of printed elements:  0.95535


       Energy:     0.2561861 H      6.97118 eV    56226.350 cm-1

     +=======================================================================+
     | type: RE0                    symmetry: a               state:   12    |
     +-----------------------+-----------------------+-----------------------+
     | occ. orb.  index spin | vir. orb.  index spin |  coeff/|amp|     %    |
     +=======================+=======================+=======================+
     |   35 a       35       |   43 a       43       |   0.85622      73.3   |
     |   36 a       36       |   44 a       44       |  -0.30676       9.4   |
     |   33 a       33       |   37 a       37       |  -0.22682       5.1   |
     |   35 a       35       |   50 a       50       |   0.09766       1.0   |
     |   35 a       35       |   56 a       56       |   0.09194       0.8   |
     |   29 a       29       |   37 a       37       |   0.08235       0.7   |
     |   36 a       36       |   55 a       55       |   0.08075       0.7   |
     |   36 a       36       |   38 a       38       |  -0.07673       0.6   |
     |   36 a       36       |   49 a       49       |  -0.07263       0.5   |
     |   34 a       34       |   43 a       43       |   0.06960       0.5   |
     |   35 a       35       |   61 a       61       |   0.06321       0.4   |
     |   35 a       35       |   41 a       41       |  -0.06172       0.4   |
     |   36 a       36       |   48 a       48       |   0.06021       0.4   |
     |   33 a       33       |   49 a       49       |  -0.05959       0.4   |
     |   33 a       33       |   45 a       45       |   0.05444       0.3   |
     |   35 a       35       |   75 a       75       |   0.05284       0.3   |
     |   36 a       36       |   37 a       37       |  -0.05237       0.3   |
     |   36 a       36       |   63 a       63       |   0.05212       0.3   |
     +=======================+=======================+=======================+
     norm of printed elements:  0.95216


       Energy:     0.2565564 H      6.98126 eV    56307.624 cm-1

     +=======================================================================+
     | type: RE0                    symmetry: a               state:   13    |
     +-----------------------+-----------------------+-----------------------+
     | occ. orb.  index spin | vir. orb.  index spin |  coeff/|amp|     %    |
     +=======================+=======================+=======================+
     |   36 a       36       |   44 a       44       |   0.81091      65.8   |
     |   35 a       35       |   43 a       43       |   0.33448      11.2   |
     |   36 a       36       |   55 a       55       |  -0.20848       4.3   |
     |   36 a       36       |   38 a       38       |   0.18561       3.4   |
     |   36 a       36       |   63 a       63       |  -0.17511       3.1   |
     |   36 a       36       |   48 a       48       |  -0.13246       1.8   |
     |   36 a       36       |   42 a       42       |   0.11919       1.4   |
     |   36 a       36       |   67 a       67       |  -0.10186       1.0   |
     |   36 a       36       |   39 a       39       |  -0.09821       1.0   |
     |   36 a       36       |   70 a       70       |  -0.08929       0.8   |
     |   33 a       33       |   44 a       44       |   0.06532       0.4   |
     |   36 a       36       |   49 a       49       |  -0.06423       0.4   |
     |   36 a       36       |   46 a       46       |  -0.06382       0.4   |
     +=======================+=======================+=======================+
     norm of printed elements:  0.95024


       Energy:     0.2705653 H      7.36246 eV    59382.214 cm-1

     +=======================================================================+
     | type: RE0                    symmetry: a               state:   14    |
     +-----------------------+-----------------------+-----------------------+
     | occ. orb.  index spin | vir. orb.  index spin |  coeff/|amp|     %    |
     +=======================+=======================+=======================+
     |   35 a       35       |   38 a       38       |   0.88676      78.6   |
     |   35 a       35       |   44 a       44       |  -0.21232       4.5   |
     |   35 a       35       |   64 a       64       |  -0.19898       4.0   |
     |   35 a       35       |   42 a       42       |   0.18610       3.5   |
     |   36 a       36       |   40 a       40       |  -0.17715       3.1   |
     |   35 a       35       |   39 a       39       |   0.16126       2.6   |
     +=======================+=======================+=======================+
     norm of printed elements:  0.96303


       Energy:     0.2720832 H      7.40376 eV    59715.359 cm-1

     +=======================================================================+
     | type: RE0                    symmetry: a               state:   15    |
     +-----------------------+-----------------------+-----------------------+
     | occ. orb.  index spin | vir. orb.  index spin |  coeff/|amp|     %    |
     +=======================+=======================+=======================+
     |   36 a       36       |   42 a       42       |   0.67081      45.0   |
     |   36 a       36       |   39 a       39       |   0.50776      25.8   |
     |   36 a       36       |   48 a       48       |   0.35031      12.3   |
     |   36 a       36       |   46 a       46       |  -0.23233       5.4   |
     |   36 a       36       |   38 a       38       |  -0.16190       2.6   |
     |   36 a       36       |   62 a       62       |  -0.12577       1.6   |
     |   33 a       33       |   42 a       42       |   0.10448       1.1   |
     |   36 a       36       |   77 a       77       |  -0.09997       1.0   |
     |   36 a       36       |   55 a       55       |   0.07524       0.6   |
     +=======================+=======================+=======================+
     norm of printed elements:  0.95310



     Info: copy ADC(2) right eigenvectors into left eigenvector files.


                    ========   CC DENSITY MODULE   ========

                      current wave-function model: ADC(2)  

  calculating overlap between   15 left and right vector(s)
    density nr.      cpu/min        wall/min    L     R
   ------------------------------------------------------
         1             1.67            1.71    LE0    RE0 
         2             1.67            1.71    LE0    RE0 
         3             1.67            1.71    LE0    RE0 
         4             1.67            1.71    LE0    RE0 
         5             1.67            1.71    LE0    RE0 
         6             1.67            1.71    LE0    RE0 
         7             1.67            1.71    LE0    RE0 
         8             1.67            1.71    LE0    RE0 
         9             1.67            1.71    LE0    RE0 
        10             1.67            1.71    LE0    RE0 
        11             1.67            1.71    LE0    RE0 
        12             1.67            1.71    LE0    RE0 
        13             1.67            1.71    LE0    RE0 
        14             1.67            1.71    LE0    RE0 
        15             1.67            1.71    LE0    RE0 
   ------------------------------------------------------
     time in cc_1den       cpu: 25 min  3 s  wall: 25 min 37 s  ratio:  1.0



     +==========================================================+
     |   contributions of excitation levels to excited states   |
     |     wavefunctions as computed from the <L|R> overlap     |
     +----------------------------------------------------------+
     | sym | multi | state |    E / eV  | % singles | % doubles |
     +==========================================================+
     | a   |   1   |   1   |    3.75745 |   89.71   |   10.29   |
     | a   |   1   |   2   |    3.78224 |   87.72   |   12.28   |
     | a   |   1   |   3   |    4.53958 |   90.15   |    9.85   |
     | a   |   1   |   4   |    4.61489 |   89.76   |   10.24   |
     | a   |   1   |   5   |    5.30928 |   88.35   |   11.65   |
     | a   |   1   |   6   |    5.75218 |   91.97   |    8.03   |
     | a   |   1   |   7   |    5.79243 |   88.88   |   11.12   |
     | a   |   1   |   8   |    6.05415 |   89.70   |   10.30   |
     | a   |   1   |   9   |    6.43057 |   91.46   |    8.54   |
     | a   |   1   |  10   |    6.63817 |   91.49   |    8.51   |
     | a   |   1   |  11   |    6.90821 |   85.33   |   14.67   |
     | a   |   1   |  12   |    6.97118 |   91.72   |    8.28   |
     | a   |   1   |  13   |    6.98126 |   91.30   |    8.70   |
     | a   |   1   |  14   |    7.36246 |   92.06   |    7.94   |
     | a   |   1   |  15   |    7.40376 |   91.01   |    8.99   |
     +==========================================================+




   **************************************************************************
   **************************************************************************
   **                                                                      **
   **          CALCULATION OF COUPLED CLUSTER RESPONSE PROPERTIES          **
   **                                                                      **
   **************************************************************************
   **************************************************************************

      The semi-canonical algorithm will be used for densities

  === B matrix transformation for   15 state(s) ===


                   ======== (gen.) F MATRIX MODULE  ========
               calculating    15 L * B * R transformations


                    ========   CC DENSITY MODULE   ========

                      current wave-function model: MP2     

  calculating CC ground state density

   a semicanonical algorithm will be used

    density nr.      cpu/min        wall/min    L     R
   ------------------------------------------------------
         1             1.55            1.66    L0     R0  
   ------------------------------------------------------
     time in cc_1den       cpu:  1 min 33 s  wall:  1 min 40 s  ratio:  0.9

 reading orbital data $scfmo  from file mos . 

 orbital characterization : scfconv=7
 
 all orbitals will be active in the correlation treatment

   EMP2            :     -491.422065577445
   EMP2 from traces:     -491.422065577445
   Delta           :        0.000000000000

   --------------------------------------------------------------------------

        Solving 4-Index ERI based CPHF equations using a RI-CPHF
        preoptimization with a "cbas" type auxiliary basis


 ======== LINEAR CC RESPONSE SOLVER ========

    threshold for convergence: 0.10E-01
    maximum number of simultaneous jacoby matrix transformations:  1
                                                
     summary of start vectors generation:
     -------------------------------------------
     type of solution vectors      : l0o
     symmetry                      : a  
     number of vectors requested   :     1
     number of vectors generated   :     1
     -------------------------------------------
                                                

    Iter  #Vectors  time (min)    max. residual 
    --------------------------------------------
      1       1         0.44     0.35E+00  (  1)
      2       1         0.43     0.16E+00  (  1)
      3       1         0.44     0.66E-01  (  1)
      4       1         0.42     0.29E-01  (  1)
      5       1         0.44     0.12E-01  (  1)
      6       1         0.43     0.54E-02  (  1)
    --------------------------------------------
    converged in  6 iterations

         Total time          2.61 minutes


 ===========================================




 ======== LINEAR CC RESPONSE SOLVER ========

    threshold for convergence: 0.10E-03
    maximum number of simultaneous jacoby matrix transformations:  1
                                                
     summary of start vectors generation:
     -------------------------------------------
     type of solution vectors      : l0o
     symmetry                      : a  
     number of vectors requested   :     1
     number of vectors generated   :     1
     -------------------------------------------
                                                

    Iter  #Vectors  time (min)    max. residual 
    --------------------------------------------
      1       1         2.19     0.54E-02  (  1)
      2       1         2.21     0.22E-02  (  1)
      3       1         2.19     0.12E-02  (  1)
      4       1         2.23     0.46E-03  (  1)
      5       1         2.21     0.23E-03  (  1)
      6       1         2.23     0.11E-03  (  1)
      7       1         2.23     0.30E-04  (  1)
    --------------------------------------------
    converged in  7 iterations

         Total time         15.48 minutes


 ===========================================


   --------------------------------------------------------------------------
 COSMO: write data to file cosmotransfer


                    ========   CC DENSITY MODULE   ========

                      current wave-function model: ADC(2)  

  calculating    30 xi densities
     and    15 xi type intermediate(s) for excited state gradient

   a semicanonical algorithm will be used

    density nr.      cpu/min        wall/min    L     R
   ------------------------------------------------------
         1             2.79            2.93    LE0    R0  
         2             2.84            2.98    LE0    R0  
         3             2.82            2.96    LE0    R0  
         4             2.80            2.93    LE0    R0  
         5             2.82            2.96    LE0    R0  
         6             2.84            2.98    LE0    R0  
         7             2.84            2.97    LE0    R0  
         8             2.82            2.97    LE0    R0  
         9             2.80            2.93    LE0    R0  
        10             2.84            2.98    LE0    R0  
        11             2.81            2.94    LE0    R0  
        12             2.80            2.94    LE0    R0  
        13             2.80            2.94    LE0    R0  
        14             2.80            2.93    LE0    R0  
        15             2.80            2.95    LE0    R0  
        16             4.34            4.82    NL0    R0  
        17             4.34            4.84    NL0    R0  
        18             4.33            4.82    NL0    R0  
        19             4.34            4.80    NL0    R0  
        20             4.33            4.81    NL0    R0  
        21             4.34            4.82    NL0    R0  
        22             4.33            4.82    NL0    R0  
        23             4.35            4.83    NL0    R0  
        24             4.35            4.85    NL0    R0  
        25             4.36            4.84    NL0    R0  
        26             4.36            4.83    NL0    R0  
        27             4.36            4.88    NL0    R0  
        28             4.35            4.83    NL0    R0  
        29             4.35            4.82    NL0    R0  
        30             4.35            4.87    NL0    R0  
   ------------------------------------------------------
     time in cc_1den       cpu:  1 h 47 min  wall:  1 h 56 min  ratio:  0.9


                    ========   CC DENSITY MODULE   ========

                      current wave-function model: ADC(2)  

  calculating    15 A densities
     and    15 set of A type intermediate(s) for excited state gradient

   a semicanonical algorithm will be used

    density nr.      cpu/min        wall/min    L     R
   ------------------------------------------------------
 COSMO cphf update
 COSMO cphf update
         1             6.40            7.07    LE0    RE0 
 COSMO cphf update
 COSMO cphf update
         2             6.41            7.08    LE0    RE0 
 COSMO cphf update
 COSMO cphf update
         3             6.40            7.06    LE0    RE0 
 COSMO cphf update
 COSMO cphf update
         4             6.41            7.08    LE0    RE0 
 COSMO cphf update
 COSMO cphf update
         5             6.40            7.08    LE0    RE0 
 COSMO cphf update
 COSMO cphf update
         6             6.41            7.08    LE0    RE0 
 COSMO cphf update
 COSMO cphf update
         7             6.40            7.09    LE0    RE0 
 COSMO cphf update
 COSMO cphf update
         8             6.41            7.10    LE0    RE0 
 COSMO cphf update
 COSMO cphf update
         9             6.41            7.11    LE0    RE0 
 COSMO cphf update
 COSMO cphf update
        10             6.41            7.09    LE0    RE0 
 COSMO cphf update
 COSMO cphf update
        11             6.40            7.09    LE0    RE0 
 COSMO cphf update
 COSMO cphf update
        12             6.40            7.08    LE0    RE0 
 COSMO cphf update
 COSMO cphf update
        13             6.41            7.10    LE0    RE0 
 COSMO cphf update
 COSMO cphf update
        14             6.41            7.09    LE0    RE0 
 COSMO cphf update
 COSMO cphf update
        15             6.40            7.07    LE0    RE0 
   ------------------------------------------------------
     time in cc_1den       cpu:  1 h 36 min  wall:  1 h 46 min  ratio:  0.9

 reading orbital data $scfmo  from file mos . 

 orbital characterization : scfconv=7
 
 all orbitals will be active in the correlation treatment

   EMP2+Excitation energy :     -491.283981689707
   dto. calc. from traces :     -491.283981689551
   Delta                  :       -0.000000000156


   EMP2+Excitation energy :     -491.283071096146
   dto. calc. from traces :     -491.283071011516
   Delta                  :       -0.000000084630


   EMP2+Excitation energy :     -491.255238920962
   dto. calc. from traces :     -491.255238920724
   Delta                  :       -0.000000000237


   EMP2+Excitation energy :     -491.252471375967
   dto. calc. from traces :     -491.252471389683
   Delta                  :        0.000000013717


   EMP2+Excitation energy :     -491.226953167445
   dto. calc. from traces :     -491.226953166325
   Delta                  :       -0.000000001120


   EMP2+Excitation energy :     -491.210676905109
   dto. calc. from traces :     -491.210676908166
   Delta                  :        0.000000003057


   EMP2+Excitation energy :     -491.209197805285
   dto. calc. from traces :     -491.209197805791
   Delta                  :        0.000000000506


   EMP2+Excitation energy :     -491.199579550986
   dto. calc. from traces :     -491.199579547441
   Delta                  :       -0.000000003545


   EMP2+Excitation energy :     -491.185746554686
   dto. calc. from traces :     -491.185746554963
   Delta                  :        0.000000000277


   EMP2+Excitation energy :     -491.178117279658
   dto. calc. from traces :     -491.178117274814
   Delta                  :       -0.000000004844


   EMP2+Excitation energy :     -491.168193404985
   dto. calc. from traces :     -491.168193437194
   Delta                  :        0.000000032210


   EMP2+Excitation energy :     -491.165879464113
   dto. calc. from traces :     -491.165879465874
   Delta                  :        0.000000001761


   EMP2+Excitation energy :     -491.165509155893
   dto. calc. from traces :     -491.165509155696
   Delta                  :       -0.000000000197


   EMP2+Excitation energy :     -491.151500303438
   dto. calc. from traces :     -491.151500303420
   Delta                  :       -0.000000000018


   EMP2+Excitation energy :     -491.149982383511
   dto. calc. from traces :     -491.149982382956
   Delta                  :       -0.000000000555

   --------------------------------------------------------------------------

        Solving 4-Index ERI based CPHF equations using a RI-CPHF
        preoptimization with a "cbas" type auxiliary basis


 ======== LINEAR CC RESPONSE SOLVER ========

    threshold for convergence: 0.10E-01
    maximum number of simultaneous jacoby matrix transformations: 15
                                                
     summary of start vectors generation:
     -------------------------------------------
     type of solution vectors      : l0o
     symmetry                      : a  
     number of vectors requested   :    15
     number of vectors generated   :    15
       -- guessed as rhs/(e_a-e_i) :    14
     -------------------------------------------
                                                

    Iter  #Vectors  time (min)    max. residual 
    --------------------------------------------
      1      15         5.08     0.25E+00  (  7)
      2      15         4.10     0.50E-01  (  7)
      3      15         4.10     0.98E-02  (  7)
    --------------------------------------------
    converged in  3 iterations

         Total time         13.31 minutes


 ===========================================




 ======== LINEAR CC RESPONSE SOLVER ========

    threshold for convergence: 0.10E-03
    maximum number of simultaneous jacoby matrix transformations: 15
                                                
     summary of start vectors generation:
     -------------------------------------------
     type of solution vectors      : l0o
     symmetry                      : a  
     number of vectors requested   :    15
     number of vectors generated   :    15
       -- restarted from file      :    15
     -------------------------------------------
                                                

    Iter  #Vectors  time (min)    max. residual 
    --------------------------------------------
      1      15        11.22     0.98E-02  (  7)
      2      15        11.32     0.27E-02  (  7)
      3      15        11.36     0.59E-03  (  3)
      4      15        11.34     0.13E-03  (  3)
      5       3         3.61     0.55E-04  ( 11)
    --------------------------------------------
    converged in  5 iterations

         Total time         48.87 minutes


 ===========================================


   --------------------------------------------------------------------------


 **************************************************************
 *                                                            *
 *<<<<<<<<<<  GROUND STATE FIRST-ORDER PROPERTIES  >>>>>>>>>>>*
 *                                                            *
 **************************************************************



        ------------------------------------------------
            Method          :  MP2     
            Total Energy    :   -491.4220655774
            D1 diagnostic   :      0.0589
        ------------------------------------------------


        ------------------------------------------------
                      moments of inertia 
              453.198   2167.006   2619.837  in a.u.
 
                     rotational constants 
              0.13283    0.02778    0.02298  in cm**(-1)
        ------------------------------------------------


  NOTE: unrelaxed properties printed below refer to the MP1 wavefunction and
        are only correct through first order in the fluctuation potential!

 +===========================================================================+
 | OPERATOR         | EXPECTAT. VALUE  | ELECTRONIC CONT. | NUCLEAR CONTRIB. |
 +==================+==================+==================+==================+
 |                  |                  |                  |                  |
 | xdiplen  (unrel) |      3.71394276  |     91.78282265  |    -88.06887989  | 
 | xdiplen  (relax) |      3.53185087  |     91.60073076  |    -88.06887989  | 
 |                  |                  |                  |                  |
 | ydiplen  (unrel) |     -0.00018873  |     -0.00019810  |      0.00000936  | 
 | ydiplen  (relax) |     -0.00020521  |     -0.00021458  |      0.00000936  | 
 |                  |                  |                  |                  |
 | zdiplen  (unrel) |      0.24036955  |      2.12021709  |     -1.87984754  | 
 | zdiplen  (relax) |      0.23577646  |      2.11562400  |     -1.87984754  | 
 |                  |                  |                  |                  |
 +===========================================================================+


     Analysis of relaxed properties:
     ===============================


     dipole moment:
     --------------

     x      3.53185087
     y     -0.00020521
     z      0.23577646

     | dipole moment | =      3.53971201 a.u. =      8.99704966 debye
 

    --------------------------------------------------------------------------


     Analysis of unrelaxed properties:
     =================================


     dipole moment:
     --------------

     x      3.71394276
     y     -0.00018873
     z      0.24036955

     | dipole moment | =      3.72171310 a.u. =      9.45965023 debye
 
 ==============================================================================
                              MP2 COSMO RESULTS
 ==============================================================================
  PARAMETER:
[...]
 | E_exci (ground to x state)      |     0.23631902  |
 | Correction for fast part of RF  |    -0.00129770  |
 | Correction for update of eq. RF |     0.00007883  |
 +---------------------------------+-----------------+


  +=========================================================================+
  |  Excited state reached by transition:                   model: ADC(2)   |
  |    number, symmetry, multiplicity:   10 a    1                          |
  |    frequency :   0.2439483083 a.u.     6.63817 e.V.     53540.5 rcm     |
  +=========================================================================+

      Total energy of excited state:    -491.1781172691

   +-----------------+-----------------+-----------------+-----------------+
   | operator        | expect. value   | electr. contrib.| diff to gr.st.  |
   +-----------------+-----------------+-----------------+-----------------+
   | xdiplen (unrel) |      2.86857822 |     90.93745811 |     -0.84536454 |
   | xdiplen (relax) |      2.48378946 |     90.55266935 |       ---       |
   | ydiplen (unrel) |      0.00240705 |      0.00239769 |      0.00259579 |
   | ydiplen (relax) |      0.00211345 |      0.00210409 |       ---       |
   | zdiplen (unrel) |      0.12734832 |      2.00719587 |     -0.11302123 |
   | zdiplen (relax) |      0.13999893 |      2.01984647 |       ---       |
   +-----------------+-----------------+-----------------+-----------------+


     Analysis of relaxed properties:
     ===============================


     dipole moment:
     --------------

     x      2.48378946
     y      0.00211345
     z      0.13999893

     | dipole moment | =      2.48773275 a.u. =      6.32318535 debye
 


     Analysis of unrelaxed properties:
     =================================


     dipole moment:
     --------------

     x      2.86857822
     y      0.00240705
     z      0.12734832

     | dipole moment | =      2.87140460 a.u. =      7.29838181 debye
 

 +---------------------------------+-----------------+
 |   Nonequilibrium solvation      |                 |
 +---------------------------------+-----------------+
 |   E_x_(y) is the total free energy of target      |
 |   state x in the reaction field (RF)              |
 |   equilibrated for state y                        |
 +---------------------------------+-----------------+
 | E_x_(y)                         |  -491.18100795  |
 | E_x_(y) (+OCC)                  |  -491.18336532  |
 | Outlying charge correction(OCC) |    -0.00235737  |
 | E_SCF with RF of state y        |  -489.41850029  |
 | E_corr (ground state)           |    -2.00383838  |
 | E_exci (ground to x state)      |     0.24394831  |
 | Correction for fast part of RF  |    -0.00253144  |
 | Correction for update of eq. RF |    -0.00008616  |
 +---------------------------------+-----------------+


  +=========================================================================+
  |  Excited state reached by transition:                   model: ADC(2)   |
  |    number, symmetry, multiplicity:   11 a    1                          |
  |    frequency :   0.2538721019 a.u.     6.90821 e.V.     55718.5 rcm     |
  +=========================================================================+

      Total energy of excited state:    -491.1681934755

   +-----------------+-----------------+-----------------+-----------------+
   | operator        | expect. value   | electr. contrib.| diff to gr.st.  |
   +-----------------+-----------------+-----------------+-----------------+
   | xdiplen (unrel) |      6.73044710 |     94.79932700 |      3.01650434 |
   | xdiplen (relax) |      6.23737475 |     94.30625465 |       ---       |
   | ydiplen (unrel) |     -0.00003884 |     -0.00004820 |      0.00014989 |
   | ydiplen (relax) |     -0.00013120 |     -0.00014056 |       ---       |
   | zdiplen (unrel) |      0.20558043 |      2.08542797 |     -0.03478912 |
   | zdiplen (relax) |      0.21460735 |      2.09445489 |       ---       |
   +-----------------+-----------------+-----------------+-----------------+


     Analysis of relaxed properties:
     ===============================


     dipole moment:
     --------------

     x      6.23737475
     y     -0.00013120
     z      0.21460735

     | dipole moment | =      6.24106563 a.u. =     15.86320502 debye
 


     Analysis of unrelaxed properties:
     =================================


     dipole moment:
     --------------

     x      6.73044710
     y     -0.00003884
     z      0.20558043

     | dipole moment | =      6.73358608 a.u. =     17.11506703 debye
 

 +---------------------------------+-----------------+
 |   Nonequilibrium solvation      |                 |
 +---------------------------------+-----------------+
 |   E_x_(y) is the total free energy of target      |
 |   state x in the reaction field (RF)              |
 |   equilibrated for state y                        |
 +---------------------------------+-----------------+
 | E_x_(y)                         |  -491.16979901  |
 | E_x_(y) (+OCC)                  |  -491.17019763  |
 | Outlying charge correction(OCC) |    -0.00039862  |
 | E_SCF with RF of state y        |  -489.41850029  |
 | E_corr (ground state)           |    -2.00383838  |
 | E_exci (ground to x state)      |     0.25387210  |
 | Correction for fast part of RF  |    -0.00295537  |
 | Correction for update of eq. RF |     0.00162292  |
 +---------------------------------+-----------------+


  +=========================================================================+
  |  Excited state reached by transition:                   model: ADC(2)   |
  |    number, symmetry, multiplicity:   12 a    1                          |
  |    frequency :   0.2561861010 a.u.     6.97118 e.V.     56226.3 rcm     |
  +=========================================================================+

      Total energy of excited state:    -491.1658794764

   +-----------------+-----------------+-----------------+-----------------+
   | operator        | expect. value   | electr. contrib.| diff to gr.st.  |
   +-----------------+-----------------+-----------------+-----------------+
   | xdiplen (unrel) |      4.09937413 |     92.16825402 |      0.38543137 |
   | xdiplen (relax) |      3.60228513 |     91.67116503 |       ---       |
   | ydiplen (unrel) |     -0.00158124 |     -0.00159061 |     -0.00139251 |
   | ydiplen (relax) |     -0.00130460 |     -0.00131396 |       ---       |
   | zdiplen (unrel) |      0.20003584 |      2.07988338 |     -0.04033371 |
   | zdiplen (relax) |      0.20171367 |      2.08156121 |       ---       |
   +-----------------+-----------------+-----------------+-----------------+


     Analysis of relaxed properties:
     ===============================


     dipole moment:
     --------------

     x      3.60228513
     y     -0.00130460
     z      0.20171367

     | dipole moment | =      3.60792853 a.u. =      9.17043874 debye
 


     Analysis of unrelaxed properties:
     =================================


     dipole moment:
     --------------

     x      4.09937413
     y     -0.00158124
     z      0.20003584

     | dipole moment | =      4.10425208 a.u. =     10.43196724 debye
 

 +---------------------------------+-----------------+
 |   Nonequilibrium solvation      |                 |
 +---------------------------------+-----------------+
 |   E_x_(y) is the total free energy of target      |
 |   state x in the reaction field (RF)              |
 |   equilibrated for state y                        |
 +---------------------------------+-----------------+
 | E_x_(y)                         |  -491.16628727  |
 | E_x_(y) (+OCC)                  |  -491.16654890  |
 | Outlying charge correction(OCC) |    -0.00026163  |
 | E_SCF with RF of state y        |  -489.41850029  |
 | E_corr (ground state)           |    -2.00383838  |
 | E_exci (ground to x state)      |     0.25618610  |
 | Correction for fast part of RF  |    -0.00011853  |
 | Correction for update of eq. RF |    -0.00001618  |
 +---------------------------------+-----------------+


  +=========================================================================+
  |  Excited state reached by transition:                   model: ADC(2)   |
  |    number, symmetry, multiplicity:   13 a    1                          |
  |    frequency :   0.2565564140 a.u.     6.98126 e.V.     56307.6 rcm     |
  +=========================================================================+

      Total energy of excited state:    -491.1655091635

   +-----------------+-----------------+-----------------+-----------------+
   | operator        | expect. value   | electr. contrib.| diff to gr.st.  |
   +-----------------+-----------------+-----------------+-----------------+
   | xdiplen (unrel) |      4.53653002 |     92.60540991 |      0.82258726 |
   | xdiplen (relax) |      4.02620381 |     92.09508370 |       ---       |
   | ydiplen (unrel) |     -0.00182916 |     -0.00183852 |     -0.00164042 |
   | ydiplen (relax) |     -0.00164544 |     -0.00165481 |       ---       |
   | zdiplen (unrel) |      0.22266701 |      2.10251456 |     -0.01770254 |
   | zdiplen (relax) |      0.22601469 |      2.10586223 |       ---       |
   +-----------------+-----------------+-----------------+-----------------+


     Analysis of relaxed properties:
     ===============================


     dipole moment:
     --------------

     x      4.02620381
     y     -0.00164544
     z      0.22601469

     | dipole moment | =      4.03254292 a.u. =     10.24970077 debye
 


     Analysis of unrelaxed properties:
     =================================


     dipole moment:
     --------------

     x      4.53653002
     y     -0.00182916
     z      0.22266701

     | dipole moment | =      4.54199169 a.u. =     11.54459026 debye
 

 +---------------------------------+-----------------+
 |   Nonequilibrium solvation      |                 |
 +---------------------------------+-----------------+
 |   E_x_(y) is the total free energy of target      |
 |   state x in the reaction field (RF)              |
 |   equilibrated for state y                        |
 +---------------------------------+-----------------+
 | E_x_(y)                         |  -491.16752577  |
 | E_x_(y) (+OCC)                  |  -491.16898923  |
 | Outlying charge correction(OCC) |    -0.00146347  |
 | E_SCF with RF of state y        |  -489.41850029  |
 | E_corr (ground state)           |    -2.00383838  |
 | E_exci (ground to x state)      |     0.25655641  |
 | Correction for fast part of RF  |    -0.00149814  |
 | Correction for update of eq. RF |    -0.00024538  |
 +---------------------------------+-----------------+


  +=========================================================================+
  |  Excited state reached by transition:                   model: ADC(2)   |
  |    number, symmetry, multiplicity:   14 a    1                          |
  |    frequency :   0.2705652738 a.u.     7.36246 e.V.     59382.2 rcm     |
  +=========================================================================+

      Total energy of excited state:    -491.1515003037

   +-----------------+-----------------+-----------------+-----------------+
   | operator        | expect. value   | electr. contrib.| diff to gr.st.  |
   +-----------------+-----------------+-----------------+-----------------+
   | xdiplen (unrel) |      3.48420042 |     91.55308031 |     -0.22974234 |
   | xdiplen (relax) |      3.19907684 |     91.26795673 |       ---       |
   | ydiplen (unrel) |     -0.00027744 |     -0.00028680 |     -0.00008870 |
   | ydiplen (relax) |     -0.00025315 |     -0.00026251 |       ---       |
   | zdiplen (unrel) |      0.17682758 |      2.05667512 |     -0.06354197 |
   | zdiplen (relax) |      0.17635406 |      2.05620161 |       ---       |
   +-----------------+-----------------+-----------------+-----------------+


     Analysis of relaxed properties:
     ===============================


     dipole moment:
     --------------

     x      3.19907684
     y     -0.00025315
     z      0.17635406

     | dipole moment | =      3.20393406 a.u. =      8.14358730 debye
 


     Analysis of unrelaxed properties:
     =================================


     dipole moment:
     --------------

     x      3.48420042
     y     -0.00027744
     z      0.17682758

     | dipole moment | =      3.48868466 a.u. =      8.86735107 debye
 

 +---------------------------------+-----------------+
 |   Nonequilibrium solvation      |                 |
 +---------------------------------+-----------------+
 |   E_x_(y) is the total free energy of target      |
 |   state x in the reaction field (RF)              |
 |   equilibrated for state y                        |
 +---------------------------------+-----------------+
 | E_x_(y)                         |  -491.15226278  |
 | E_x_(y) (+OCC)                  |  -491.15237334  |
 | Outlying charge correction(OCC) |    -0.00011055  |
 | E_SCF with RF of state y        |  -489.41850029  |
 | E_corr (ground state)           |    -2.00383838  |
 | E_exci (ground to x state)      |     0.27056527  |
 | Correction for fast part of RF  |    -0.00066511  |
 | Correction for update of eq. RF |     0.00017572  |
 +---------------------------------+-----------------+


  +=========================================================================+
  |  Excited state reached by transition:                   model: ADC(2)   |
  |    number, symmetry, multiplicity:   15 a    1                          |
  |    frequency :   0.2720831947 a.u.     7.40376 e.V.     59715.4 rcm     |
  +=========================================================================+

      Total energy of excited state:    -491.1499823827

   +-----------------+-----------------+-----------------+-----------------+
   | operator        | expect. value   | electr. contrib.| diff to gr.st.  |
   +-----------------+-----------------+-----------------+-----------------+
   | xdiplen (unrel) |      7.30781438 |     95.37669427 |      3.59387162 |
   | xdiplen (relax) |      6.60551366 |     94.67439355 |       ---       |
   | ydiplen (unrel) |     -0.00141798 |     -0.00142734 |     -0.00122924 |
   | ydiplen (relax) |     -0.00132497 |     -0.00133434 |       ---       |
   | zdiplen (unrel) |      0.12646807 |      2.00631562 |     -0.11390148 |
   | zdiplen (relax) |      0.13590364 |      2.01575118 |       ---       |
   +-----------------+-----------------+-----------------+-----------------+


     Analysis of relaxed properties:
     ===============================


     dipole moment:
     --------------

     x      6.60551366
     y     -0.00132497
     z      0.13590364

     | dipole moment | =      6.60691171 a.u. =     16.79309291 debye
 


     Analysis of unrelaxed properties:
     =================================


     dipole moment:
     --------------

     x      7.30781438
     y     -0.00141798
     z      0.12646807

     | dipole moment | =      7.30890875 a.u. =     18.57739126 debye
 

 +---------------------------------+-----------------+
 |   Nonequilibrium solvation      |                 |
 +---------------------------------+-----------------+
 |   E_x_(y) is the total free energy of target      |
 |   state x in the reaction field (RF)              |
 |   equilibrated for state y                        |
 +---------------------------------+-----------------+
 | E_x_(y)                         |  -491.15206514  |
 | E_x_(y) (+OCC)                  |  -491.15373508  |
 | Outlying charge correction(OCC) |    -0.00166994  |
 | E_SCF with RF of state y        |  -489.41850029  |
 | E_corr (ground state)           |    -2.00383838  |
 | E_exci (ground to x state)      |     0.27208319  |
 | Correction for fast part of RF  |    -0.00319329  |
 | Correction for update of eq. RF |     0.00138362  |
 +---------------------------------+-----------------+
 Exporting excited state densities


 =============================================
 | SUMMARY OF RELAXED EXCITATIONS WITH COSMO |
 =============================================

 Explanation of the quantities below:

       E(diff)_x = E_x - E*_y
       E(exci)_x = E_x - E_gs

  E_x  : noneq.        energy of state x
  E*_y : eq.           energy of state y
  E_gs : noneq. or eq. energy of groundstate
  OCC  : outlying charge correction

 The * in column 'sym' marks the equilibrated state

 +=================================================================================+
 | sym | multi | state | COSMO-ADC(2) energy differences                           |
 |     |       |       +-----------------------------------------------------------+
 |     |       |       | E(Total)/au. |  E(diff)/eV  |  E(exci)/eV  |E(exc(OCC))/eV|
 +=================================================================================+
 |*a   |   1   |   0   | -491.4223387 |            - |            - |            - |
 +-----+-------+-------+--------------+--------------+--------------+--------------+
 | a   |   1   |   1   | -491.2850425 |      3.73602 |      3.73602 |      3.73603 |
 +-----+-------+-------+--------------+--------------+--------------+--------------+
 | a   |   1   |   2   | -491.2854848 |      3.72398 |      3.72398 |      3.71796 |
 +-----+-------+-------+--------------+--------------+--------------+--------------+
 | a   |   1   |   3   | -491.2563916 |      4.51565 |      4.51565 |      4.51512 |
 +-----+-------+-------+--------------+--------------+--------------+--------------+
 | a   |   1   |   4   | -491.2528272 |      4.61264 |      4.61264 |      4.61213 |
 +-----+-------+-------+--------------+--------------+--------------+--------------+
 | a   |   1   |   5   | -491.2274603 |      5.30291 |      5.30291 |      5.30019 |
 +-----+-------+-------+--------------+--------------+--------------+--------------+
 | a   |   1   |   6   | -491.2119705 |      5.72441 |      5.72441 |      5.71028 |
 +-----+-------+-------+--------------+--------------+--------------+--------------+
 | a   |   1   |   7   | -491.2093550 |      5.79558 |      5.79558 |      5.79494 |
 +-----+-------+-------+--------------+--------------+--------------+--------------+
 | a   |   1   |   8   | -491.2001615 |      6.04575 |      6.04575 |      6.04555 |
 +-----+-------+-------+--------------+--------------+--------------+--------------+
 | a   |   1   |   9   | -491.1872385 |      6.39740 |      6.39740 |      6.38785 |
 +-----+-------+-------+--------------+--------------+--------------+--------------+
 | a   |   1   |  10   | -491.1810080 |      6.56694 |      6.56694 |      6.50910 |
 +-----+-------+-------+--------------+--------------+--------------+--------------+
 | a   |   1   |  11   | -491.1697990 |      6.87195 |      6.87195 |      6.86741 |
 +-----+-------+-------+--------------+--------------+--------------+--------------+
 | a   |   1   |  12   | -491.1662873 |      6.96751 |      6.96751 |      6.96669 |
 +-----+-------+-------+--------------+--------------+--------------+--------------+
 | a   |   1   |  13   | -491.1675258 |      6.93381 |      6.93381 |      6.90029 |
 +-----+-------+-------+--------------+--------------+--------------+--------------+
 | a   |   1   |  14   | -491.1522628 |      7.34914 |      7.34914 |      7.35243 |
 +-----+-------+-------+--------------+--------------+--------------+--------------+
 | a   |   1   |  15   | -491.1520651 |      7.35452 |      7.35452 |      7.31538 |
 +=================================================================================+



    ------------------------------------------------------------------------
         total  cpu-time : 14 hours 41 minutes and 37 seconds
         total wall-time : 16 hours 18 minutes and 33 seconds
    ------------------------------------------------------------------------


   ****  ricc2 : all done  ****


    2023-03-29 06:53:35.617 

